                         Program Version 5.0.0 -  RELEASE  -
|  1> !LC-BLYP RIJCOSX def2-SVPD def2/J TightSCF xyzfile
|  2>
|  3> *xyzfile 0 1 B.xyz
|  4>
|  5> %MaxCore 64000
|  6>
|  7> %pal nprocs 4
|  8> end
|  9>
| 10> %scf
| 11>   MaxIter 150
| 12> end
| 13>
| 14>
| 15>                          ****END OF INPUT****

CARTESIAN COORDINATES (ANGSTROEM)
---------------------------------
  C     -0.701686    4.072499   -4.003920
  N      0.680528    4.614820   -4.048005
  C      1.444422    5.266576   -0.975463
  O      1.565248    4.233493   -1.864885
  H      0.699926    5.584890   -4.388272
  H      1.278044    4.055977   -4.668235
  H      1.085729    4.533581   -3.106524
  C     -1.703475    5.093197   -3.477396
  H     -0.995895    3.740394   -5.000654
  H     -0.643580    3.201910   -3.351533
  C     -1.313997    5.785995   -2.169271
  H     -1.877057    5.850103   -4.251154
  H     -2.653264    4.564475   -3.354796
  H     -2.097137    6.509395   -1.929558
  H     -0.416875    6.387594   -2.339097
  C     -1.073895    4.844728   -0.979904
  H     -1.968893    4.809608   -0.352568
  C      0.148120    5.210874   -0.138092
  H     -0.909754    3.827531   -1.338975
  H      1.474250    6.264638   -1.476917
  H      2.289622    5.303267   -0.264450
  H      0.261827    4.450942    0.640711
  H     -0.002516    6.171031    0.371483

 Total Charge           Charge          ....    0
 Multiplicity           Mult            ....    1
 Number of Electrons    NEL             ....   66
 Basis Dimension        Dim             ....  283

ORBITAL ENERGIES
----------------

  NO   OCC          E(Eh)            E(eV)
   0   2.0000     -18.825900      -512.2788
   1   2.0000     -14.265597      -388.1866
   2   2.0000     -10.150753      -276.2160
   3   2.0000     -10.106411      -275.0094
   4   2.0000     -10.081410      -274.3291
   5   2.0000     -10.071039      -274.0469
   6   2.0000     -10.059756      -273.7399
   7   2.0000     -10.042053      -273.2582
   8   2.0000      -1.083114       -29.4730
   9   2.0000      -0.978232       -26.6190
  10   2.0000      -0.915190       -24.9036
  11   2.0000      -0.850618       -23.1465
  12   2.0000      -0.799078       -21.7440
  13   2.0000      -0.741505       -20.1774
  14   2.0000      -0.693989       -18.8844
  15   2.0000      -0.676723       -18.4146
  16   2.0000      -0.674592       -18.3566
  17   2.0000      -0.624137       -16.9836
  18   2.0000      -0.595452       -16.2031
  19   2.0000      -0.570507       -15.5243
  20   2.0000      -0.563888       -15.3442
  21   2.0000      -0.523929       -14.2568
  22   2.0000      -0.512972       -13.9587
  23   2.0000      -0.496615       -13.5136
  24   2.0000      -0.478186       -13.0121
  25   2.0000      -0.456610       -12.4250
  26   2.0000      -0.450120       -12.2484
  27   2.0000      -0.430889       -11.7251
  28   2.0000      -0.408110       -11.1052
  29   2.0000      -0.400309       -10.8930
  30   2.0000      -0.390627       -10.6295
  31   2.0000      -0.277332        -7.5466
  32   2.0000      -0.273830        -7.4513
  33   0.0000       0.043703         1.1892
  34   0.0000       0.075010         2.0411
  35   0.0000       0.080846         2.1999
  36   0.0000       0.097221         2.6455
  37   0.0000       0.115587         3.1453

MULLIKEN ATOMIC CHARGES
-----------------------
   0 C :    0.852626
   1 N :    0.095581
   2 C :    0.569199
   3 O :   -0.500216
   4 H :    0.335831
   5 H :    0.282032
   6 H :   -0.711653
   7 C :    0.343076
   8 H :   -0.395425
   9 H :    0.002512
  10 C :    0.337395
  11 H :   -0.069063
  12 H :   -0.227902
  13 H :   -0.338041
  14 H :   -0.140513
  15 C :    0.281210
  16 H :   -0.346310
  17 C :    0.389335
  18 H :   -0.028040
  19 H :    0.120825
  20 H :   -0.540978
  21 H :   -0.061081
  22 H :   -0.250400
Sum of atomic charges:    0.0000000

LOEWDIN ATOMIC CHARGES
----------------------
   0 C :    0.065177
   1 N :    0.320330
   2 C :   -0.099811
   3 O :   -0.369579
   4 H :    0.087392
   5 H :    0.091414
   6 H :   -0.210176
   7 C :   -0.030619
   8 H :    0.032317
   9 H :    0.038846
  10 C :   -0.025858
  11 H :    0.027386
  12 H :    0.036943
  13 H :    0.026772
  14 H :   -0.002333
  15 C :   -0.034405
  16 H :    0.020883
  17 C :   -0.040679
  18 H :    0.004075
  19 H :    0.002458
  20 H :    0.012480
  21 H :    0.024545
  22 H :    0.022441

  Mayer bond orders larger than 0.100000
B(  0-C ,  1-N ) :   0.8643 B(  0-C ,  7-C ) :   1.1878 B(  0-C ,  8-H ) :   0.8225
B(  0-C ,  9-H ) :   0.6883 B(  0-C , 11-H ) :   0.1441 B(  0-C , 12-H ) :   0.1554
B(  1-N ,  4-H ) :   0.7735 B(  1-N ,  5-H ) :   0.8135 B(  1-N ,  6-H ) :   1.3861
B(  1-N ,  8-H ) :   0.1126 B(  1-N ,  9-H ) :   0.1730 B(  2-C ,  3-O ) :   1.1499
B(  2-C , 17-C ) :   1.1125 B(  2-C , 19-H ) :   0.7362 B(  2-C , 20-H ) :   0.9740
B(  2-C , 21-H ) :   0.1313 B(  2-C , 22-H ) :   0.1099 B(  3-O ,  6-H ) :   0.5332
B(  3-O , 20-H ) :  -0.1206 B(  4-H ,  6-H ) :  -0.1129 B(  7-C ,  8-H ) :   0.1200
B(  7-C ,  9-H ) :   0.1455 B(  7-C , 10-C ) :   1.2245 B(  7-C , 11-H ) :   0.6682
B(  7-C , 12-H ) :   0.8476 B(  7-C , 13-H ) :   0.1429 B(  7-C , 14-H ) :   0.1220
B(  8-H ,  9-H ) :  -0.1909 B( 10-C , 11-H ) :   0.2244 B( 10-C , 13-H ) :   0.6886
B( 10-C , 14-H ) :   0.8198 B( 10-C , 15-C ) :   1.1817 B( 10-C , 16-H ) :   0.2382
B( 10-C , 17-C ) :   0.1014 B( 13-H , 15-C ) :   0.1674 B( 14-H , 15-C ) :   0.1412
B( 15-C , 16-H ) :   0.7805 B( 15-C , 17-C ) :   1.2600 B( 15-C , 18-H ) :   0.7694
B( 15-C , 21-H ) :   0.2498 B( 15-C , 22-H ) :   0.1287 B( 16-H , 18-H ) :  -0.1121
B( 17-C , 18-H ) :   0.1323 B( 17-C , 19-H ) :   0.1222 B( 17-C , 20-H ) :   0.1745
B( 17-C , 21-H ) :   0.6429 B( 17-C , 22-H ) :   0.8582 B( 19-H , 20-H ) :  -0.1417

FINAL SINGLE POINT ENERGY      -366.377302129776

DIPOLE MOMENT
-------------
                                X             Y             Z
Electronic contribution:      1.97020      -1.48790      -1.27971
Nuclear contribution   :     -3.16446       1.92310      -1.11926
                        -----------------------------------------
Total Dipole Moment    :     -1.19426       0.43521      -2.39897
                        -----------------------------------------
Magnitude (a.u.)       :      2.71490
Magnitude (Debye)      :      6.90074

Rotational constants in cm-1:     0.085554     0.055600     0.038553
Rotational constants in MHz :  2564.854379  1666.836664  1155.798427

                             ****ORCA TERMINATED NORMALLY****
TOTAL RUN TIME: 0 days 0 hours 1 minutes 14 seconds 551 msec
