                         Program Version 5.0.0 -  RELEASE  -
|  1> !LC-BLYP RIJCOSX def2-SVPD def2/J TightSCF
|  2> *xyz 0 1
|  3> C          1.44442        5.26658       -0.97546
|  4> F          1.56525        4.23349       -1.86489
|  5> C          0.14812        5.21087       -0.13809
|  6> H          1.47425        6.26464       -1.47692
|  7> H          2.28962        5.30327       -0.26445
|  8> H         -0.69779        5.17417       -0.79230
|  9> H          0.08430        6.08276        0.47887
| 10> H          0.15965        4.33708        0.47938
| 11> *
| 12> %MaxCore 64000
| 13>
| 14> %pal nprocs 4
| 15> end
| 16>
| 17> %scf
| 18>   MaxIter 150
| 19> end
| 20>
| 21>
| 22>                          ****END OF INPUT****

CARTESIAN COORDINATES (ANGSTROEM)
---------------------------------
  C      1.444420    5.266580   -0.975460
  F      1.565250    4.233490   -1.864890
  C      0.148120    5.210870   -0.138090
  H      1.474250    6.264640   -1.476920
  H      2.289620    5.303270   -0.264450
  H     -0.697790    5.174170   -0.792300
  H      0.084300    6.082760    0.478870
  H      0.159650    4.337080    0.479380

 Total Charge           Charge          ....    0
 Multiplicity           Mult            ....    1
 Number of Electrons    NEL             ....   26
 Basis Dimension        Dim             ....  103

ORBITAL ENERGIES
----------------

  NO   OCC          E(Eh)            E(eV)
   0   2.0000     -24.465025      -665.7272
   1   2.0000     -10.167547      -276.6730
   2   2.0000     -10.084031      -274.4004
   3   2.0000      -1.266517       -34.4637
   4   2.0000      -0.868356       -23.6292
   5   2.0000      -0.735920       -20.0254
   6   2.0000      -0.616875       -16.7860
   7   2.0000      -0.604289       -16.4435
   8   2.0000      -0.565017       -15.3749
   9   2.0000      -0.508735       -13.8434
  10   2.0000      -0.503886       -13.7114
  11   2.0000      -0.438112       -11.9216
  12   2.0000      -0.429376       -11.6839
  13   0.0000       0.073811         2.0085
  14   0.0000       0.104374         2.8402
  15   0.0000       0.134581         3.6621
  16   0.0000       0.139768         3.8033
  17   0.0000       0.168524         4.5858

MULLIKEN ATOMIC CHARGES
-----------------------
   0 C :    0.447025
   1 F :   -0.372878
   2 C :    0.597919
   3 H :   -0.115431
   4 H :   -0.149937
   5 H :   -0.149569
   6 H :   -0.115921
   7 H :   -0.141208
Sum of atomic charges:    0.0000000

LOEWDIN ATOMIC CHARGES
----------------------
   0 C :    0.032352
   1 F :   -0.197517
   2 C :    0.127304
   3 H :    0.038797
   4 H :    0.032029
   5 H :   -0.011131
   6 H :   -0.009825
   7 H :   -0.012009

  Mayer bond orders larger than 0.100000
B(  0-C ,  1-F ) :   0.8670 B(  0-C ,  2-C ) :   1.3126 B(  0-C ,  3-H ) :   0.9199
B(  0-C ,  4-H ) :   0.9214 B(  0-C ,  5-H ) :   0.1663 B(  0-C ,  6-H ) :   0.1401
B(  0-C ,  7-H ) :   0.1591 B(  2-C ,  5-H ) :   0.8442 B(  2-C ,  6-H ) :   0.8150
B(  2-C ,  7-H ) :   0.8460

FINAL SINGLE POINT ENERGY      -178.539454914976

DIPOLE MOMENT
-------------
                                X             Y             Z
Electronic contribution:      2.29553      -2.71064      -3.67270
Nuclear contribution   :     -2.43357       3.25919       4.19687
                        -----------------------------------------
Total Dipole Moment    :     -0.13804       0.54855       0.52417
                        -----------------------------------------
Magnitude (a.u.)       :      0.77118
Magnitude (Debye)      :      1.96019

Rotational constants in cm-1:     1.264662     0.300144     0.266170
Rotational constants in MHz : 37913.611527  8998.095216  7979.576054

                             ****ORCA TERMINATED NORMALLY****
TOTAL RUN TIME: 0 days 0 hours 0 minutes 9 seconds 875 msec
