                         Program Version 5.0.0 -  RELEASE  -
|  1> !LC-BLYP RIJCOSX def2-SVPD def2/J TightSCF
|  2> *xyz 0 1
|  3> C         -0.70169        4.07250       -4.00392
|  4> C          0.68053        4.61482       -4.04800
|  5> H          0.69993        5.58489       -4.38827
|  6> H          1.27804        4.05598       -4.66824
|  7> H          1.08573        4.53358       -3.10652
|  8> C         -1.70347        5.09320       -3.47740
|  9> H         -0.99590        3.74039       -5.00065
| 10> H         -0.64358        3.20191       -3.35153
| 11> H         -1.73704        5.93384       -4.13853
| 12> H         -1.40338        5.41759       -2.50291
| 13> H         -2.67335        4.64479       -3.42108
| 14> *
| 15> %MaxCore 64000
| 16>
| 17> %pal nprocs 4
| 18> end
| 19>
| 20> %scf
| 21>   MaxIter 150
| 22> end
| 23>
| 24>
| 25>                          ****END OF INPUT****

CARTESIAN COORDINATES (ANGSTROEM)
---------------------------------
  C     -0.701690    4.072500   -4.003920
  C      0.680530    4.614820   -4.048000
  H      0.699930    5.584890   -4.388270
  H      1.278040    4.055980   -4.668240
  H      1.085730    4.533580   -3.106520
  C     -1.703470    5.093200   -3.477400
  H     -0.995900    3.740390   -5.000650
  H     -0.643580    3.201910   -3.351530
  H     -1.737040    5.933840   -4.138530
  H     -1.403380    5.417590   -2.502910
  H     -2.673350    4.644790   -3.421080

 Total Charge           Charge          ....    0
 Multiplicity           Mult            ....    1
 Number of Electrons    NEL             ....   26
 Basis Dimension        Dim             ....  124

ORBITAL ENERGIES
----------------

  NO   OCC          E(Eh)            E(eV)
   0   2.0000     -10.071776      -274.0670
   1   2.0000     -10.063775      -273.8492
   2   2.0000     -10.047344      -273.4021
   3   2.0000      -0.896375       -24.3916
   4   2.0000      -0.793472       -21.5915
   5   2.0000      -0.687476       -18.7072
   6   2.0000      -0.577691       -15.7198
   7   2.0000      -0.551459       -15.0060
   8   2.0000      -0.505125       -13.7451
   9   2.0000      -0.492619       -13.4048
  10   2.0000      -0.436590       -11.8802
  11   2.0000      -0.432766       -11.7762
  12   2.0000      -0.422672       -11.5015
  13   0.0000       0.078901         2.1470
  14   0.0000       0.105437         2.8691
  15   0.0000       0.112928         3.0729
  16   0.0000       0.142840         3.8869
  17   0.0000       0.161824         4.4035

MULLIKEN ATOMIC CHARGES
-----------------------
   0 C :   -0.419104
   1 C :    1.162572
   2 H :   -0.309352
   3 H :   -0.276506
   4 H :   -0.227561
   5 C :    0.853637
   6 H :   -0.199262
   7 H :   -0.164848
   8 H :   -0.110796
   9 H :   -0.133413
  10 H :   -0.175366
Sum of atomic charges:   -0.0000000

LOEWDIN ATOMIC CHARGES
----------------------
   0 C :   -0.132092
   1 C :    0.101804
   2 H :   -0.026773
   3 H :   -0.030339
   4 H :   -0.024832
   5 C :    0.104707
   6 H :    0.025235
   7 H :    0.025110
   8 H :   -0.013261
   9 H :   -0.011657
  10 H :   -0.017902

  Mayer bond orders larger than 0.100000
B(  0-C ,  1-C ) :   1.2953 B(  0-C ,  2-H ) :   0.2070 B(  0-C ,  3-H ) :   0.2463
B(  0-C ,  4-H ) :   0.3088 B(  0-C ,  5-C ) :   1.2797 B(  0-C ,  6-H ) :   0.9078
B(  0-C ,  7-H ) :   0.8847 B(  0-C ,  8-H ) :   0.1835 B(  0-C ,  9-H ) :   0.2100
B(  0-C , 10-H ) :   0.2244 B(  1-C ,  2-H ) :   0.6496 B(  1-C ,  3-H ) :   0.6170
B(  1-C ,  4-H ) :   0.5922 B(  1-C ,  7-H ) :   0.1485 B(  5-C ,  8-H ) :   0.7822
B(  5-C ,  9-H ) :   0.7786 B(  5-C , 10-H ) :   0.7593

FINAL SINGLE POINT ENERGY      -118.651990383456

DIPOLE MOMENT
-------------
                                X             Y             Z
Electronic contribution:     -0.13691      -0.31407      -0.13779
Nuclear contribution   :      0.16058       0.27975       0.12812
                        -----------------------------------------
Total Dipole Moment    :      0.02367      -0.03432      -0.00967
                        -----------------------------------------
Magnitude (a.u.)       :      0.04280
Magnitude (Debye)      :      0.10878

Rotational constants in cm-1:     1.027122     0.293327     0.260229
Rotational constants in MHz : 30792.337141  8793.723318  7801.458329

                             ****ORCA TERMINATED NORMALLY****
TOTAL RUN TIME: 0 days 0 hours 0 minutes 13 seconds 121 msec
