                         Program Version 5.0.0 -  RELEASE  -
|  1> !wB97X-D3 RIJCOSX def2-TZVPD def2/J TightSCF
|  2> *xyz -1 1
|  3> C         -0.87096        0.24804       -2.66280
|  4> C         -0.47749        0.60819       -4.10105
|  5> H          0.20677        1.45830       -4.11875
|  6> H         -1.36844        0.92942       -4.64785
|  7> C          0.18467       -0.50664       -4.91676
|  8> O         -0.15869       -1.70109       -4.65798
|  9> O          1.05594       -0.17441       -5.74037
| 10> C          0.10016       -0.67355       -1.91581
| 11> H         -1.00105        1.18104       -2.10407
| 12> H         -1.84465       -0.24659       -2.66328
| 13> H          0.22336       -1.58297       -2.46597
| 14> H         -0.29270       -0.89423       -0.94532
| 15> H          1.04759       -0.18666       -1.81480
| 16> *
| 17>
| 18> %MaxCore 64000
| 19>
| 20> %pal nprocs 18
| 21> end
| 22>
| 23> %scf
| 24>   MaxIter 150
| 25> end
| 26>
| 27>
| 28>                          ****END OF INPUT****

CARTESIAN COORDINATES (ANGSTROEM)
---------------------------------
  C     -0.870960    0.248040   -2.662800
  C     -0.477490    0.608190   -4.101050
  H      0.206770    1.458300   -4.118750
  H     -1.368440    0.929420   -4.647850
  C      0.184670   -0.506640   -4.916760
  O     -0.158690   -1.701090   -4.657980
  O      1.055940   -0.174410   -5.740370
  C      0.100160   -0.673550   -1.915810
  H     -1.001050    1.181040   -2.104070
  H     -1.844650   -0.246590   -2.663280
  H      0.223360   -1.582970   -2.465970
  H     -0.292700   -0.894230   -0.945320
  H      1.047590   -0.186660   -1.814800

 Total Charge           Charge          ....   -1
 Multiplicity           Mult            ....    1
 Number of Electrons    NEL             ....   48
 Basis Dimension        Dim             ....  291

ORBITAL ENERGIES
----------------

  NO   OCC          E(Eh)            E(eV)
   0   2.0000     -18.968667      -516.1637
   1   2.0000     -18.965006      -516.0640
   2   2.0000     -10.162268      -276.5294
   3   2.0000     -10.125065      -275.5170
   4   2.0000     -10.106194      -275.0035
   5   2.0000     -10.102957      -274.9154
   6   2.0000      -0.939896       -25.5759
   7   2.0000      -0.844175       -22.9712
   8   2.0000      -0.748517       -20.3682
   9   2.0000      -0.654175       -17.8010
  10   2.0000      -0.554623       -15.0920
  11   2.0000      -0.424000       -11.5376
  12   2.0000      -0.405628       -11.0377
  13   2.0000      -0.393265       -10.7013
  14   2.0000      -0.354131        -9.6364
  15   2.0000      -0.330293        -8.9877
  16   2.0000      -0.311733        -8.4827
  17   2.0000      -0.298712        -8.1284
  18   2.0000      -0.286450        -7.7947
  19   2.0000      -0.270863        -7.3706
  20   2.0000      -0.255576        -6.9546
  21   2.0000      -0.143385        -3.9017
  22   2.0000      -0.138050        -3.7565
  23   2.0000      -0.126566        -3.4440
  24   0.0000       0.186905         5.0859
  25   0.0000       0.203801         5.5457
  26   0.0000       0.209894         5.7115
  27   0.0000       0.220508         6.0003
  28   0.0000       0.239820         6.5258

MULLIKEN ATOMIC CHARGES
-----------------------
   0 C :   -0.096014
   1 C :   -0.427830
   2 H :    0.241285
   3 H :    0.213365
   4 C :    0.447404
   5 O :   -0.773992
   6 O :   -0.768199
   7 C :   -1.281134
   8 H :    0.228018
   9 H :    0.237501
  10 H :    0.331536
  11 H :    0.331951
  12 H :    0.316112
Sum of atomic charges:   -1.0000000

LOEWDIN ATOMIC CHARGES
----------------------
   0 C :   -0.271924
   1 C :   -0.164266
   2 H :    0.093622
   3 H :    0.099553
   4 C :   -0.752513
   5 O :   -0.118684
   6 O :   -0.096477
   7 C :   -0.126787
   8 H :    0.085803
   9 H :    0.093401
  10 H :    0.048735
  11 H :    0.047803
  12 H :    0.061735

  Mayer bond orders larger than 0.100000
B(  0-C ,  1-C ) :   0.8278 B(  0-C ,  7-C ) :   0.6285 B(  0-C ,  8-H ) :   0.9776
B(  0-C ,  9-H ) :   0.9278 B(  1-C ,  2-H ) :   0.9719 B(  1-C ,  3-H ) :   0.9198
B(  1-C ,  4-C ) :   1.0239 B(  1-C ,  7-C ) :   0.1508 B(  4-C ,  5-O ) :   1.4196
B(  4-C ,  6-O ) :   1.4532 B(  7-C , 10-H ) :   0.9938 B(  7-C , 11-H ) :   0.9186
B(  7-C , 12-H ) :   0.9540

Dispersion correction           -0.003258802
FINAL SINGLE POINT ENERGY      -307.187098517421

DIPOLE MOMENT
-------------
                                X             Y             Z
Electronic contribution:      1.81086      -2.00171      -6.71244
Nuclear contribution   :     -2.71698       3.10699       8.64748
                        -----------------------------------------
Total Dipole Moment    :     -0.90613       1.10528       1.93504
                        -----------------------------------------
Magnitude (a.u.)       :      2.40563
Magnitude (Debye)      :      6.11464

Rotational constants in cm-1:     0.212307     0.084237     0.072775
Rotational constants in MHz :  6364.813744  2525.362351  2181.751235

                             ****ORCA TERMINATED NORMALLY****
TOTAL RUN TIME: 0 days 0 hours 0 minutes 28 seconds 492 msec
