                         Program Version 5.0.0 -  RELEASE  -
|  1> !wB97X-D3 RIJCOSX def2-TZVPD def2/J TightSCF
|  2> *xyz 1 1
|  3> C          2.48645       -2.67712       -2.56345
|  4> C          3.03764       -2.36672       -3.92351
|  5> N          2.28036       -2.45441       -4.96769
|  6> N          4.32174       -2.01793       -4.01664
|  7> H          4.87994       -1.91167       -3.17382
|  8> H          4.71015       -1.67088       -4.88356
|  9> H          1.27042       -2.41265       -4.86614
| 10> H          2.58183       -2.05528       -5.84688
| 11> C          2.49799       -1.46946       -1.61030
| 12> C          1.58284       -0.32199       -2.04262
| 13> H          2.19308       -1.83391       -0.62542
| 14> H          3.52336       -1.10398       -1.49039
| 15> H          1.47259       -3.05153       -2.69437
| 16> H          3.08320       -3.49064       -2.14147
| 17> H          1.88480        0.03130       -3.00642
| 18> H          1.65140        0.47571       -1.33278
| 19> H          0.57235       -0.67052       -2.09099
| 20> *
| 21>
| 22> %MaxCore 64000
| 23>
| 24> %pal nprocs 18
| 25> end
| 26>
| 27> %scf
| 28>   MaxIter 150
| 29> end
| 30>
| 31>
| 32>                          ****END OF INPUT****

CARTESIAN COORDINATES (ANGSTROEM)
---------------------------------
  C      2.486450   -2.677120   -2.563450
  C      3.037640   -2.366720   -3.923510
  N      2.280360   -2.454410   -4.967690
  N      4.321740   -2.017930   -4.016640
  H      4.879940   -1.911670   -3.173820
  H      4.710150   -1.670880   -4.883560
  H      1.270420   -2.412650   -4.866140
  H      2.581830   -2.055280   -5.846880
  C      2.497990   -1.469460   -1.610300
  C      1.582840   -0.321990   -2.042620
  H      2.193080   -1.833910   -0.625420
  H      3.523360   -1.103980   -1.490390
  H      1.472590   -3.051530   -2.694370
  H      3.083200   -3.490640   -2.141470
  H      1.884800    0.031300   -3.006420
  H      1.651400    0.475710   -1.332780
  H      0.572350   -0.670520   -2.090990

 Total Charge           Charge          ....    1
 Multiplicity           Mult            ....    1
 Number of Electrons    NEL             ....   48
 Basis Dimension        Dim             ....  321

ORBITAL ENERGIES
----------------

  NO   OCC          E(Eh)            E(eV)
   0   2.0000     -14.667169      -399.1140
   1   2.0000     -14.661927      -398.9713
   2   2.0000     -10.599490      -288.4268
   3   2.0000     -10.468864      -284.8723
   4   2.0000     -10.438272      -284.0398
   5   2.0000     -10.401082      -283.0278
   6   2.0000      -1.322861       -35.9969
   7   2.0000      -1.223655       -33.2973
   8   2.0000      -1.090111       -29.6634
   9   2.0000      -1.003472       -27.3059
  10   2.0000      -0.943819       -25.6826
  11   2.0000      -0.887606       -24.1530
  12   2.0000      -0.872344       -23.7377
  13   2.0000      -0.839687       -22.8490
  14   2.0000      -0.796256       -21.6672
  15   2.0000      -0.755726       -20.5643
  16   2.0000      -0.726543       -19.7703
  17   2.0000      -0.690506       -18.7896
  18   2.0000      -0.672647       -18.3037
  19   2.0000      -0.660259       -17.9666
  20   2.0000      -0.598944       -16.2981
  21   2.0000      -0.595133       -16.1944
  22   2.0000      -0.591449       -16.0941
  23   2.0000      -0.583269       -15.8715
  24   0.0000      -0.130419        -3.5489
  25   0.0000      -0.090298        -2.4571
  26   0.0000      -0.056097        -1.5265
  27   0.0000      -0.047584        -1.2948
  28   0.0000      -0.029596        -0.8054

MULLIKEN ATOMIC CHARGES
-----------------------
   0 C :   -0.404520
   1 C :    0.508290
   2 N :   -0.386759
   3 N :   -0.397838
   4 H :    0.263819
   5 H :    0.217201
   6 H :    0.286304
   7 H :    0.236268
   8 C :   -0.256241
   9 C :   -1.315423
  10 H :    0.292263
  11 H :    0.326450
  12 H :    0.313278
  13 H :    0.287254
  14 H :    0.334768
  15 H :    0.345238
  16 H :    0.349648
Sum of atomic charges:    1.0000000

LOEWDIN ATOMIC CHARGES
----------------------
   0 C :   -0.112150
   1 C :   -0.356055
   2 N :    0.230612
   3 N :    0.224578
   4 H :    0.147106
   5 H :    0.145600
   6 H :    0.156759
   7 H :    0.150932
   8 C :   -0.229640
   9 C :   -0.083745
  10 H :    0.122980
  11 H :    0.107448
  12 H :    0.128706
  13 H :    0.141040
  14 H :    0.066806
  15 H :    0.080840
  16 H :    0.078183

  Mayer bond orders larger than 0.100000
B(  0-C ,  1-C ) :   0.7622 B(  0-C ,  8-C ) :   0.7982 B(  0-C , 12-H ) :   0.9302
B(  0-C , 13-H ) :   0.9775 B(  1-C ,  2-N ) :   1.2673 B(  1-C ,  3-N ) :   1.1777
B(  1-C ,  8-C ) :   0.1709 B(  1-C ,  9-C ) :   0.1825 B(  2-N ,  6-H ) :   0.9108
B(  2-N ,  7-H ) :   0.9713 B(  3-N ,  4-H ) :   0.9356 B(  3-N ,  5-H ) :   1.0106
B(  8-C ,  9-C ) :   0.7024 B(  8-C , 10-H ) :   0.9555 B(  8-C , 11-H ) :   0.8579
B(  9-C , 14-H ) :   0.9252 B(  9-C , 15-H ) :   0.9383 B(  9-C , 16-H ) :   0.9442

Dispersion correction           -0.004659375
FINAL SINGLE POINT ENERGY      -268.375267139407

DIPOLE MOMENT
-------------
                                X             Y             Z
Electronic contribution:      2.36961      -2.80967      -4.28058
Nuclear contribution   :     -1.82438       2.64851       2.98450
                        -----------------------------------------
Total Dipole Moment    :      0.54522      -0.16116      -1.29608
                        -----------------------------------------
Magnitude (a.u.)       :      1.41529
Magnitude (Debye)      :      3.59739

Rotational constants in cm-1:     0.176712     0.077069     0.069669
Rotational constants in MHz :  5297.698588  2310.466480  2088.633881

                             ****ORCA TERMINATED NORMALLY****
TOTAL RUN TIME: 0 days 0 hours 0 minutes 30 seconds 216 msec
