                         Program Version 5.0.0 -  RELEASE  -
|  1> !wB97X-D3 RIJCOSX def2-TZVPD def2/J TightSCF
|  2> *xyz 0 1
|  3> C         -0.87096        0.24804       -2.66280
|  4> C         -0.47749        0.60819       -4.10105
|  5> H          0.20677        1.45830       -4.11875
|  6> H         -1.36844        0.92942       -4.64785
|  7> C          0.18467       -0.50664       -4.91676
|  8> F         -0.15869       -1.70109       -4.65798
|  9> O          1.05594       -0.17441       -5.74037
| 10> C          0.10016       -0.67355       -1.91581
| 11> H         -1.00105        1.18104       -2.10407
| 12> H         -1.84465       -0.24659       -2.66328
| 13> H          0.22336       -1.58297       -2.46597
| 14> H         -0.29270       -0.89423       -0.94532
| 15> H          1.04759       -0.18666       -1.81480
| 16> *
| 17>
| 18> %MaxCore 64000
| 19>
| 20> %pal nprocs 18
| 21> end
| 22>
| 23> %scf
| 24>   MaxIter 150
| 25> end
| 26>
| 27>
| 28>                          ****END OF INPUT****

CARTESIAN COORDINATES (ANGSTROEM)
---------------------------------
  C     -0.870960    0.248040   -2.662800
  C     -0.477490    0.608190   -4.101050
  H      0.206770    1.458300   -4.118750
  H     -1.368440    0.929420   -4.647850
  C      0.184670   -0.506640   -4.916760
  F     -0.158690   -1.701090   -4.657980
  O      1.055940   -0.174410   -5.740370
  C      0.100160   -0.673550   -1.915810
  H     -1.001050    1.181040   -2.104070
  H     -1.844650   -0.246590   -2.663280
  H      0.223360   -1.582970   -2.465970
  H     -0.292700   -0.894230   -0.945320
  H      1.047590   -0.186660   -1.814800

 Total Charge           Charge          ....    0
 Multiplicity           Mult            ....    1
 Number of Electrons    NEL             ....   48
 Basis Dimension        Dim             ....  291

ORBITAL ENERGIES
----------------

  NO   OCC          E(Eh)            E(eV)
   0   2.0000     -24.851730      -676.2500
   1   2.0000     -19.237597      -523.4816
   2   2.0000     -10.455218      -284.5009
   3   2.0000     -10.306062      -280.4422
   4   2.0000     -10.291979      -280.0590
   5   2.0000     -10.267626      -279.3963
   6   2.0000      -1.427590       -38.8467
   7   2.0000      -1.155641       -31.4466
   8   2.0000      -0.932952       -25.3869
   9   2.0000      -0.844758       -22.9870
  10   2.0000      -0.768492       -20.9117
  11   2.0000      -0.727376       -19.7929
  12   2.0000      -0.650868       -17.7110
  13   2.0000      -0.643144       -17.5008
  14   2.0000      -0.596698       -16.2370
  15   2.0000      -0.577568       -15.7164
  16   2.0000      -0.550904       -14.9908
  17   2.0000      -0.518513       -14.1094
  18   2.0000      -0.505025       -13.7424
  19   2.0000      -0.473794       -12.8926
  20   2.0000      -0.459812       -12.5121
  21   2.0000      -0.450539       -12.2598
  22   2.0000      -0.432853       -11.7785
  23   2.0000      -0.388126       -10.5614
  24   0.0000       0.055425         1.5082
  25   0.0000       0.063233         1.7207
  26   0.0000       0.085748         2.3333
  27   0.0000       0.087686         2.3861
  28   0.0000       0.094935         2.5833

MULLIKEN ATOMIC CHARGES
-----------------------
   0 C :   -0.218823
   1 C :   -0.405493
   2 H :    0.276837
   3 H :    0.291464
   4 C :    0.596811
   5 F :   -0.243937
   6 O :   -0.580376
   7 C :   -1.311950
   8 H :    0.265723
   9 H :    0.287641
  10 H :    0.354423
  11 H :    0.337910
  12 H :    0.349769
Sum of atomic charges:   -0.0000000

LOEWDIN ATOMIC CHARGES
----------------------
   0 C :   -0.247873
   1 C :   -0.110146
   2 H :    0.122583
   3 H :    0.124668
   4 C :   -0.471396
   5 F :    0.184070
   6 O :    0.084148
   7 C :   -0.101407
   8 H :    0.108468
   9 H :    0.105856
  10 H :    0.057637
  11 H :    0.068852
  12 H :    0.074540

  Mayer bond orders larger than 0.100000
B(  0-C ,  1-C ) :   0.8654 B(  0-C ,  7-C ) :   0.5903 B(  0-C ,  8-H ) :   0.9611
B(  0-C ,  9-H ) :   0.9287 B(  1-C ,  2-H ) :   0.9595 B(  1-C ,  3-H ) :   0.8845
B(  1-C ,  4-C ) :   0.9743 B(  4-C ,  5-F ) :   0.9214 B(  4-C ,  6-O ) :   1.6595
B(  7-C , 10-H ) :   0.9442 B(  7-C , 11-H ) :   0.9372 B(  7-C , 12-H ) :   0.9539

Dispersion correction           -0.003208104
FINAL SINGLE POINT ENERGY      -331.755461809910

DIPOLE MOMENT
-------------
                                X             Y             Z
Electronic contribution:      1.73373      -4.32165      -8.47327
Nuclear contribution   :     -2.55684       4.59749       9.38828
                        -----------------------------------------
Total Dipole Moment    :     -0.82311       0.27585       0.91500
                        -----------------------------------------
Magnitude (a.u.)       :      1.26128
Magnitude (Debye)      :      3.20592

Rotational constants in cm-1:     0.200184     0.083263     0.071070
Rotational constants in MHz :  6001.373539  2496.169674  2130.635527

                             ****ORCA TERMINATED NORMALLY****
TOTAL RUN TIME: 0 days 0 hours 0 minutes 29 seconds 958 msec
