                         Program Version 5.0.0 -  RELEASE  -
|  1> !wB97X-D3 RIJCOSX def2-TZVPD def2/J TightSCF
|  2> *xyz 0 1
|  3> C          2.48645       -2.67712       -2.56345
|  4> C          3.03764       -2.36672       -3.92351
|  5> C          2.28036       -2.45441       -4.96769
|  6> N          4.32174       -2.01793       -4.01664
|  7> H          4.87994       -1.91167       -3.17382
|  8> H          4.71015       -1.67088       -4.88356
|  9> H          1.27042       -2.41265       -4.86614
| 10> H          2.58183       -2.05528       -5.84688
| 11> C          2.49799       -1.46946       -1.61030
| 12> C          1.58284       -0.32199       -2.04262
| 13> H          2.19308       -1.83391       -0.62542
| 14> H          3.52336       -1.10398       -1.49039
| 15> H          1.47259       -3.05153       -2.69437
| 16> H          3.08320       -3.49064       -2.14147
| 17> H          1.88480        0.03130       -3.00642
| 18> H          1.65140        0.47571       -1.33278
| 19> H          0.57235       -0.67052       -2.09099
| 20> *
| 21>
| 22> %MaxCore 64000
| 23>
| 24> %pal nprocs 18
| 25> end
| 26>
| 27> %scf
| 28>   MaxIter 150
| 29> end
| 30>
| 31>
| 32>                          ****END OF INPUT****

CARTESIAN COORDINATES (ANGSTROEM)
---------------------------------
  C      2.486450   -2.677120   -2.563450
  C      3.037640   -2.366720   -3.923510
  C      2.280360   -2.454410   -4.967690
  N      4.321740   -2.017930   -4.016640
  H      4.879940   -1.911670   -3.173820
  H      4.710150   -1.670880   -4.883560
  H      1.270420   -2.412650   -4.866140
  H      2.581830   -2.055280   -5.846880
  C      2.497990   -1.469460   -1.610300
  C      1.582840   -0.321990   -2.042620
  H      2.193080   -1.833910   -0.625420
  H      3.523360   -1.103980   -1.490390
  H      1.472590   -3.051530   -2.694370
  H      3.083200   -3.490640   -2.141470
  H      1.884800    0.031300   -3.006420
  H      1.651400    0.475710   -1.332780
  H      0.572350   -0.670520   -2.090990

 Total Charge           Charge          ....    0
 Multiplicity           Mult            ....    1
 Number of Electrons    NEL             ....   48
 Basis Dimension        Dim             ....  321

ORBITAL ENERGIES
----------------

  NO   OCC          E(Eh)            E(eV)
   0   2.0000     -14.421607      -392.4319
   1   2.0000     -10.296419      -280.1798
   2   2.0000     -10.274577      -279.5855
   3   2.0000     -10.272576      -279.5310
   4   2.0000     -10.253436      -279.0102
   5   2.0000     -10.201725      -277.6031
   6   2.0000      -1.042434       -28.3661
   7   2.0000      -0.910276       -24.7699
   8   2.0000      -0.854777       -23.2597
   9   2.0000      -0.799680       -21.7604
  10   2.0000      -0.710283       -19.3278
  11   2.0000      -0.670920       -18.2567
  12   2.0000      -0.627400       -17.0724
  13   2.0000      -0.573791       -15.6136
  14   2.0000      -0.552788       -15.0421
  15   2.0000      -0.549299       -14.9472
  16   2.0000      -0.494085       -13.4447
  17   2.0000      -0.486330       -13.2337
  18   2.0000      -0.466524       -12.6948
  19   2.0000      -0.462306       -12.5800
  20   2.0000      -0.430628       -11.7180
  21   2.0000      -0.417189       -11.3523
  22   2.0000      -0.413515       -11.2523
  23   2.0000      -0.285412        -7.7665
  24   0.0000       0.067278         1.8307
  25   0.0000       0.087023         2.3680
  26   0.0000       0.090218         2.4550
  27   0.0000       0.093761         2.5514
  28   0.0000       0.116710         3.1758

MULLIKEN ATOMIC CHARGES
-----------------------
   0 C :   -0.388552
   1 C :    0.595760
   2 C :   -1.349484
   3 N :   -0.470121
   4 H :    0.199188
   5 H :    0.174860
   6 H :    0.345096
   7 H :    0.335250
   8 C :   -0.248754
   9 C :   -1.270544
  10 H :    0.264878
  11 H :    0.294474
  12 H :    0.254240
  13 H :    0.270511
  14 H :    0.339800
  15 H :    0.333444
  16 H :    0.319954
Sum of atomic charges:   -0.0000000

LOEWDIN ATOMIC CHARGES
----------------------
   0 C :   -0.161293
   1 C :   -0.496914
   2 C :    0.005637
   3 N :    0.102897
   4 H :    0.105287
   5 H :    0.111549
   6 H :    0.031536
   7 H :    0.027143
   8 C :   -0.253453
   9 C :   -0.101325
  10 H :    0.103059
  11 H :    0.095852
  12 H :    0.113890
  13 H :    0.116913
  14 H :    0.066814
  15 H :    0.062911
  16 H :    0.069497

  Mayer bond orders larger than 0.100000
B(  0-C ,  1-C ) :   0.7803 B(  0-C ,  8-C ) :   0.8046 B(  0-C , 12-H ) :   0.9396
B(  0-C , 13-H ) :   0.9746 B(  1-C ,  2-C ) :   1.2772 B(  1-C ,  3-N ) :   1.0015
B(  1-C ,  7-H ) :  -0.1350 B(  1-C ,  8-C ) :   0.1466 B(  1-C ,  9-C ) :   0.1427
B(  2-C ,  3-N ) :   0.1050 B(  2-C ,  6-H ) :   0.9139 B(  2-C ,  7-H ) :   1.0399
B(  3-N ,  4-H ) :   0.9955 B(  3-N ,  5-H ) :   1.0045 B(  8-C ,  9-C ) :   0.7467
B(  8-C , 10-H ) :   0.9686 B(  8-C , 11-H ) :   0.8753 B(  9-C , 14-H ) :   0.9550
B(  9-C , 15-H ) :   0.9218 B(  9-C , 16-H ) :   0.9630

Dispersion correction           -0.004671683
FINAL SINGLE POINT ENERGY      -251.900339315995

DIPOLE MOMENT
-------------
                                X             Y             Z
Electronic contribution:      2.45283      -2.09538      -2.12276
Nuclear contribution   :     -1.92525       2.50924       2.56958
                        -----------------------------------------
Total Dipole Moment    :      0.52758       0.41385       0.44682
                        -----------------------------------------
Magnitude (a.u.)       :      0.80577
Magnitude (Debye)      :      2.04810

Rotational constants in cm-1:     0.181985     0.078726     0.071856
Rotational constants in MHz :  5455.785660  2360.157292  2154.177820

                             ****ORCA TERMINATED NORMALLY****
TOTAL RUN TIME: 0 days 0 hours 0 minutes 39 seconds 148 msec
