                         Program Version 5.0.0 -  RELEASE  -
|  1> !wB97X-D3 RIJCOSX def2-TZVPD def2/J TightSCF
|  2> *xyz 0 1
|  3> C         -0.87096        0.24804       -2.66280
|  4> C         -0.47749        0.60819       -4.10105
|  5> H          0.20677        1.45830       -4.11875
|  6> H         -1.36844        0.92942       -4.64785
|  7> C          0.18467       -0.50664       -4.91676
|  8> O         -0.15869       -1.70109       -4.65798
|  9> F          1.05594       -0.17441       -5.74037
| 10> C          0.10016       -0.67355       -1.91581
| 11> H         -1.00105        1.18104       -2.10407
| 12> H         -1.84465       -0.24659       -2.66328
| 13> H          0.22336       -1.58297       -2.46597
| 14> H         -0.29270       -0.89423       -0.94532
| 15> H          1.04759       -0.18666       -1.81480
| 16> *
| 17>
| 18> %MaxCore 64000
| 19>
| 20> %pal nprocs 18
| 21> end
| 22>
| 23> %scf
| 24>   MaxIter 150
| 25> end
| 26>
| 27>
| 28>                          ****END OF INPUT****

CARTESIAN COORDINATES (ANGSTROEM)
---------------------------------
  C     -0.870960    0.248040   -2.662800
  C     -0.477490    0.608190   -4.101050
  H      0.206770    1.458300   -4.118750
  H     -1.368440    0.929420   -4.647850
  C      0.184670   -0.506640   -4.916760
  O     -0.158690   -1.701090   -4.657980
  F      1.055940   -0.174410   -5.740370
  C      0.100160   -0.673550   -1.915810
  H     -1.001050    1.181040   -2.104070
  H     -1.844650   -0.246590   -2.663280
  H      0.223360   -1.582970   -2.465970
  H     -0.292700   -0.894230   -0.945320
  H      1.047590   -0.186660   -1.814800

 Total Charge           Charge          ....    0
 Multiplicity           Mult            ....    1
 Number of Electrons    NEL             ....   48
 Basis Dimension        Dim             ....  291

ORBITAL ENERGIES
----------------

  NO   OCC          E(Eh)            E(eV)
   0   2.0000     -24.861198      -676.5076
   1   2.0000     -19.234874      -523.4075
   2   2.0000     -10.458263      -284.5838
   3   2.0000     -10.307825      -280.4902
   4   2.0000     -10.286926      -279.9215
   5   2.0000     -10.254904      -279.0501
   6   2.0000      -1.445536       -39.3350
   7   2.0000      -1.142410       -31.0865
   8   2.0000      -0.926516       -25.2118
   9   2.0000      -0.844537       -22.9810
  10   2.0000      -0.774953       -21.0876
  11   2.0000      -0.720910       -19.6170
  12   2.0000      -0.658753       -17.9256
  13   2.0000      -0.638510       -17.3747
  14   2.0000      -0.613565       -16.6960
  15   2.0000      -0.571506       -15.5515
  16   2.0000      -0.553290       -15.0558
  17   2.0000      -0.513573       -13.9750
  18   2.0000      -0.494423       -13.4539
  19   2.0000      -0.458028       -12.4636
  20   2.0000      -0.452055       -12.3010
  21   2.0000      -0.438027       -11.9193
  22   2.0000      -0.433390       -11.7931
  23   2.0000      -0.385725       -10.4961
  24   0.0000       0.051850         1.4109
  25   0.0000       0.063977         1.7409
  26   0.0000       0.085360         2.3228
  27   0.0000       0.090751         2.4694
  28   0.0000       0.097256         2.6465

MULLIKEN ATOMIC CHARGES
-----------------------
   0 C :   -0.182071
   1 C :   -0.514104
   2 H :    0.323629
   3 H :    0.291137
   4 C :    0.670643
   5 O :   -0.590524
   6 F :   -0.247429
   7 C :   -1.346260
   8 H :    0.267091
   9 H :    0.279867
  10 H :    0.362542
  11 H :    0.338232
  12 H :    0.347248
Sum of atomic charges:   -0.0000000

LOEWDIN ATOMIC CHARGES
----------------------
   0 C :   -0.241388
   1 C :   -0.114539
   2 H :    0.114547
   3 H :    0.125080
   4 C :   -0.465355
   5 O :    0.056095
   6 F :    0.219855
   7 C :   -0.104078
   8 H :    0.107890
   9 H :    0.109016
  10 H :    0.054135
  11 H :    0.067767
  12 H :    0.070974

  Mayer bond orders larger than 0.100000
B(  0-C ,  1-C ) :   0.9063 B(  0-C ,  7-C ) :   0.6024 B(  0-C ,  8-H ) :   0.9551
B(  0-C ,  9-H ) :   0.9214 B(  1-C ,  2-H ) :   0.9091 B(  1-C ,  3-H ) :   0.8836
B(  1-C ,  4-C ) :   0.9867 B(  1-C ,  7-C ) :   0.1513 B(  4-C ,  5-O ) :   1.6264
B(  4-C ,  6-F ) :   0.9362 B(  7-C , 10-H ) :   0.9662 B(  7-C , 11-H ) :   0.9258
B(  7-C , 12-H ) :   0.9349

Dispersion correction           -0.003191827
FINAL SINGLE POINT ENERGY      -331.748915803001

DIPOLE MOMENT
-------------
                                X             Y             Z
Electronic contribution:      3.81684      -1.75210     -10.38835
Nuclear contribution   :     -3.92885       2.87300      10.61091
                        -----------------------------------------
Total Dipole Moment    :     -0.11202       1.12089       0.22256
                        -----------------------------------------
Magnitude (a.u.)       :      1.14825
Magnitude (Debye)      :      2.91863

Rotational constants in cm-1:     0.209332     0.079487     0.069375
Rotational constants in MHz :  6275.605762  2382.960864  2079.805430

                             ****ORCA TERMINATED NORMALLY****
TOTAL RUN TIME: 0 days 0 hours 0 minutes 26 seconds 86 msec
