                         Program Version 5.0.0 -  RELEASE  -
|  1> !wB97X-D3 RIJCOSX def2-TZVPD def2/J TightSCF
|  2> *xyz 0 1
|  3> C          2.48645       -2.67712       -2.56345
|  4> C          3.03764       -2.36672       -3.92351
|  5> N          2.28036       -2.45441       -4.96769
|  6> C          4.32174       -2.01793       -4.01664
|  7> H          4.87994       -1.91167       -3.17382
|  8> H          4.71015       -1.67088       -4.88356
|  9> H          1.27042       -2.41265       -4.86614
| 10> H          2.58183       -2.05528       -5.84688
| 11> C          2.49799       -1.46946       -1.61030
| 12> C          1.58284       -0.32199       -2.04262
| 13> H          2.19308       -1.83391       -0.62542
| 14> H          3.52336       -1.10398       -1.49039
| 15> H          1.47259       -3.05153       -2.69437
| 16> H          3.08320       -3.49064       -2.14147
| 17> H          1.88480        0.03130       -3.00642
| 18> H          1.65140        0.47571       -1.33278
| 19> H          0.57235       -0.67052       -2.09099
| 20> *
| 21>
| 22> %MaxCore 64000
| 23>
| 24> %pal nprocs 18
| 25> end
| 26>
| 27> %scf
| 28>   MaxIter 150
| 29> end
| 30>
| 31>
| 32>                          ****END OF INPUT****

CARTESIAN COORDINATES (ANGSTROEM)
---------------------------------
  C      2.486450   -2.677120   -2.563450
  C      3.037640   -2.366720   -3.923510
  N      2.280360   -2.454410   -4.967690
  C      4.321740   -2.017930   -4.016640
  H      4.879940   -1.911670   -3.173820
  H      4.710150   -1.670880   -4.883560
  H      1.270420   -2.412650   -4.866140
  H      2.581830   -2.055280   -5.846880
  C      2.497990   -1.469460   -1.610300
  C      1.582840   -0.321990   -2.042620
  H      2.193080   -1.833910   -0.625420
  H      3.523360   -1.103980   -1.490390
  H      1.472590   -3.051530   -2.694370
  H      3.083200   -3.490640   -2.141470
  H      1.884800    0.031300   -3.006420
  H      1.651400    0.475710   -1.332780
  H      0.572350   -0.670520   -2.090990

 Total Charge           Charge          ....    0
 Multiplicity           Mult            ....    1
 Number of Electrons    NEL             ....   48
 Basis Dimension        Dim             ....  321

ORBITAL ENERGIES
----------------

  NO   OCC          E(Eh)            E(eV)
   0   2.0000     -14.425214      -392.5300
   1   2.0000     -10.296921      -280.1935
   2   2.0000     -10.273315      -279.5511
   3   2.0000     -10.270985      -279.4877
   4   2.0000     -10.254627      -279.0426
   5   2.0000     -10.202771      -277.6315
   6   2.0000      -1.057860       -28.7858
   7   2.0000      -0.911562       -24.8049
   8   2.0000      -0.845683       -23.0122
   9   2.0000      -0.794742       -21.6260
  10   2.0000      -0.719811       -19.5870
  11   2.0000      -0.669357       -18.2141
  12   2.0000      -0.621712       -16.9176
  13   2.0000      -0.588748       -16.0206
  14   2.0000      -0.554225       -15.0812
  15   2.0000      -0.532877       -14.5003
  16   2.0000      -0.499058       -13.5801
  17   2.0000      -0.489198       -13.3118
  18   2.0000      -0.467759       -12.7284
  19   2.0000      -0.455021       -12.3817
  20   2.0000      -0.430178       -11.7057
  21   2.0000      -0.422433       -11.4950
  22   2.0000      -0.418811       -11.3964
  23   2.0000      -0.275505        -7.4969
  24   0.0000       0.067735         1.8432
  25   0.0000       0.086070         2.3421
  26   0.0000       0.091363         2.4861
  27   0.0000       0.093414         2.5419
  28   0.0000       0.114716         3.1216

MULLIKEN ATOMIC CHARGES
-----------------------
   0 C :   -0.401190
   1 C :    0.771380
   2 N :   -0.433890
   3 C :   -1.587501
   4 H :    0.346177
   5 H :    0.327873
   6 H :    0.239356
   7 H :    0.196566
   8 C :   -0.261534
   9 C :   -1.304460
  10 H :    0.283056
  11 H :    0.300761
  12 H :    0.293068
  13 H :    0.249974
  14 H :    0.324365
  15 H :    0.332153
  16 H :    0.323845
Sum of atomic charges:   -0.0000000

LOEWDIN ATOMIC CHARGES
----------------------
   0 C :   -0.160443
   1 C :   -0.503826
   2 N :    0.102049
   3 C :    0.018686
   4 H :    0.023261
   5 H :    0.019362
   6 H :    0.112364
   7 H :    0.116682
   8 C :   -0.250864
   9 C :   -0.104050
  10 H :    0.102973
  11 H :    0.102066
  12 H :    0.107793
  13 H :    0.119598
  14 H :    0.065231
  15 H :    0.063773
  16 H :    0.065344

  Mayer bond orders larger than 0.100000
B(  0-C ,  1-C ) :   0.6062 B(  0-C ,  8-C ) :   0.7461 B(  0-C ,  9-C ) :   0.1127
B(  0-C , 12-H ) :   1.0044 B(  0-C , 13-H ) :   0.9746 B(  1-C ,  2-N ) :   1.0390
B(  1-C ,  3-C ) :   1.0288 B(  1-C ,  5-H ) :  -0.1212 B(  1-C ,  8-C ) :   0.2172
B(  1-C ,  9-C ) :   0.1354 B(  2-N ,  3-C ) :   0.1358 B(  2-N ,  6-H ) :   0.9340
B(  2-N ,  7-H ) :   0.9615 B(  3-C ,  4-H ) :   0.9121 B(  3-C ,  5-H ) :   1.0258
B(  8-C ,  9-C ) :   0.6488 B(  8-C , 10-H ) :   0.9384 B(  8-C , 11-H ) :   0.9185
B(  9-C , 14-H ) :   0.9504 B(  9-C , 15-H ) :   0.9285 B(  9-C , 16-H ) :   0.9614

Dispersion correction           -0.004645989
FINAL SINGLE POINT ENERGY      -251.900798425589

DIPOLE MOMENT
-------------
                                X             Y             Z
Electronic contribution:      0.68891      -2.41035      -2.94279
Nuclear contribution   :     -1.44240       2.61248       2.79453
                        -----------------------------------------
Total Dipole Moment    :     -0.75349       0.20213      -0.14826
                        -----------------------------------------
Magnitude (a.u.)       :      0.79409
Magnitude (Debye)      :      2.01842

Rotational constants in cm-1:     0.182540     0.078634     0.071436
Rotational constants in MHz :  5472.425685  2357.397154  2141.608207

                             ****ORCA TERMINATED NORMALLY****
TOTAL RUN TIME: 0 days 0 hours 0 minutes 29 seconds 507 msec
