                         Program Version 5.0.0 -  RELEASE  -
|  1> !wB97X-D3 RIJCOSX def2-TZVPD def2/J TightSCF xyzfile
|  2>
|  3> *xyzfile 0 1 D3.xyz
|  4>
|  5> %MaxCore 64000
|  6>
|  7> %pal nprocs 18
|  8> end
|  9>
| 10> %scf
| 11>   MaxIter 150
| 12> end
| 13>
| 14>
| 15>                          ****END OF INPUT****

CARTESIAN COORDINATES (ANGSTROEM)
---------------------------------
  C      2.486452   -2.677121   -2.563447
  C     -0.870963    0.248043   -2.662804
  C     -0.477492    0.608191   -4.101052
  H      0.206773    1.458299   -4.118748
  H     -1.368442    0.929419   -4.647855
  C      0.184673   -0.506640   -4.916760
  C      3.037640   -2.366715   -3.923509
  C      2.280360   -2.454408   -4.967692
  N      4.321736   -2.017932   -4.016641
  H      4.879940   -1.911668   -3.173823
  H      4.710148   -1.670882   -4.883561
  H      1.270423   -2.412650   -4.866143
  H      2.581829   -2.055282   -5.846878
  O     -0.158685   -1.701088   -4.657981
  F      1.055938   -0.174410   -5.740373
  C      2.497991   -1.469464   -1.610303
  C      1.582841   -0.321986   -2.042619
  H      2.193083   -1.833912   -0.625420
  H      3.523356   -1.103982   -1.490392
  C      0.100160   -0.673551   -1.915815
  H      1.822311   -0.040361   -3.072834
  H      1.813180    0.557019   -1.433266
  H     -0.063284   -1.679120   -2.301112
  H     -0.168820   -0.691680   -0.853831
  H     -1.001048    1.181040   -2.104071
  H     -1.844645   -0.246592   -2.663281
  H      1.472592   -3.051527   -2.694366
  H      3.083201   -3.490638   -2.141472

 Total Charge           Charge          ....    0
 Multiplicity           Mult            ....    1
 Number of Electrons    NEL             ....   94
 Basis Dimension        Dim             ....  594

ORBITAL ENERGIES
----------------

  NO   OCC          E(Eh)            E(eV)
   0   2.0000     -24.860595      -676.4912
   1   2.0000     -19.233304      -523.3648
   2   2.0000     -14.407966      -392.0607
   3   2.0000     -10.459824      -284.6263
   4   2.0000     -10.307153      -280.4719
   5   2.0000     -10.286424      -279.9078
   6   2.0000     -10.278367      -279.6886
   7   2.0000     -10.271518      -279.5022
   8   2.0000     -10.271146      -279.4921
   9   2.0000     -10.268247      -279.4132
  10   2.0000     -10.263156      -279.2747
  11   2.0000     -10.172260      -276.8013
  12   2.0000      -1.445726       -39.3402
  13   2.0000      -1.149919       -31.2909
  14   2.0000      -1.028908       -27.9980
  15   2.0000      -0.939857       -25.5748
  16   2.0000      -0.906785       -24.6749
  17   2.0000      -0.857448       -23.3323
  18   2.0000      -0.833485       -22.6803
  19   2.0000      -0.792098       -21.5541
  20   2.0000      -0.763784       -20.7836
  21   2.0000      -0.723495       -19.6873
  22   2.0000      -0.684901       -18.6371
  23   2.0000      -0.669449       -18.2166
  24   2.0000      -0.655215       -17.8293
  25   2.0000      -0.634819       -17.2743
  26   2.0000      -0.623575       -16.9684
  27   2.0000      -0.609697       -16.5907
  28   2.0000      -0.580514       -15.7966
  29   2.0000      -0.571230       -15.5440
  30   2.0000      -0.554704       -15.0943
  31   2.0000      -0.539268       -14.6742
  32   2.0000      -0.532442       -14.4885
  33   2.0000      -0.500615       -13.6224
  34   2.0000      -0.494570       -13.4579
  35   2.0000      -0.492328       -13.3969
  36   2.0000      -0.473732       -12.8909
  37   2.0000      -0.461745       -12.5647
  38   2.0000      -0.452537       -12.3142
  39   2.0000      -0.448444       -12.2028
  40   2.0000      -0.429564       -11.6890
  41   2.0000      -0.422026       -11.4839
  42   2.0000      -0.408865       -11.1258
  43   2.0000      -0.403415       -10.9775
  44   2.0000      -0.402133       -10.9426
  45   2.0000      -0.360723        -9.8158
  46   2.0000      -0.268169        -7.2973
  47   0.0000       0.049660         1.3513
  48   0.0000       0.063107         1.7172
  49   0.0000       0.074316         2.0223
  50   0.0000       0.078078         2.1246
  51   0.0000       0.084275         2.2932

MULLIKEN ATOMIC CHARGES
-----------------------
   0 C :   -0.513943
   1 C :   -0.672018
   2 C :   -0.522974
   3 H :    0.397835
   4 H :    0.299832
   5 C :    0.621171
   6 C :    0.544822
   7 C :   -1.506562
   8 N :   -0.481454
   9 H :    0.184220
  10 H :    0.177987
  11 H :    0.682890
  12 H :    0.349299
  13 O :   -0.625029
  14 F :   -0.298157
  15 C :   -0.567059
  16 C :   -0.339360
  17 H :    0.295234
  18 H :    0.328097
  19 C :   -0.597883
  20 H :    0.195979
  21 H :    0.285435
  22 H :    0.237238
  23 H :    0.365980
  24 H :    0.290508
  25 H :    0.342791
  26 H :    0.167681
  27 H :    0.357440
Sum of atomic charges:   -0.0000000

LOEWDIN ATOMIC CHARGES
----------------------
   0 C :   -0.137953
   1 C :   -0.185705
   2 C :   -0.100706
   3 H :    0.117464
   4 H :    0.126536
   5 C :   -0.453891
   6 C :   -0.472632
   7 C :    0.006935
   8 N :    0.097405
   9 H :    0.100910
  10 H :    0.108983
  11 H :   -0.020499
  12 H :    0.039257
  13 O :    0.044965
  14 F :    0.226265
  15 C :   -0.193980
  16 C :   -0.196396
  17 H :    0.111430
  18 H :    0.101047
  19 C :   -0.207630
  20 H :    0.102485
  21 H :    0.116102
  22 H :    0.094557
  23 H :    0.118446
  24 H :    0.113622
  25 H :    0.113769
  26 H :    0.110136
  27 H :    0.119077

  Mayer bond orders larger than 0.100000
B(  0-C ,  6-C ) :   0.7666 B(  0-C ,  8-N ) :   0.1448 B(  0-C , 15-C ) :   0.8704
B(  0-C , 19-C ) :   0.1101 B(  0-C , 26-H ) :   0.9990 B(  0-C , 27-H ) :   0.8577
B(  1-C ,  2-C ) :   0.9569 B(  1-C , 16-C ) :   0.1956 B(  1-C , 19-C ) :   1.1305
B(  1-C , 22-H ) :   0.1148 B(  1-C , 24-H ) :   0.9355 B(  1-C , 25-H ) :   0.8746
B(  2-C ,  3-H ) :   0.8799 B(  2-C ,  4-H ) :   0.8738 B(  2-C ,  5-C ) :   0.9343
B(  2-C , 16-C ) :   0.1072 B(  5-C , 13-O ) :   1.7106 B(  5-C , 14-F ) :   0.8305
B(  6-C ,  7-C ) :   1.3662 B(  6-C ,  8-N ) :   0.9602 B(  6-C , 11-H ) :  -0.1413
B(  6-C , 12-H ) :  -0.1940 B(  6-C , 15-C ) :   0.1960 B(  7-C , 11-H ) :   0.6850
B(  7-C , 12-H ) :   1.1073 B(  8-N ,  9-H ) :   1.0148 B(  8-N , 10-H ) :   0.9903
B( 11-H , 13-O ) :  -0.1882 B( 15-C , 16-C ) :   1.0972 B( 15-C , 17-H ) :   0.9122
B( 15-C , 18-H ) :   0.8439 B( 15-C , 19-C ) :   0.4295 B( 16-C , 19-C ) :   0.4088
B( 16-C , 20-H ) :   0.9667 B( 16-C , 21-H ) :   0.9196 B( 19-C , 21-H ) :  -0.1086
B( 19-C , 22-H ) :   1.0086 B( 19-C , 23-H ) :   0.8237

Dispersion correction           -0.013534807
FINAL SINGLE POINT ENERGY      -582.423520979613

DIPOLE MOMENT
-------------
                                X             Y             Z
Electronic contribution:     -1.76516       0.92780     -12.10683
Nuclear contribution   :      1.88979       0.56282      12.66056
                        -----------------------------------------
Total Dipole Moment    :      0.12463       1.49062       0.55373
                        -----------------------------------------
Magnitude (a.u.)       :      1.59503
Magnitude (Debye)      :      4.05423

Rotational constants in cm-1:     0.040271     0.025954     0.018866
Rotational constants in MHz :  1207.302496   778.083475   565.600538

                             ****ORCA TERMINATED NORMALLY****
TOTAL RUN TIME: 0 days 0 hours 1 minutes 55 seconds 972 msec
