                         Program Version 5.0.0 -  RELEASE  -
|  1> !M062X D3Zero RIJCOSX def2-SVPD def2/J TightSCF
|  2> *xyz -1 1
|  3> C          1.72854        1.42432       -5.63944
|  4> S          2.25263       -0.18811       -6.27184
|  5> O          3.56261       -0.44446       -5.63155
|  6> O          2.34494       -0.03374       -7.69650
|  7> O          1.26606       -1.15918       -5.80536
|  8> H          0.77944        1.68154       -6.06127
|  9> H          2.45151        2.16548       -5.90944
| 10> H          1.64478        1.37937       -4.57367
| 11> *
| 12>
| 13> %MaxCore 64000
| 14>
| 15> %pal nprocs 8
| 16> end
| 17>
| 18> %scf
| 19>   MaxIter 150
| 20> end
| 21>
| 22>
| 23>                          ****END OF INPUT****

CARTESIAN COORDINATES (ANGSTROEM)
---------------------------------
  C      1.728540    1.424320   -5.639440
  S      2.252630   -0.188110   -6.271840
  O      3.562610   -0.444460   -5.631550
  O      2.344940   -0.033740   -7.696500
  O      1.266060   -1.159180   -5.805360
  H      0.779440    1.681540   -6.061270
  H      2.451510    2.165480   -5.909440
  H      1.644780    1.379370   -4.573670

 Total Charge           Charge          ....   -1
 Multiplicity           Mult            ....    1
 Number of Electrons    NEL             ....   50
 Basis Dimension        Dim             ....  140

ORBITAL ENERGIES
----------------

  NO   OCC          E(Eh)            E(eV)
   0   2.0000     -89.937502     -2447.3239
   1   2.0000     -19.418214      -528.3965
   2   2.0000     -19.412000      -528.2274
   3   2.0000     -19.403918      -528.0074
   4   2.0000     -10.405054      -283.1359
   5   2.0000      -8.260578      -224.7818
   6   2.0000      -6.185864      -168.3259
   7   2.0000      -6.185705      -168.3216
   8   2.0000      -6.185557      -168.3176
   9   2.0000      -1.046921       -28.4882
  10   2.0000      -0.902509       -24.5585
  11   2.0000      -0.878633       -23.9088
  12   2.0000      -0.670941       -18.2572
  13   2.0000      -0.470162       -12.7938
  14   2.0000      -0.382014       -10.3951
  15   2.0000      -0.364230        -9.9112
  16   2.0000      -0.363264        -9.8849
  17   2.0000      -0.322712        -8.7814
  18   2.0000      -0.320577        -8.7233
  19   2.0000      -0.225310        -6.1310
  20   2.0000      -0.223258        -6.0752
  21   2.0000      -0.185296        -5.0422
  22   2.0000      -0.175294        -4.7700
  23   2.0000      -0.169475        -4.6116
  24   2.0000      -0.134459        -3.6588
  25   0.0000       0.163436         4.4473
  26   0.0000       0.186131         5.0649
  27   0.0000       0.186811         5.0834
  28   0.0000       0.193073         5.2538
  29   0.0000       0.224533         6.1099

MULLIKEN ATOMIC CHARGES
-----------------------
   0 C :    0.451461
   1 S :    1.198233
   2 O :   -0.829021
   3 O :   -0.791911
   4 O :   -0.812324
   5 H :   -0.073803
   6 H :   -0.068120
   7 H :   -0.074515
Sum of atomic charges:   -1.0000000

LOEWDIN ATOMIC CHARGES
----------------------
   0 C :    0.061408
   1 S :    0.873495
   2 O :   -0.617978
   3 O :   -0.594430
   4 O :   -0.605378
   5 H :   -0.040234
   6 H :   -0.038468
   7 H :   -0.038414

  Mayer bond orders larger than 0.100000
B(  0-C ,  1-S ) :   0.9216 B(  0-C ,  5-H ) :   0.9297 B(  0-C ,  6-H ) :   0.9307
B(  0-C ,  7-H ) :   0.9344 B(  1-S ,  2-O ) :   1.2787 B(  1-S ,  3-O ) :   1.3064
B(  1-S ,  4-O ) :   1.2886 B(  1-S ,  5-H ) :   0.1104 B(  1-S ,  6-H ) :   0.1148
B(  1-S ,  7-H ) :   0.1194

Dispersion correction           -0.000044371
FINAL SINGLE POINT ENERGY      -663.359842080585

DIPOLE MOMENT
-------------
                                X             Y             Z
Electronic contribution:      1.17205      -3.78306      -1.59584
Nuclear contribution   :     -1.71379       5.17769       1.98321
                        -----------------------------------------
Total Dipole Moment    :     -0.54174       1.39463       0.38737
                        -----------------------------------------
Magnitude (a.u.)       :      1.54549
Magnitude (Debye)      :      3.92832

Rotational constants in cm-1:     0.172739     0.155771     0.153412
Rotational constants in MHz :  5178.588083  4669.889924  4599.189984

                             ****ORCA TERMINATED NORMALLY****
TOTAL RUN TIME: 0 days 0 hours 0 minutes 7 seconds 997 msec
