                         Program Version 5.0.0 -  RELEASE  -
|  1> !M062X D3Zero RIJCOSX def2-SVPD def2/J TightSCF
|  2> *xyz 1 1
|  3> C          2.91632       -1.24259       -1.54313
|  4> C          3.46659       -1.59097       -2.88908
|  5> N          4.65227       -1.14316       -3.25969
|  6> N          2.75226       -2.29204       -3.72803
|  7> H          1.77836       -2.48960       -3.51274
|  8> H          2.94861       -2.20854       -4.71681
|  9> H          5.14672       -0.51251       -2.63385
| 10> H          4.78303       -1.00720       -4.25350
| 11> H          1.95294       -1.69278       -1.42424
| 12> H          2.82618       -0.17973       -1.45886
| 13> H          3.57606       -1.60596       -0.78312
| 14> *
| 15>
| 16> %MaxCore 64000
| 17>
| 18> %pal nprocs 8
| 19> end
| 20>
| 21> %scf
| 22>   MaxIter 150
| 23> end
| 24>
| 25>
| 26>                          ****END OF INPUT****

CARTESIAN COORDINATES (ANGSTROEM)
---------------------------------
  C      2.916320   -1.242590   -1.543130
  C      3.466590   -1.590970   -2.889080
  N      4.652270   -1.143160   -3.259690
  N      2.752260   -2.292040   -3.728030
  H      1.778360   -2.489600   -3.512740
  H      2.948610   -2.208540   -4.716810
  H      5.146720   -0.512510   -2.633850
  H      4.783030   -1.007200   -4.253500
  H      1.952940   -1.692780   -1.424240
  H      2.826180   -0.179730   -1.458860
  H      3.576060   -1.605960   -0.783120

 Total Charge           Charge          ....    1
 Multiplicity           Mult            ....    1
 Number of Electrons    NEL             ....   32
 Basis Dimension        Dim             ....  136

ORBITAL ENERGIES
----------------

  NO   OCC          E(Eh)            E(eV)
   0   2.0000     -15.019261      -408.6949
   1   2.0000     -15.013662      -408.5425
   2   2.0000     -10.890855      -296.3552
   3   2.0000     -10.753740      -292.6241
   4   2.0000      -1.320081       -35.9212
   5   2.0000      -1.212204       -32.9857
   6   2.0000      -1.047605       -28.5068
   7   2.0000      -0.926466       -25.2104
   8   2.0000      -0.853954       -23.2373
   9   2.0000      -0.849561       -23.1177
  10   2.0000      -0.775969       -21.1152
  11   2.0000      -0.742480       -20.2039
  12   2.0000      -0.686985       -18.6938
  13   2.0000      -0.672460       -18.2986
  14   2.0000      -0.644904       -17.5487
  15   2.0000      -0.568440       -15.4680
  16   0.0000      -0.189124        -5.1463
  17   0.0000      -0.141538        -3.8514
  18   0.0000      -0.098643        -2.6842
  19   0.0000      -0.095094        -2.5876
  20   0.0000      -0.072071        -1.9612

MULLIKEN ATOMIC CHARGES
-----------------------
   0 C :    0.516984
   1 C :    0.233145
   2 N :   -0.007441
   3 N :   -0.016337
   4 H :    0.067899
   5 H :   -0.050094
   6 H :    0.067871
   7 H :   -0.035456
   8 H :    0.073868
   9 H :    0.062267
  10 H :    0.087293
Sum of atomic charges:    1.0000000

LOEWDIN ATOMIC CHARGES
----------------------
   0 C :    0.239095
   1 C :   -0.066387
   2 N :    0.271420
   3 N :    0.275847
   4 H :    0.059403
   5 H :    0.052165
   6 H :    0.060473
   7 H :    0.047447
   8 H :    0.008505
   9 H :    0.026606
  10 H :    0.025426

  Mayer bond orders larger than 0.100000
B(  0-C ,  1-C ) :   1.3532 B(  0-C ,  8-H ) :   0.7827 B(  0-C ,  9-H ) :   0.8392
B(  0-C , 10-H ) :   0.7043 B(  1-C ,  2-N ) :   1.1033 B(  1-C ,  3-N ) :   1.0631
B(  1-C ,  5-H ) :  -0.1403 B(  1-C ,  8-H ) :   0.2440 B(  1-C ,  9-H ) :   0.1261
B(  1-C , 10-H ) :   0.2284 B(  2-N ,  3-N ) :   0.1658 B(  2-N ,  6-H ) :   1.0153
B(  2-N ,  7-H ) :   1.1701 B(  3-N ,  4-H ) :   1.0309 B(  3-N ,  5-H ) :   1.2138
B(  4-H ,  5-H ) :  -0.1400 B(  6-H ,  7-H ) :  -0.1265

Dispersion correction           -0.000085086
FINAL SINGLE POINT ENERGY      -189.482859112095

DIPOLE MOMENT
-------------
                                X             Y             Z
Electronic contribution:      0.89172      -0.73181      -1.79849
Nuclear contribution   :     -1.03256       1.11747       1.26949
                        -----------------------------------------
Total Dipole Moment    :     -0.14085       0.38566      -0.52900
                        -----------------------------------------
Magnitude (a.u.)       :      0.66964
Magnitude (Debye)      :      1.70208

Rotational constants in cm-1:     0.336859     0.298586     0.163958
Rotational constants in MHz : 10098.776812  8951.369850  4915.333652

                             ****ORCA TERMINATED NORMALLY****
TOTAL RUN TIME: 0 days 0 hours 0 minutes 7 seconds 330 msec
