                         Program Version 5.0.0 -  RELEASE  -
|  1> !M062X D3Zero RIJCOSX def2-SVPD def2/J TightSCF
|  2> *xyz 0 1
|  3> C          1.72854        1.42432       -5.63944
|  4> S          2.25263       -0.18811       -6.27184
|  5> F          3.56261       -0.44446       -5.63155
|  6> O          2.34494       -0.03374       -7.69650
|  7> O          1.26606       -1.15918       -5.80536
|  8> H          0.77944        1.68154       -6.06127
|  9> H          2.45151        2.16548       -5.90944
| 10> H          1.64478        1.37937       -4.57367
| 11> *
| 12>
| 13> %MaxCore 64000
| 14>
| 15> %pal nprocs 8
| 16> end
| 17>
| 18> %scf
| 19>   MaxIter 150
| 20> end
| 21>
| 22>
| 23>                          ****END OF INPUT****

CARTESIAN COORDINATES (ANGSTROEM)
---------------------------------
  C      1.728540    1.424320   -5.639440
  S      2.252630   -0.188110   -6.271840
  F      3.562610   -0.444460   -5.631550
  O      2.344940   -0.033740   -7.696500
  O      1.266060   -1.159180   -5.805360
  H      0.779440    1.681540   -6.061270
  H      2.451510    2.165480   -5.909440
  H      1.644780    1.379370   -4.573670

 Total Charge           Charge          ....    0
 Multiplicity           Mult            ....    1
 Number of Electrons    NEL             ....   50
 Basis Dimension        Dim             ....  140

ORBITAL ENERGIES
----------------

  NO   OCC          E(Eh)            E(eV)
   0   2.0000     -90.204587     -2454.5916
   1   2.0000     -25.365249      -690.2235
   2   2.0000     -19.659256      -534.9555
   3   2.0000     -19.652858      -534.7815
   4   2.0000     -10.616432      -288.8878
   5   2.0000      -8.528300      -232.0668
   6   2.0000      -6.456574      -175.6923
   7   2.0000      -6.451505      -175.5544
   8   2.0000      -6.450779      -175.5346
   9   2.0000      -1.490102       -40.5477
  10   2.0000      -1.239236       -33.7213
  11   2.0000      -1.137520       -30.9535
  12   2.0000      -0.895749       -24.3746
  13   2.0000      -0.804218       -21.8839
  14   2.0000      -0.687236       -18.7007
  15   2.0000      -0.671808       -18.2808
  16   2.0000      -0.645093       -17.5539
  17   2.0000      -0.562851       -15.3159
  18   2.0000      -0.557328       -15.1657
  19   2.0000      -0.540403       -14.7051
  20   2.0000      -0.521913       -14.2020
  21   2.0000      -0.471387       -12.8271
  22   2.0000      -0.419723       -11.4212
  23   2.0000      -0.409628       -11.1466
  24   2.0000      -0.396544       -10.7905
  25   0.0000       0.007318         0.1991
  26   0.0000       0.040379         1.0988
  27   0.0000       0.045463         1.2371
  28   0.0000       0.047090         1.2814
  29   0.0000       0.063682         1.7329

MULLIKEN ATOMIC CHARGES
-----------------------
   0 C :    0.364197
   1 S :    1.357190
   2 F :   -0.412206
   3 O :   -0.664030
   4 O :   -0.684829
   5 H :    0.007312
   6 H :    0.020105
   7 H :    0.012262
Sum of atomic charges:    0.0000000

LOEWDIN ATOMIC CHARGES
----------------------
   0 C :    0.133365
   1 S :    1.140253
   2 F :   -0.285222
   3 O :   -0.477436
   4 O :   -0.487453
   5 H :    0.000395
   6 H :   -0.011944
   7 H :   -0.011959

  Mayer bond orders larger than 0.100000
B(  0-C ,  1-S ) :   0.9880 B(  0-C ,  5-H ) :   0.9314 B(  0-C ,  6-H ) :   0.9326
B(  0-C ,  7-H ) :   0.9378 B(  1-S ,  2-F ) :   0.6197 B(  1-S ,  3-O ) :   1.5248
B(  1-S ,  4-O ) :   1.5041 B(  1-S ,  5-H ) :   0.1093

Dispersion correction           -0.000049445
FINAL SINGLE POINT ENERGY      -687.856628150016

DIPOLE MOMENT
-------------
                                X             Y             Z
Electronic contribution:      3.34561      -4.13958      -0.51021
Nuclear contribution   :     -3.03874       5.51823       1.39394
                        -----------------------------------------
Total Dipole Moment    :      0.30688       1.37865       0.88373
                        -----------------------------------------
Magnitude (a.u.)       :      1.66608
Magnitude (Debye)      :      4.23484

Rotational constants in cm-1:     0.164301     0.151617     0.146802
Rotational constants in MHz :  4925.615104  4545.361281  4401.017554

                             ****ORCA TERMINATED NORMALLY****
TOTAL RUN TIME: 0 days 0 hours 0 minutes 7 seconds 648 msec
