                         Program Version 5.0.0 -  RELEASE  -
|  1> !M062X D3Zero RIJCOSX def2-SVPD def2/J TightSCF
|  2> *xyz 0 1
|  3> C          2.91632       -1.24259       -1.54313
|  4> C          3.46659       -1.59097       -2.88908
|  5> C          4.65227       -1.14316       -3.25969
|  6> N          2.75226       -2.29204       -3.72803
|  7> H          1.77836       -2.48960       -3.51274
|  8> H          2.94861       -2.20854       -4.71681
|  9> H          5.14672       -0.51251       -2.63385
| 10> H          4.78303       -1.00720       -4.25350
| 11> H          1.95294       -1.69278       -1.42424
| 12> H          2.82618       -0.17973       -1.45886
| 13> H          3.57606       -1.60596       -0.78312
| 14> *
| 15>
| 16> %MaxCore 64000
| 17>
| 18> %pal nprocs 8
| 19> end
| 20>
| 21> %scf
| 22>   MaxIter 150
| 23> end
| 24>
| 25>
| 26>                          ****END OF INPUT****

CARTESIAN COORDINATES (ANGSTROEM)
---------------------------------
  C      2.916320   -1.242590   -1.543130
  C      3.466590   -1.590970   -2.889080
  C      4.652270   -1.143160   -3.259690
  N      2.752260   -2.292040   -3.728030
  H      1.778360   -2.489600   -3.512740
  H      2.948610   -2.208540   -4.716810
  H      5.146720   -0.512510   -2.633850
  H      4.783030   -1.007200   -4.253500
  H      1.952940   -1.692780   -1.424240
  H      2.826180   -0.179730   -1.458860
  H      3.576060   -1.605960   -0.783120

 Total Charge           Charge          ....    0
 Multiplicity           Mult            ....    1
 Number of Electrons    NEL             ....   32
 Basis Dimension        Dim             ....  136

ORBITAL ENERGIES
----------------

  NO   OCC          E(Eh)            E(eV)
   0   2.0000     -14.765807      -401.7980
   1   2.0000     -10.574795      -287.7548
   2   2.0000     -10.543905      -286.9142
   3   2.0000     -10.479821      -285.1704
   4   2.0000      -1.035981       -28.1905
   5   2.0000      -0.847708       -23.0673
   6   2.0000      -0.776900       -21.1405
   7   2.0000      -0.651393       -17.7253
   8   2.0000      -0.598600       -16.2887
   9   2.0000      -0.541600       -14.7377
  10   2.0000      -0.503891       -13.7116
  11   2.0000      -0.464329       -12.6350
  12   2.0000      -0.454137       -12.3577
  13   2.0000      -0.427153       -11.6234
  14   2.0000      -0.397920       -10.8280
  15   2.0000      -0.243520        -6.6265
  16   0.0000       0.037497         1.0204
  17   0.0000       0.069770         1.8986
  18   0.0000       0.072930         1.9845
  19   0.0000       0.078695         2.1414
  20   0.0000       0.110433         3.0050

MULLIKEN ATOMIC CHARGES
-----------------------
   0 C :    0.726898
   1 C :   -0.511997
   2 C :    0.349551
   3 N :    0.051013
   4 H :   -0.059370
   5 H :   -0.072378
   6 H :   -0.084389
   7 H :   -0.368064
   8 H :   -0.063149
   9 H :   -0.008640
  10 H :    0.040524
Sum of atomic charges:    0.0000000

LOEWDIN ATOMIC CHARGES
----------------------
   0 C :    0.171097
   1 C :   -0.295132
   2 C :    0.159920
   3 N :    0.153504
   4 H :    0.002837
   5 H :    0.009899
   6 H :   -0.078522
   7 H :   -0.089694
   8 H :   -0.025768
   9 H :   -0.003914
  10 H :   -0.004227

  Mayer bond orders larger than 0.100000
B(  0-C ,  1-C ) :   1.2191 B(  0-C ,  8-H ) :   0.7159 B(  0-C ,  9-H ) :   0.8333
B(  0-C , 10-H ) :   0.7090 B(  1-C ,  2-C ) :   2.0159 B(  1-C ,  3-N ) :   1.0247
B(  1-C ,  6-H ) :   0.1865 B(  1-C ,  7-H ) :   0.2110 B(  1-C ,  8-H ) :   0.3022
B(  1-C ,  9-H ) :   0.1239 B(  1-C , 10-H ) :   0.2427 B(  2-C ,  3-N ) :   0.2345
B(  2-C ,  6-H ) :   0.7546 B(  2-C ,  7-H ) :   0.8604 B(  3-N ,  4-H ) :   1.0621
B(  3-N ,  5-H ) :   1.1170 B(  4-H ,  5-H ) :  -0.1280 B(  6-H ,  7-H ) :   0.1023

Dispersion correction           -0.000083927
FINAL SINGLE POINT ENERGY      -173.029237295580

DIPOLE MOMENT
-------------
                                X             Y             Z
Electronic contribution:     -0.14858      -1.16863      -1.31083
Nuclear contribution   :     -0.76183       1.20997       1.18381
                        -----------------------------------------
Total Dipole Moment    :     -0.91041       0.04134      -0.12703
                        -----------------------------------------
Magnitude (a.u.)       :      0.92016
Magnitude (Debye)      :      2.33886

Rotational constants in cm-1:     0.357745     0.302571     0.170012
Rotational constants in MHz : 10724.926457  9070.849165  5096.845195

                             ****ORCA TERMINATED NORMALLY****
TOTAL RUN TIME: 0 days 0 hours 0 minutes 7 seconds 765 msec
