                         Program Version 5.0.0 -  RELEASE  -
|  1> !M062X D3Zero RIJCOSX def2-SVPD def2/J TightSCF
|  2> *xyz 0 1
|  3> C          1.72854        1.42432       -5.63944
|  4> S          2.25263       -0.18811       -6.27184
|  5> O          3.56261       -0.44446       -5.63155
|  6> F          2.34494       -0.03374       -7.69650
|  7> O          1.26606       -1.15918       -5.80536
|  8> H          0.77944        1.68154       -6.06127
|  9> H          2.45151        2.16548       -5.90944
| 10> H          1.64478        1.37937       -4.57367
| 11> *
| 12>
| 13> %MaxCore 64000
| 14>
| 15> %pal nprocs 8
| 16> end
| 17>
| 18> %scf
| 19>   MaxIter 150
| 20> end
| 21>
| 22>
| 23>                          ****END OF INPUT****

CARTESIAN COORDINATES (ANGSTROEM)
---------------------------------
  C      1.728540    1.424320   -5.639440
  S      2.252630   -0.188110   -6.271840
  O      3.562610   -0.444460   -5.631550
  F      2.344940   -0.033740   -7.696500
  O      1.266060   -1.159180   -5.805360
  H      0.779440    1.681540   -6.061270
  H      2.451510    2.165480   -5.909440
  H      1.644780    1.379370   -4.573670

 Total Charge           Charge          ....    0
 Multiplicity           Mult            ....    1
 Number of Electrons    NEL             ....   50
 Basis Dimension        Dim             ....  140

ORBITAL ENERGIES
----------------

  NO   OCC          E(Eh)            E(eV)
   0   2.0000     -90.206403     -2454.6410
   1   2.0000     -25.388072      -690.8445
   2   2.0000     -19.653301      -534.7935
   3   2.0000     -19.644971      -534.5668
   4   2.0000     -10.617438      -288.9152
   5   2.0000      -8.530340      -232.1224
   6   2.0000      -6.458842      -175.7540
   7   2.0000      -6.453275      -175.6025
   8   2.0000      -6.452579      -175.5836
   9   2.0000      -1.529084       -41.6085
  10   2.0000      -1.224753       -33.3272
  11   2.0000      -1.116924       -30.3930
  12   2.0000      -0.899894       -24.4874
  13   2.0000      -0.824076       -22.4242
  14   2.0000      -0.708828       -19.2882
  15   2.0000      -0.699244       -19.0274
  16   2.0000      -0.646520       -17.5927
  17   2.0000      -0.558023       -15.1846
  18   2.0000      -0.555531       -15.1168
  19   2.0000      -0.541516       -14.7354
  20   2.0000      -0.514428       -13.9983
  21   2.0000      -0.464028       -12.6268
  22   2.0000      -0.409626       -11.1465
  23   2.0000      -0.401847       -10.9348
  24   2.0000      -0.381573       -10.3831
  25   0.0000       0.004628         0.1259
  26   0.0000       0.038907         1.0587
  27   0.0000       0.044457         1.2097
  28   0.0000       0.047631         1.2961
  29   0.0000       0.064671         1.7598

MULLIKEN ATOMIC CHARGES
-----------------------
   0 C :    0.367004
   1 S :    1.341438
   2 O :   -0.687645
   3 F :   -0.391910
   4 O :   -0.670294
   5 H :    0.016632
   6 H :    0.020628
   7 H :    0.004148
Sum of atomic charges:   -0.0000000

LOEWDIN ATOMIC CHARGES
----------------------
   0 C :    0.133012
   1 S :    1.142801
   2 O :   -0.499196
   3 F :   -0.266370
   4 O :   -0.486907
   5 H :   -0.013359
   6 H :   -0.011682
   7 H :    0.001702

  Mayer bond orders larger than 0.100000
B(  0-C ,  1-S ) :   0.9859 B(  0-C ,  5-H ) :   0.9305 B(  0-C ,  6-H ) :   0.9319
B(  0-C ,  7-H ) :   0.9378 B(  1-S ,  2-O ) :   1.4978 B(  1-S ,  3-F ) :   0.6649
B(  1-S ,  4-O ) :   1.5084 B(  1-S ,  7-H ) :   0.1157

Dispersion correction           -0.000049418
FINAL SINGLE POINT ENERGY      -687.837234654922

DIPOLE MOMENT
-------------
                                X             Y             Z
Electronic contribution:      1.28418      -3.45465      -3.97538
Nuclear contribution   :     -1.82220       5.10789       3.45696
                        -----------------------------------------
Total Dipole Moment    :     -0.53802       1.65324      -0.51843
                        -----------------------------------------
Magnitude (a.u.)       :      1.81424
Magnitude (Debye)      :      4.61142

Rotational constants in cm-1:     0.163267     0.154654     0.145086
Rotational constants in MHz :  4894.631475  4636.404456  4349.567403

                             ****ORCA TERMINATED NORMALLY****
TOTAL RUN TIME: 0 days 0 hours 0 minutes 7 seconds 991 msec
