                         Program Version 5.0.0 -  RELEASE  -
|  1> !M062X D3Zero RIJCOSX def2-SVPD def2/J TightSCF
|  2> *xyz 0 1
|  3> C          2.91632       -1.24259       -1.54313
|  4> C          3.46659       -1.59097       -2.88908
|  5> N          4.65227       -1.14316       -3.25969
|  6> C          2.75226       -2.29204       -3.72803
|  7> H          1.77836       -2.48960       -3.51274
|  8> H          2.94861       -2.20854       -4.71681
|  9> H          5.14672       -0.51251       -2.63385
| 10> H          4.78303       -1.00720       -4.25350
| 11> H          1.95294       -1.69278       -1.42424
| 12> H          2.82618       -0.17973       -1.45886
| 13> H          3.57606       -1.60596       -0.78312
| 14> *
| 15>
| 16> %MaxCore 64000
| 17>
| 18> %pal nprocs 8
| 19> end
| 20>
| 21> %scf
| 22>   MaxIter 150
| 23> end
| 24>
| 25>
| 26>                          ****END OF INPUT****

CARTESIAN COORDINATES (ANGSTROEM)
---------------------------------
  C      2.916320   -1.242590   -1.543130
  C      3.466590   -1.590970   -2.889080
  N      4.652270   -1.143160   -3.259690
  C      2.752260   -2.292040   -3.728030
  H      1.778360   -2.489600   -3.512740
  H      2.948610   -2.208540   -4.716810
  H      5.146720   -0.512510   -2.633850
  H      4.783030   -1.007200   -4.253500
  H      1.952940   -1.692780   -1.424240
  H      2.826180   -0.179730   -1.458860
  H      3.576060   -1.605960   -0.783120

 Total Charge           Charge          ....    0
 Multiplicity           Mult            ....    1
 Number of Electrons    NEL             ....   32
 Basis Dimension        Dim             ....  136

ORBITAL ENERGIES
----------------

  NO   OCC          E(Eh)            E(eV)
   0   2.0000     -14.762108      -401.6974
   1   2.0000     -10.573565      -287.7213
   2   2.0000     -10.542745      -286.8827
   3   2.0000     -10.484347      -285.2936
   4   2.0000      -1.030283       -28.0354
   5   2.0000      -0.848623       -23.0922
   6   2.0000      -0.778322       -21.1792
   7   2.0000      -0.644782       -17.5454
   8   2.0000      -0.599177       -16.3044
   9   2.0000      -0.544560       -14.8182
  10   2.0000      -0.504746       -13.7348
  11   2.0000      -0.463972       -12.6253
  12   2.0000      -0.457461       -12.4481
  13   2.0000      -0.422736       -11.5032
  14   2.0000      -0.393506       -10.7078
  15   2.0000      -0.251635        -6.8473
  16   0.0000       0.037493         1.0202
  17   0.0000       0.071905         1.9566
  18   0.0000       0.076436         2.0799
  19   0.0000       0.078823         2.1449
  20   0.0000       0.114034         3.1030

MULLIKEN ATOMIC CHARGES
-----------------------
   0 C :    0.750352
   1 C :   -0.632681
   2 N :    0.083723
   3 C :    0.305967
   4 H :   -0.049791
   5 H :   -0.379827
   6 H :   -0.082301
   7 H :   -0.054585
   8 H :    0.069542
   9 H :   -0.013674
  10 H :    0.003277
Sum of atomic charges:   -0.0000000

LOEWDIN ATOMIC CHARGES
----------------------
   0 C :    0.167466
   1 C :   -0.301982
   2 N :    0.153239
   3 C :    0.166636
   4 H :   -0.079424
   5 H :   -0.083202
   6 H :    0.004418
   7 H :    0.005679
   8 H :   -0.012849
   9 H :   -0.007862
  10 H :   -0.012119

  Mayer bond orders larger than 0.100000
B(  0-C ,  1-C ) :   1.3798 B(  0-C ,  8-H ) :   0.7813 B(  0-C ,  9-H ) :   0.6933
B(  0-C , 10-H ) :   0.6599 B(  1-C ,  2-N ) :   1.0557 B(  1-C ,  3-C ) :   2.0048
B(  1-C ,  5-H ) :   0.2053 B(  1-C ,  8-H ) :   0.2438 B(  1-C ,  9-H ) :   0.2952
B(  1-C , 10-H ) :   0.2749 B(  2-N ,  3-C ) :   0.2557 B(  2-N ,  6-H ) :   1.0531
B(  2-N ,  7-H ) :   1.0761 B(  3-C ,  4-H ) :   0.8507 B(  3-C ,  5-H ) :   0.7782
B(  4-H ,  5-H ) :   0.1397 B(  6-H ,  7-H ) :  -0.1133

Dispersion correction           -0.000083969
FINAL SINGLE POINT ENERGY      -173.033238996182

DIPOLE MOMENT
-------------
                                X             Y             Z
Electronic contribution:      1.50239      -0.18356      -0.92768
Nuclear contribution   :     -1.18794       0.95232       1.07877
                        -----------------------------------------
Total Dipole Moment    :      0.31446       0.76876       0.15109
                        -----------------------------------------
Magnitude (a.u.)       :      0.84422
Magnitude (Debye)      :      2.14583

Rotational constants in cm-1:     0.358436     0.301769     0.169913
Rotational constants in MHz : 10745.629007  9046.806054  5093.859032

                             ****ORCA TERMINATED NORMALLY****
TOTAL RUN TIME: 0 days 0 hours 0 minutes 7 seconds 641 msec
