                         Program Version 5.0.0 -  RELEASE  -
|  1> !M062X D3Zero RIJCOSX def2-SVPD def2/J TightSCF
|  2> *xyz 0 1
|  3> C          1.72854        1.42432       -5.63944
|  4> S          2.25263       -0.18811       -6.27184
|  5> O          3.56261       -0.44446       -5.63155
|  6> O          2.34494       -0.03374       -7.69650
|  7> F          1.26606       -1.15918       -5.80536
|  8> H          0.77944        1.68154       -6.06127
|  9> H          2.45151        2.16548       -5.90944
| 10> H          1.64478        1.37937       -4.57367
| 11> *
| 12>
| 13> %MaxCore 64000
| 14>
| 15> %pal nprocs 8
| 16> end
| 17>
| 18> %scf
| 19>   MaxIter 150
| 20> end
| 21>
| 22>
| 23>                          ****END OF INPUT****

CARTESIAN COORDINATES (ANGSTROEM)
---------------------------------
  C      1.728540    1.424320   -5.639440
  S      2.252630   -0.188110   -6.271840
  O      3.562610   -0.444460   -5.631550
  O      2.344940   -0.033740   -7.696500
  F      1.266060   -1.159180   -5.805360
  H      0.779440    1.681540   -6.061270
  H      2.451510    2.165480   -5.909440
  H      1.644780    1.379370   -4.573670

 Total Charge           Charge          ....    0
 Multiplicity           Mult            ....    1
 Number of Electrons    NEL             ....   50
 Basis Dimension        Dim             ....  140

ORBITAL ENERGIES
----------------

  NO   OCC          E(Eh)            E(eV)
   0   2.0000     -90.205257     -2454.6098
   1   2.0000     -25.376567      -690.5315
   2   2.0000     -19.659634      -534.9658
   3   2.0000     -19.644785      -534.5618
   4   2.0000     -10.616966      -288.9023
   5   2.0000      -8.529120      -232.0891
   6   2.0000      -6.457459      -175.7164
   7   2.0000      -6.452213      -175.5736
   8   2.0000      -6.451490      -175.5540
   9   2.0000      -1.507693       -41.0264
  10   2.0000      -1.235158       -33.6104
  11   2.0000      -1.125671       -30.6311
  12   2.0000      -0.896720       -24.4010
  13   2.0000      -0.813923       -22.1480
  14   2.0000      -0.696818       -18.9614
  15   2.0000      -0.684282       -18.6203
  16   2.0000      -0.645977       -17.5779
  17   2.0000      -0.561257       -15.2726
  18   2.0000      -0.556570       -15.1450
  19   2.0000      -0.541695       -14.7403
  20   2.0000      -0.518428       -14.1071
  21   2.0000      -0.468622       -12.7519
  22   2.0000      -0.416737       -11.3400
  23   2.0000      -0.402120       -10.9422
  24   2.0000      -0.388265       -10.5652
  25   0.0000       0.005501         0.1497
  26   0.0000       0.039582         1.0771
  27   0.0000       0.044862         1.2207
  28   0.0000       0.047327         1.2878
  29   0.0000       0.062172         1.6918

MULLIKEN ATOMIC CHARGES
-----------------------
   0 C :    0.367425
   1 S :    1.348179
   2 O :   -0.694667
   3 O :   -0.657025
   4 F :   -0.404470
   5 H :    0.016648
   6 H :    0.012217
   7 H :    0.011693
Sum of atomic charges:    0.0000000

LOEWDIN ATOMIC CHARGES
----------------------
   0 C :    0.133401
   1 S :    1.141936
   2 O :   -0.499346
   3 O :   -0.477003
   4 F :   -0.275489
   5 H :   -0.013170
   6 H :    0.001705
   7 H :   -0.012033

  Mayer bond orders larger than 0.100000
B(  0-C ,  1-S ) :   0.9874 B(  0-C ,  5-H ) :   0.9317 B(  0-C ,  6-H ) :   0.9320
B(  0-C ,  7-H ) :   0.9367 B(  1-S ,  2-O ) :   1.4958 B(  1-S ,  3-O ) :   1.5258
B(  1-S ,  4-F ) :   0.6374 B(  1-S ,  6-H ) :   0.1117

Dispersion correction           -0.000049560
FINAL SINGLE POINT ENERGY      -687.846602951729

DIPOLE MOMENT
-------------
                                X             Y             Z
Electronic contribution:     -0.53093      -5.33851      -0.81089
Nuclear contribution   :     -0.74433       6.23228       1.56758
                        -----------------------------------------
Total Dipole Moment    :     -1.27526       0.89377       0.75670
                        -----------------------------------------
Magnitude (a.u.)       :      1.73139
Magnitude (Debye)      :      4.40083

Rotational constants in cm-1:     0.164764     0.152261     0.145794
Rotational constants in MHz :  4939.488001  4564.674339  4370.797804

                             ****ORCA TERMINATED NORMALLY****
TOTAL RUN TIME: 0 days 0 hours 0 minutes 7 seconds 845 msec
