                         Program Version 5.0.0 -  RELEASE  -
|  1> !M062X D3Zero RIJCOSX def2-SVPD def2/J TightSCF xyzfile
|  2>
|  3> *xyzfile 0 1 D1.xyz
|  4>
|  5> %MaxCore 64000
|  6>
|  7> %pal nprocs 4
|  8> end
|  9>
| 10> %scf
| 11>   MaxIter 150
| 12> end
| 13>
| 14>
| 15>                          ****END OF INPUT****

CARTESIAN COORDINATES (ANGSTROEM)
---------------------------------
  C      2.916324   -1.242589   -1.543125
  C      0.704661    1.443129   -4.503630
  C      1.728539    1.424320   -5.639443
  H      2.646718    1.953794   -5.381054
  H      1.299916    1.930613   -6.503614
  S      2.252625   -0.188115   -6.271840
  C      3.466585   -1.590971   -2.889082
  C      4.652275   -1.143164   -3.259692
  N      2.752264   -2.292043   -3.728029
  H      1.778364   -2.489604   -3.512738
  H      2.948612   -2.208544   -4.716813
  H      5.146723   -0.512508   -2.633852
  H      4.783030   -1.007203   -4.253498
  F      3.562607   -0.444464   -5.631552
  O      2.344944   -0.033742   -7.696501
  C      2.804084    0.290698   -1.359243
  C      1.052550    0.695659   -3.214915
  H     -0.232483    1.032925   -4.884449
  H      0.511700    2.495794   -4.267966
  C      2.388380    1.093669   -2.597108
  H      3.763425    0.674718   -0.999889
  H      2.094788    0.461222   -0.545756
  O      1.266058   -1.159177   -5.805365
  H      3.167316    1.013242   -3.359430
  H      2.357690    2.149375   -2.310997
  H      1.039284   -0.368429   -3.449329
  H      0.250787    0.865605   -2.488283
  H      1.940472   -1.716529   -1.441161
  H      3.558569   -1.663433   -0.766371

 Total Charge           Charge          ....    0
 Multiplicity           Mult            ....    1
 Number of Electrons    NEL             ....  112
 Basis Dimension        Dim             ....  404

ORBITAL ENERGIES
----------------

  NO   OCC          E(Eh)            E(eV)
   0   2.0000     -90.206715     -2454.6495
   1   2.0000     -25.370148      -690.3568
   2   2.0000     -19.663461      -535.0700
   3   2.0000     -19.659621      -534.9655
   4   2.0000     -14.758200      -401.5910
   5   2.0000     -10.618728      -288.9503
   6   2.0000     -10.583357      -287.9878
   7   2.0000     -10.572079      -287.6809
   8   2.0000     -10.560151      -287.3563
   9   2.0000     -10.557349      -287.2801
  10   2.0000     -10.555333      -287.2252
  11   2.0000     -10.555007      -287.2163
  12   2.0000     -10.478681      -285.1394
  13   2.0000      -8.529711      -232.1052
  14   2.0000      -6.458139      -175.7349
  15   2.0000      -6.453053      -175.5965
  16   2.0000      -6.451951      -175.5665
  17   2.0000      -1.496826       -40.7307
  18   2.0000      -1.244584       -33.8668
  19   2.0000      -1.144435       -31.1417
  20   2.0000      -1.033162       -28.1138
  21   2.0000      -0.936881       -25.4938
  22   2.0000      -0.897461       -24.4211
  23   2.0000      -0.856594       -23.3091
  24   2.0000      -0.828008       -22.5312
  25   2.0000      -0.791072       -21.5262
  26   2.0000      -0.774802       -21.0834
  27   2.0000      -0.721937       -19.6449
  28   2.0000      -0.686606       -18.6835
  29   2.0000      -0.677137       -18.4258
  30   2.0000      -0.663197       -18.0465
  31   2.0000      -0.647229       -17.6120
  32   2.0000      -0.627923       -17.0867
  33   2.0000      -0.591740       -16.1021
  34   2.0000      -0.579860       -15.7788
  35   2.0000      -0.568123       -15.4594
  36   2.0000      -0.553729       -15.0677
  37   2.0000      -0.550308       -14.9747
  38   2.0000      -0.543066       -14.7776
  39   2.0000      -0.517581       -14.0841
  40   2.0000      -0.504474       -13.7274
  41   2.0000      -0.493913       -13.4400
  42   2.0000      -0.477136       -12.9835
  43   2.0000      -0.460918       -12.5422
  44   2.0000      -0.453861       -12.3502
  45   2.0000      -0.450318       -12.2538
  46   2.0000      -0.441899       -12.0247
  47   2.0000      -0.427175       -11.6240
  48   2.0000      -0.420964       -11.4550
  49   2.0000      -0.412203       -11.2166
  50   2.0000      -0.404935       -11.0189
  51   2.0000      -0.398915       -10.8550
  52   2.0000      -0.387757       -10.5514
  53   2.0000      -0.384430       -10.4609
  54   2.0000      -0.379271       -10.3205
  55   2.0000      -0.240848        -6.5538
  56   0.0000       0.015306         0.4165
  57   0.0000       0.029012         0.7895
  58   0.0000       0.033591         0.9141
  59   0.0000       0.037730         1.0267
  60   0.0000       0.051261         1.3949

MULLIKEN ATOMIC CHARGES
-----------------------
   0 C :    0.631824
   1 C :    0.515027
   2 C :    0.140680
   3 H :    0.159494
   4 H :   -0.231062
   5 S :    1.625824
   6 C :   -0.567957
   7 C :    0.664668
   8 N :    0.326795
   9 H :    0.001117
  10 H :   -0.185774
  11 H :    0.035836
  12 H :   -0.651999
  13 F :   -0.587397
  14 O :   -0.707132
  15 C :    0.398635
  16 C :    0.337735
  17 H :    0.018911
  18 H :   -0.049862
  19 C :   -0.010936
  20 H :   -0.012619
  21 H :   -0.146276
  22 O :   -0.809807
  23 H :   -0.053986
  24 H :   -0.206412
  25 H :   -0.411537
  26 H :   -0.100347
  27 H :    0.109162
  28 H :   -0.232605
Sum of atomic charges:   -0.0000000

LOEWDIN ATOMIC CHARGES
----------------------
   0 C :    0.029941
   1 C :   -0.023543
   2 C :   -0.024441
   3 H :    0.018442
   4 H :    0.024356
   5 S :    1.175005
   6 C :   -0.252130
   7 C :    0.177846
   8 N :    0.186378
   9 H :    0.010209
  10 H :   -0.037668
  11 H :   -0.072796
  12 H :   -0.118286
  13 F :   -0.297820
  14 O :   -0.460360
  15 C :   -0.007062
  16 C :   -0.016127
  17 H :    0.033211
  18 H :    0.036443
  19 C :   -0.024606
  20 H :    0.020813
  21 H :    0.019121
  22 O :   -0.477675
  23 H :   -0.008019
  24 H :    0.027785
  25 H :   -0.016216
  26 H :    0.034719
  27 H :    0.013181
  28 H :    0.029298

  Mayer bond orders larger than 0.100000
B(  0-C ,  6-C ) :   1.2673 B(  0-C , 15-C ) :   1.1082 B(  0-C , 21-H ) :   0.1860
B(  0-C , 27-H ) :   0.5553 B(  0-C , 28-H ) :   0.7334 B(  1-C ,  2-C ) :   1.2280
B(  1-C ,  4-H ) :   0.1978 B(  1-C , 16-C ) :   1.2560 B(  1-C , 17-H ) :   0.6660
B(  1-C , 18-H ) :   0.7502 B(  2-C ,  3-H ) :   0.8556 B(  2-C ,  4-H ) :   0.9252
B(  2-C ,  5-S ) :   0.9355 B(  2-C , 17-H ) :   0.1090 B(  2-C , 18-H ) :   0.1479
B(  5-S , 13-F ) :   0.5805 B(  5-S , 14-O ) :   1.5270 B(  5-S , 22-O ) :   1.4415
B(  6-C ,  7-C ) :   2.2744 B(  6-C ,  8-N ) :   0.9413 B(  6-C , 11-H ) :   0.1026
B(  6-C , 12-H ) :   0.3594 B(  6-C , 27-H ) :   0.2993 B(  6-C , 28-H ) :   0.2595
B(  7-C ,  8-N ) :   0.3457 B(  7-C , 11-H ) :   0.5926 B(  7-C , 12-H ) :   0.3531
B(  8-N ,  9-H ) :   0.9109 B(  8-N , 10-H ) :   0.9760 B(  8-N , 11-H ) :   0.2127
B(  8-N , 12-H ) :  -0.1193 B(  9-H , 10-H ) :  -0.1608 B( 10-H , 12-H ) :   0.1094
B( 11-H , 12-H ) :  -0.1025 B( 12-H , 13-F ) :   0.3086 B( 15-C , 19-C ) :   1.2215
B( 15-C , 20-H ) :   0.6867 B( 15-C , 21-H ) :   0.8356 B( 15-C , 23-H ) :   0.1470
B( 15-C , 27-H ) :   0.1408 B( 16-C , 17-H ) :   0.2836 B( 16-C , 19-C ) :   1.2115
B( 16-C , 23-H ) :   0.1308 B( 16-C , 24-H ) :   0.1651 B( 16-C , 25-H ) :   0.8732
B( 16-C , 26-H ) :   0.7166 B( 17-H , 18-H ) :  -0.1433 B( 19-C , 20-H ) :   0.2719
B( 19-C , 21-H ) :   0.1830 B( 19-C , 23-H ) :   0.8730 B( 19-C , 24-H ) :   0.8710
B( 19-C , 25-H ) :   0.1640 B( 19-C , 26-H ) :   0.2326 B( 20-H , 21-H ) :  -0.1767

Dispersion correction           -0.001664800
FINAL SINGLE POINT ENERGY     -1016.760786550498

DIPOLE MOMENT
-------------
                                X             Y             Z
Electronic contribution:      2.13552      -4.88091     -18.51433
Nuclear contribution   :     -2.89481       6.29550      19.36835
                        -----------------------------------------
Total Dipole Moment    :     -0.75930       1.41459       0.85403
                        -----------------------------------------
Magnitude (a.u.)       :      1.81851
Magnitude (Debye)      :      4.62228

Rotational constants in cm-1:     0.036515     0.018832     0.015081
Rotational constants in MHz :  1094.679513   564.567051   452.109105

                             ****ORCA TERMINATED NORMALLY****
TOTAL RUN TIME: 0 days 0 hours 2 minutes 34 seconds 233 msec
