                         Program Version 5.0.0 -  RELEASE  -
|  1> !LC-PBE RIJCOSX def2-SVPD def2/J TightSCF
|  2> *xyz -1 1
|  3> C         -1.36353       -1.98134       -2.29361
|  4> O         -0.35039       -2.74969       -1.79601
|  5> H         -2.22523       -2.59288       -2.46214
|  6> H         -1.05452       -1.53818       -3.21720
|  7> H         -1.60477       -1.21086       -1.59143
|  8> *
|  9>
| 10> %MaxCore 64000
| 11> %pal nprocs 4
| 12> end
| 13>
| 14> %scf
| 15>   MaxIter 150
| 16> end
| 17>
| 18>
| 19>                          ****END OF INPUT****

CARTESIAN COORDINATES (ANGSTROEM)
---------------------------------
  C     -1.363530   -1.981340   -2.293610
  O     -0.350390   -2.749690   -1.796010
  H     -2.225230   -2.592880   -2.462140
  H     -1.054520   -1.538180   -3.217200
  H     -1.604770   -1.210860   -1.591430

 Total Charge           Charge          ....   -1
 Multiplicity           Mult            ....    1
 Number of Electrons    NEL             ....   18
 Basis Dimension        Dim             ....   67

ORBITAL ENERGIES
----------------

  NO   OCC          E(Eh)            E(eV)
   0   2.0000     -18.628797      -506.9153
   1   2.0000      -9.909154      -269.6418
   2   2.0000      -0.813433       -22.1346
   3   2.0000      -0.547873       -14.9084
   4   2.0000      -0.338242        -9.2040
   5   2.0000      -0.338237        -9.2039
   6   2.0000      -0.232247        -6.3198
   7   2.0000      -0.074479        -2.0267
   8   2.0000      -0.074468        -2.0264
   9   0.0000       0.262586         7.1453
  10   0.0000       0.340327         9.2608
  11   0.0000       0.340332         9.2609
  12   0.0000       0.349991         9.5237
  13   0.0000       0.387806        10.5527

MULLIKEN ATOMIC CHARGES
-----------------------
   0 C :    0.535710
   1 O :   -0.998913
   2 H :   -0.178949
   3 H :   -0.179050
   4 H :   -0.178798
Sum of atomic charges:   -1.0000000

LOEWDIN ATOMIC CHARGES
----------------------
   0 C :   -0.153676
   1 O :   -0.658913
   2 H :   -0.062471
   3 H :   -0.062474
   4 H :   -0.062466

  Mayer bond orders larger than 0.100000
B(  0-C ,  1-O ) :   1.2926 B(  0-C ,  2-H ) :   0.9432 B(  0-C ,  3-H ) :   0.9431
B(  0-C ,  4-H ) :   0.9431

FINAL SINGLE POINT ENERGY      -114.684649684252

DIPOLE MOMENT
-------------
                                X             Y             Z
Electronic contribution:      1.29911      -0.98543       0.63803
Nuclear contribution   :     -2.13467       1.61890      -1.04844
                        -----------------------------------------
Total Dipole Moment    :     -0.83556       0.63347      -0.41041
                        -----------------------------------------
Magnitude (a.u.)       :      1.12600
Magnitude (Debye)      :      2.86207

Rotational constants in cm-1:     5.477725     0.944113     0.944112
Rotational constants in MHz : 164218.064700 28303.798445 28303.757130

                             ****ORCA TERMINATED NORMALLY****
TOTAL RUN TIME: 0 days 0 hours 0 minutes 3 seconds 666 msec
