                         Program Version 5.0.0 -  RELEASE  -
|  1> !LC-PBE RIJCOSX def2-SVPD def2/J TightSCF
|  2> *xyz 1 1
|  3> C          2.20996       -2.81239       -3.66571
|  4> C          2.48901       -1.66851       -2.73754
|  5> N          3.59631       -0.94761       -2.95225
|  6> N          1.66394       -1.41369       -1.77781
|  7> H          0.81164       -1.96318       -1.70275
|  8> H          1.84550       -0.63508       -1.15875
|  9> H          4.20535       -1.17600       -3.73383
| 10> H          3.81723       -0.12585       -2.40604
| 11> H          2.99011       -2.87840       -4.39503
| 12> H          1.27381       -2.65174       -4.15838
| 13> H          2.16680       -3.72339       -3.10614
| 14> *
| 15>
| 16> %MaxCore 64000
| 17> %pal nprocs 4
| 18> end
| 19>
| 20> %scf
| 21>   MaxIter 150
| 22> end
| 23>
| 24>
| 25>                          ****END OF INPUT****

CARTESIAN COORDINATES (ANGSTROEM)
---------------------------------
  C      2.209960   -2.812390   -3.665710
  C      2.489010   -1.668510   -2.737540
  N      3.596310   -0.947610   -2.952250
  N      1.663940   -1.413690   -1.777810
  H      0.811640   -1.963180   -1.702750
  H      1.845500   -0.635080   -1.158750
  H      4.205350   -1.176000   -3.733830
  H      3.817230   -0.125850   -2.406040
  H      2.990110   -2.878400   -4.395030
  H      1.273810   -2.651740   -4.158380
  H      2.166800   -3.723390   -3.106140

 Total Charge           Charge          ....    1
 Multiplicity           Mult            ....    1
 Number of Electrons    NEL             ....   32
 Basis Dimension        Dim             ....  136

ORBITAL ENERGIES
----------------

  NO   OCC          E(Eh)            E(eV)
   0   2.0000     -14.486260      -394.1912
   1   2.0000     -14.479695      -394.0125
   2   2.0000     -10.470566      -284.9186
   3   2.0000     -10.326006      -280.9849
   4   2.0000      -1.383349       -37.6428
   5   2.0000      -1.277459       -34.7614
   6   2.0000      -1.123715       -30.5778
   7   2.0000      -0.998120       -27.1602
   8   2.0000      -0.935383       -25.4531
   9   2.0000      -0.921008       -25.0619
  10   2.0000      -0.851446       -23.1690
  11   2.0000      -0.816510       -22.2184
  12   2.0000      -0.754331       -20.5264
  13   2.0000      -0.739416       -20.1205
  14   2.0000      -0.716082       -19.4856
  15   2.0000      -0.631841       -17.1933
  16   0.0000      -0.122097        -3.3224
  17   0.0000      -0.083302        -2.2668
  18   0.0000      -0.039318        -1.0699
  19   0.0000      -0.035712        -0.9718
  20   0.0000      -0.012855        -0.3498

MULLIKEN ATOMIC CHARGES
-----------------------
   0 C :    0.286766
   1 C :    0.370185
   2 N :   -0.132727
   3 N :    0.101478
   4 H :    0.085697
   5 H :   -0.077433
   6 H :    0.111048
   7 H :   -0.067359
   8 H :    0.101403
   9 H :    0.107538
  10 H :    0.113404
Sum of atomic charges:    1.0000000

LOEWDIN ATOMIC CHARGES
----------------------
   0 C :    0.200658
   1 C :   -0.063817
   2 N :    0.261127
   3 N :    0.264851
   4 H :    0.076589
   5 H :    0.063626
   6 H :    0.058288
   7 H :    0.052855
   8 H :    0.016444
   9 H :    0.034572
  10 H :    0.034807

  Mayer bond orders larger than 0.100000
B(  0-C ,  1-C ) :   1.2620 B(  0-C ,  8-H ) :   0.8240 B(  0-C ,  9-H ) :   0.8170
B(  0-C , 10-H ) :   0.7997 B(  1-C ,  2-N ) :   0.9853 B(  1-C ,  3-N ) :   1.2524
B(  1-C ,  5-H ) :  -0.1308 B(  1-C ,  7-H ) :  -0.2202 B(  1-C ,  8-H ) :   0.1833
B(  1-C ,  9-H ) :   0.1156 B(  1-C , 10-H ) :   0.1313 B(  2-N ,  3-N ) :   0.1423
B(  2-N ,  6-H ) :   1.0467 B(  2-N ,  7-H ) :   1.3224 B(  3-N ,  4-H ) :   1.0882
B(  3-N ,  5-H ) :   1.2253 B(  4-H ,  5-H ) :  -0.1414 B(  6-H ,  7-H ) :  -0.1657

FINAL SINGLE POINT ENERGY      -188.986106098231

DIPOLE MOMENT
-------------
                                X             Y             Z
Electronic contribution:      0.30961       1.61416       1.44156
Nuclear contribution   :     -0.32363      -1.20411      -1.15396
                        -----------------------------------------
Total Dipole Moment    :     -0.01402       0.41004       0.28760
                        -----------------------------------------
Magnitude (a.u.)       :      0.50104
Magnitude (Debye)      :      1.27354

Rotational constants in cm-1:     0.327805     0.304052     0.162439
Rotational constants in MHz :  9827.347355  9115.244333  4869.808750

                             ****ORCA TERMINATED NORMALLY****
TOTAL RUN TIME: 0 days 0 hours 0 minutes 11 seconds 583 msec
