                         Program Version 5.0.0 -  RELEASE  -
|  1> !LC-PBE RIJCOSX def2-SVPD def2/J TightSCF xyzfile
|  2>
|  3> *xyzfile 0 1 B.xyz
|  4>
|  5> %MaxCore 64000
|  6>
|  7> %pal nprocs 4
|  8> end
|  9>
| 10> %scf
| 11>   MaxIter 150
| 12> end
| 13>
| 14>
| 15>                          ****END OF INPUT****

CARTESIAN COORDINATES (ANGSTROEM)
---------------------------------
  C      1.647032   -2.345276   -5.020411
  C      0.217628   -1.814022   -4.924389
  C      2.209964   -2.812388   -3.665708
  C     -0.811356   -2.908780   -4.607625
  C     -1.916579   -2.485081   -3.643665
  H     -2.554525   -1.712428   -4.091993
  C     -1.363531   -1.981337   -2.293608
  H     -2.553448   -3.355667   -3.458815
  O     -0.350395   -2.749689   -1.796006
  H      2.308385   -1.588704   -5.457128
  H      1.674286   -3.203478   -5.697392
  C      2.489007   -1.668510   -2.737538
  N      3.596314   -0.947608   -2.952247
  N      1.663936   -1.413685   -1.777806
  H      0.811642   -1.963178   -1.702755
  H      1.845503   -0.635078   -1.158749
  H      4.205351   -1.176003   -3.733825
  H      3.817230   -0.125845   -2.406041
  H     -1.244829   -3.280884   -5.541040
  H     -0.306331   -3.757746   -4.142734
  H     -0.036244   -1.318555   -5.865303
  H      0.175004   -1.035382   -4.158095
  H      3.143106   -3.362803   -3.811524
  H      1.487683   -3.458935   -3.165211
  H     -2.226220   -1.908386   -1.602039
  H     -1.051353   -0.915671   -2.443331

 Total Charge           Charge          ....    0
 Multiplicity           Mult            ....    1
 Number of Electrons    NEL             ....   80
 Basis Dimension        Dim             ....  331

ORBITAL ENERGIES
----------------

  NO   OCC          E(Eh)            E(eV)
   0   2.0000     -18.843651      -512.7618
   1   2.0000     -14.308254      -389.3474
   2   2.0000     -14.261200      -388.0670
   3   2.0000     -10.276560      -279.6394
   4   2.0000     -10.153662      -276.2952
   5   2.0000     -10.142290      -275.9857
   6   2.0000     -10.111776      -275.1554
   7   2.0000     -10.101904      -274.8868
   8   2.0000     -10.091659      -274.6080
   9   2.0000     -10.074303      -274.1357
  10   2.0000      -1.194126       -32.4938
  11   2.0000      -1.091241       -29.6942
  12   2.0000      -1.034148       -28.1406
  13   2.0000      -0.991320       -26.9752
  14   2.0000      -0.924379       -25.1536
  15   2.0000      -0.869142       -23.6505
  16   2.0000      -0.806697       -21.9513
  17   2.0000      -0.791553       -21.5393
  18   2.0000      -0.748509       -20.3680
  19   2.0000      -0.744652       -20.2630
  20   2.0000      -0.713048       -19.4030
  21   2.0000      -0.671299       -18.2670
  22   2.0000      -0.647819       -17.6280
  23   2.0000      -0.637057       -17.3352
  24   2.0000      -0.610365       -16.6089
  25   2.0000      -0.585299       -15.9268
  26   2.0000      -0.576063       -15.6755
  27   2.0000      -0.543535       -14.7903
  28   2.0000      -0.528922       -14.3927
  29   2.0000      -0.523567       -14.2470
  30   2.0000      -0.489117       -13.3096
  31   2.0000      -0.483650       -13.1608
  32   2.0000      -0.470017       -12.7898
  33   2.0000      -0.450189       -12.2503
  34   2.0000      -0.440586       -11.9890
  35   2.0000      -0.426948       -11.6178
  36   2.0000      -0.418819       -11.3966
  37   2.0000      -0.410158       -11.1610
  38   2.0000      -0.294030        -8.0010
  39   2.0000      -0.288426        -7.8485
  40   0.0000       0.054315         1.4780
  41   0.0000       0.059347         1.6149
  42   0.0000       0.092019         2.5040
  43   0.0000       0.110778         3.0144
  44   0.0000       0.114929         3.1274

MULLIKEN ATOMIC CHARGES
-----------------------
   0 C :    0.118293
   1 C :    0.048638
   2 C :   -0.037992
   3 C :   -0.072605
   4 C :    0.076047
   5 H :   -0.077320
   6 C :    0.296205
   7 H :    0.118662
   8 O :   -0.691291
   9 H :    0.005449
  10 H :   -0.002720
  11 C :    0.608852
  12 N :   -0.042104
  13 N :    0.376956
  14 H :   -0.389176
  15 H :   -0.068299
  16 H :    0.006451
  17 H :   -0.103938
  18 H :   -0.123759
  19 H :    0.088847
  20 H :   -0.076274
  21 H :   -0.038627
  22 H :   -0.005524
  23 H :    0.083759
  24 H :   -0.265159
  25 H :    0.166632
Sum of atomic charges:   -0.0000000

LOEWDIN ATOMIC CHARGES
----------------------
   0 C :   -0.037918
   1 C :   -0.037575
   2 C :    0.030922
   3 C :   -0.052805
   4 C :   -0.057808
   5 H :    0.027766
   6 C :   -0.115065
   7 H :    0.030775
   8 O :   -0.408630
   9 H :    0.023349
  10 H :    0.040314
  11 C :   -0.048100
  12 N :    0.221831
  13 N :    0.300645
  14 H :   -0.197843
  15 H :    0.049643
  16 H :    0.034741
  17 H :    0.028384
  18 H :    0.027309
  19 H :    0.013891
  20 H :    0.031265
  21 H :    0.008590
  22 H :    0.042691
  23 H :    0.020371
  24 H :    0.017198
  25 H :    0.006059

  Mayer bond orders larger than 0.100000
B(  0-C ,  1-C ) :   1.2408 B(  0-C ,  2-C ) :   1.1704 B(  0-C ,  9-H ) :   0.7722
B(  0-C , 10-H ) :   0.9076 B(  0-C , 21-H ) :   0.1466 B(  1-C ,  3-C ) :   1.1780
B(  1-C ,  9-H ) :   0.1622 B(  1-C , 10-H ) :   0.1012 B(  1-C , 18-H ) :   0.1897
B(  1-C , 20-H ) :   0.9095 B(  1-C , 21-H ) :   0.8301 B(  2-C ,  9-H ) :   0.1326
B(  2-C , 11-C ) :   1.1054 B(  2-C , 12-N ) :   0.1053 B(  2-C , 22-H ) :   0.8517
B(  2-C , 23-H ) :   0.8505 B(  3-C ,  4-C ) :   1.2525 B(  3-C ,  5-H ) :   0.1189
B(  3-C ,  7-H ) :   0.1752 B(  3-C , 18-H ) :   0.9296 B(  3-C , 19-H ) :   0.8330
B(  3-C , 20-H ) :   0.1094 B(  3-C , 21-H ) :   0.1374 B(  4-C ,  5-H ) :   0.9589
B(  4-C ,  6-C ) :   1.1432 B(  4-C ,  7-H ) :   0.7409 B(  4-C , 24-H ) :   0.1059
B(  6-C ,  8-O ) :   1.0438 B(  6-C , 24-H ) :   1.0973 B(  6-C , 25-H ) :   0.7925
B(  8-O , 14-H ) :   0.5293 B( 11-C , 12-N ) :   0.9785 B( 11-C , 13-N ) :   1.2361
B( 11-C , 15-H ) :  -0.2045 B( 11-C , 16-H ) :  -0.1294 B( 11-C , 17-H ) :  -0.1157
B( 11-C , 22-H ) :   0.1125 B( 11-C , 23-H ) :   0.1532 B( 12-N , 13-N ) :   0.1456
B( 12-N , 16-H ) :   1.1754 B( 12-N , 17-H ) :   1.2661 B( 13-N , 14-H ) :   0.9853
B( 13-N , 15-H ) :   1.2429 B( 14-H , 15-H ) :  -0.1917 B( 16-H , 17-H ) :  -0.1634
B( 19-H , 23-H ) :   0.1113

FINAL SINGLE POINT ENERGY      -459.302191013208

DIPOLE MOMENT
-------------
                                X             Y             Z
Electronic contribution:      5.60010       0.96970       4.25293
Nuclear contribution   :     -2.25948       0.71378      -5.15247
                        -----------------------------------------
Total Dipole Moment    :      3.34061       1.68348      -0.89954
                        -----------------------------------------
Magnitude (a.u.)       :      3.84747
Magnitude (Debye)      :      9.77948

Rotational constants in cm-1:     0.063973     0.031829     0.024059
Rotational constants in MHz :  1917.874550   954.201145   721.285252

                             ****ORCA TERMINATED NORMALLY****
TOTAL RUN TIME: 0 days 0 hours 1 minutes 50 seconds 843 msec
