                         Program Version 5.0.0 -  RELEASE  -
|  1> !LC-PBE RIJCOSX def2-SVPD def2/J TightSCF
|  2> *xyz 0 1
|  3> C         -1.36353       -1.98134       -2.29361
|  4> F         -0.35039       -2.74969       -1.79601
|  5> H         -2.22523       -2.59288       -2.46214
|  6> H         -1.05452       -1.53818       -3.21720
|  7> H         -1.60477       -1.21086       -1.59143
|  8> *
|  9>
| 10> %MaxCore 64000
| 11> %pal nprocs 4
| 12> end
| 13>
| 14> %scf
| 15>   MaxIter 150
| 16> end
| 17>
| 18>
| 19>                          ****END OF INPUT****

CARTESIAN COORDINATES (ANGSTROEM)
---------------------------------
  C     -1.363530   -1.981340   -2.293610
  F     -0.350390   -2.749690   -1.796010
  H     -2.225230   -2.592880   -2.462140
  H     -1.054520   -1.538180   -3.217200
  H     -1.604770   -1.210860   -1.591430

 Total Charge           Charge          ....    0
 Multiplicity           Mult            ....    1
 Number of Electrons    NEL             ....   18
 Basis Dimension        Dim             ....   67

ORBITAL ENERGIES
----------------

  NO   OCC          E(Eh)            E(eV)
   0   2.0000     -24.491393      -666.4447
   1   2.0000     -10.197109      -277.4774
   2   2.0000      -1.340995       -36.4903
   3   2.0000      -0.869165       -23.6512
   4   2.0000      -0.646110       -17.5816
   5   2.0000      -0.644362       -17.5340
   6   2.0000      -0.644358       -17.5339
   7   2.0000      -0.489136       -13.3101
   8   2.0000      -0.489129       -13.3099
   9   0.0000       0.092043         2.5046
  10   0.0000       0.148323         4.0361
  11   0.0000       0.175746         4.7823
  12   0.0000       0.175749         4.7824
  13   0.0000       0.213952         5.8219

MULLIKEN ATOMIC CHARGES
-----------------------
   0 C :    0.599375
   1 F :   -0.459943
   2 H :   -0.046409
   3 H :   -0.046591
   4 H :   -0.046431
Sum of atomic charges:   -0.0000000

LOEWDIN ATOMIC CHARGES
----------------------
   0 C :    0.227272
   1 F :   -0.246067
   2 H :    0.006265
   3 H :    0.006260
   4 H :    0.006269

  Mayer bond orders larger than 0.100000
B(  0-C ,  1-F ) :   0.8927 B(  0-C ,  2-H ) :   0.9641 B(  0-C ,  3-H ) :   0.9641
B(  0-C ,  4-H ) :   0.9640

FINAL SINGLE POINT ENERGY      -139.286261447067

DIPOLE MOMENT
-------------
                                X             Y             Z
Electronic contribution:      2.14279      -1.62509       1.05235
Nuclear contribution   :     -2.70693       2.05289      -1.32950
                        -----------------------------------------
Total Dipole Moment    :     -0.56414       0.42780      -0.27715
                        -----------------------------------------
Magnitude (a.u.)       :      0.76032
Magnitude (Debye)      :      1.93257

Rotational constants in cm-1:     5.477725     0.878859     0.878857
Rotational constants in MHz : 164218.064700 26347.517988 26347.482187

                             ****ORCA TERMINATED NORMALLY****
TOTAL RUN TIME: 0 days 0 hours 0 minutes 3 seconds 275 msec
