                         Program Version 5.0.0 -  RELEASE  -
|  1> !LC-PBE RIJCOSX def2-SVPD def2/J TightSCF
|  2> *xyz 0 1
|  3> C          2.20996       -2.81239       -3.66571
|  4> C          2.48901       -1.66851       -2.73754
|  5> C          3.59631       -0.94761       -2.95225
|  6> N          1.66394       -1.41369       -1.77781
|  7> H          0.81164       -1.96318       -1.70275
|  8> H          1.84550       -0.63508       -1.15875
|  9> H          4.20535       -1.17600       -3.73383
| 10> H          3.81723       -0.12585       -2.40604
| 11> H          2.99011       -2.87840       -4.39503
| 12> H          1.27381       -2.65174       -4.15838
| 13> H          2.16680       -3.72339       -3.10614
| 14> *
| 15>
| 16> %MaxCore 64000
| 17> %pal nprocs 4
| 18> end
| 19>
| 20> %scf
| 21>   MaxIter 150
| 22> end
| 23>
| 24>
| 25>                          ****END OF INPUT****

CARTESIAN COORDINATES (ANGSTROEM)
---------------------------------
  C      2.209960   -2.812390   -3.665710
  C      2.489010   -1.668510   -2.737540
  C      3.596310   -0.947610   -2.952250
  N      1.663940   -1.413690   -1.777810
  H      0.811640   -1.963180   -1.702750
  H      1.845500   -0.635080   -1.158750
  H      4.205350   -1.176000   -3.733830
  H      3.817230   -0.125850   -2.406040
  H      2.990110   -2.878400   -4.395030
  H      1.273810   -2.651740   -4.158380
  H      2.166800   -3.723390   -3.106140

 Total Charge           Charge          ....    0
 Multiplicity           Mult            ....    1
 Number of Electrons    NEL             ....   32
 Basis Dimension        Dim             ....  136

ORBITAL ENERGIES
----------------

  NO   OCC          E(Eh)            E(eV)
   0   2.0000     -14.233166      -387.3041
   1   2.0000     -10.156582      -276.3747
   2   2.0000     -10.116487      -275.2836
   3   2.0000     -10.058199      -273.6975
   4   2.0000      -1.106723       -30.1155
   5   2.0000      -0.923099       -25.1188
   6   2.0000      -0.848986       -23.1021
   7   2.0000      -0.727175       -19.7874
   8   2.0000      -0.681299       -18.5391
   9   2.0000      -0.618929       -16.8419
  10   2.0000      -0.579917       -15.7804
  11   2.0000      -0.532999       -14.5036
  12   2.0000      -0.527407       -14.3515
  13   2.0000      -0.481365       -13.0986
  14   2.0000      -0.479966       -13.0605
  15   2.0000      -0.306542        -8.3414
  16   0.0000       0.090607         2.4655
  17   0.0000       0.124718         3.3937
  18   0.0000       0.129667         3.5284
  19   0.0000       0.135308         3.6819
  20   0.0000       0.165329         4.4988

MULLIKEN ATOMIC CHARGES
-----------------------
   0 C :    0.556238
   1 C :   -0.516042
   2 C :    0.285507
   3 N :    0.248375
   4 H :   -0.100190
   5 H :   -0.129900
   6 H :   -0.088405
   7 H :   -0.401195
   8 H :    0.093849
   9 H :    0.022138
  10 H :    0.029625
Sum of atomic charges:    0.0000000

LOEWDIN ATOMIC CHARGES
----------------------
   0 C :    0.131972
   1 C :   -0.304863
   2 C :    0.141134
   3 N :    0.144845
   4 H :    0.022168
   5 H :    0.023465
   6 H :   -0.076253
   7 H :   -0.080288
   8 H :   -0.003637
   9 H :    0.000796
  10 H :    0.000661

  Mayer bond orders larger than 0.100000
B(  0-C ,  1-C ) :   1.2938 B(  0-C ,  8-H ) :   0.8242 B(  0-C ,  9-H ) :   0.7296
B(  0-C , 10-H ) :   0.7305 B(  1-C ,  2-C ) :   1.8037 B(  1-C ,  3-N ) :   1.2353
B(  1-C ,  7-H ) :   0.1194 B(  1-C ,  8-H ) :   0.1816 B(  1-C ,  9-H ) :   0.2176
B(  1-C , 10-H ) :   0.2178 B(  2-C ,  3-N ) :   0.2158 B(  2-C ,  6-H ) :   0.9876
B(  2-C ,  7-H ) :   0.8575 B(  3-N ,  4-H ) :   1.1479 B(  3-N ,  5-H ) :   1.1842
B(  4-H ,  5-H ) :  -0.1197

FINAL SINGLE POINT ENERGY      -172.548474016186

DIPOLE MOMENT
-------------
                                X             Y             Z
Electronic contribution:     -0.66463       0.85127       1.52161
Nuclear contribution   :     -0.07639      -1.03653      -1.19368
                        -----------------------------------------
Total Dipole Moment    :     -0.74102      -0.18526       0.32793
                        -----------------------------------------
Magnitude (a.u.)       :      0.83124
Magnitude (Debye)      :      2.11285

Rotational constants in cm-1:     0.347569     0.308531     0.168494
Rotational constants in MHz : 10419.863808  9249.512495  5051.317883

                             ****ORCA TERMINATED NORMALLY****
TOTAL RUN TIME: 0 days 0 hours 0 minutes 12 seconds 16 msec
