                         Program Version 5.0.0 -  RELEASE  -
|  1> !LC-PBE RIJCOSX def2-SVPD def2/J TightSCF
|  2> *xyz 0 1
|  3> C          2.20996       -2.81239       -3.66571
|  4> C          2.48901       -1.66851       -2.73754
|  5> N          3.59631       -0.94761       -2.95225
|  6> C          1.66394       -1.41369       -1.77781
|  7> H          0.81164       -1.96318       -1.70275
|  8> H          1.84550       -0.63508       -1.15875
|  9> H          4.20535       -1.17600       -3.73383
| 10> H          3.81723       -0.12585       -2.40604
| 11> H          2.99011       -2.87840       -4.39503
| 12> H          1.27381       -2.65174       -4.15838
| 13> H          2.16680       -3.72339       -3.10614
| 14> *
| 15>
| 16> %MaxCore 64000
| 17> %pal nprocs 4
| 18> end
| 19>
| 20> %scf
| 21>   MaxIter 150
| 22> end
| 23>
| 24>
| 25>                          ****END OF INPUT****

CARTESIAN COORDINATES (ANGSTROEM)
---------------------------------
  C      2.209960   -2.812390   -3.665710
  C      2.489010   -1.668510   -2.737540
  N      3.596310   -0.947610   -2.952250
  C      1.663940   -1.413690   -1.777810
  H      0.811640   -1.963180   -1.702750
  H      1.845500   -0.635080   -1.158750
  H      4.205350   -1.176000   -3.733830
  H      3.817230   -0.125850   -2.406040
  H      2.990110   -2.878400   -4.395030
  H      1.273810   -2.651740   -4.158380
  H      2.166800   -3.723390   -3.106140

 Total Charge           Charge          ....    0
 Multiplicity           Mult            ....    1
 Number of Electrons    NEL             ....   32
 Basis Dimension        Dim             ....  136

ORBITAL ENERGIES
----------------

  NO   OCC          E(Eh)            E(eV)
   0   2.0000     -14.228023      -387.1642
   1   2.0000     -10.152367      -276.2599
   2   2.0000     -10.115983      -275.2699
   3   2.0000     -10.056165      -273.6422
   4   2.0000      -1.088988       -29.6329
   5   2.0000      -0.927105       -25.2278
   6   2.0000      -0.855157       -23.2700
   7   2.0000      -0.719034       -19.5659
   8   2.0000      -0.668306       -18.1855
   9   2.0000      -0.621016       -16.8987
  10   2.0000      -0.575271       -15.6539
  11   2.0000      -0.536072       -14.5873
  12   2.0000      -0.528399       -14.3785
  13   2.0000      -0.484908       -13.1950
  14   2.0000      -0.473304       -12.8793
  15   2.0000      -0.313955        -8.5431
  16   0.0000       0.091753         2.4967
  17   0.0000       0.124850         3.3973
  18   0.0000       0.128867         3.5066
  19   0.0000       0.135085         3.6759
  20   0.0000       0.164148         4.4667

MULLIKEN ATOMIC CHARGES
-----------------------
   0 C :    0.502373
   1 C :   -0.220232
   2 N :    0.010486
   3 C :    0.162464
   4 H :   -0.127656
   5 H :   -0.258334
   6 H :   -0.042374
   7 H :   -0.127837
   8 H :   -0.051901
   9 H :    0.076430
  10 H :    0.076583
Sum of atomic charges:    0.0000000

LOEWDIN ATOMIC CHARGES
----------------------
   0 C :    0.133350
   1 C :   -0.292911
   2 N :    0.146194
   3 C :    0.126638
   4 H :   -0.055667
   5 H :   -0.067413
   6 H :    0.002977
   7 H :    0.010903
   8 H :   -0.016658
   9 H :    0.006221
  10 H :    0.006364

  Mayer bond orders larger than 0.100000
B(  0-C ,  1-C ) :   1.1203 B(  0-C ,  8-H ) :   0.7950 B(  0-C ,  9-H ) :   0.7929
B(  0-C , 10-H ) :   0.7898 B(  1-C ,  2-N ) :   1.0047 B(  1-C ,  3-C ) :   1.9392
B(  1-C ,  4-H ) :   0.1185 B(  1-C ,  5-H ) :   0.2191 B(  1-C ,  7-H ) :  -0.1430
B(  1-C ,  8-H ) :   0.2050 B(  1-C ,  9-H ) :   0.1330 B(  1-C , 10-H ) :   0.1403
B(  2-N ,  3-C ) :   0.2254 B(  2-N ,  6-H ) :   1.1103 B(  2-N ,  7-H ) :   1.2904
B(  3-C ,  4-H ) :   0.8747 B(  3-C ,  5-H ) :   0.7886 B(  6-H ,  7-H ) :  -0.1542

FINAL SINGLE POINT ENERGY      -172.548845381758

DIPOLE MOMENT
-------------
                                X             Y             Z
Electronic contribution:      1.02825       1.24375       0.47543
Nuclear contribution   :     -0.50975      -1.14105      -0.93029
                        -----------------------------------------
Total Dipole Moment    :      0.51850       0.10270      -0.45486
                        -----------------------------------------
Magnitude (a.u.)       :      0.69734
Magnitude (Debye)      :      1.77250

Rotational constants in cm-1:     0.350603     0.305690     0.168346
Rotational constants in MHz : 10510.799277  9164.357607  5046.873498

                             ****ORCA TERMINATED NORMALLY****
TOTAL RUN TIME: 0 days 0 hours 0 minutes 11 seconds 329 msec
