                         Program Version 5.0.0 -  RELEASE  -
|  1> !LC-PBE RIJCOSX def2-SVPD def2/J TightSCF xyzfile
|  2>
|  3> *xyzfile 0 1 D1.xyz
|  4>
|  5> %MaxCore 64000
|  6>
|  7> %pal nprocs 4
|  8> end
|  9>
| 10> %scf
| 11>   MaxIter 150
| 12> end
| 13>
| 14>
| 15>                          ****END OF INPUT****

CARTESIAN COORDINATES (ANGSTROEM)
---------------------------------
  C      1.647032   -2.345276   -5.020411
  C      0.217628   -1.814022   -4.924389
  C      2.209964   -2.812388   -3.665708
  C     -0.811356   -2.908780   -4.607625
  C     -1.916579   -2.485081   -3.643665
  H     -2.554525   -1.712428   -4.091993
  C     -1.363531   -1.981337   -2.293608
  H     -2.553448   -3.355667   -3.458815
  F     -0.350395   -2.749689   -1.796006
  H      2.308385   -1.588704   -5.457128
  H      1.674286   -3.203478   -5.697392
  C      2.489007   -1.668510   -2.737538
  C      3.596314   -0.947608   -2.952247
  N      1.663936   -1.413685   -1.777806
  H      0.811642   -1.963178   -1.702755
  H      1.845503   -0.635078   -1.158749
  H      4.205351   -1.176003   -3.733825
  H      3.817230   -0.125845   -2.406041
  H     -1.244829   -3.280884   -5.541040
  H     -0.306331   -3.757746   -4.142734
  H     -0.036244   -1.318555   -5.865303
  H      0.175004   -1.035382   -4.158095
  H      3.143106   -3.362803   -3.811524
  H      1.487683   -3.458935   -3.165211
  H     -2.226220   -1.908386   -1.602039
  H     -1.051353   -0.915671   -2.443331

 Total Charge           Charge          ....    0
 Multiplicity           Mult            ....    1
 Number of Electrons    NEL             ....   80
 Basis Dimension        Dim             ....  331

ORBITAL ENERGIES
----------------

  NO   OCC          E(Eh)            E(eV)
   0   2.0000     -24.543897      -667.8734
   1   2.0000     -14.196836      -386.3155
   2   2.0000     -10.230213      -278.3782
   3   2.0000     -10.147562      -276.1292
   4   2.0000     -10.137268      -275.8491
   5   2.0000     -10.130710      -275.6706
   6   2.0000     -10.122109      -275.4366
   7   2.0000     -10.118934      -275.3502
   8   2.0000     -10.114241      -275.2225
   9   2.0000     -10.039582      -273.1909
  10   2.0000      -1.398915       -38.0664
  11   2.0000      -1.084972       -29.5236
  12   2.0000      -0.998541       -27.1717
  13   2.0000      -0.952099       -25.9079
  14   2.0000      -0.903218       -24.5778
  15   2.0000      -0.855310       -23.2742
  16   2.0000      -0.830192       -22.5907
  17   2.0000      -0.770186       -20.9578
  18   2.0000      -0.747682       -20.3455
  19   2.0000      -0.731207       -19.8971
  20   2.0000      -0.690223       -18.7819
  21   2.0000      -0.679465       -18.4892
  22   2.0000      -0.663587       -18.0571
  23   2.0000      -0.633917       -17.2498
  24   2.0000      -0.613793       -16.7022
  25   2.0000      -0.606759       -16.5108
  26   2.0000      -0.583205       -15.8698
  27   2.0000      -0.560536       -15.2530
  28   2.0000      -0.560303       -15.2466
  29   2.0000      -0.527400       -14.3513
  30   2.0000      -0.504093       -13.7171
  31   2.0000      -0.497584       -13.5399
  32   2.0000      -0.494598       -13.4587
  33   2.0000      -0.487325       -13.2608
  34   2.0000      -0.472188       -12.8489
  35   2.0000      -0.461400       -12.5553
  36   2.0000      -0.448064       -12.1925
  37   2.0000      -0.440198       -11.9784
  38   2.0000      -0.433584       -11.7984
  39   2.0000      -0.284964        -7.7543
  40   0.0000       0.084182         2.2907
  41   0.0000       0.098819         2.6890
  42   0.0000       0.106550         2.8994
  43   0.0000       0.110841         3.0161
  44   0.0000       0.129110         3.5133

MULLIKEN ATOMIC CHARGES
-----------------------
   0 C :    0.043315
   1 C :    0.026211
   2 C :    0.362104
   3 C :   -0.081769
   4 C :    0.015820
   5 H :   -0.017010
   6 C :    0.445116
   7 H :    0.102164
   8 F :   -0.442362
   9 H :    0.039477
  10 H :   -0.039964
  11 C :   -0.133149
  12 C :    0.151366
  13 N :    0.552076
  14 H :   -0.461086
  15 H :   -0.088973
  16 H :   -0.092711
  17 H :   -0.303396
  18 H :   -0.115843
  19 H :    0.084888
  20 H :   -0.068714
  21 H :   -0.031124
  22 H :    0.094316
  23 H :   -0.169572
  24 H :   -0.153597
  25 H :    0.282413
Sum of atomic charges:   -0.0000000

LOEWDIN ATOMIC CHARGES
----------------------
   0 C :   -0.037076
   1 C :   -0.037220
   2 C :    0.001144
   3 C :   -0.048836
   4 C :   -0.034819
   5 H :    0.047509
   6 C :    0.117731
   7 H :    0.036316
   8 F :   -0.161014
   9 H :    0.033242
  10 H :    0.032955
  11 C :   -0.252393
  12 C :    0.136549
  13 N :    0.189865
  14 H :   -0.135526
  15 H :    0.028297
  16 H :   -0.075675
  17 H :   -0.084560
  18 H :    0.036604
  19 H :    0.017270
  20 H :    0.032830
  21 H :    0.011614
  22 H :    0.041709
  23 H :    0.004401
  24 H :    0.050412
  25 H :    0.048673

  Mayer bond orders larger than 0.100000
B(  0-C ,  1-C ) :   1.2704 B(  0-C ,  2-C ) :   1.1832 B(  0-C ,  9-H ) :   0.8014
B(  0-C , 10-H ) :   0.9317 B(  0-C , 21-H ) :   0.1565 B(  0-C , 23-H ) :   0.1472
B(  1-C ,  3-C ) :   1.1805 B(  1-C ,  9-H ) :   0.1582 B(  1-C , 10-H ) :   0.1214
B(  1-C , 18-H ) :   0.1802 B(  1-C , 20-H ) :   0.9074 B(  1-C , 21-H ) :   0.8306
B(  2-C ,  9-H ) :   0.1451 B(  2-C , 11-C ) :   1.0151 B(  2-C , 13-N ) :   0.1255
B(  2-C , 22-H ) :   0.8138 B(  2-C , 23-H ) :   0.7259 B(  3-C ,  4-C ) :   1.2348
B(  3-C ,  5-H ) :   0.1128 B(  3-C ,  7-H ) :   0.1690 B(  3-C , 18-H ) :   0.9503
B(  3-C , 19-H ) :   0.8550 B(  3-C , 20-H ) :   0.1026 B(  3-C , 21-H ) :   0.1311
B(  4-C ,  5-H ) :   0.9382 B(  4-C ,  6-C ) :   1.2501 B(  4-C ,  7-H ) :   0.7648
B(  4-C , 24-H ) :   0.1088 B(  6-C ,  8-F ) :   0.6392 B(  6-C , 24-H ) :   1.0478
B(  6-C , 25-H ) :   0.7740 B(  8-F , 14-H ) :   0.2040 B(  9-H , 10-H ) :  -0.1016
B( 11-C , 12-C ) :   1.8561 B( 11-C , 13-N ) :   1.1893 B( 11-C , 14-H ) :   0.1068
B( 11-C , 15-H ) :  -0.1069 B( 11-C , 17-H ) :   0.1567 B( 11-C , 22-H ) :   0.1348
B( 11-C , 23-H ) :   0.2068 B( 12-C , 13-N ) :   0.1506 B( 12-C , 16-H ) :   0.8844
B( 12-C , 17-H ) :   0.7496 B( 13-N , 14-H ) :   0.9039 B( 13-N , 15-H ) :   1.1873
B( 14-H , 15-H ) :  -0.1905 B( 19-H , 23-H ) :   0.1039

FINAL SINGLE POINT ENERGY      -467.234256870064

DIPOLE MOMENT
-------------
                                X             Y             Z
Electronic contribution:     -1.33649      -1.72459       6.88827
Nuclear contribution   :     -0.37390       1.73388      -6.94752
                        -----------------------------------------
Total Dipole Moment    :     -1.71040       0.00930      -0.05925
                        -----------------------------------------
Magnitude (a.u.)       :      1.71145
Magnitude (Debye)      :      4.35015

Rotational constants in cm-1:     0.062220     0.032742     0.024374
Rotational constants in MHz :  1865.297979   981.573941   730.711364

                             ****ORCA TERMINATED NORMALLY****
TOTAL RUN TIME: 0 days 0 hours 1 minutes 43 seconds 408 msec
