                         Program Version 5.0.0 -  RELEASE  -
|  1> !PBE D3BJ RIJCOSX def2-TZVPD def2/J TightSCF
|  2> *xyz -1 1
|  3> C         -0.77455        2.78833       -0.54394
|  4> C          0.69721        3.22791       -0.52513
|  5> O          1.48929        2.37470        0.19919
|  6> H          0.71600        4.26403       -0.13077
|  7> H          1.03615        3.33092       -1.58367
|  8> H         -1.34746        3.48478       -1.11982
|  9> H         -1.15078        2.75876        0.45729
| 10> H         -0.85058        1.81526       -0.98241
| 11> *
| 12>
| 13> %MaxCore 64000
| 14> %pal nprocs 4
| 15> end
| 16>
| 17> %scf
| 18>   MaxIter 150
| 19> end
| 20>
| 21>
| 22>                          ****END OF INPUT****

CARTESIAN COORDINATES (ANGSTROEM)
---------------------------------
  C     -0.774550    2.788330   -0.543940
  C      0.697210    3.227910   -0.525130
  O      1.489290    2.374700    0.199190
  H      0.716000    4.264030   -0.130770
  H      1.036150    3.330920   -1.583670
  H     -1.347460    3.484780   -1.119820
  H     -1.150780    2.758760    0.457290
  H     -0.850580    1.815260   -0.982410

 Total Charge           Charge          ....   -1
 Multiplicity           Mult            ....    1
 Number of Electrons    NEL             ....   26
 Basis Dimension        Dim             ....  159

ORBITAL ENERGIES
----------------

  NO   OCC          E(Eh)            E(eV)
   0   2.0000     -18.434164      -501.6191
   1   2.0000      -9.698431      -263.9077
   2   2.0000      -9.672882      -263.2125
   3   2.0000      -0.607690       -16.5361
   4   2.0000      -0.459826       -12.5125
   5   2.0000      -0.317366        -8.6360
   6   2.0000      -0.204440        -5.5631
   7   2.0000      -0.183474        -4.9926
   8   2.0000      -0.134277        -3.6539
   9   2.0000      -0.115382        -3.1397
  10   2.0000      -0.077951        -2.1212
  11   2.0000       0.060305         1.6410
  12   2.0000       0.064251         1.7484
  13   0.0000       0.140199         3.8150
  14   0.0000       0.163038         4.4365
  15   0.0000       0.187612         5.1052
  16   0.0000       0.191408         5.2085
  17   0.0000       0.212159         5.7731

MULLIKEN ATOMIC CHARGES
-----------------------
   0 C :   -0.986560
   1 C :   -0.165272
   2 O :   -0.869328
   3 H :    0.125343
   4 H :    0.130867
   5 H :    0.340093
   6 H :    0.211710
   7 H :    0.213147
Sum of atomic charges:   -1.0000000

LOEWDIN ATOMIC CHARGES
----------------------
   0 C :   -0.185272
   1 C :   -0.631937
   2 O :   -0.376370
   3 H :    0.049078
   4 H :    0.052090
   5 H :    0.020194
   6 H :    0.036330
   7 H :    0.035888

  Mayer bond orders larger than 0.100000
B(  0-C ,  1-C ) :   0.8822 B(  0-C ,  2-O ) :   0.6408 B(  0-C ,  5-H ) :   0.9669
B(  0-C ,  6-H ) :   1.0111 B(  0-C ,  7-H ) :   1.0124 B(  1-C ,  2-O ) :   0.8641
B(  1-C ,  3-H ) :   1.0809 B(  1-C ,  4-H ) :   1.0739 B(  2-O ,  5-H ) :  -0.1243
B(  3-H ,  4-H ) :   0.1236

Dispersion correction           -0.003763028
FINAL SINGLE POINT ENERGY      -154.301485930772

DIPOLE MOMENT
-------------
                                X             Y             Z
Electronic contribution:      2.63094      -1.10301       1.27263
Nuclear contribution   :     -3.69910       1.55962      -1.78699
                        -----------------------------------------
Total Dipole Moment    :     -1.06816       0.45661      -0.51436
                        -----------------------------------------
Magnitude (a.u.)       :      1.27044
Magnitude (Debye)      :      3.22921

Rotational constants in cm-1:     1.268893     0.327436     0.287754
Rotational constants in MHz : 38040.440181  9816.269339  8626.646564

                             ****ORCA TERMINATED NORMALLY****
TOTAL RUN TIME: 0 days 0 hours 0 minutes 8 seconds 837 msec
