                         Program Version 5.0.0 -  RELEASE  -
|  1> !PBE D3BJ RIJCOSX def2-TZVPD def2/J TightSCF
|  2> *xyz 1 1
|  3> C          3.95643        0.50147       -0.37910
|  4> H          3.16840        0.02920        0.20738
|  5> N          3.80389        1.96157       -0.15675
|  6> C          3.84232        0.14849       -1.85406
|  7> H          4.92323        0.17798        0.00937
|  8> H          4.20643        2.24441        0.74536
|  9> H          2.80827        2.21132       -0.09610
| 10> H          4.28076        2.50155       -0.89104
| 11> H          4.62951        0.62800       -2.39748
| 12> H          2.89665        0.48102       -2.22825
| 13> H          3.92053       -0.91187       -1.97413
| 14> *
| 15>
| 16> %MaxCore 64000
| 17> %pal nprocs 4
| 18> end
| 19>
| 20> %scf
| 21>   MaxIter 150
| 22> end
| 23>
| 24>
| 25>                          ****END OF INPUT****

CARTESIAN COORDINATES (ANGSTROEM)
---------------------------------
  C      3.956430    0.501470   -0.379100
  H      3.168400    0.029200    0.207380
  N      3.803890    1.961570   -0.156750
  C      3.842320    0.148490   -1.854060
  H      4.923230    0.177980    0.009370
  H      4.206430    2.244410    0.745360
  H      2.808270    2.211320   -0.096100
  H      4.280760    2.501550   -0.891040
  H      4.629510    0.628000   -2.397480
  H      2.896650    0.481020   -2.228250
  H      3.920530   -0.911870   -1.974130

 Total Charge           Charge          ....    1
 Multiplicity           Mult            ....    1
 Number of Electrons    NEL             ....   26
 Basis Dimension        Dim             ....  183

ORBITAL ENERGIES
----------------

  NO   OCC          E(Eh)            E(eV)
   0   2.0000     -14.318062      -389.6143
   1   2.0000     -10.134237      -275.7666
   2   2.0000     -10.055803      -273.6323
   3   2.0000      -1.138021       -30.9671
   4   2.0000      -0.898268       -24.4431
   5   2.0000      -0.785517       -21.3750
   6   2.0000      -0.751776       -20.4569
   7   2.0000      -0.734321       -19.9819
   8   2.0000      -0.650849       -17.7105
   9   2.0000      -0.596275       -16.2255
  10   2.0000      -0.540563       -14.7095
  11   2.0000      -0.526529       -14.3276
  12   2.0000      -0.508647       -13.8410
  13   0.0000      -0.223180        -6.0730
  14   0.0000      -0.167351        -4.5539
  15   0.0000      -0.161940        -4.4066
  16   0.0000      -0.152591        -4.1522
  17   0.0000      -0.121428        -3.3042

MULLIKEN ATOMIC CHARGES
-----------------------
   0 C :   -0.202495
   1 H :    0.220974
   2 N :   -0.160821
   3 C :   -0.830583
   4 H :    0.219811
   5 H :    0.315386
   6 H :    0.324463
   7 H :    0.295231
   8 H :    0.307059
   9 H :    0.284048
  10 H :    0.226927
Sum of atomic charges:    1.0000000

LOEWDIN ATOMIC CHARGES
----------------------
   0 C :   -0.206699
   1 H :    0.136544
   2 N :    0.186441
   3 C :   -0.053011
   4 H :    0.136877
   5 H :    0.178677
   6 H :    0.181456
   7 H :    0.178167
   8 H :    0.083844
   9 H :    0.083856
  10 H :    0.093848

  Mayer bond orders larger than 0.100000
B(  0-C ,  1-H ) :   0.9409 B(  0-C ,  2-N ) :   1.0297 B(  0-C ,  3-C ) :   0.8339
B(  0-C ,  4-H ) :   0.9374 B(  2-N ,  5-H ) :   0.8789 B(  2-N ,  6-H ) :   0.8693
B(  2-N ,  7-H ) :   0.8822 B(  3-C ,  8-H ) :   0.9179 B(  3-C ,  9-H ) :   0.9593
B(  3-C , 10-H ) :   0.9946

Dispersion correction           -0.006160709
FINAL SINGLE POINT ENERGY      -135.399883970843

DIPOLE MOMENT
-------------
                                X             Y             Z
Electronic contribution:     -0.01215       1.30807       1.22926
Nuclear contribution   :     -0.06214      -0.04120      -0.39947
                        -----------------------------------------
Total Dipole Moment    :     -0.07429       1.26686       0.82979
                        -----------------------------------------
Magnitude (a.u.)       :      1.51625
Magnitude (Debye)      :      3.85400

Rotational constants in cm-1:     1.011771     0.281435     0.249812
Rotational constants in MHz : 30332.138762  8437.210602  7489.166323

                             ****ORCA TERMINATED NORMALLY****
TOTAL RUN TIME: 0 days 0 hours 0 minutes 9 seconds 250 msec
