                         Program Version 5.0.0 -  RELEASE  -
|  1> !PBE D3BJ RIJCOSX def2-TZVPD def2/J TightSCF xyzfile
|  2>
|  3> *xyzfile 0 1 B.xyz
|  4>
|  5> %MaxCore 64000
|  6>
|  7> %pal nprocs 4
|  8> end
|  9>
| 10> %scf
| 11>   MaxIter 150
| 12> end
| 13>
| 14>
| 15>                          ****END OF INPUT****

CARTESIAN COORDINATES (ANGSTROEM)
---------------------------------
  C      3.956426    0.501466   -0.379100
  H      3.168398    0.029201    0.207383
  N      3.803893    1.961572   -0.156747
  C      3.842322    0.148490   -1.854058
  H      4.923231    0.177982    0.009371
  H      4.620021    0.694502   -2.402150
  H      4.096015   -0.910930   -1.955103
  C      2.475619    0.412708   -2.485377
  H      2.174689    1.445076   -2.287971
  C      1.383931   -0.532740   -1.995203
  H      2.575613    0.318574   -3.571460
  H      1.264698   -0.412309   -0.915491
  H      1.705223   -1.566885   -2.164984
  C      0.031398   -0.317260   -2.677791
  C     -0.587292    1.060853   -2.436460
  H     -0.662815   -1.089530   -2.329985
  H      0.149465   -0.478040   -3.755648
  H      0.104376    1.828590   -2.793130
  C     -0.951213    1.334978   -0.972500
  H     -1.478832    1.161355   -3.062484
  H     -0.317007    0.741648   -0.311389
  H     -1.980916    1.012842   -0.788958
  C     -0.774550    2.788332   -0.543943
  H     -1.352609    3.459372   -1.192585
  H     -1.171014    2.902331    0.469968
  C      0.697208    3.227911   -0.525126
  O      1.489294    2.374703    0.199189
  H      0.715998    4.264030   -0.130774
  H      1.036148    3.330920   -1.583669
  H      4.206425    2.244406    0.745359
  H      2.808269    2.211323   -0.096097
  H      4.280757    2.501552   -0.891037

 Total Charge           Charge          ....    0
 Multiplicity           Mult            ....    1
 Number of Electrons    NEL             ....   90
 Basis Dimension        Dim             ....  599

ORBITAL ENERGIES
----------------

  NO   OCC          E(Eh)            E(eV)
   0   2.0000     -18.628602      -506.9100
   1   2.0000     -14.065074      -382.7301
   2   2.0000      -9.947732      -270.6915
   3   2.0000      -9.905652      -269.5465
   4   2.0000      -9.880157      -268.8527
   5   2.0000      -9.868092      -268.5244
   6   2.0000      -9.864416      -268.4244
   7   2.0000      -9.862462      -268.3712
   8   2.0000      -9.850043      -268.0333
   9   2.0000      -9.837670      -267.6966
  10   2.0000      -9.830771      -267.5089
  11   2.0000      -0.910531       -24.7768
  12   2.0000      -0.811101       -22.0712
  13   2.0000      -0.745111       -20.2755
  14   2.0000      -0.707539       -19.2531
  15   2.0000      -0.671632       -18.2760
  16   2.0000      -0.632676       -17.2160
  17   2.0000      -0.597058       -16.2468
  18   2.0000      -0.561684       -15.2842
  19   2.0000      -0.534943       -14.5565
  20   2.0000      -0.520204       -14.1555
  21   2.0000      -0.513458       -13.9719
  22   2.0000      -0.490714       -13.3530
  23   2.0000      -0.456226       -12.4145
  24   2.0000      -0.445133       -12.1127
  25   2.0000      -0.419087       -11.4039
  26   2.0000      -0.418721       -11.3940
  27   2.0000      -0.389833       -10.6079
  28   2.0000      -0.377666       -10.2768
  29   2.0000      -0.372367       -10.1326
  30   2.0000      -0.356691        -9.7061
  31   2.0000      -0.346685        -9.4338
  32   2.0000      -0.338295        -9.2055
  33   2.0000      -0.322059        -8.7637
  34   2.0000      -0.313226        -8.5233
  35   2.0000      -0.302373        -8.2280
  36   2.0000      -0.294026        -8.0008
  37   2.0000      -0.284475        -7.7410
  38   2.0000      -0.275694        -7.5020
  39   2.0000      -0.270075        -7.3491
  40   2.0000      -0.249980        -6.8023
  41   2.0000      -0.245540        -6.6815
  42   2.0000      -0.241598        -6.5742
  43   2.0000      -0.144351        -3.9280
  44   2.0000      -0.134696        -3.6653
  45   0.0000      -0.044151        -1.2014
  46   0.0000      -0.011549        -0.3143
  47   0.0000      -0.007016        -0.1909
  48   0.0000       0.005945         0.1618
  49   0.0000       0.018476         0.5028

MULLIKEN ATOMIC CHARGES
-----------------------
   0 C :   -0.391228
   1 H :    0.240058
   2 N :    0.123247
   3 C :   -0.261377
   4 H :    0.165512
   5 H :    0.120129
   6 H :    0.124819
   7 C :    0.139719
   8 H :   -0.109885
   9 C :   -0.194596
  10 H :    0.147237
  11 H :    0.052419
  12 H :    0.150665
  13 C :   -0.358692
  14 C :   -0.418788
  15 H :    0.118343
  16 H :    0.177252
  17 H :    0.221399
  18 C :   -0.122050
  19 H :    0.167823
  20 H :    0.027818
  21 H :    0.169306
  22 C :   -0.330238
  23 H :    0.118493
  24 H :    0.182420
  25 C :   -0.286614
  26 O :   -0.854978
  27 H :    0.140277
  28 H :    0.182610
  29 H :    0.336718
  30 H :   -0.110690
  31 H :    0.332873
Sum of atomic charges:    0.0000000

LOEWDIN ATOMIC CHARGES
----------------------
   0 C :   -0.178899
   1 H :    0.126748
   2 N :    0.143449
   3 C :   -0.195183
   4 H :    0.117576
   5 H :    0.111546
   6 H :    0.116819
   7 C :   -0.206611
   8 H :    0.092460
   9 C :   -0.214201
  10 H :    0.119925
  11 H :    0.097381
  12 H :    0.113979
  13 C :   -0.211735
  14 C :   -0.212031
  15 H :    0.111056
  16 H :    0.106955
  17 H :    0.091185
  18 C :   -0.218718
  19 H :    0.109064
  20 H :    0.090551
  21 H :    0.107038
  22 C :   -0.206870
  23 H :    0.107047
  24 H :    0.104354
  25 C :   -0.429691
  26 O :   -0.241413
  27 H :    0.094447
  28 H :    0.085514
  29 H :    0.157638
  30 H :   -0.047298
  31 H :    0.157915

  Mayer bond orders larger than 0.100000
B(  0-C ,  1-H ) :   0.9264 B(  0-C ,  2-N ) :   0.9991 B(  0-C ,  3-C ) :   0.8899
B(  0-C ,  4-H ) :   0.9401 B(  0-C ,  9-C ) :   0.1400 B(  0-C , 30-H ) :   0.1030
B(  2-N , 29-H ) :   0.8360 B(  2-N , 30-H ) :   0.9506 B(  2-N , 31-H ) :   0.8085
B(  3-C ,  5-H ) :   0.9320 B(  3-C ,  6-H ) :   0.9617 B(  3-C ,  7-C ) :   0.9929
B(  3-C ,  8-H ) :   0.1506 B(  3-C ,  9-C ) :   0.2431 B(  7-C ,  8-H ) :   1.2640
B(  7-C ,  9-C ) :   0.5969 B(  7-C , 10-H ) :   0.8367 B(  7-C , 12-H ) :  -0.1026
B(  7-C , 13-C ) :   0.2418 B(  7-C , 14-C ) :   0.1651 B(  9-C , 11-H ) :   1.0501
B(  9-C , 12-H ) :   0.9129 B(  9-C , 13-C ) :   1.0164 B(  9-C , 18-C ) :   0.1002
B( 13-C , 14-C ) :   0.9917 B( 13-C , 15-H ) :   0.9561 B( 13-C , 16-H ) :   0.9171
B( 13-C , 18-C ) :   0.2733 B( 14-C , 17-H ) :   0.9615 B( 14-C , 18-C ) :   0.7178
B( 14-C , 19-H ) :   0.9384 B( 14-C , 22-C ) :   0.3285 B( 18-C , 20-H ) :   0.9896
B( 18-C , 21-H ) :   0.9206 B( 18-C , 22-C ) :   1.0179 B( 20-H , 22-C ) :   0.1141
B( 22-C , 23-H ) :   0.9929 B( 22-C , 24-H ) :   0.8682 B( 22-C , 25-C ) :   1.0579
B( 25-C , 26-O ) :   0.8800 B( 25-C , 27-H ) :   0.9687 B( 25-C , 28-H ) :   0.9479
B( 26-O , 30-H ) :   0.3135

Dispersion correction           -0.033215252
FINAL SINGLE POINT ENERGY      -485.095226008260

DIPOLE MOMENT
-------------
                                X             Y             Z
Electronic contribution:      2.06453       0.88315       2.59378
Nuclear contribution   :      0.61785      -1.47632      -2.91844
                        -----------------------------------------
Total Dipole Moment    :      2.68238      -0.59318      -0.32466
                        -----------------------------------------
Magnitude (a.u.)       :      2.76630
Magnitude (Debye)      :      7.03137

Rotational constants in cm-1:     0.040993     0.027400     0.018162
Rotational constants in MHz :  1228.944366   821.418004   544.476857

                             ****ORCA TERMINATED NORMALLY****
TOTAL RUN TIME: 0 days 0 hours 1 minutes 6 seconds 800 msec
