                         Program Version 5.0.0 -  RELEASE  -
|  1> !PBE D3BJ RIJCOSX def2-TZVPD def2/J TightSCF
|  2> *xyz 0 1
|  3> C         -0.77455        2.78833       -0.54394
|  4> C          0.69721        3.22791       -0.52513
|  5> F          1.48929        2.37470        0.19919
|  6> H          0.71600        4.26403       -0.13077
|  7> H          1.03615        3.33092       -1.58367
|  8> H         -1.34746        3.48478       -1.11982
|  9> H         -1.15078        2.75876        0.45729
| 10> H         -0.85058        1.81526       -0.98241
| 11> *
| 12>
| 13> %MaxCore 64000
| 14> %pal nprocs 4
| 15> end
| 16>
| 17> %scf
| 18>   MaxIter 150
| 19> end
| 20>
| 21>
| 22>                          ****END OF INPUT****

CARTESIAN COORDINATES (ANGSTROEM)
---------------------------------
  C     -0.774550    2.788330   -0.543940
  C      0.697210    3.227910   -0.525130
  F      1.489290    2.374700    0.199190
  H      0.716000    4.264030   -0.130770
  H      1.036150    3.330920   -1.583670
  H     -1.347460    3.484780   -1.119820
  H     -1.150780    2.758760    0.457290
  H     -0.850580    1.815260   -0.982410

 Total Charge           Charge          ....    0
 Multiplicity           Mult            ....    1
 Number of Electrons    NEL             ....   26
 Basis Dimension        Dim             ....  159

ORBITAL ENERGIES
----------------

  NO   OCC          E(Eh)            E(eV)
   0   2.0000     -24.247464      -659.8070
   1   2.0000      -9.957377      -270.9540
   2   2.0000      -9.875037      -268.7134
   3   2.0000      -1.099716       -29.9248
   4   2.0000      -0.694254       -18.8916
   5   2.0000      -0.569275       -15.4908
   6   2.0000      -0.456878       -12.4323
   7   2.0000      -0.439375       -11.9560
   8   2.0000      -0.403575       -10.9818
   9   2.0000      -0.355739        -9.6801
  10   2.0000      -0.354308        -9.6412
  11   2.0000      -0.288684        -7.8555
  12   2.0000      -0.282759        -7.6943
  13   0.0000      -0.005589        -0.1521
  14   0.0000       0.022657         0.6165
  15   0.0000       0.033793         0.9196
  16   0.0000       0.041055         1.1172
  17   0.0000       0.065156         1.7730

MULLIKEN ATOMIC CHARGES
-----------------------
   0 C :   -0.681326
   1 C :   -0.009623
   2 F :   -0.244986
   3 H :    0.144072
   4 H :    0.147762
   5 H :    0.246068
   6 H :    0.200584
   7 H :    0.197449
Sum of atomic charges:   -0.0000000

LOEWDIN ATOMIC CHARGES
----------------------
   0 C :   -0.085559
   1 C :   -0.308276
   2 F :   -0.023417
   3 H :    0.109153
   4 H :    0.113151
   5 H :    0.066829
   6 H :    0.064249
   7 H :    0.063869

  Mayer bond orders larger than 0.100000
B(  0-C ,  1-C ) :   0.9121 B(  0-C ,  5-H ) :   0.9460 B(  0-C ,  6-H ) :   0.9732
B(  0-C ,  7-H ) :   0.9747 B(  1-C ,  2-F ) :   0.8830 B(  1-C ,  3-H ) :   0.9850
B(  1-C ,  4-H ) :   0.9793

Dispersion correction           -0.003481434
FINAL SINGLE POINT ENERGY      -178.924921653541

DIPOLE MOMENT
-------------
                                X             Y             Z
Electronic contribution:      4.43686      -1.67821       2.02195
Nuclear contribution   :     -4.89513       2.05627      -2.36166
                        -----------------------------------------
Total Dipole Moment    :     -0.45827       0.37806      -0.33971
                        -----------------------------------------
Magnitude (a.u.)       :      0.68436
Magnitude (Debye)      :      1.73950

Rotational constants in cm-1:     1.247826     0.304622     0.269019
Rotational constants in MHz : 37408.889506  9132.346906  8064.979146

                             ****ORCA TERMINATED NORMALLY****
TOTAL RUN TIME: 0 days 0 hours 0 minutes 7 seconds 962 msec
