                         Program Version 5.0.0 -  RELEASE  -
|  1> !PBE D3BJ RIJCOSX def2-TZVPD def2/J TightSCF
|  2> *xyz 0 1
|  3> C          3.95643        0.50147       -0.37910
|  4> H          3.16840        0.02920        0.20738
|  5> C          3.80389        1.96157       -0.15675
|  6> C          3.84232        0.14849       -1.85406
|  7> H          4.92323        0.17798        0.00937
|  8> H          4.20643        2.24441        0.74536
|  9> H          2.80827        2.21132       -0.09610
| 10> H          4.28076        2.50155       -0.89104
| 11> H          4.62951        0.62800       -2.39748
| 12> H          2.89665        0.48102       -2.22825
| 13> H          3.92053       -0.91187       -1.97413
| 14> *
| 15>
| 16> %MaxCore 64000
| 17> %pal nprocs 4
| 18> end
| 19>
| 20> %scf
| 21>   MaxIter 150
| 22> end
| 23>
| 24>
| 25>                          ****END OF INPUT****

CARTESIAN COORDINATES (ANGSTROEM)
---------------------------------
  C      3.956430    0.501470   -0.379100
  H      3.168400    0.029200    0.207380
  C      3.803890    1.961570   -0.156750
  C      3.842320    0.148490   -1.854060
  H      4.923230    0.177980    0.009370
  H      4.206430    2.244410    0.745360
  H      2.808270    2.211320   -0.096100
  H      4.280760    2.501550   -0.891040
  H      4.629510    0.628000   -2.397480
  H      2.896650    0.481020   -2.228250
  H      3.920530   -0.911870   -1.974130

 Total Charge           Charge          ....    0
 Multiplicity           Mult            ....    1
 Number of Electrons    NEL             ....   26
 Basis Dimension        Dim             ....  183

ORBITAL ENERGIES
----------------

  NO   OCC          E(Eh)            E(eV)
   0   2.0000      -9.867425      -268.5063
   1   2.0000      -9.857466      -268.2353
   2   2.0000      -9.839506      -267.7466
   3   2.0000      -0.719254       -19.5719
   4   2.0000      -0.623205       -16.9583
   5   2.0000      -0.525210       -14.2917
   6   2.0000      -0.419728       -11.4214
   7   2.0000      -0.397787       -10.8243
   8   2.0000      -0.356691        -9.7060
   9   2.0000      -0.345103        -9.3907
  10   2.0000      -0.295668        -8.0455
  11   2.0000      -0.293324        -7.9817
  12   2.0000      -0.283377        -7.7111
  13   0.0000      -0.001943        -0.0529
  14   0.0000       0.024494         0.6665
  15   0.0000       0.027610         0.7513
  16   0.0000       0.042830         1.1655
  17   0.0000       0.065353         1.7784

MULLIKEN ATOMIC CHARGES
-----------------------
   0 C :    0.195174
   1 H :    0.122938
   2 C :   -1.029429
   3 C :   -0.878649
   4 H :    0.134507
   5 H :    0.254142
   6 H :    0.270271
   7 H :    0.251840
   8 H :    0.240379
   9 H :    0.233584
  10 H :    0.205242
Sum of atomic charges:   -0.0000000

LOEWDIN ATOMIC CHARGES
----------------------
   0 C :   -0.319990
   1 H :    0.104193
   2 C :   -0.128355
   3 C :   -0.117003
   4 H :    0.103707
   5 H :    0.051557
   6 H :    0.056549
   7 H :    0.055038
   8 H :    0.066154
   9 H :    0.067575
  10 H :    0.060576

  Mayer bond orders larger than 0.100000
B(  0-C ,  1-H ) :   0.9697 B(  0-C ,  2-C ) :   0.7713 B(  0-C ,  3-C ) :   0.7436
B(  0-C ,  4-H ) :   0.9740 B(  2-C ,  3-C ) :   0.2057 B(  2-C ,  5-H ) :   0.9847
B(  2-C ,  6-H ) :   0.9686 B(  2-C ,  7-H ) :   0.9751 B(  3-C ,  8-H ) :   0.9862
B(  3-C ,  9-H ) :   0.9946 B(  3-C , 10-H ) :   1.0053

Dispersion correction           -0.006158132
FINAL SINGLE POINT ENERGY      -118.990676759714

DIPOLE MOMENT
-------------
                                X             Y             Z
Electronic contribution:      0.08106      -0.29757       0.23670
Nuclear contribution   :     -0.08172       0.30475      -0.19303
                        -----------------------------------------
Total Dipole Moment    :     -0.00066       0.00718       0.04367
                        -----------------------------------------
Magnitude (a.u.)       :      0.04426
Magnitude (Debye)      :      0.11250

Rotational constants in cm-1:     1.020248     0.295755     0.261591
Rotational constants in MHz : 30586.266829  8866.511639  7842.297953

                             ****ORCA TERMINATED NORMALLY****
TOTAL RUN TIME: 0 days 0 hours 0 minutes 10 seconds 549 msec
