                         Program Version 5.0.0 -  RELEASE  -
|  1> !PBE D3BJ RIJCOSX def2-TZVPD def2/J TightSCF xyzfile
|  2>
|  3> *xyzfile 0 1 D.xyz
|  4>
|  5> %MaxCore 64000
|  6>
|  7> %pal nprocs 4
|  8> end
|  9>
| 10> %scf
| 11>   MaxIter 150
| 12> end
| 13>
| 14>
| 15>                          ****END OF INPUT****

CARTESIAN COORDINATES (ANGSTROEM)
---------------------------------
  C      3.956426    0.501466   -0.379100
  H      3.168398    0.029201    0.207383
  C      3.803893    1.961572   -0.156747
  C      3.842322    0.148490   -1.854058
  H      4.923231    0.177982    0.009371
  H      4.620021    0.694502   -2.402150
  H      4.096015   -0.910930   -1.955103
  C      2.475619    0.412708   -2.485377
  H      2.174689    1.445076   -2.287971
  C      1.383931   -0.532740   -1.995203
  H      2.575613    0.318574   -3.571460
  H      1.264698   -0.412309   -0.915491
  H      1.705223   -1.566885   -2.164984
  C      0.031398   -0.317260   -2.677791
  C     -0.587292    1.060853   -2.436460
  H     -0.662815   -1.089530   -2.329985
  H      0.149465   -0.478040   -3.755648
  H      0.104376    1.828590   -2.793130
  C     -0.951213    1.334978   -0.972500
  H     -1.478832    1.161355   -3.062484
  H     -0.317007    0.741648   -0.311389
  H     -1.980916    1.012842   -0.788958
  C     -0.774550    2.788332   -0.543943
  H     -1.352609    3.459372   -1.192585
  H     -1.171014    2.902331    0.469968
  C      0.697208    3.227911   -0.525126
  F      1.489294    2.374703    0.199189
  H      0.715998    4.264030   -0.130774
  H      1.036148    3.330920   -1.583669
  H      4.206425    2.244406    0.745359
  H      2.808269    2.211323   -0.096097
  H      4.280757    2.501552   -0.891037

 Total Charge           Charge          ....    0
 Multiplicity           Mult            ....    1
 Number of Electrons    NEL             ....   90
 Basis Dimension        Dim             ....  599

ORBITAL ENERGIES
----------------

  NO   OCC          E(Eh)            E(eV)
   0   2.0000     -24.268475      -660.3788
   1   2.0000      -9.965561      -271.1767
   2   2.0000      -9.892412      -269.1862
   3   2.0000      -9.879808      -268.8432
   4   2.0000      -9.876401      -268.7505
   5   2.0000      -9.873494      -268.6714
   6   2.0000      -9.867835      -268.5174
   7   2.0000      -9.865649      -268.4580
   8   2.0000      -9.860019      -268.3048
   9   2.0000      -9.849589      -268.0209
  10   2.0000      -9.796804      -266.5846
  11   2.0000      -1.132958       -30.8294
  12   2.0000      -0.746514       -20.3137
  13   2.0000      -0.727975       -19.8092
  14   2.0000      -0.697165       -18.9708
  15   2.0000      -0.668392       -18.1879
  16   2.0000      -0.623971       -16.9791
  17   2.0000      -0.600543       -16.3416
  18   2.0000      -0.560787       -15.2598
  19   2.0000      -0.541227       -14.7275
  20   2.0000      -0.506819       -13.7912
  21   2.0000      -0.495496       -13.4831
  22   2.0000      -0.473612       -12.8876
  23   2.0000      -0.458083       -12.4651
  24   2.0000      -0.441430       -12.0119
  25   2.0000      -0.419394       -11.4123
  26   2.0000      -0.408241       -11.1088
  27   2.0000      -0.400675       -10.9029
  28   2.0000      -0.383036       -10.4229
  29   2.0000      -0.377715       -10.2781
  30   2.0000      -0.364386        -9.9154
  31   2.0000      -0.348496        -9.4831
  32   2.0000      -0.340926        -9.2771
  33   2.0000      -0.331689        -9.0257
  34   2.0000      -0.321957        -8.7609
  35   2.0000      -0.310733        -8.4555
  36   2.0000      -0.306608        -8.3432
  37   2.0000      -0.299327        -8.1451
  38   2.0000      -0.283653        -7.7186
  39   2.0000      -0.279641        -7.6094
  40   2.0000      -0.273942        -7.4543
  41   2.0000      -0.273221        -7.4347
  42   2.0000      -0.258887        -7.0447
  43   2.0000      -0.257704        -7.0125
  44   2.0000      -0.232065        -6.3148
  45   0.0000      -0.011594        -0.3155
  46   0.0000      -0.004020        -0.1094
  47   0.0000       0.002632         0.0716
  48   0.0000       0.008318         0.2264
  49   0.0000       0.020307         0.5526

MULLIKEN ATOMIC CHARGES
-----------------------
   0 C :   -0.010833
   1 H :    0.212569
   2 C :   -0.693170
   3 C :   -0.354372
   4 H :    0.054445
   5 H :    0.161822
   6 H :    0.116228
   7 C :    0.002480
   8 H :   -0.140230
   9 C :   -0.150275
  10 H :    0.155181
  11 H :    0.039715
  12 H :    0.154735
  13 C :   -0.352091
  14 C :   -0.431560
  15 H :    0.115776
  16 H :    0.188732
  17 H :    0.258467
  18 C :   -0.184645
  19 H :    0.166127
  20 H :    0.107008
  21 H :    0.176618
  22 C :   -0.286367
  23 H :    0.124239
  24 H :    0.175159
  25 C :   -0.214365
  26 F :   -0.265207
  27 H :    0.160423
  28 H :    0.242608
  29 H :    0.230903
  30 H :   -0.050694
  31 H :    0.290575
Sum of atomic charges:    0.0000000

LOEWDIN ATOMIC CHARGES
----------------------
   0 C :   -0.254753
   1 H :    0.104645
   2 C :   -0.111161
   3 C :   -0.217882
   4 H :    0.105975
   5 H :    0.111549
   6 H :    0.106038
   7 C :   -0.208220
   8 H :    0.089251
   9 C :   -0.213137
  10 H :    0.117335
  11 H :    0.095608
  12 H :    0.117391
  13 C :   -0.211091
  14 C :   -0.210327
  15 H :    0.111300
  16 H :    0.110170
  17 H :    0.093020
  18 C :   -0.208561
  19 H :    0.111804
  20 H :    0.098117
  21 H :    0.114933
  22 C :   -0.182029
  23 H :    0.121295
  24 H :    0.110878
  25 C :   -0.219005
  26 F :   -0.011416
  27 H :    0.124971
  28 H :    0.118507
  29 H :    0.059933
  30 H :   -0.038991
  31 H :    0.063852

  Mayer bond orders larger than 0.100000
B(  0-C ,  1-H ) :   0.9092 B(  0-C ,  2-C ) :   0.6197 B(  0-C ,  3-C ) :   0.8814
B(  0-C ,  4-H ) :   0.9984 B(  0-C ,  9-C ) :   0.1690 B(  2-C ,  3-C ) :   0.2685
B(  2-C , 26-F ) :   0.2386 B(  2-C , 29-H ) :   0.9234 B(  2-C , 30-H ) :   1.1900
B(  2-C , 31-H ) :   0.9782 B(  3-C ,  5-H ) :   0.9145 B(  3-C ,  6-H ) :   0.9340
B(  3-C ,  7-C ) :   1.1422 B(  3-C ,  8-H ) :   0.1835 B(  3-C ,  9-C ) :   0.2028
B(  7-C ,  8-H ) :   1.3202 B(  7-C ,  9-C ) :   0.5905 B(  7-C , 10-H ) :   0.8188
B(  7-C , 13-C ) :   0.2182 B(  7-C , 14-C ) :   0.1572 B(  9-C , 11-H ) :   1.0570
B(  9-C , 12-H ) :   0.9015 B(  9-C , 13-C ) :   1.0068 B( 13-C , 14-C ) :   1.0016
B( 13-C , 15-H ) :   0.9614 B( 13-C , 16-H ) :   0.9158 B( 13-C , 18-C ) :   0.2747
B( 14-C , 17-H ) :   0.9418 B( 14-C , 18-C ) :   0.7425 B( 14-C , 19-H ) :   0.9435
B( 14-C , 22-C ) :   0.3034 B( 14-C , 25-C ) :   0.1081 B( 18-C , 20-H ) :   0.9991
B( 18-C , 21-H ) :   0.9233 B( 18-C , 22-C ) :   1.0027 B( 22-C , 23-H ) :   0.9549
B( 22-C , 24-H ) :   0.8989 B( 22-C , 25-C ) :   1.0374 B( 22-C , 26-F ) :   0.1079
B( 25-C , 26-F ) :   0.7019 B( 25-C , 27-H ) :   0.9102 B( 25-C , 28-H ) :   0.9565
B( 26-F , 30-H ) :  -0.1763 B( 29-H , 30-H ) :   0.1260

Dispersion correction           -0.032480341
FINAL SINGLE POINT ENERGY      -493.046282132999

DIPOLE MOMENT
-------------
                                X             Y             Z
Electronic contribution:     -1.92990       3.25739       4.30154
Nuclear contribution   :      1.09293      -2.80761      -4.51228
                        -----------------------------------------
Total Dipole Moment    :     -0.83697       0.44977      -0.21074
                        -----------------------------------------
Magnitude (a.u.)       :      0.97325
Magnitude (Debye)      :      2.47381

Rotational constants in cm-1:     0.040502     0.027818     0.018259
Rotational constants in MHz :  1214.218058   833.972871   547.398614

                             ****ORCA TERMINATED NORMALLY****
TOTAL RUN TIME: 0 days 0 hours 0 minutes 56 seconds 602 msec
