                         Program Version 5.0.0 -  RELEASE  -
|  1> !LC-PBE RIJCOSX def2-SVPD def2/J TightSCF
|  2> *xyz -1 1
|  3> C          1.72854        1.42432       -5.63944
|  4> S          2.25263       -0.18811       -6.27184
|  5> O          3.56261       -0.44446       -5.63155
|  6> O          2.34494       -0.03374       -7.69650
|  7> O          1.26606       -1.15918       -5.80536
|  8> H          0.77944        1.68154       -6.06127
|  9> H          2.45151        2.16548       -5.90944
| 10> H          1.64478        1.37937       -4.57367
| 11> *
| 12>
| 13> %MaxCore 64000
| 14>
| 15> %pal nprocs 8
| 16> end
| 17>
| 18> %scf
| 19>   MaxIter 150
| 20> end
| 21>
| 22>
| 23>                          ****END OF INPUT****

CARTESIAN COORDINATES (ANGSTROEM)
---------------------------------
  C      1.728540    1.424320   -5.639440
  S      2.252630   -0.188110   -6.271840
  O      3.562610   -0.444460   -5.631550
  O      2.344940   -0.033740   -7.696500
  O      1.266060   -1.159180   -5.805360
  H      0.779440    1.681540   -6.061270
  H      2.451510    2.165480   -5.909440
  H      1.644780    1.379370   -4.573670

 Total Charge           Charge          ....   -1
 Multiplicity           Mult            ....    1
 Number of Electrons    NEL             ....   50
 Basis Dimension        Dim             ....  140

ORBITAL ENERGIES
----------------

  NO   OCC          E(Eh)            E(eV)
   0   2.0000     -88.316367     -2403.2105
   1   2.0000     -18.775965      -510.9200
   2   2.0000     -18.769309      -510.7389
   3   2.0000     -18.760945      -510.5113
   4   2.0000      -9.984695      -271.6974
   5   2.0000      -7.937897      -216.0012
   6   2.0000      -5.960243      -162.1865
   7   2.0000      -5.960060      -162.1815
   8   2.0000      -5.960000      -162.1799
   9   2.0000      -1.108324       -30.1590
  10   2.0000      -0.952965       -25.9315
  11   2.0000      -0.929630       -25.2965
  12   2.0000      -0.755477       -20.5576
  13   2.0000      -0.541512       -14.7353
  14   2.0000      -0.456543       -12.4232
  15   2.0000      -0.437931       -11.9167
  16   2.0000      -0.436471       -11.8770
  17   2.0000      -0.393074       -10.6961
  18   2.0000      -0.391519       -10.6538
  19   2.0000      -0.294673        -8.0185
  20   2.0000      -0.292267        -7.9530
  21   2.0000      -0.251655        -6.8479
  22   2.0000      -0.242955        -6.6111
  23   2.0000      -0.236626        -6.4389
  24   2.0000      -0.197197        -5.3660
  25   0.0000       0.210481         5.7275
  26   0.0000       0.232401         6.3240
  27   0.0000       0.232690         6.3318
  28   0.0000       0.237908         6.4738
  29   0.0000       0.270990         7.3740

MULLIKEN ATOMIC CHARGES
-----------------------
   0 C :    0.232793
   1 S :    0.978167
   2 O :   -0.763402
   3 O :   -0.713309
   4 O :   -0.739343
   5 H :   -0.000092
   6 H :    0.005248
   7 H :   -0.000063
Sum of atomic charges:   -1.0000000

LOEWDIN ATOMIC CHARGES
----------------------
   0 C :    0.027404
   1 S :    0.815663
   2 O :   -0.602123
   3 O :   -0.577338
   4 O :   -0.588902
   5 H :   -0.026011
   6 H :   -0.024376
   7 H :   -0.024316

  Mayer bond orders larger than 0.100000
B(  0-C ,  1-S ) :   0.9674 B(  0-C ,  5-H ) :   0.9388 B(  0-C ,  6-H ) :   0.9388
B(  0-C ,  7-H ) :   0.9424 B(  1-S ,  2-O ) :   1.3403 B(  1-S ,  3-O ) :   1.3788
B(  1-S ,  4-O ) :   1.3575 B(  1-S ,  7-H ) :   0.1033

FINAL SINGLE POINT ENERGY      -662.427838853571

DIPOLE MOMENT
-------------
                                X             Y             Z
Electronic contribution:      1.14755      -3.71553      -1.57335
Nuclear contribution   :     -1.71379       5.17769       1.98321
                        -----------------------------------------
Total Dipole Moment    :     -0.56624       1.46216       0.40985
                        -----------------------------------------
Magnitude (a.u.)       :      1.62066
Magnitude (Debye)      :      4.11938

Rotational constants in cm-1:     0.172739     0.155771     0.153412
Rotational constants in MHz :  5178.588083  4669.889924  4599.189984

                             ****ORCA TERMINATED NORMALLY****
TOTAL RUN TIME: 0 days 0 hours 0 minutes 7 seconds 130 msec
