                         Program Version 5.0.0 -  RELEASE  -
|  1> !LC-PBE RIJCOSX def2-SVPD def2/J TightSCF
|  2> *xyz 1 1
|  3> C          2.91632       -1.24259       -1.54313
|  4> C          3.46659       -1.59097       -2.88908
|  5> N          4.65227       -1.14316       -3.25969
|  6> N          2.75226       -2.29204       -3.72803
|  7> H          1.77836       -2.48960       -3.51274
|  8> H          2.94861       -2.20854       -4.71681
|  9> H          5.14672       -0.51251       -2.63385
| 10> H          4.78303       -1.00720       -4.25350
| 11> H          1.95294       -1.69278       -1.42424
| 12> H          2.82618       -0.17973       -1.45886
| 13> H          3.57606       -1.60596       -0.78312
| 14> *
| 15>
| 16> %MaxCore 64000
| 17>
| 18> %pal nprocs 8
| 19> end
| 20>
| 21> %scf
| 22>   MaxIter 150
| 23> end
| 24>
| 25>
| 26>                          ****END OF INPUT****

CARTESIAN COORDINATES (ANGSTROEM)
---------------------------------
  C      2.916320   -1.242590   -1.543130
  C      3.466590   -1.590970   -2.889080
  N      4.652270   -1.143160   -3.259690
  N      2.752260   -2.292040   -3.728030
  H      1.778360   -2.489600   -3.512740
  H      2.948610   -2.208540   -4.716810
  H      5.146720   -0.512510   -2.633850
  H      4.783030   -1.007200   -4.253500
  H      1.952940   -1.692780   -1.424240
  H      2.826180   -0.179730   -1.458860
  H      3.576060   -1.605960   -0.783120

 Total Charge           Charge          ....    1
 Multiplicity           Mult            ....    1
 Number of Electrons    NEL             ....   32
 Basis Dimension        Dim             ....  136

ORBITAL ENERGIES
----------------

  NO   OCC          E(Eh)            E(eV)
   0   2.0000     -14.485970      -394.1833
   1   2.0000     -14.480449      -394.0330
   2   2.0000     -10.473371      -284.9949
   3   2.0000     -10.329489      -281.0797
   4   2.0000      -1.390214       -37.8297
   5   2.0000      -1.280010       -34.8308
   6   2.0000      -1.128127       -30.6979
   7   2.0000      -1.000318       -27.2200
   8   2.0000      -0.928505       -25.2659
   9   2.0000      -0.923167       -25.1207
  10   2.0000      -0.845899       -23.0181
  11   2.0000      -0.821049       -22.3419
  12   2.0000      -0.759676       -20.6718
  13   2.0000      -0.743468       -20.2308
  14   2.0000      -0.716004       -19.4835
  15   2.0000      -0.637276       -17.3412
  16   0.0000      -0.135808        -3.6955
  17   0.0000      -0.083472        -2.2714
  18   0.0000      -0.040802        -1.1103
  19   0.0000      -0.035547        -0.9673
  20   0.0000      -0.014633        -0.3982

MULLIKEN ATOMIC CHARGES
-----------------------
   0 C :    0.277540
   1 C :    0.181178
   2 N :   -0.021291
   3 N :   -0.027667
   4 H :    0.106163
   5 H :   -0.002036
   6 H :    0.106157
   7 H :    0.004677
   8 H :    0.120522
   9 H :    0.118343
  10 H :    0.136413
Sum of atomic charges:    1.0000000

LOEWDIN ATOMIC CHARGES
----------------------
   0 C :    0.203423
   1 C :   -0.071034
   2 N :    0.261487
   3 N :    0.266081
   4 H :    0.066552
   5 H :    0.059522
   6 H :    0.067573
   7 H :    0.054774
   8 H :    0.018771
   9 H :    0.036841
  10 H :    0.036010

  Mayer bond orders larger than 0.100000
B(  0-C ,  1-C ) :   1.3477 B(  0-C ,  8-H ) :   0.8167 B(  0-C ,  9-H ) :   0.8512
B(  0-C , 10-H ) :   0.7364 B(  1-C ,  2-N ) :   1.1430 B(  1-C ,  3-N ) :   1.1320
B(  1-C ,  5-H ) :  -0.1152 B(  1-C ,  8-H ) :   0.1870 B(  1-C , 10-H ) :   0.1876
B(  2-N ,  3-N ) :   0.1577 B(  2-N ,  6-H ) :   1.0000 B(  2-N ,  7-H ) :   1.1492
B(  3-N ,  4-H ) :   1.0169 B(  3-N ,  5-H ) :   1.1810 B(  4-H ,  5-H ) :  -0.1215
B(  6-H ,  7-H ) :  -0.1103 B(  8-H , 10-H ) :   0.1019

FINAL SINGLE POINT ENERGY      -188.978407450429

DIPOLE MOMENT
-------------
                                X             Y             Z
Electronic contribution:      0.88743      -0.71990      -1.80498
Nuclear contribution   :     -1.03256       1.11747       1.26949
                        -----------------------------------------
Total Dipole Moment    :     -0.14513       0.39757      -0.53549
                        -----------------------------------------
Magnitude (a.u.)       :      0.68255
Magnitude (Debye)      :      1.73491

Rotational constants in cm-1:     0.336859     0.298586     0.163958
Rotational constants in MHz : 10098.776812  8951.369850  4915.333652

                             ****ORCA TERMINATED NORMALLY****
TOTAL RUN TIME: 0 days 0 hours 0 minutes 6 seconds 874 msec
