                         Program Version 5.0.0 -  RELEASE  -
|  1> !LC-PBE RIJCOSX def2-SVPD def2/J TightSCF
|  2> *xyz 0 1
|  3> C          1.72854        1.42432       -5.63944
|  4> S          2.25263       -0.18811       -6.27184
|  5> F          3.56261       -0.44446       -5.63155
|  6> O          2.34494       -0.03374       -7.69650
|  7> O          1.26606       -1.15918       -5.80536
|  8> H          0.77944        1.68154       -6.06127
|  9> H          2.45151        2.16548       -5.90944
| 10> H          1.64478        1.37937       -4.57367
| 11> *
| 12>
| 13> %MaxCore 64000
| 14>
| 15> %pal nprocs 8
| 16> end
| 17>
| 18> %scf
| 19>   MaxIter 150
| 20> end
| 21>
| 22>
| 23>                          ****END OF INPUT****

CARTESIAN COORDINATES (ANGSTROEM)
---------------------------------
  C      1.728540    1.424320   -5.639440
  S      2.252630   -0.188110   -6.271840
  F      3.562610   -0.444460   -5.631550
  O      2.344940   -0.033740   -7.696500
  O      1.266060   -1.159180   -5.805360
  H      0.779440    1.681540   -6.061270
  H      2.451510    2.165480   -5.909440
  H      1.644780    1.379370   -4.573670

 Total Charge           Charge          ....    0
 Multiplicity           Mult            ....    1
 Number of Electrons    NEL             ....   50
 Basis Dimension        Dim             ....  140

ORBITAL ENERGIES
----------------

  NO   OCC          E(Eh)            E(eV)
   0   2.0000     -88.582755     -2410.4593
   1   2.0000     -24.617865      -669.8862
   2   2.0000     -19.016052      -517.4531
   3   2.0000     -19.009272      -517.2686
   4   2.0000     -10.194534      -277.4074
   5   2.0000      -8.204796      -223.2638
   6   2.0000      -6.231732      -169.5740
   7   2.0000      -6.224630      -169.3808
   8   2.0000      -6.223904      -169.3610
   9   2.0000      -1.516650       -41.2701
  10   2.0000      -1.293789       -35.2058
  11   2.0000      -1.188546       -32.3420
  12   2.0000      -0.977056       -26.5870
  13   2.0000      -0.868026       -23.6202
  14   2.0000      -0.755532       -20.5591
  15   2.0000      -0.730451       -19.8766
  16   2.0000      -0.709395       -19.3036
  17   2.0000      -0.631914       -17.1952
  18   2.0000      -0.627846       -17.0846
  19   2.0000      -0.612360       -16.6632
  20   2.0000      -0.589148       -16.0315
  21   2.0000      -0.540637       -14.7115
  22   2.0000      -0.485501       -13.2112
  23   2.0000      -0.476812       -12.9747
  24   2.0000      -0.460386       -12.5277
  25   0.0000       0.060151         1.6368
  26   0.0000       0.090381         2.4594
  27   0.0000       0.095215         2.5909
  28   0.0000       0.096772         2.6333
  29   0.0000       0.115036         3.1303

MULLIKEN ATOMIC CHARGES
-----------------------
   0 C :    0.178331
   1 S :    1.153884
   2 F :   -0.351229
   3 O :   -0.585169
   4 O :   -0.610505
   5 H :    0.068119
   6 H :    0.076432
   7 H :    0.070138
Sum of atomic charges:    0.0000000

LOEWDIN ATOMIC CHARGES
----------------------
   0 C :    0.097687
   1 S :    1.082733
   2 F :   -0.260490
   3 O :   -0.460995
   4 O :   -0.471483
   5 H :    0.012131
   6 H :    0.000223
   7 H :    0.000194

  Mayer bond orders larger than 0.100000
B(  0-C ,  1-S ) :   1.0184 B(  0-C ,  5-H ) :   0.9301 B(  0-C ,  6-H ) :   0.9278
B(  0-C ,  7-H ) :   0.9328 B(  1-S ,  2-F ) :   0.7089 B(  1-S ,  3-O ) :   1.5857
B(  1-S ,  4-O ) :   1.5633

FINAL SINGLE POINT ENERGY      -686.897159835367

DIPOLE MOMENT
-------------
                                X             Y             Z
Electronic contribution:      3.35704      -4.11529      -0.49095
Nuclear contribution   :     -3.03874       5.51823       1.39394
                        -----------------------------------------
Total Dipole Moment    :      0.31830       1.40294       0.90299
                        -----------------------------------------
Magnitude (a.u.)       :      1.69851
Magnitude (Debye)      :      4.31727

Rotational constants in cm-1:     0.164301     0.151617     0.146802
Rotational constants in MHz :  4925.615104  4545.361281  4401.017554

                             ****ORCA TERMINATED NORMALLY****
TOTAL RUN TIME: 0 days 0 hours 0 minutes 7 seconds 413 msec
