                         Program Version 5.0.0 -  RELEASE  -
|  1> !LC-PBE RIJCOSX def2-SVPD def2/J TightSCF
|  2> *xyz 0 1
|  3> C          2.91632       -1.24259       -1.54313
|  4> C          3.46659       -1.59097       -2.88908
|  5> C          4.65227       -1.14316       -3.25969
|  6> N          2.75226       -2.29204       -3.72803
|  7> H          1.77836       -2.48960       -3.51274
|  8> H          2.94861       -2.20854       -4.71681
|  9> H          5.14672       -0.51251       -2.63385
| 10> H          4.78303       -1.00720       -4.25350
| 11> H          1.95294       -1.69278       -1.42424
| 12> H          2.82618       -0.17973       -1.45886
| 13> H          3.57606       -1.60596       -0.78312
| 14> *
| 15>
| 16> %MaxCore 64000
| 17>
| 18> %pal nprocs 8
| 19> end
| 20>
| 21> %scf
| 22>   MaxIter 150
| 23> end
| 24>
| 25>
| 26>                          ****END OF INPUT****

CARTESIAN COORDINATES (ANGSTROEM)
---------------------------------
  C      2.916320   -1.242590   -1.543130
  C      3.466590   -1.590970   -2.889080
  C      4.652270   -1.143160   -3.259690
  N      2.752260   -2.292040   -3.728030
  H      1.778360   -2.489600   -3.512740
  H      2.948610   -2.208540   -4.716810
  H      5.146720   -0.512510   -2.633850
  H      4.783030   -1.007200   -4.253500
  H      1.952940   -1.692780   -1.424240
  H      2.826180   -0.179730   -1.458860
  H      3.576060   -1.605960   -0.783120

 Total Charge           Charge          ....    0
 Multiplicity           Mult            ....    1
 Number of Electrons    NEL             ....   32
 Basis Dimension        Dim             ....  136

ORBITAL ENERGIES
----------------

  NO   OCC          E(Eh)            E(eV)
   0   2.0000     -14.232393      -387.2831
   1   2.0000     -10.157223      -276.3921
   2   2.0000     -10.119917      -275.3770
   3   2.0000     -10.054629      -273.6004
   4   2.0000      -1.105990       -30.0955
   5   2.0000      -0.926757       -25.2183
   6   2.0000      -0.856447       -23.3051
   7   2.0000      -0.726208       -19.7611
   8   2.0000      -0.672025       -18.2867
   9   2.0000      -0.616750       -16.7826
  10   2.0000      -0.580397       -15.7934
  11   2.0000      -0.535403       -14.5691
  12   2.0000      -0.524266       -14.2660
  13   2.0000      -0.497963       -13.5503
  14   2.0000      -0.469114       -12.7652
  15   2.0000      -0.310190        -8.4407
  16   0.0000       0.090239         2.4555
  17   0.0000       0.121350         3.3021
  18   0.0000       0.126291         3.4366
  19   0.0000       0.130544         3.5523
  20   0.0000       0.164308         4.4710

MULLIKEN ATOMIC CHARGES
-----------------------
   0 C :    0.463467
   1 C :   -0.442906
   2 C :    0.201576
   3 N :    0.049629
   4 H :   -0.027704
   5 H :   -0.031829
   6 H :   -0.055809
   7 H :   -0.283114
   8 H :   -0.006398
   9 H :    0.045763
  10 H :    0.087326
Sum of atomic charges:   -0.0000000

LOEWDIN ATOMIC CHARGES
----------------------
   0 C :    0.138033
   1 C :   -0.298302
   2 C :    0.127597
   3 N :    0.145638
   4 H :    0.011189
   5 H :    0.017681
   6 H :   -0.065901
   7 H :   -0.076617
   8 H :   -0.014332
   9 H :    0.007441
  10 H :    0.007574

  Mayer bond orders larger than 0.100000
B(  0-C ,  1-C ) :   1.2454 B(  0-C ,  8-H ) :   0.7725 B(  0-C ,  9-H ) :   0.8611
B(  0-C , 10-H ) :   0.7552 B(  1-C ,  2-C ) :   2.0403 B(  1-C ,  3-N ) :   1.0780
B(  1-C ,  6-H ) :   0.1637 B(  1-C ,  7-H ) :   0.1787 B(  1-C ,  8-H ) :   0.2367
B(  1-C , 10-H ) :   0.1958 B(  2-C ,  3-N ) :   0.2318 B(  2-C ,  6-H ) :   0.7995
B(  2-C ,  7-H ) :   0.8912 B(  3-N ,  4-H ) :   1.0570 B(  3-N ,  5-H ) :   1.1030
B(  4-H ,  5-H ) :  -0.1116 B(  6-H ,  7-H ) :   0.1315

FINAL SINGLE POINT ENERGY      -172.538034264659

DIPOLE MOMENT
-------------
                                X             Y             Z
Electronic contribution:     -0.16901      -1.15485      -1.30517
Nuclear contribution   :     -0.76183       1.20997       1.18381
                        -----------------------------------------
Total Dipole Moment    :     -0.93084       0.05512      -0.12137
                        -----------------------------------------
Magnitude (a.u.)       :      0.94034
Magnitude (Debye)      :      2.39015

Rotational constants in cm-1:     0.357745     0.302571     0.170012
Rotational constants in MHz : 10724.926457  9070.849165  5096.845195

                             ****ORCA TERMINATED NORMALLY****
TOTAL RUN TIME: 0 days 0 hours 0 minutes 7 seconds 738 msec
