                         Program Version 5.0.0 -  RELEASE  -
|  1> !LC-PBE RIJCOSX def2-SVPD def2/J TightSCF
|  2> *xyz 0 1
|  3> C          1.72854        1.42432       -5.63944
|  4> S          2.25263       -0.18811       -6.27184
|  5> O          3.56261       -0.44446       -5.63155
|  6> F          2.34494       -0.03374       -7.69650
|  7> O          1.26606       -1.15918       -5.80536
|  8> H          0.77944        1.68154       -6.06127
|  9> H          2.45151        2.16548       -5.90944
| 10> H          1.64478        1.37937       -4.57367
| 11> *
| 12>
| 13> %MaxCore 64000
| 14>
| 15> %pal nprocs 8
| 16> end
| 17>
| 18> %scf
| 19>   MaxIter 150
| 20> end
| 21>
| 22>
| 23>                          ****END OF INPUT****

CARTESIAN COORDINATES (ANGSTROEM)
---------------------------------
  C      1.728540    1.424320   -5.639440
  S      2.252630   -0.188110   -6.271840
  O      3.562610   -0.444460   -5.631550
  F      2.344940   -0.033740   -7.696500
  O      1.266060   -1.159180   -5.805360
  H      0.779440    1.681540   -6.061270
  H      2.451510    2.165480   -5.909440
  H      1.644780    1.379370   -4.573670

 Total Charge           Charge          ....    0
 Multiplicity           Mult            ....    1
 Number of Electrons    NEL             ....   50
 Basis Dimension        Dim             ....  140

ORBITAL ENERGIES
----------------

  NO   OCC          E(Eh)            E(eV)
   0   2.0000     -88.584896     -2410.5176
   1   2.0000     -24.640447      -670.5007
   2   2.0000     -19.009691      -517.2800
   3   2.0000     -19.001061      -517.0451
   4   2.0000     -10.195643      -277.4376
   5   2.0000      -8.207079      -223.3260
   6   2.0000      -6.234246      -169.6425
   7   2.0000      -6.226677      -169.4365
   8   2.0000      -6.225929      -169.4162
   9   2.0000      -1.553987       -42.2861
  10   2.0000      -1.281367       -34.8678
  11   2.0000      -1.168529       -31.7973
  12   2.0000      -0.979791       -26.6615
  13   2.0000      -0.887078       -24.1386
  14   2.0000      -0.773671       -21.0526
  15   2.0000      -0.757285       -20.6068
  16   2.0000      -0.712545       -19.3893
  17   2.0000      -0.628073       -17.0907
  18   2.0000      -0.627522       -17.0757
  19   2.0000      -0.613923       -16.7057
  20   2.0000      -0.581442       -15.8218
  21   2.0000      -0.533682       -14.5222
  22   2.0000      -0.476122       -12.9559
  23   2.0000      -0.468447       -12.7471
  24   2.0000      -0.444858       -12.1052
  25   0.0000       0.057548         1.5660
  26   0.0000       0.088663         2.4126
  27   0.0000       0.093995         2.5577
  28   0.0000       0.097428         2.6512
  29   0.0000       0.116021         3.1571

MULLIKEN ATOMIC CHARGES
-----------------------
   0 C :    0.179684
   1 S :    1.144782
   2 O :   -0.620835
   3 F :   -0.323621
   4 O :   -0.597009
   5 H :    0.072626
   6 H :    0.077281
   7 H :    0.067091
Sum of atomic charges:   -0.0000000

LOEWDIN ATOMIC CHARGES
----------------------
   0 C :    0.097461
   1 S :    1.085387
   2 O :   -0.483876
   3 F :   -0.240811
   4 O :   -0.470981
   5 H :   -0.001084
   6 H :    0.000496
   7 H :    0.013409

  Mayer bond orders larger than 0.100000
B(  0-C ,  1-S ) :   1.0175 B(  0-C ,  5-H ) :   0.9268 B(  0-C ,  6-H ) :   0.9270
B(  0-C ,  7-H ) :   0.9356 B(  1-S ,  2-O ) :   1.5502 B(  1-S ,  3-F ) :   0.7581
B(  1-S ,  4-O ) :   1.5667 B(  1-S ,  7-H ) :   0.1014

FINAL SINGLE POINT ENERGY      -686.877604190858

DIPOLE MOMENT
-------------
                                X             Y             Z
Electronic contribution:      1.27368      -3.42269      -3.99085
Nuclear contribution   :     -1.82220       5.10789       3.45696
                        -----------------------------------------
Total Dipole Moment    :     -0.54853       1.68521      -0.53389
                        -----------------------------------------
Magnitude (a.u.)       :      1.85090
Magnitude (Debye)      :      4.70462

Rotational constants in cm-1:     0.163267     0.154654     0.145086
Rotational constants in MHz :  4894.631475  4636.404456  4349.567403

                             ****ORCA TERMINATED NORMALLY****
TOTAL RUN TIME: 0 days 0 hours 0 minutes 7 seconds 406 msec
