                         Program Version 5.0.0 -  RELEASE  -
|  1> !LC-PBE RIJCOSX def2-SVPD def2/J TightSCF
|  2> *xyz 0 1
|  3> C          2.91632       -1.24259       -1.54313
|  4> C          3.46659       -1.59097       -2.88908
|  5> N          4.65227       -1.14316       -3.25969
|  6> C          2.75226       -2.29204       -3.72803
|  7> H          1.77836       -2.48960       -3.51274
|  8> H          2.94861       -2.20854       -4.71681
|  9> H          5.14672       -0.51251       -2.63385
| 10> H          4.78303       -1.00720       -4.25350
| 11> H          1.95294       -1.69278       -1.42424
| 12> H          2.82618       -0.17973       -1.45886
| 13> H          3.57606       -1.60596       -0.78312
| 14> *
| 15>
| 16> %MaxCore 64000
| 17>
| 18> %pal nprocs 8
| 19> end
| 20>
| 21> %scf
| 22>   MaxIter 150
| 23> end
| 24>
| 25>
| 26>                          ****END OF INPUT****

CARTESIAN COORDINATES (ANGSTROEM)
---------------------------------
  C      2.916320   -1.242590   -1.543130
  C      3.466590   -1.590970   -2.889080
  N      4.652270   -1.143160   -3.259690
  C      2.752260   -2.292040   -3.728030
  H      1.778360   -2.489600   -3.512740
  H      2.948610   -2.208540   -4.716810
  H      5.146720   -0.512510   -2.633850
  H      4.783030   -1.007200   -4.253500
  H      1.952940   -1.692780   -1.424240
  H      2.826180   -0.179730   -1.458860
  H      3.576060   -1.605960   -0.783120

 Total Charge           Charge          ....    0
 Multiplicity           Mult            ....    1
 Number of Electrons    NEL             ....   32
 Basis Dimension        Dim             ....  136

ORBITAL ENERGIES
----------------

  NO   OCC          E(Eh)            E(eV)
   0   2.0000     -14.228597      -387.1798
   1   2.0000     -10.155635      -276.3489
   2   2.0000     -10.118829      -275.3473
   3   2.0000     -10.059340      -273.7286
   4   2.0000      -1.100528       -29.9469
   5   2.0000      -0.927308       -25.2333
   6   2.0000      -0.857689       -23.3389
   7   2.0000      -0.719570       -19.5805
   8   2.0000      -0.672358       -18.2958
   9   2.0000      -0.619736       -16.8639
  10   2.0000      -0.581386       -15.8203
  11   2.0000      -0.535362       -14.5679
  12   2.0000      -0.528122       -14.3709
  13   2.0000      -0.492499       -13.4016
  14   2.0000      -0.464836       -12.6488
  15   2.0000      -0.318083        -8.6555
  16   0.0000       0.090431         2.4608
  17   0.0000       0.124121         3.3775
  18   0.0000       0.127861         3.4793
  19   0.0000       0.132024         3.5926
  20   0.0000       0.168367         4.5815

MULLIKEN ATOMIC CHARGES
-----------------------
   0 C :    0.492488
   1 C :   -0.540754
   2 N :    0.070535
   3 C :    0.153696
   4 H :   -0.019187
   5 H :   -0.295625
   6 H :   -0.045207
   7 H :   -0.025181
   8 H :    0.111271
   9 H :    0.043575
  10 H :    0.054390
Sum of atomic charges:   -0.0000000

LOEWDIN ATOMIC CHARGES
----------------------
   0 C :    0.135074
   1 C :   -0.305357
   2 N :    0.144758
   3 C :    0.134592
   4 H :   -0.066500
   5 H :   -0.070375
   6 H :    0.012612
   7 H :    0.013314
   8 H :   -0.001680
   9 H :    0.003671
  10 H :   -0.000110

  Mayer bond orders larger than 0.100000
B(  0-C ,  1-C ) :   1.3857 B(  0-C ,  8-H ) :   0.8242 B(  0-C ,  9-H ) :   0.7431
B(  0-C , 10-H ) :   0.7089 B(  1-C ,  2-N ) :   1.0831 B(  1-C ,  3-C ) :   2.0347
B(  1-C ,  5-H ) :   0.1833 B(  1-C ,  8-H ) :   0.1862 B(  1-C ,  9-H ) :   0.2326
B(  1-C , 10-H ) :   0.2213 B(  2-N ,  3-C ) :   0.2460 B(  2-N ,  6-H ) :   1.0447
B(  2-N ,  7-H ) :   1.0770 B(  3-C ,  4-H ) :   0.8833 B(  3-C ,  5-H ) :   0.8152
B(  4-H ,  5-H ) :   0.1593 B(  8-H ,  9-H ) :   0.1061

FINAL SINGLE POINT ENERGY      -172.542082116989

DIPOLE MOMENT
-------------
                                X             Y             Z
Electronic contribution:      1.49602      -0.16033      -0.91543
Nuclear contribution   :     -1.18794       0.95232       1.07877
                        -----------------------------------------
Total Dipole Moment    :      0.30808       0.79199       0.16334
                        -----------------------------------------
Magnitude (a.u.)       :      0.86536
Magnitude (Debye)      :      2.19956

Rotational constants in cm-1:     0.358436     0.301769     0.169913
Rotational constants in MHz : 10745.629007  9046.806054  5093.859032

                             ****ORCA TERMINATED NORMALLY****
TOTAL RUN TIME: 0 days 0 hours 0 minutes 7 seconds 82 msec
