                         Program Version 5.0.0 -  RELEASE  -
|  1> !LC-PBE RIJCOSX def2-SVPD def2/J TightSCF
|  2> *xyz 0 1
|  3> C          1.72854        1.42432       -5.63944
|  4> S          2.25263       -0.18811       -6.27184
|  5> O          3.56261       -0.44446       -5.63155
|  6> O          2.34494       -0.03374       -7.69650
|  7> F          1.26606       -1.15918       -5.80536
|  8> H          0.77944        1.68154       -6.06127
|  9> H          2.45151        2.16548       -5.90944
| 10> H          1.64478        1.37937       -4.57367
| 11> *
| 12>
| 13> %MaxCore 64000
| 14>
| 15> %pal nprocs 8
| 16> end
| 17>
| 18> %scf
| 19>   MaxIter 150
| 20> end
| 21>
| 22>
| 23>                          ****END OF INPUT****

CARTESIAN COORDINATES (ANGSTROEM)
---------------------------------
  C      1.728540    1.424320   -5.639440
  S      2.252630   -0.188110   -6.271840
  O      3.562610   -0.444460   -5.631550
  O      2.344940   -0.033740   -7.696500
  F      1.266060   -1.159180   -5.805360
  H      0.779440    1.681540   -6.061270
  H      2.451510    2.165480   -5.909440
  H      1.644780    1.379370   -4.573670

 Total Charge           Charge          ....    0
 Multiplicity           Mult            ....    1
 Number of Electrons    NEL             ....   50
 Basis Dimension        Dim             ....  140

ORBITAL ENERGIES
----------------

  NO   OCC          E(Eh)            E(eV)
   0   2.0000     -88.583583     -2410.4818
   1   2.0000     -24.629117      -670.1924
   2   2.0000     -19.016387      -517.4622
   3   2.0000     -19.000971      -517.0427
   4   2.0000     -10.195074      -277.4221
   5   2.0000      -8.205737      -223.2894
   6   2.0000      -6.232750      -169.6017
   7   2.0000      -6.225469      -169.4036
   8   2.0000      -6.224728      -169.3835
   9   2.0000      -1.533547       -41.7299
  10   2.0000      -1.290430       -35.1144
  11   2.0000      -1.177239       -32.0343
  12   2.0000      -0.977485       -26.5987
  13   2.0000      -0.877318       -23.8730
  14   2.0000      -0.763431       -20.7740
  15   2.0000      -0.742517       -20.2049
  16   2.0000      -0.711031       -19.3481
  17   2.0000      -0.630836       -17.1659
  18   2.0000      -0.627617       -17.0783
  19   2.0000      -0.614125       -16.7112
  20   2.0000      -0.585695       -15.9376
  21   2.0000      -0.537984       -14.6393
  22   2.0000      -0.483002       -13.1432
  23   2.0000      -0.468870       -12.7586
  24   2.0000      -0.451970       -12.2987
  25   0.0000       0.058374         1.5884
  26   0.0000       0.089413         2.4331
  27   0.0000       0.094576         2.5735
  28   0.0000       0.096982         2.6390
  29   0.0000       0.113673         3.0932

MULLIKEN ATOMIC CHARGES
-----------------------
   0 C :    0.180049
   1 S :    1.149744
   2 O :   -0.627439
   3 O :   -0.578557
   4 F :   -0.339917
   5 H :    0.073045
   6 H :    0.072852
   7 H :    0.070223
Sum of atomic charges:    0.0000000

LOEWDIN ATOMIC CHARGES
----------------------
   0 C :    0.097701
   1 S :    1.084521
   2 O :   -0.483981
   3 O :   -0.460534
   4 F :   -0.250291
   5 H :   -0.000912
   6 H :    0.013351
   7 H :    0.000145

  Mayer bond orders larger than 0.100000
B(  0-C ,  1-S ) :   1.0188 B(  0-C ,  5-H ) :   0.9278 B(  0-C ,  6-H ) :   0.9302
B(  0-C ,  7-H ) :   0.9316 B(  1-S ,  2-O ) :   1.5480 B(  1-S ,  3-O ) :   1.5868
B(  1-S ,  4-F ) :   0.7291

FINAL SINGLE POINT ENERGY      -686.887049261393

DIPOLE MOMENT
-------------
                                X             Y             Z
Electronic contribution:     -0.55903      -5.32643      -0.79471
Nuclear contribution   :     -0.74433       6.23228       1.56758
                        -----------------------------------------
Total Dipole Moment    :     -1.30336       0.90585       0.77287
                        -----------------------------------------
Magnitude (a.u.)       :      1.76540
Magnitude (Debye)      :      4.48730

Rotational constants in cm-1:     0.164764     0.152261     0.145794
Rotational constants in MHz :  4939.488001  4564.674339  4370.797804

                             ****ORCA TERMINATED NORMALLY****
TOTAL RUN TIME: 0 days 0 hours 0 minutes 7 seconds 788 msec
