                         Program Version 5.0.0 -  RELEASE  -
|  1> !LC-PBE RIJCOSX def2-SVPD def2/J TightSCF xyzfile
|  2>
|  3> *xyzfile 0 1 D1.xyz
|  4>
|  5> %MaxCore 64000
|  6>
|  7> %pal nprocs 4
|  8> end
|  9>
| 10> %scf
| 11>   MaxIter 150
| 12> end
| 13>
| 14>
| 15>                          ****END OF INPUT****

CARTESIAN COORDINATES (ANGSTROEM)
---------------------------------
  C      2.916324   -1.242589   -1.543125
  C      0.704661    1.443129   -4.503630
  C      1.728539    1.424320   -5.639443
  H      2.646718    1.953794   -5.381054
  H      1.299916    1.930613   -6.503614
  S      2.252625   -0.188115   -6.271840
  C      3.466585   -1.590971   -2.889082
  C      4.652275   -1.143164   -3.259692
  N      2.752264   -2.292043   -3.728029
  H      1.778364   -2.489604   -3.512738
  H      2.948612   -2.208544   -4.716813
  H      5.146723   -0.512508   -2.633852
  H      4.783030   -1.007203   -4.253498
  F      3.562607   -0.444464   -5.631552
  O      2.344944   -0.033742   -7.696501
  C      2.804084    0.290698   -1.359243
  C      1.052550    0.695659   -3.214915
  H     -0.232483    1.032925   -4.884449
  H      0.511700    2.495794   -4.267966
  C      2.388380    1.093669   -2.597108
  H      3.763425    0.674718   -0.999889
  H      2.094788    0.461222   -0.545756
  O      1.266058   -1.159177   -5.805365
  H      3.167316    1.013242   -3.359430
  H      2.357690    2.149375   -2.310997
  H      1.039284   -0.368429   -3.449329
  H      0.250787    0.865605   -2.488283
  H      1.940472   -1.716529   -1.441161
  H      3.558569   -1.663433   -0.766371

 Total Charge           Charge          ....    0
 Multiplicity           Mult            ....    1
 Number of Electrons    NEL             ....  112
 Basis Dimension        Dim             ....  404

ORBITAL ENERGIES
----------------

  NO   OCC          E(Eh)            E(eV)
   0   2.0000     -88.585216     -2410.5263
   1   2.0000     -24.622992      -670.0257
   2   2.0000     -19.020708      -517.5798
   3   2.0000     -19.016484      -517.4648
   4   2.0000     -14.224422      -387.0662
   5   2.0000     -10.199343      -277.5382
   6   2.0000     -10.161525      -276.5092
   7   2.0000     -10.154201      -276.3099
   8   2.0000     -10.137637      -275.8591
   9   2.0000     -10.135133      -275.7910
  10   2.0000     -10.132933      -275.7311
  11   2.0000     -10.132708      -275.7250
  12   2.0000     -10.053450      -273.5683
  13   2.0000      -8.206290      -223.3045
  14   2.0000      -6.233438      -169.6205
  15   2.0000      -6.226357      -169.4278
  16   2.0000      -6.224963      -169.3899
  17   2.0000      -1.523169       -41.4475
  18   2.0000      -1.299283       -35.3553
  19   2.0000      -1.195652       -32.5353
  20   2.0000      -1.103252       -30.0210
  21   2.0000      -1.022090       -27.8125
  22   2.0000      -0.980332       -26.6762
  23   2.0000      -0.935615       -25.4594
  24   2.0000      -0.900324       -24.4991
  25   2.0000      -0.863801       -23.5052
  26   2.0000      -0.855770       -23.2867
  27   2.0000      -0.799138       -21.7457
  28   2.0000      -0.758439       -20.6382
  29   2.0000      -0.741449       -20.1758
  30   2.0000      -0.729765       -19.8579
  31   2.0000      -0.718792       -19.5593
  32   2.0000      -0.700232       -19.0543
  33   2.0000      -0.666127       -18.1262
  34   2.0000      -0.653147       -17.7730
  35   2.0000      -0.644866       -17.5477
  36   2.0000      -0.627790       -17.0830
  37   2.0000      -0.625122       -17.0104
  38   2.0000      -0.610002       -16.5990
  39   2.0000      -0.590875       -16.0785
  40   2.0000      -0.578157       -15.7325
  41   2.0000      -0.566885       -15.4257
  42   2.0000      -0.547184       -14.8896
  43   2.0000      -0.531914       -14.4741
  44   2.0000      -0.524985       -14.2856
  45   2.0000      -0.519557       -14.1379
  46   2.0000      -0.511496       -13.9185
  47   2.0000      -0.496334       -13.5059
  48   2.0000      -0.488968       -13.3055
  49   2.0000      -0.479542       -13.0490
  50   2.0000      -0.472063       -12.8455
  51   2.0000      -0.464594       -12.6422
  52   2.0000      -0.453811       -12.3488
  53   2.0000      -0.450908       -12.2698
  54   2.0000      -0.446666       -12.1544
  55   2.0000      -0.306623        -8.3436
  56   0.0000       0.067568         1.8386
  57   0.0000       0.080316         2.1855
  58   0.0000       0.084538         2.3004
  59   0.0000       0.088805         2.4165
  60   0.0000       0.103537         2.8174

MULLIKEN ATOMIC CHARGES
-----------------------
   0 C :    0.377201
   1 C :    0.300199
   2 C :   -0.071168
   3 H :    0.218788
   4 H :   -0.074829
   5 S :    1.388817
   6 C :   -0.564417
   7 C :    0.497376
   8 N :    0.300474
   9 H :    0.066109
  10 H :   -0.154137
  11 H :    0.074840
  12 H :   -0.524301
  13 F :   -0.521245
  14 O :   -0.594005
  15 C :    0.176910
  16 C :    0.130662
  17 H :    0.109427
  18 H :    0.048535
  19 C :   -0.138949
  20 H :    0.061073
  21 H :   -0.038572
  22 O :   -0.736931
  23 H :   -0.014546
  24 H :   -0.077548
  25 H :   -0.305210
  26 H :    0.003023
  27 H :    0.161856
  28 H :   -0.099433
Sum of atomic charges:   -0.0000000

LOEWDIN ATOMIC CHARGES
----------------------
   0 C :    0.006224
   1 C :   -0.046947
   2 C :   -0.048552
   3 H :    0.030743
   4 H :    0.036560
   5 S :    1.121082
   6 C :   -0.257137
   7 C :    0.145865
   8 N :    0.178887
   9 H :    0.018097
  10 H :   -0.033746
  11 H :   -0.059564
  12 H :   -0.108053
  13 F :   -0.270130
  14 O :   -0.442478
  15 C :   -0.030717
  16 C :   -0.038746
  17 H :    0.044478
  18 H :    0.047771
  19 C :   -0.046927
  20 H :    0.032120
  21 H :    0.030651
  22 O :   -0.459623
  23 H :    0.003941
  24 H :    0.039096
  25 H :   -0.005606
  26 H :    0.045858
  27 H :    0.024844
  28 H :    0.042009

  Mayer bond orders larger than 0.100000
B(  0-C ,  6-C ) :   1.3179 B(  0-C , 15-C ) :   1.1449 B(  0-C , 21-H ) :   0.1571
B(  0-C , 27-H ) :   0.6485 B(  0-C , 28-H ) :   0.8002 B(  1-C ,  2-C ) :   1.2558
B(  1-C ,  4-H ) :   0.1741 B(  1-C , 16-C ) :   1.2566 B(  1-C , 17-H ) :   0.7163
B(  1-C , 18-H ) :   0.7988 B(  2-C ,  3-H ) :   0.8540 B(  2-C ,  4-H ) :   0.9440
B(  2-C ,  5-S ) :   0.9759 B(  2-C , 17-H ) :   0.1003 B(  2-C , 18-H ) :   0.1253
B(  5-S , 13-F ) :   0.6782 B(  5-S , 14-O ) :   1.6365 B(  5-S , 22-O ) :   1.5229
B(  6-C ,  7-C ) :   2.2946 B(  6-C ,  8-N ) :   1.0238 B(  6-C , 11-H ) :   0.1104
B(  6-C , 12-H ) :   0.3113 B(  6-C , 27-H ) :   0.2290 B(  6-C , 28-H ) :   0.2047
B(  7-C ,  8-N ) :   0.3154 B(  7-C , 11-H ) :   0.6194 B(  7-C , 12-H ) :   0.5125
B(  8-N ,  9-H ) :   0.8906 B(  8-N , 10-H ) :   0.9810 B(  8-N , 11-H ) :   0.1513
B(  9-H , 10-H ) :  -0.1364 B( 12-H , 13-F ) :   0.2440 B( 15-C , 19-C ) :   1.2491
B( 15-C , 20-H ) :   0.7472 B( 15-C , 21-H ) :   0.8749 B( 15-C , 23-H ) :   0.1572
B( 15-C , 27-H ) :   0.1121 B( 16-C , 17-H ) :   0.2392 B( 16-C , 19-C ) :   1.2387
B( 16-C , 23-H ) :   0.1246 B( 16-C , 24-H ) :   0.1619 B( 16-C , 25-H ) :   0.9545
B( 16-C , 26-H ) :   0.7638 B( 19-C , 20-H ) :   0.2369 B( 19-C , 21-H ) :   0.1612
B( 19-C , 23-H ) :   0.8823 B( 19-C , 24-H ) :   0.8894 B( 19-C , 25-H ) :   0.1276
B( 19-C , 26-H ) :   0.2014 B( 20-H , 21-H ) :  -0.1063

FINAL SINGLE POINT ENERGY     -1014.840586538995

DIPOLE MOMENT
-------------
                                X             Y             Z
Electronic contribution:      2.12687      -4.83610     -18.49278
Nuclear contribution   :     -2.89481       6.29550      19.36835
                        -----------------------------------------
Total Dipole Moment    :     -0.76794       1.45940       0.87557
                        -----------------------------------------
Magnitude (a.u.)       :      1.86714
Magnitude (Debye)      :      4.74590

Rotational constants in cm-1:     0.036515     0.018832     0.015081
Rotational constants in MHz :  1094.679513   564.567051   452.109105

                             ****ORCA TERMINATED NORMALLY****
TOTAL RUN TIME: 0 days 0 hours 2 minutes 51 seconds 385 msec
