                         Program Version 5.0.0 -  RELEASE  -
|  1> !LC-PBE RIJCOSX def2-SVPD def2/J TightSCF
|  2> *xyz -1 1
|  3> C          4.12921        0.89839       -3.41895
|  4> C          5.01734        1.31521       -2.22130
|  5> O          4.73706        0.85411       -1.12283
|  6> O          5.92815        2.16811       -2.49136
|  7> H          4.48610        1.37210       -4.30953
|  8> H          3.11885        1.19903       -3.23540
|  9> H          4.16886       -0.16404       -3.53966
| 10> *
| 11> %MaxCore 64000
| 12>
| 13> %pal nprocs 4
| 14> end
| 15>
| 16> %scf
| 17>   MaxIter 150
| 18> end
| 19>
| 20>
| 21>                          ****END OF INPUT****

CARTESIAN COORDINATES (ANGSTROEM)
---------------------------------
  C      4.129210    0.898390   -3.418950
  C      5.017340    1.315210   -2.221300
  O      4.737060    0.854110   -1.122830
  O      5.928150    2.168110   -2.491360
  H      4.486100    1.372100   -4.309530
  H      3.118850    1.199030   -3.235400
  H      4.168860   -0.164040   -3.539660

 Total Charge           Charge          ....   -1
 Multiplicity           Mult            ....    1
 Number of Electrons    NEL             ....   32
 Basis Dimension        Dim             ....  110

ORBITAL ENERGIES
----------------

  NO   OCC          E(Eh)            E(eV)
   0   2.0000     -18.730886      -509.6933
   1   2.0000     -18.719940      -509.3955
   2   2.0000     -10.018788      -272.6251
   3   2.0000      -9.937291      -270.4074
   4   2.0000      -0.983340       -26.7580
   5   2.0000      -0.877140       -23.8682
   6   2.0000      -0.706599       -19.2275
   7   2.0000      -0.448233       -12.1970
   8   2.0000      -0.404738       -11.0135
   9   2.0000      -0.385648       -10.4940
  10   2.0000      -0.374929       -10.2023
  11   2.0000      -0.327850        -8.9213
  12   2.0000      -0.311954        -8.4887
  13   2.0000      -0.178471        -4.8564
  14   2.0000      -0.172315        -4.6889
  15   2.0000      -0.162390        -4.4189
  16   0.0000       0.237927         6.4743
  17   0.0000       0.270145         7.3510
  18   0.0000       0.297942         8.1074
  19   0.0000       0.306591         8.3428
  20   0.0000       0.332875         9.0580

MULLIKEN ATOMIC CHARGES
-----------------------
   0 C :    0.229297
   1 C :   -0.042159
   2 O :   -0.555525
   3 O :   -0.645549
   4 H :   -0.003754
   5 H :    0.008015
   6 H :    0.009674
Sum of atomic charges:   -1.0000000

LOEWDIN ATOMIC CHARGES
----------------------
   0 C :    0.109288
   1 C :   -0.356818
   2 O :   -0.311449
   3 O :   -0.356654
   4 H :   -0.032585
   5 H :   -0.024801
   6 H :   -0.026980

  Mayer bond orders larger than 0.100000
B(  0-C ,  1-C ) :   1.1948 B(  0-C ,  4-H ) :   0.9072 B(  0-C ,  5-H ) :   0.8656
B(  0-C ,  6-H ) :   0.8568 B(  1-C ,  2-O ) :   1.6200 B(  1-C ,  3-O ) :   1.5283
B(  1-C ,  4-H ) :   0.1923 B(  1-C ,  5-H ) :   0.1163 B(  1-C ,  6-H ) :   0.1225

FINAL SINGLE POINT ENERGY      -227.725328475430

DIPOLE MOMENT
-------------
                                X             Y             Z
Electronic contribution:      1.98351       0.91011       2.82792
Nuclear contribution   :     -2.87913      -1.42371      -3.86600
                        -----------------------------------------
Total Dipole Moment    :     -0.89562      -0.51361      -1.03808
                        -----------------------------------------
Magnitude (a.u.)       :      1.46408
Magnitude (Debye)      :      3.72140

Rotational constants in cm-1:     0.390018     0.334370     0.186171
Rotational constants in MHz : 11692.450907 10024.149143  5581.251544

                             ****ORCA TERMINATED NORMALLY****
TOTAL RUN TIME: 0 days 0 hours 0 minutes 7 seconds 427 msec
