                         Program Version 5.0.0 -  RELEASE  -
|  1> !LC-PBE RIJCOSX def2-SVPD def2/J TightSCF
|  2> *xyz 1 1
|  3> C          3.34350        3.35457       -3.59200
|  4> C          4.25587        3.70385       -4.72605
|  5> N          3.73403        4.29378       -5.80077
|  6> N          5.51504        3.40725       -4.63718
|  7> H          6.14919        3.60120       -5.39905
|  8> H          5.81358        2.89950       -3.80879
|  9> H          2.74138        4.51311       -5.82470
| 10> H          4.28755        4.52126       -6.61434
| 11> H          2.34726        3.66659       -3.82664
| 12> H          3.67283        3.85124       -2.70331
| 13> H          3.35820        2.29620       -3.43538
| 14> *
| 15> %MaxCore 64000
| 16>
| 17> %pal nprocs 4
| 18> end
| 19>
| 20> %scf
| 21>   MaxIter 150
| 22> end
| 23>
| 24>
| 25>                          ****END OF INPUT****

CARTESIAN COORDINATES (ANGSTROEM)
---------------------------------
  C      3.343500    3.354570   -3.592000
  C      4.255870    3.703850   -4.726050
  N      3.734030    4.293780   -5.800770
  N      5.515040    3.407250   -4.637180
  H      6.149190    3.601200   -5.399050
  H      5.813580    2.899500   -3.808790
  H      2.741380    4.513110   -5.824700
  H      4.287550    4.521260   -6.614340
  H      2.347260    3.666590   -3.826640
  H      3.672830    3.851240   -2.703310
  H      3.358200    2.296200   -3.435380

 Total Charge           Charge          ....    1
 Multiplicity           Mult            ....    1
 Number of Electrons    NEL             ....   32
 Basis Dimension        Dim             ....  136

ORBITAL ENERGIES
----------------

  NO   OCC          E(Eh)            E(eV)
   0   2.0000     -14.484605      -394.1461
   1   2.0000     -14.480423      -394.0324
   2   2.0000     -10.470314      -284.9117
   3   2.0000     -10.326490      -280.9981
   4   2.0000      -1.382994       -37.6332
   5   2.0000      -1.277837       -34.7717
   6   2.0000      -1.124581       -30.6014
   7   2.0000      -0.997541       -27.1445
   8   2.0000      -0.936137       -25.4736
   9   2.0000      -0.921638       -25.0790
  10   2.0000      -0.849648       -23.1201
  11   2.0000      -0.816732       -22.2244
  12   2.0000      -0.755906       -20.5693
  13   2.0000      -0.740371       -20.1465
  14   2.0000      -0.716204       -19.4889
  15   2.0000      -0.631727       -17.1902
  16   0.0000      -0.122149        -3.3238
  17   0.0000      -0.083111        -2.2616
  18   0.0000      -0.039182        -1.0662
  19   0.0000      -0.035620        -0.9693
  20   0.0000      -0.012884        -0.3506

MULLIKEN ATOMIC CHARGES
-----------------------
   0 C :    0.283534
   1 C :    0.374329
   2 N :   -0.121575
   3 N :    0.087654
   4 H :   -0.099179
   5 H :    0.108465
   6 H :    0.111860
   7 H :   -0.073480
   8 H :    0.103089
   9 H :    0.116677
  10 H :    0.108627
Sum of atomic charges:    1.0000000

LOEWDIN ATOMIC CHARGES
----------------------
   0 C :    0.200469
   1 C :   -0.064610
   2 N :    0.262173
   3 N :    0.264577
   4 H :    0.062648
   5 H :    0.073104
   6 H :    0.059942
   7 H :    0.053682
   8 H :    0.017315
   9 H :    0.035381
  10 H :    0.035319

  Mayer bond orders larger than 0.100000
B(  0-C ,  1-C ) :   1.2662 B(  0-C ,  8-H ) :   0.8223 B(  0-C ,  9-H ) :   0.7960
B(  0-C , 10-H ) :   0.8180 B(  1-C ,  2-N ) :   0.9942 B(  1-C ,  3-N ) :   1.2446
B(  1-C ,  4-H ) :  -0.1429 B(  1-C ,  7-H ) :  -0.2272 B(  1-C ,  8-H ) :   0.1882
B(  1-C ,  9-H ) :   0.1332 B(  1-C , 10-H ) :   0.1123 B(  2-N ,  3-N ) :   0.1425
B(  2-N ,  6-H ) :   1.0494 B(  2-N ,  7-H ) :   1.3313 B(  3-N ,  4-H ) :   1.2513
B(  3-N ,  5-H ) :   1.0564 B(  4-H ,  5-H ) :  -0.1441 B(  6-H ,  7-H ) :  -0.1680

FINAL SINGLE POINT ENERGY      -188.986728650585

DIPOLE MOMENT
-------------
                                X             Y             Z
Electronic contribution:      1.41744       0.49957      -1.59539
Nuclear contribution   :     -1.09951      -0.46604       1.22975
                        -----------------------------------------
Total Dipole Moment    :      0.31793       0.03354      -0.36564
                        -----------------------------------------
Magnitude (a.u.)       :      0.48569
Magnitude (Debye)      :      1.23453

Rotational constants in cm-1:     0.329035     0.303839     0.162676
Rotational constants in MHz :  9864.215808  9108.853745  4876.907929

                             ****ORCA TERMINATED NORMALLY****
TOTAL RUN TIME: 0 days 0 hours 0 minutes 11 seconds 940 msec
