                         Program Version 5.0.0 -  RELEASE  -
|  1> !LC-PBE RIJCOSX def2-SVPD def2/J TightSCF
|  2> *xyz 0 1
|  3> C          4.12921        0.89839       -3.41895
|  4> C          5.01734        1.31521       -2.22130
|  5> F          4.73706        0.85411       -1.12283
|  6> O          5.92815        2.16811       -2.49136
|  7> H          4.48610        1.37210       -4.30953
|  8> H          3.11885        1.19903       -3.23540
|  9> H          4.16886       -0.16404       -3.53966
| 10> *
| 11> %MaxCore 64000
| 12>
| 13> %pal nprocs 4
| 14> end
| 15>
| 16> %scf
| 17>   MaxIter 150
| 18> end
| 19>
| 20>
| 21>                          ****END OF INPUT****

CARTESIAN COORDINATES (ANGSTROEM)
---------------------------------
  C      4.129210    0.898390   -3.418950
  C      5.017340    1.315210   -2.221300
  F      4.737060    0.854110   -1.122830
  O      5.928150    2.168110   -2.491360
  H      4.486100    1.372100   -4.309530
  H      3.118850    1.199030   -3.235400
  H      4.168860   -0.164040   -3.539660

 Total Charge           Charge          ....    0
 Multiplicity           Mult            ....    1
 Number of Electrons    NEL             ....   32
 Basis Dimension        Dim             ....  110

ORBITAL ENERGIES
----------------

  NO   OCC          E(Eh)            E(eV)
   0   2.0000     -24.598380      -669.3560
   1   2.0000     -19.002534      -517.0852
   2   2.0000     -10.328482      -281.0523
   3   2.0000     -10.155216      -276.3375
   4   2.0000      -1.496533       -40.7227
   5   2.0000      -1.183504       -32.2048
   6   2.0000      -0.940256       -25.5857
   7   2.0000      -0.833120       -22.6703
   8   2.0000      -0.728877       -19.8337
   9   2.0000      -0.718143       -19.5417
  10   2.0000      -0.653107       -17.7719
  11   2.0000      -0.586661       -15.9639
  12   2.0000      -0.574957       -15.6454
  13   2.0000      -0.542212       -14.7543
  14   2.0000      -0.490798       -13.3553
  15   2.0000      -0.430405       -11.7119
  16   0.0000       0.065767         1.7896
  17   0.0000       0.079843         2.1726
  18   0.0000       0.117920         3.2088
  19   0.0000       0.152612         4.1528
  20   0.0000       0.161091         4.3835

MULLIKEN ATOMIC CHARGES
-----------------------
   0 C :    0.134807
   1 C :    0.343122
   2 F :   -0.272895
   3 O :   -0.435859
   4 H :    0.039753
   5 H :    0.096803
   6 H :    0.094270
Sum of atomic charges:   -0.0000000

LOEWDIN ATOMIC CHARGES
----------------------
   0 C :    0.181379
   1 C :   -0.051955
   2 F :    0.000781
   3 O :   -0.153144
   4 H :    0.008314
   5 H :    0.008533
   6 H :    0.006091

  Mayer bond orders larger than 0.100000
B(  0-C ,  1-C ) :   1.2206 B(  0-C ,  4-H ) :   0.9304 B(  0-C ,  5-H ) :   0.8474
B(  0-C ,  6-H ) :   0.8433 B(  1-C ,  2-F ) :   0.8813 B(  1-C ,  3-O ) :   1.8875
B(  1-C ,  4-H ) :   0.1547

FINAL SINGLE POINT ENERGY      -252.220837614621

DIPOLE MOMENT
-------------
                                X             Y             Z
Electronic contribution:      1.67808       0.18762       4.82848
Nuclear contribution   :     -2.65749      -0.95231      -5.09883
                        -----------------------------------------
Total Dipole Moment    :     -0.97940      -0.76470      -0.27035
                        -----------------------------------------
Magnitude (a.u.)       :      1.27165
Magnitude (Debye)      :      3.23227

Rotational constants in cm-1:     0.365278     0.322469     0.176821
Rotational constants in MHz : 10950.755781  9667.377070  5300.957073

                             ****ORCA TERMINATED NORMALLY****
TOTAL RUN TIME: 0 days 0 hours 0 minutes 7 seconds 726 msec
