                         Program Version 5.0.0 -  RELEASE  -
|  1> !LC-PBE RIJCOSX def2-SVPD def2/J TightSCF
|  2> *xyz 0 1
|  3> C          3.34350        3.35457       -3.59200
|  4> C          4.25587        3.70385       -4.72605
|  5> C          3.73403        4.29378       -5.80077
|  6> N          5.51504        3.40725       -4.63718
|  7> H          6.14919        3.60120       -5.39905
|  8> H          5.81358        2.89950       -3.80879
|  9> H          2.74138        4.51311       -5.82470
| 10> H          4.28755        4.52126       -6.61434
| 11> H          2.34726        3.66659       -3.82664
| 12> H          3.67283        3.85124       -2.70331
| 13> H          3.35820        2.29620       -3.43538
| 14> *
| 15> %MaxCore 64000
| 16>
| 17> %pal nprocs 4
| 18> end
| 19>
| 20> %scf
| 21>   MaxIter 150
| 22> end
| 23>
| 24>
| 25>                          ****END OF INPUT****

CARTESIAN COORDINATES (ANGSTROEM)
---------------------------------
  C      3.343500    3.354570   -3.592000
  C      4.255870    3.703850   -4.726050
  C      3.734030    4.293780   -5.800770
  N      5.515040    3.407250   -4.637180
  H      6.149190    3.601200   -5.399050
  H      5.813580    2.899500   -3.808790
  H      2.741380    4.513110   -5.824700
  H      4.287550    4.521260   -6.614340
  H      2.347260    3.666590   -3.826640
  H      3.672830    3.851240   -2.703310
  H      3.358200    2.296200   -3.435380

 Total Charge           Charge          ....    0
 Multiplicity           Mult            ....    1
 Number of Electrons    NEL             ....   32
 Basis Dimension        Dim             ....  136

ORBITAL ENERGIES
----------------

  NO   OCC          E(Eh)            E(eV)
   0   2.0000     -14.231774      -387.2663
   1   2.0000     -10.155623      -276.3486
   2   2.0000     -10.116782      -275.2916
   3   2.0000     -10.058046      -273.6933
   4   2.0000      -1.104778       -30.0625
   5   2.0000      -0.923469       -25.1289
   6   2.0000      -0.850346       -23.1391
   7   2.0000      -0.726053       -19.7569
   8   2.0000      -0.679570       -18.4920
   9   2.0000      -0.619857       -16.8672
  10   2.0000      -0.580198       -15.7880
  11   2.0000      -0.532786       -14.4979
  12   2.0000      -0.527556       -14.3555
  13   2.0000      -0.482818       -13.1381
  14   2.0000      -0.478906       -13.0317
  15   2.0000      -0.307652        -8.3716
  16   0.0000       0.090649         2.4667
  17   0.0000       0.124709         3.3935
  18   0.0000       0.129894         3.5346
  19   0.0000       0.135683         3.6921
  20   0.0000       0.165510         4.5037

MULLIKEN ATOMIC CHARGES
-----------------------
   0 C :    0.559560
   1 C :   -0.493774
   2 C :    0.262367
   3 N :    0.241446
   4 H :   -0.156448
   5 H :   -0.077541
   6 H :   -0.086820
   7 H :   -0.395761
   8 H :    0.093716
   9 H :    0.027324
  10 H :    0.025930
Sum of atomic charges:    0.0000000

LOEWDIN ATOMIC CHARGES
----------------------
   0 C :    0.131973
   1 C :   -0.305795
   2 C :    0.140991
   3 N :    0.145360
   4 H :    0.022024
   5 H :    0.019063
   6 H :   -0.074490
   7 H :   -0.079006
   8 H :   -0.002838
   9 H :    0.001175
  10 H :    0.001544

  Mayer bond orders larger than 0.100000
B(  0-C ,  1-C ) :   1.2951 B(  0-C ,  8-H ) :   0.8251 B(  0-C ,  9-H ) :   0.7175
B(  0-C , 10-H ) :   0.7372 B(  1-C ,  2-C ) :   1.7991 B(  1-C ,  3-N ) :   1.2213
B(  1-C ,  7-H ) :   0.1172 B(  1-C ,  8-H ) :   0.1860 B(  1-C ,  9-H ) :   0.2244
B(  1-C , 10-H ) :   0.2075 B(  2-C ,  3-N ) :   0.2204 B(  2-C ,  6-H ) :   0.9921
B(  2-C ,  7-H ) :   0.8522 B(  3-N ,  4-H ) :   1.2115 B(  3-N ,  5-H ) :   1.1139
B(  4-H ,  5-H ) :  -0.1202

FINAL SINGLE POINT ENERGY      -172.549100080415

DIPOLE MOMENT
-------------
                                X             Y             Z
Electronic contribution:      1.76163      -0.05154      -0.54012
Nuclear contribution   :     -1.20871      -0.33119       0.98382
                        -----------------------------------------
Total Dipole Moment    :      0.55292      -0.38274       0.44370
                        -----------------------------------------
Magnitude (a.u.)       :      0.80565
Magnitude (Debye)      :      2.04781

Rotational constants in cm-1:     0.348453     0.308655     0.168735
Rotational constants in MHz : 10446.369928  9253.232733  5058.539653

                             ****ORCA TERMINATED NORMALLY****
TOTAL RUN TIME: 0 days 0 hours 0 minutes 12 seconds 524 msec
