                         Program Version 5.0.0 -  RELEASE  -
|  1> !LC-PBE RIJCOSX def2-SVPD def2/J TightSCF
|  2> *xyz 0 1
|  3> C          4.12921        0.89839       -3.41895
|  4> C          5.01734        1.31521       -2.22130
|  5> O          4.73706        0.85411       -1.12283
|  6> F          5.92815        2.16811       -2.49136
|  7> H          4.48610        1.37210       -4.30953
|  8> H          3.11885        1.19903       -3.23540
|  9> H          4.16886       -0.16404       -3.53966
| 10> *
| 11> %MaxCore 64000
| 12>
| 13> %pal nprocs 4
| 14> end
| 15>
| 16> %scf
| 17>   MaxIter 150
| 18> end
| 19>
| 20>
| 21>                          ****END OF INPUT****

CARTESIAN COORDINATES (ANGSTROEM)
---------------------------------
  C      4.129210    0.898390   -3.418950
  C      5.017340    1.315210   -2.221300
  O      4.737060    0.854110   -1.122830
  F      5.928150    2.168110   -2.491360
  H      4.486100    1.372100   -4.309530
  H      3.118850    1.199030   -3.235400
  H      4.168860   -0.164040   -3.539660

 Total Charge           Charge          ....    0
 Multiplicity           Mult            ....    1
 Number of Electrons    NEL             ....   32
 Basis Dimension        Dim             ....  110

ORBITAL ENERGIES
----------------

  NO   OCC          E(Eh)            E(eV)
   0   2.0000     -24.577059      -668.7758
   1   2.0000     -19.012449      -517.3551
   2   2.0000     -10.324136      -280.9340
   3   2.0000     -10.155036      -276.3326
   4   2.0000      -1.455985       -39.6194
   5   2.0000      -1.216085       -33.0913
   6   2.0000      -0.938918       -25.5493
   7   2.0000      -0.811096       -22.0710
   8   2.0000      -0.704552       -19.1718
   9   2.0000      -0.699012       -19.0211
  10   2.0000      -0.656529       -17.8651
  11   2.0000      -0.587077       -15.9752
  12   2.0000      -0.577612       -15.7176
  13   2.0000      -0.549828       -14.9616
  14   2.0000      -0.508037       -13.8244
  15   2.0000      -0.443142       -12.0585
  16   0.0000       0.068067         1.8522
  17   0.0000       0.080954         2.2029
  18   0.0000       0.119376         3.2484
  19   0.0000       0.155192         4.2230
  20   0.0000       0.157979         4.2988

MULLIKEN ATOMIC CHARGES
-----------------------
   0 C :    0.119650
   1 C :    0.318465
   2 O :   -0.373637
   3 F :   -0.319170
   4 H :    0.053174
   5 H :    0.102597
   6 H :    0.098921
Sum of atomic charges:   -0.0000000

LOEWDIN ATOMIC CHARGES
----------------------
   0 C :    0.183401
   1 C :   -0.048741
   2 O :   -0.115127
   3 F :   -0.042387
   4 H :   -0.003645
   5 H :    0.013855
   6 H :    0.012643

  Mayer bond orders larger than 0.100000
B(  0-C ,  1-C ) :   1.2330 B(  0-C ,  4-H ) :   0.9127 B(  0-C ,  5-H ) :   0.8536
B(  0-C ,  6-H ) :   0.8475 B(  1-C ,  2-O ) :   1.9297 B(  1-C ,  3-F ) :   0.8405
B(  1-C ,  4-H ) :   0.1139 B(  1-C ,  6-H ) :   0.1018

FINAL SINGLE POINT ENERGY      -252.237169725840

DIPOLE MOMENT
-------------
                                X             Y             Z
Electronic contribution:      3.64017       2.34997       2.57376
Nuclear contribution   :     -3.88824      -2.31007      -3.68473
                        -----------------------------------------
Total Dipole Moment    :     -0.24807       0.03991      -1.11096
                        -----------------------------------------
Magnitude (a.u.)       :      1.13902
Magnitude (Debye)      :      2.89516

Rotational constants in cm-1:     0.367620     0.319924     0.176595
Rotational constants in MHz : 11020.955969  9591.092757  5294.190719

                             ****ORCA TERMINATED NORMALLY****
TOTAL RUN TIME: 0 days 0 hours 0 minutes 8 seconds 5 msec
