                         Program Version 5.0.0 -  RELEASE  -
|  1> !LC-PBE RIJCOSX def2-SVPD def2/J TightSCF
|  2> *xyz 0 1
|  3> C          3.34350        3.35457       -3.59200
|  4> C          4.25587        3.70385       -4.72605
|  5> N          3.73403        4.29378       -5.80077
|  6> C          5.51504        3.40725       -4.63718
|  7> H          6.14919        3.60120       -5.39905
|  8> H          5.81358        2.89950       -3.80879
|  9> H          2.74138        4.51311       -5.82470
| 10> H          4.28755        4.52126       -6.61434
| 11> H          2.34726        3.66659       -3.82664
| 12> H          3.67283        3.85124       -2.70331
| 13> H          3.35820        2.29620       -3.43538
| 14> *
| 15> %MaxCore 64000
| 16>
| 17> %pal nprocs 4
| 18> end
| 19>
| 20> %scf
| 21>   MaxIter 150
| 22> end
| 23>
| 24>
| 25>                          ****END OF INPUT****

CARTESIAN COORDINATES (ANGSTROEM)
---------------------------------
  C      3.343500    3.354570   -3.592000
  C      4.255870    3.703850   -4.726050
  N      3.734030    4.293780   -5.800770
  C      5.515040    3.407250   -4.637180
  H      6.149190    3.601200   -5.399050
  H      5.813580    2.899500   -3.808790
  H      2.741380    4.513110   -5.824700
  H      4.287550    4.521260   -6.614340
  H      2.347260    3.666590   -3.826640
  H      3.672830    3.851240   -2.703310
  H      3.358200    2.296200   -3.435380

 Total Charge           Charge          ....    0
 Multiplicity           Mult            ....    1
 Number of Electrons    NEL             ....   32
 Basis Dimension        Dim             ....  136

ORBITAL ENERGIES
----------------

  NO   OCC          E(Eh)            E(eV)
   0   2.0000     -14.228436      -387.1754
   1   2.0000     -10.152435      -276.2618
   2   2.0000     -10.116279      -275.2780
   3   2.0000     -10.055323      -273.6193
   4   2.0000      -1.090930       -29.6857
   5   2.0000      -0.927616       -25.2417
   6   2.0000      -0.854034       -23.2394
   7   2.0000      -0.720639       -19.6096
   8   2.0000      -0.669197       -18.2098
   9   2.0000      -0.621488       -16.9115
  10   2.0000      -0.575929       -15.6718
  11   2.0000      -0.533544       -14.5185
  12   2.0000      -0.527942       -14.3660
  13   2.0000      -0.486667       -13.2429
  14   2.0000      -0.474203       -12.9037
  15   2.0000      -0.312236        -8.4964
  16   0.0000       0.091504         2.4900
  17   0.0000       0.124675         3.3926
  18   0.0000       0.129030         3.5111
  19   0.0000       0.134504         3.6600
  20   0.0000       0.164187         4.4678

MULLIKEN ATOMIC CHARGES
-----------------------
   0 C :    0.499891
   1 C :   -0.241395
   2 N :    0.022779
   3 C :    0.188400
   4 H :   -0.303639
   5 H :   -0.092984
   6 H :   -0.041431
   7 H :   -0.135208
   8 H :   -0.050708
   9 H :    0.081040
  10 H :    0.073254
Sum of atomic charges:   -0.0000000

LOEWDIN ATOMIC CHARGES
----------------------
   0 C :    0.132950
   1 C :   -0.293975
   2 N :    0.146074
   3 C :    0.127884
   4 H :   -0.069016
   5 H :   -0.058291
   6 H :    0.004629
   7 H :    0.011845
   8 H :   -0.015933
   9 H :    0.006949
  10 H :    0.006885

  Mayer bond orders larger than 0.100000
B(  0-C ,  1-C ) :   1.1206 B(  0-C ,  8-H ) :   0.7917 B(  0-C ,  9-H ) :   0.7845
B(  0-C , 10-H ) :   0.7946 B(  1-C ,  2-N ) :   1.0134 B(  1-C ,  3-C ) :   1.9464
B(  1-C ,  4-H ) :   0.1919 B(  1-C ,  5-H ) :   0.1472 B(  1-C ,  7-H ) :  -0.1524
B(  1-C ,  8-H ) :   0.2127 B(  1-C ,  9-H ) :   0.1410 B(  1-C , 10-H ) :   0.1286
B(  2-N ,  3-C ) :   0.2276 B(  2-N ,  6-H ) :   1.1130 B(  2-N ,  7-H ) :   1.2985
B(  3-C ,  4-H ) :   0.8220 B(  3-C ,  5-H ) :   0.8297 B(  6-H ,  7-H ) :  -0.1558

FINAL SINGLE POINT ENERGY      -172.548426463076

DIPOLE MOMENT
-------------
                                X             Y             Z
Electronic contribution:      0.18936       0.73831      -1.54270
Nuclear contribution   :     -0.80929      -0.53001       1.24477
                        -----------------------------------------
Total Dipole Moment    :     -0.61993       0.20830      -0.29793
                        -----------------------------------------
Magnitude (a.u.)       :      0.71865
Magnitude (Debye)      :      1.82667

Rotational constants in cm-1:     0.352070     0.305406     0.168593
Rotational constants in MHz : 10554.792117  9155.853997  5054.288053

                             ****ORCA TERMINATED NORMALLY****
TOTAL RUN TIME: 0 days 0 hours 0 minutes 12 seconds 564 msec
