                         Program Version 5.0.0 -  RELEASE  -
|  1> !LC-PBE RIJCOSX def2-SVPD def2/J TightSCF xyzfile
|  2>
|  3> *xyzfile 0 1 D2.xyz
|  4>
|  5> %MaxCore 64000
|  6>
|  7> %pal nprocs 4
|  8> end
|  9>
| 10> %scf
| 11>   MaxIter 150
| 12> end
| 13>
| 14>
| 15>                          ****END OF INPUT****

CARTESIAN COORDINATES (ANGSTROEM)
---------------------------------
  C      3.343500    3.354571   -3.591998
  C      2.952633    1.863077   -3.574849
  C      4.129209    0.898394   -3.418950
  H      3.733687   -0.100605   -3.237633
  H      4.719095    0.862556   -4.339005
  C      5.017344    1.315212   -2.221305
  C      4.255868    3.703851   -4.726054
  N      3.734032    4.293783   -5.800770
  C      5.515039    3.407255   -4.637185
  H      6.149187    3.601203   -5.399053
  H      5.813584    2.899504   -3.808785
  H      2.741380    4.513109   -5.824701
  H      4.287548    4.521260   -6.614341
  H      2.278938    1.735250   -2.725496
  H      2.377466    1.625787   -4.475869
  F      4.737055    0.854112   -1.122825
  O      5.928146    2.168108   -2.491365
  H      3.861246    3.597252   -2.662979
  H      2.446493    3.973461   -3.656556

 Total Charge           Charge          ....    0
 Multiplicity           Mult            ....    1
 Number of Electrons    NEL             ....   70
 Basis Dimension        Dim             ....  266

ORBITAL ENERGIES
----------------

  NO   OCC          E(Eh)            E(eV)
   0   2.0000     -24.601453      -669.4396
   1   2.0000     -19.003543      -517.1127
   2   2.0000     -14.217697      -386.8832
   3   2.0000     -10.330315      -281.1022
   4   2.0000     -10.159144      -276.4444
   5   2.0000     -10.150103      -276.1983
   6   2.0000     -10.135780      -275.8086
   7   2.0000     -10.130022      -275.6519
   8   2.0000     -10.025142      -272.7980
   9   2.0000      -1.498495       -40.7761
  10   2.0000      -1.195531       -32.5321
  11   2.0000      -1.081731       -29.4354
  12   2.0000      -0.993167       -27.0255
  13   2.0000      -0.916131       -24.9292
  14   2.0000      -0.865377       -23.5481
  15   2.0000      -0.839152       -22.8345
  16   2.0000      -0.781808       -21.2741
  17   2.0000      -0.735531       -20.0148
  18   2.0000      -0.721467       -19.6321
  19   2.0000      -0.698499       -19.0071
  20   2.0000      -0.680627       -18.5208
  21   2.0000      -0.644922       -17.5492
  22   2.0000      -0.626373       -17.0445
  23   2.0000      -0.612433       -16.6651
  24   2.0000      -0.593817       -16.1586
  25   2.0000      -0.559551       -15.2261
  26   2.0000      -0.532424       -14.4880
  27   2.0000      -0.527663       -14.3584
  28   2.0000      -0.500875       -13.6295
  29   2.0000      -0.490054       -13.3350
  30   2.0000      -0.482567       -13.1313
  31   2.0000      -0.461092       -12.5470
  32   2.0000      -0.451192       -12.2776
  33   2.0000      -0.400126       -10.8880
  34   2.0000      -0.298089        -8.1114
  35   0.0000       0.055025         1.4973
  36   0.0000       0.081454         2.2165
  37   0.0000       0.101520         2.7625
  38   0.0000       0.111709         3.0398
  39   0.0000       0.116472         3.1694

MULLIKEN ATOMIC CHARGES
-----------------------
   0 C :    0.083503
   1 C :   -0.116005
   2 C :   -0.079009
   3 H :   -0.056650
   4 H :    0.261206
   5 C :    0.713618
   6 C :    0.138674
   7 N :   -0.023668
   8 C :    0.741270
   9 H :   -0.538080
  10 H :   -0.355822
  11 H :   -0.064884
  12 H :   -0.135317
  13 H :    0.091074
  14 H :   -0.052547
  15 F :   -0.313807
  16 O :   -0.435277
  17 H :    0.267900
  18 H :   -0.126177
Sum of atomic charges:    0.0000000

LOEWDIN ATOMIC CHARGES
----------------------
   0 C :   -0.001443
   1 C :   -0.024162
   2 C :    0.040439
   3 H :    0.035327
   4 H :    0.046672
   5 C :    0.030710
   6 C :   -0.242568
   7 N :    0.143790
   8 C :    0.176457
   9 H :   -0.057792
  10 H :   -0.185742
  11 H :    0.000902
  12 H :    0.009439
  13 H :    0.034498
  14 H :    0.042273
  15 F :    0.018902
  16 O :   -0.131535
  17 H :    0.034941
  18 H :    0.028892

  Mayer bond orders larger than 0.100000
B(  0-C ,  1-C ) :   1.1932 B(  0-C ,  6-C ) :   1.0790 B(  0-C ,  7-N ) :   0.1285
B(  0-C ,  8-C ) :   0.1921 B(  0-C , 14-H ) :   0.1112 B(  0-C , 17-H ) :   0.7509
B(  0-C , 18-H ) :   0.9524 B(  1-C ,  2-C ) :   1.2667 B(  1-C ,  3-H ) :   0.1581
B(  1-C ,  4-H ) :   0.1227 B(  1-C , 13-H ) :   0.8459 B(  1-C , 14-H ) :   0.9786
B(  1-C , 17-H ) :   0.1241 B(  1-C , 18-H ) :   0.1425 B(  2-C ,  3-H ) :   0.9210
B(  2-C ,  4-H ) :   0.8197 B(  2-C ,  5-C ) :   1.0754 B(  2-C , 13-H ) :   0.1006
B(  5-C , 15-F ) :   0.8072 B(  5-C , 16-O ) :   1.7002 B(  6-C ,  7-N ) :   0.9760
B(  6-C ,  8-C ) :   1.9966 B(  6-C ,  9-H ) :   0.2433 B(  6-C , 10-H ) :   0.2925
B(  6-C , 12-H ) :  -0.1241 B(  7-N ,  8-C ) :   0.2724 B(  7-N , 11-H ) :   1.1578
B(  7-N , 12-H ) :   1.3071 B(  8-C ,  9-H ) :   0.7648 B(  8-C , 10-H ) :   0.6115
B(  9-H , 10-H ) :  -0.1967 B( 10-H , 16-O ) :   0.1935 B( 11-H , 12-H ) :  -0.1536

FINAL SINGLE POINT ENERGY      -462.708425838718

DIPOLE MOMENT
-------------
                                X             Y             Z
Electronic contribution:      4.26307      -5.19150       9.56754
Nuclear contribution   :     -5.64491       4.57111      -9.93176
                        -----------------------------------------
Total Dipole Moment    :     -1.38184      -0.62039      -0.36423
                        -----------------------------------------
Magnitude (a.u.)       :      1.55789
Magnitude (Debye)      :      3.95983

Rotational constants in cm-1:     0.109825     0.034347     0.029470
Rotational constants in MHz :  3292.465653  1029.684117   883.494260

                             ****ORCA TERMINATED NORMALLY****
TOTAL RUN TIME: 0 days 0 hours 1 minutes 4 seconds 81 msec
