                         Program Version 5.0.0 -  RELEASE  -
|  1> !CAM-B3LYP RIJCOSX def2-SVPD def2/J TightSCF
|  2> *xyz -1 1
|  3> C         -5.57236       -5.80780       -0.81644
|  4> S         -6.90318       -4.61903       -0.52846
|  5> O         -8.11485       -5.25093       -0.95701
|  6> O         -6.53271       -3.42684       -1.31485
|  7> O         -6.86563       -4.29496        0.91412
|  8> C         -3.82708       -4.66110        0.78617
|  9> C         -4.45780       -5.94187        0.22919
| 10> H         -5.17735       -5.54257       -1.79771
| 11> H         -6.07420       -6.76889       -0.92127
| 12> H         -3.68106       -6.56224       -0.22988
| 13> H         -4.84394       -6.51273        1.07581
| 14> H         -3.43706       -4.07576       -0.02016
| 15> H         -3.03403       -4.91680        1.45744
| 16> H         -4.56975       -4.09647        1.31013
| 17> *
| 18> %MaxCore 64000
| 19>
| 20> %pal nprocs 4
| 21> end
| 22>
| 23> %scf
| 24>   MaxIter 150
| 25> end
| 26>
| 27>                          ****END OF INPUT****

CARTESIAN COORDINATES (ANGSTROEM)
---------------------------------
  C     -5.572360   -5.807800   -0.816440
  S     -6.903180   -4.619030   -0.528460
  O     -8.114850   -5.250930   -0.957010
  O     -6.532710   -3.426840   -1.314850
  O     -6.865630   -4.294960    0.914120
  C     -3.827080   -4.661100    0.786170
  C     -4.457800   -5.941870    0.229190
  H     -5.177350   -5.542570   -1.797710
  H     -6.074200   -6.768890   -0.921270
  H     -3.681060   -6.562240   -0.229880
  H     -4.843940   -6.512730    1.075810
  H     -3.437060   -4.075760   -0.020160
  H     -3.034030   -4.916800    1.457440
  H     -4.569750   -4.096470    1.310130

 Total Charge           Charge          ....   -1
 Multiplicity           Mult            ....    1
 Number of Electrons    NEL             ....   66
 Basis Dimension        Dim             ....  212

ORBITAL ENERGIES
----------------

  NO   OCC          E(Eh)            E(eV)
   0   2.0000     -88.965761     -2420.8814
   1   2.0000     -19.002482      -517.0838
   2   2.0000     -18.989227      -516.7231
   3   2.0000     -18.988032      -516.6906
   4   2.0000     -10.134667      -275.7783
   5   2.0000     -10.126357      -275.5522
   6   2.0000     -10.109879      -275.1038
   7   2.0000      -8.018674      -218.1992
   8   2.0000      -5.988613      -162.9584
   9   2.0000      -5.988507      -162.9556
  10   2.0000      -5.988055      -162.9433
  11   2.0000      -1.017832       -27.6966
  12   2.0000      -0.873939       -23.7811
  13   2.0000      -0.850099       -23.1324
  14   2.0000      -0.735543       -20.0151
  15   2.0000      -0.646678       -17.5970
  16   2.0000      -0.549723       -14.9587
  17   2.0000      -0.455988       -12.4081
  18   2.0000      -0.407572       -11.0906
  19   2.0000      -0.390955       -10.6384
  20   2.0000      -0.368890       -10.0380
  21   2.0000      -0.353379        -9.6159
  22   2.0000      -0.336718        -9.1625
  23   2.0000      -0.323740        -8.8094
  24   2.0000      -0.291703        -7.9376
  25   2.0000      -0.286876        -7.8063
  26   2.0000      -0.271780        -7.3955
  27   2.0000      -0.223036        -6.0691
  28   2.0000      -0.220666        -6.0046
  29   2.0000      -0.186146        -5.0653
  30   2.0000      -0.172337        -4.6895
  31   2.0000      -0.170816        -4.6481
  32   2.0000      -0.133519        -3.6332
  33   0.0000       0.162750         4.4287
  34   0.0000       0.186945         5.0870
  35   0.0000       0.192501         5.2382
  36   0.0000       0.200009         5.4425
  37   0.0000       0.219788         5.9807

MULLIKEN ATOMIC CHARGES
-----------------------
   0 C :    0.181436
   1 S :    1.315918
   2 O :   -0.796969
   3 O :   -0.808068
   4 O :   -0.847949
   5 C :    0.997048
   6 C :   -0.143417
   7 H :   -0.049633
   8 H :   -0.097587
   9 H :   -0.186302
  10 H :   -0.104123
  11 H :   -0.124122
  12 H :   -0.123143
  13 H :   -0.213089
Sum of atomic charges:   -1.0000000

LOEWDIN ATOMIC CHARGES
----------------------
   0 C :   -0.078898
   1 S :    0.874008
   2 O :   -0.571659
   3 O :   -0.598892
   4 O :   -0.585364
   5 C :    0.123028
   6 C :   -0.088347
   7 H :    0.002336
   8 H :   -0.004250
   9 H :    0.005340
  10 H :    0.015768
  11 H :   -0.017991
  12 H :   -0.033726
  13 H :   -0.041353

  Mayer bond orders larger than 0.100000
B(  0-C ,  1-S ) :   0.8760 B(  0-C ,  6-C ) :   1.2655 B(  0-C ,  7-H ) :   0.8811
B(  0-C ,  8-H ) :   0.8677 B(  0-C ,  9-H ) :   0.1771 B(  0-C , 10-H ) :   0.1494
B(  1-S ,  2-O ) :   1.3620 B(  1-S ,  3-O ) :   1.2546 B(  1-S ,  4-O ) :   1.2417
B(  5-C ,  6-C ) :   1.2487 B(  5-C , 11-H ) :   0.7157 B(  5-C , 12-H ) :   0.6724
B(  5-C , 13-H ) :   0.7776 B(  6-C ,  7-H ) :   0.1432 B(  6-C ,  8-H ) :   0.1578
B(  6-C ,  9-H ) :   0.8187 B(  6-C , 10-H ) :   0.8756 B(  6-C , 11-H ) :   0.2333
B(  6-C , 12-H ) :   0.2453 B(  6-C , 13-H ) :   0.2357

FINAL SINGLE POINT ENERGY      -741.928881697598

DIPOLE MOMENT
-------------
                                X             Y             Z
Electronic contribution:     -9.79021       3.16646      -2.58067
Nuclear contribution   :     11.75544      -4.53524       2.70749
                        -----------------------------------------
Total Dipole Moment    :      1.96523      -1.36878       0.12682
                        -----------------------------------------
Magnitude (a.u.)       :      2.39828
Magnitude (Debye)      :      6.09595

Rotational constants in cm-1:     0.134586     0.054907     0.051455
Rotational constants in MHz :  4034.798577  1646.069534  1542.570153

                             ****ORCA TERMINATED NORMALLY****
TOTAL RUN TIME: 0 days 0 hours 0 minutes 36 seconds 187 msec
