                         Program Version 5.0.0 -  RELEASE  -
|  1> !CAM-B3LYP RIJCOSX def2-SVPD def2/J TightSCF
|  2> *xyz 1 1
|  3> C         -4.38262       -1.67089        1.21620
|  4> N         -5.76354       -1.91517        0.70501
|  5> C         -3.28173       -2.19127        0.29436
|  6> H         -5.84081       -2.11520       -0.30065
|  7> H         -6.40882       -1.14866        0.93612
|  8> H         -6.17478       -2.79061        1.05143
|  9> H         -4.32862       -2.13922        2.19810
| 10> H         -4.26158       -0.59740        1.35725
| 11> C         -3.47464       -3.60590       -0.25961
| 12> H         -2.35455       -2.12760        0.87143
| 13> H         -3.16661       -1.49969       -0.54504
| 14> H         -2.64612       -3.85908       -0.88759
| 15> H         -4.37934       -3.64545       -0.82956
| 16> H         -3.53324       -4.30157        0.55126
| 17> *
| 18> %MaxCore 64000
| 19>
| 20> %pal nprocs 4
| 21> end
| 22>
| 23> %scf
| 24>   MaxIter 150
| 25> end
| 26>
| 27>                          ****END OF INPUT****

CARTESIAN COORDINATES (ANGSTROEM)
---------------------------------
  C     -4.382620   -1.670890    1.216200
  N     -5.763540   -1.915170    0.705010
  C     -3.281730   -2.191270    0.294360
  H     -5.840810   -2.115200   -0.300650
  H     -6.408820   -1.148660    0.936120
  H     -6.174780   -2.790610    1.051430
  H     -4.328620   -2.139220    2.198100
  H     -4.261580   -0.597400    1.357250
  C     -3.474640   -3.605900   -0.259610
  H     -2.354550   -2.127600    0.871430
  H     -3.166610   -1.499690   -0.545040
  H     -2.646120   -3.859080   -0.887590
  H     -4.379340   -3.645450   -0.829560
  H     -3.533240   -4.301570    0.551260

 Total Charge           Charge          ....    1
 Multiplicity           Mult            ....    1
 Number of Electrons    NEL             ....   34
 Basis Dimension        Dim             ....  160

ORBITAL ENERGIES
----------------

  NO   OCC          E(Eh)            E(eV)
   0   2.0000     -14.735620      -400.9766
   1   2.0000     -10.506833      -285.9055
   2   2.0000     -10.435931      -283.9761
   3   2.0000     -10.408114      -283.2192
   4   2.0000      -1.285416       -34.9780
   5   2.0000      -1.050249       -28.5787
   6   2.0000      -0.964759       -26.2524
   7   2.0000      -0.871445       -23.7132
   8   2.0000      -0.861705       -23.4482
   9   2.0000      -0.839489       -22.8436
  10   2.0000      -0.759702       -20.6725
  11   2.0000      -0.706232       -19.2176
  12   2.0000      -0.676491       -18.4083
  13   2.0000      -0.652637       -17.7592
  14   2.0000      -0.595515       -16.2048
  15   2.0000      -0.591253       -16.0888
  16   2.0000      -0.573110       -15.5951
  17   0.0000      -0.155105        -4.2206
  18   0.0000      -0.100897        -2.7456
  19   0.0000      -0.096586        -2.6282
  20   0.0000      -0.082015        -2.2317
  21   0.0000      -0.057011        -1.5513

MULLIKEN ATOMIC CHARGES
-----------------------
   0 C :    0.782227
   1 N :   -0.767211
   2 C :   -0.268469
   3 H :    0.338047
   4 H :    0.333670
   5 H :    0.410860
   6 H :   -0.112812
   7 H :   -0.103250
   8 C :    0.974576
   9 H :   -0.090379
  10 H :   -0.111499
  11 H :   -0.126463
  12 H :   -0.182132
  13 H :   -0.077164
Sum of atomic charges:    1.0000000

LOEWDIN ATOMIC CHARGES
----------------------
   0 C :    0.097787
   1 N :    0.332194
   2 C :   -0.043967
   3 H :    0.090529
   4 H :    0.109903
   5 H :    0.106525
   6 H :    0.052044
   7 H :    0.050557
   8 C :    0.148951
   9 H :    0.046158
  10 H :    0.035295
  11 H :    0.007166
  12 H :   -0.030067
  13 H :   -0.003075

  Mayer bond orders larger than 0.100000
B(  0-C ,  1-N ) :   0.6602 B(  0-C ,  2-C ) :   1.2180 B(  0-C ,  6-H ) :   0.7762
B(  0-C ,  7-H ) :   0.8617 B(  0-C ,  9-H ) :   0.1523 B(  0-C , 10-H ) :   0.1294
B(  1-N ,  3-H ) :   0.7229 B(  1-N ,  4-H ) :   0.7997 B(  1-N ,  5-H ) :   0.7601
B(  1-N ,  6-H ) :   0.1468 B(  2-C ,  6-H ) :   0.1488 B(  2-C ,  8-C ) :   1.2915
B(  2-C ,  9-H ) :   0.9003 B(  2-C , 10-H ) :   0.9039 B(  2-C , 11-H ) :   0.2453
B(  2-C , 12-H ) :   0.1974 B(  2-C , 13-H ) :   0.2107 B(  8-C , 11-H ) :   0.7270
B(  8-C , 12-H ) :   0.7853 B(  8-C , 13-H ) :   0.7484 B( 12-H , 13-H ) :   0.1013

FINAL SINGLE POINT ENERGY      -174.621968981537

DIPOLE MOMENT
-------------
                                X             Y             Z
Electronic contribution:     -1.73591       1.31837       0.78947
Nuclear contribution   :     -0.18358      -0.73024      -0.44649
                        -----------------------------------------
Total Dipole Moment    :     -1.91949       0.58813       0.34297
                        -----------------------------------------
Magnitude (a.u.)       :      2.03665
Magnitude (Debye)      :      5.17677

Rotational constants in cm-1:     0.423641     0.164544     0.133152
Rotational constants in MHz : 12700.438743  4932.897948  3991.802402

                             ****ORCA TERMINATED NORMALLY****
TOTAL RUN TIME: 0 days 0 hours 0 minutes 18 seconds 677 msec
