                         Program Version 5.0.0 -  RELEASE  -
|  1> !CAM-B3LYP RIJCOSX def2-SVPD def2/J TightSCF
|  2> *xyz 0 1
|  3> C         -5.57236       -5.80780       -0.81644
|  4> S         -6.90318       -4.61903       -0.52846
|  5> F         -8.11485       -5.25093       -0.95701
|  6> O         -6.53271       -3.42684       -1.31485
|  7> O         -6.86563       -4.29496        0.91412
|  8> C         -3.82708       -4.66110        0.78617
|  9> C         -4.45780       -5.94187        0.22919
| 10> H         -5.17735       -5.54257       -1.79771
| 11> H         -6.07420       -6.76889       -0.92127
| 12> H         -3.68106       -6.56224       -0.22988
| 13> H         -4.84394       -6.51273        1.07581
| 14> H         -3.43706       -4.07576       -0.02016
| 15> H         -3.03403       -4.91680        1.45744
| 16> H         -4.56975       -4.09647        1.31013
| 17> *
| 18> %MaxCore 64000
| 19>
| 20> %pal nprocs 4
| 21> end
| 22>
| 23> %scf
| 24>   MaxIter 150
| 25> end
| 26>
| 27>                          ****END OF INPUT****

CARTESIAN COORDINATES (ANGSTROEM)
---------------------------------
  C     -5.572360   -5.807800   -0.816440
  S     -6.903180   -4.619030   -0.528460
  F     -8.114850   -5.250930   -0.957010
  O     -6.532710   -3.426840   -1.314850
  O     -6.865630   -4.294960    0.914120
  C     -3.827080   -4.661100    0.786170
  C     -4.457800   -5.941870    0.229190
  H     -5.177350   -5.542570   -1.797710
  H     -6.074200   -6.768890   -0.921270
  H     -3.681060   -6.562240   -0.229880
  H     -4.843940   -6.512730    1.075810
  H     -3.437060   -4.075760   -0.020160
  H     -3.034030   -4.916800    1.457440
  H     -4.569750   -4.096470    1.310130

 Total Charge           Charge          ....    0
 Multiplicity           Mult            ....    1
 Number of Electrons    NEL             ....   66
 Basis Dimension        Dim             ....  212

ORBITAL ENERGIES
----------------

  NO   OCC          E(Eh)            E(eV)
   0   2.0000     -89.223115     -2427.8844
   1   2.0000     -24.901249      -677.5974
   2   2.0000     -19.220732      -523.0227
   3   2.0000     -19.220495      -523.0163
   4   2.0000     -10.326043      -280.9859
   5   2.0000     -10.290926      -280.0303
   6   2.0000     -10.249355      -278.8991
   7   2.0000      -8.277007      -225.2288
   8   2.0000      -6.251140      -170.1022
   9   2.0000      -6.244484      -169.9211
  10   2.0000      -6.243248      -169.8874
  11   2.0000      -1.473033       -40.0833
  12   2.0000      -1.183572       -32.2066
  13   2.0000      -1.078373       -29.3440
  14   2.0000      -0.911317       -24.7982
  15   2.0000      -0.839803       -22.8522
  16   2.0000      -0.791305       -21.5325
  17   2.0000      -0.718404       -19.5488
  18   2.0000      -0.675541       -18.3824
  19   2.0000      -0.662839       -18.0368
  20   2.0000      -0.627983       -17.0883
  21   2.0000      -0.568812       -15.4782
  22   2.0000      -0.556565       -15.1449
  23   2.0000      -0.531176       -14.4540
  24   2.0000      -0.517636       -14.0856
  25   2.0000      -0.490957       -13.3596
  26   2.0000      -0.457750       -12.4560
  27   2.0000      -0.445521       -12.1232
  28   2.0000      -0.438256       -11.9256
  29   2.0000      -0.424030       -11.5384
  30   2.0000      -0.391688       -10.6584
  31   2.0000      -0.388945       -10.5837
  32   2.0000      -0.370668       -10.0864
  33   0.0000       0.024648         0.6707
  34   0.0000       0.045107         1.2274
  35   0.0000       0.059617         1.6223
  36   0.0000       0.063603         1.7307
  37   0.0000       0.080446         2.1891

MULLIKEN ATOMIC CHARGES
-----------------------
   0 C :    0.152190
   1 S :    1.501491
   2 F :   -0.427114
   3 O :   -0.660248
   4 O :   -0.712863
   5 C :    1.011792
   6 C :   -0.132925
   7 H :   -0.003959
   8 H :   -0.050164
   9 H :   -0.154413
  10 H :   -0.080446
  11 H :   -0.111800
  12 H :   -0.103192
  13 H :   -0.228348
Sum of atomic charges:    0.0000000

LOEWDIN ATOMIC CHARGES
----------------------
   0 C :   -0.044453
   1 S :    1.137800
   2 F :   -0.253429
   3 O :   -0.484128
   4 O :   -0.481027
   5 C :    0.144180
   6 C :   -0.060698
   7 H :    0.023830
   8 H :    0.012559
   9 H :    0.031066
  10 H :    0.028964
  11 H :   -0.007735
  12 H :   -0.012248
  13 H :   -0.034682

  Mayer bond orders larger than 0.100000
B(  0-C ,  1-S ) :   0.9174 B(  0-C ,  6-C ) :   1.3080 B(  0-C ,  7-H ) :   0.8922
B(  0-C ,  8-H ) :   0.8314 B(  0-C ,  9-H ) :   0.1759 B(  0-C , 10-H ) :   0.1479
B(  1-S ,  2-F ) :   0.6981 B(  1-S ,  3-O ) :   1.4732 B(  1-S ,  4-O ) :   1.4374
B(  5-C ,  6-C ) :   1.2681 B(  5-C , 11-H ) :   0.7162 B(  5-C , 12-H ) :   0.6776
B(  5-C , 13-H ) :   0.7788 B(  6-C ,  7-H ) :   0.1334 B(  6-C ,  8-H ) :   0.1685
B(  6-C ,  9-H ) :   0.8121 B(  6-C , 10-H ) :   0.8731 B(  6-C , 11-H ) :   0.2281
B(  6-C , 12-H ) :   0.2383 B(  6-C , 13-H ) :   0.2249 B( 11-H , 13-H ) :   0.1020

FINAL SINGLE POINT ENERGY      -766.408242518151

DIPOLE MOMENT
-------------
                                X             Y             Z
Electronic contribution:    -13.35435       2.38371      -3.89685
Nuclear contribution   :     13.81909      -4.05404       3.42760
                        -----------------------------------------
Total Dipole Moment    :      0.46473      -1.67033      -0.46925
                        -----------------------------------------
Magnitude (a.u.)       :      1.79615
Magnitude (Debye)      :      4.56546

Rotational constants in cm-1:     0.132500     0.053014     0.049575
Rotational constants in MHz :  3972.256497  1589.318970  1486.215991

                             ****ORCA TERMINATED NORMALLY****
TOTAL RUN TIME: 0 days 0 hours 0 minutes 40 seconds 50 msec
