                         Program Version 5.0.0 -  RELEASE  -
|  1> !CAM-B3LYP RIJCOSX def2-SVPD def2/J TightSCF
|  2> *xyz 0 1
|  3> C         -4.38262       -1.67089        1.21620
|  4> C         -5.76354       -1.91517        0.70501
|  5> C         -3.28173       -2.19127        0.29436
|  6> H         -5.84081       -2.11520       -0.30065
|  7> H         -6.40882       -1.14866        0.93612
|  8> H         -6.17478       -2.79061        1.05143
|  9> H         -4.32862       -2.13922        2.19810
| 10> H         -4.26158       -0.59740        1.35725
| 11> C         -3.47464       -3.60590       -0.25961
| 12> H         -2.35455       -2.12760        0.87143
| 13> H         -3.16661       -1.49969       -0.54504
| 14> H         -2.64612       -3.85908       -0.88759
| 15> H         -4.37934       -3.64545       -0.82956
| 16> H         -3.53324       -4.30157        0.55126
| 17> *
| 18> %MaxCore 64000
| 19>
| 20> %pal nprocs 4
| 21> end
| 22>
| 23> %scf
| 24>   MaxIter 150
| 25> end
| 26>
| 27>                          ****END OF INPUT****

CARTESIAN COORDINATES (ANGSTROEM)
---------------------------------
  C     -4.382620   -1.670890    1.216200
  C     -5.763540   -1.915170    0.705010
  C     -3.281730   -2.191270    0.294360
  H     -5.840810   -2.115200   -0.300650
  H     -6.408820   -1.148660    0.936120
  H     -6.174780   -2.790610    1.051430
  H     -4.328620   -2.139220    2.198100
  H     -4.261580   -0.597400    1.357250
  C     -3.474640   -3.605900   -0.259610
  H     -2.354550   -2.127600    0.871430
  H     -3.166610   -1.499690   -0.545040
  H     -2.646120   -3.859080   -0.887590
  H     -4.379340   -3.645450   -0.829560
  H     -3.533240   -4.301570    0.551260

 Total Charge           Charge          ....    0
 Multiplicity           Mult            ....    1
 Number of Electrons    NEL             ....   34
 Basis Dimension        Dim             ....  160

ORBITAL ENERGIES
----------------

  NO   OCC          E(Eh)            E(eV)
   0   2.0000     -10.247794      -278.8566
   1   2.0000     -10.244407      -278.7645
   2   2.0000     -10.238690      -278.6089
   3   2.0000     -10.219594      -278.0893
   4   2.0000      -0.877158       -23.8687
   5   2.0000      -0.803055       -21.8522
   6   2.0000      -0.724523       -19.7153
   7   2.0000      -0.637329       -17.3426
   8   2.0000      -0.537260       -14.6196
   9   2.0000      -0.532248       -14.4832
  10   2.0000      -0.487285       -13.2597
  11   2.0000      -0.464145       -12.6300
  12   2.0000      -0.451243       -12.2790
  13   2.0000      -0.425883       -11.5889
  14   2.0000      -0.393075       -10.6961
  15   2.0000      -0.385939       -10.5019
  16   2.0000      -0.376396       -10.2423
  17   0.0000       0.054014         1.4698
  18   0.0000       0.078966         2.1488
  19   0.0000       0.082165         2.2358
  20   0.0000       0.096621         2.6292
  21   0.0000       0.123663         3.3650

MULLIKEN ATOMIC CHARGES
-----------------------
   0 C :   -0.036157
   1 C :    1.225453
   2 C :   -0.172101
   3 H :   -0.421537
   4 H :   -0.428207
   5 H :   -0.150826
   6 H :   -0.161509
   7 H :   -0.127595
   8 C :    0.895698
   9 H :   -0.145300
  10 H :   -0.088135
  11 H :   -0.131335
  12 H :   -0.133887
  13 H :   -0.124562
Sum of atomic charges:   -0.0000000

LOEWDIN ATOMIC CHARGES
----------------------
   0 C :   -0.064466
   1 C :    0.119113
   2 C :   -0.079035
   3 H :   -0.045504
   4 H :   -0.033583
   5 H :   -0.031384
   6 H :    0.020435
   7 H :    0.018969
   8 C :    0.126062
   9 H :    0.014805
  10 H :    0.020170
  11 H :   -0.019577
  12 H :   -0.030589
  13 H :   -0.015419

  Mayer bond orders larger than 0.100000
B(  0-C ,  1-C ) :   1.2228 B(  0-C ,  2-C ) :   1.2311 B(  0-C ,  3-H ) :   0.2747
B(  0-C ,  4-H ) :   0.2025 B(  0-C ,  5-H ) :   0.2523 B(  0-C ,  6-H ) :   0.8037
B(  0-C ,  7-H ) :   0.8520 B(  0-C ,  9-H ) :   0.1946 B(  0-C , 10-H ) :   0.1504
B(  1-C ,  3-H ) :   0.5318 B(  1-C ,  4-H ) :   0.6576 B(  1-C ,  5-H ) :   0.5214
B(  1-C ,  6-H ) :   0.1379 B(  2-C ,  6-H ) :   0.1521 B(  2-C ,  8-C ) :   1.3049
B(  2-C ,  9-H ) :   0.8524 B(  2-C , 10-H ) :   0.8605 B(  2-C , 11-H ) :   0.2430
B(  2-C , 12-H ) :   0.2103 B(  2-C , 13-H ) :   0.2067 B(  3-H ,  5-H ) :   0.3257
B(  8-C , 11-H ) :   0.6933 B(  8-C , 12-H ) :   0.8020 B(  8-C , 13-H ) :   0.7571
B( 12-H , 13-H ) :   0.1035

FINAL SINGLE POINT ENERGY      -158.221228937400

DIPOLE MOMENT
-------------
                                X             Y             Z
Electronic contribution:      0.63790       0.59538       0.37856
Nuclear contribution   :     -0.64996      -0.59433      -0.37777
                        -----------------------------------------
Total Dipole Moment    :     -0.01206       0.00105       0.00079
                        -----------------------------------------
Magnitude (a.u.)       :      0.01213
Magnitude (Debye)      :      0.03084

Rotational constants in cm-1:     0.431358     0.171688     0.138554
Rotational constants in MHz : 12931.797515  5147.084397  4153.759343

                             ****ORCA TERMINATED NORMALLY****
TOTAL RUN TIME: 0 days 0 hours 0 minutes 17 seconds 818 msec
