                         Program Version 5.0.0 -  RELEASE  -
|  1> !CAM-B3LYP RIJCOSX def2-SVPD def2/J TightSCF
|  2> *xyz 0 1
|  3> C         -5.57236       -5.80780       -0.81644
|  4> S         -6.90318       -4.61903       -0.52846
|  5> O         -8.11485       -5.25093       -0.95701
|  6> F         -6.53271       -3.42684       -1.31485
|  7> O         -6.86563       -4.29496        0.91412
|  8> C         -3.82708       -4.66110        0.78617
|  9> C         -4.45780       -5.94187        0.22919
| 10> H         -5.17735       -5.54257       -1.79771
| 11> H         -6.07420       -6.76889       -0.92127
| 12> H         -3.68106       -6.56224       -0.22988
| 13> H         -4.84394       -6.51273        1.07581
| 14> H         -3.43706       -4.07576       -0.02016
| 15> H         -3.03403       -4.91680        1.45744
| 16> H         -4.56975       -4.09647        1.31013
| 17> *
| 18> %MaxCore 64000
| 19>
| 20> %pal nprocs 4
| 21> end
| 22>
| 23> %scf
| 24>   MaxIter 150
| 25> end
| 26>
| 27>                          ****END OF INPUT****

CARTESIAN COORDINATES (ANGSTROEM)
---------------------------------
  C     -5.572360   -5.807800   -0.816440
  S     -6.903180   -4.619030   -0.528460
  O     -8.114850   -5.250930   -0.957010
  F     -6.532710   -3.426840   -1.314850
  O     -6.865630   -4.294960    0.914120
  C     -3.827080   -4.661100    0.786170
  C     -4.457800   -5.941870    0.229190
  H     -5.177350   -5.542570   -1.797710
  H     -6.074200   -6.768890   -0.921270
  H     -3.681060   -6.562240   -0.229880
  H     -4.843940   -6.512730    1.075810
  H     -3.437060   -4.075760   -0.020160
  H     -3.034030   -4.916800    1.457440
  H     -4.569750   -4.096470    1.310130

 Total Charge           Charge          ....    0
 Multiplicity           Mult            ....    1
 Number of Electrons    NEL             ....   66
 Basis Dimension        Dim             ....  212

ORBITAL ENERGIES
----------------

  NO   OCC          E(Eh)            E(eV)
   0   2.0000     -89.221324     -2427.8357
   1   2.0000     -24.879613      -677.0087
   2   2.0000     -19.234846      -523.4068
   3   2.0000     -19.219915      -523.0005
   4   2.0000     -10.325429      -280.9692
   5   2.0000     -10.290625      -280.0221
   6   2.0000     -10.255680      -279.0712
   7   2.0000      -8.275053      -225.1757
   8   2.0000      -6.249064      -170.0457
   9   2.0000      -6.242732      -169.8734
  10   2.0000      -6.241466      -169.8389
  11   2.0000      -1.435969       -39.0747
  12   2.0000      -1.199874       -32.6502
  13   2.0000      -1.094561       -29.7845
  14   2.0000      -0.912162       -24.8212
  15   2.0000      -0.833332       -22.6761
  16   2.0000      -0.781528       -21.2664
  17   2.0000      -0.714295       -19.4370
  18   2.0000      -0.650796       -17.7090
  19   2.0000      -0.645945       -17.5770
  20   2.0000      -0.628629       -17.1059
  21   2.0000      -0.573995       -15.6192
  22   2.0000      -0.554424       -15.0866
  23   2.0000      -0.529968       -14.4212
  24   2.0000      -0.520910       -14.1747
  25   2.0000      -0.506422       -13.7805
  26   2.0000      -0.465090       -12.6557
  27   2.0000      -0.449244       -12.2246
  28   2.0000      -0.445375       -12.1193
  29   2.0000      -0.426804       -11.6139
  30   2.0000      -0.405109       -11.0236
  31   2.0000      -0.393194       -10.6994
  32   2.0000      -0.379889       -10.3373
  33   0.0000       0.027275         0.7422
  34   0.0000       0.048492         1.3195
  35   0.0000       0.058837         1.6010
  36   0.0000       0.061650         1.6776
  37   0.0000       0.078827         2.1450

MULLIKEN ATOMIC CHARGES
-----------------------
   0 C :    0.147613
   1 S :    1.453660
   2 O :   -0.651825
   3 F :   -0.396438
   4 O :   -0.711385
   5 C :    1.009256
   6 C :   -0.104301
   7 H :   -0.005504
   8 H :   -0.057170
   9 H :   -0.152592
  10 H :   -0.080451
  11 H :   -0.124145
  12 H :   -0.097979
  13 H :   -0.228738
Sum of atomic charges:   -0.0000000

LOEWDIN ATOMIC CHARGES
----------------------
   0 C :   -0.038304
   1 S :    1.133060
   2 O :   -0.459011
   3 F :   -0.272789
   4 O :   -0.477497
   5 C :    0.138579
   6 C :   -0.065287
   7 H :    0.019109
   8 H :    0.024909
   9 H :    0.029260
  10 H :    0.031242
  11 H :   -0.012791
  12 H :   -0.011412
  13 H :   -0.039069

  Mayer bond orders larger than 0.100000
B(  0-C ,  1-S ) :   0.9306 B(  0-C ,  6-C ) :   1.2995 B(  0-C ,  7-H ) :   0.8640
B(  0-C ,  8-H ) :   0.8757 B(  0-C ,  9-H ) :   0.1705 B(  0-C , 10-H ) :   0.1541
B(  1-S ,  2-O ) :   1.5864 B(  1-S ,  3-F ) :   0.6298 B(  1-S ,  4-O ) :   1.4715
B(  5-C ,  6-C ) :   1.2661 B(  5-C , 11-H ) :   0.7144 B(  5-C , 12-H ) :   0.6866
B(  5-C , 13-H ) :   0.7786 B(  6-C ,  7-H ) :   0.1409 B(  6-C ,  8-H ) :   0.1481
B(  6-C ,  9-H ) :   0.8133 B(  6-C , 10-H ) :   0.8738 B(  6-C , 11-H ) :   0.2232
B(  6-C , 12-H ) :   0.2362 B(  6-C , 13-H ) :   0.2219

FINAL SINGLE POINT ENERGY      -766.427017850484

DIPOLE MOMENT
-------------
                                X             Y             Z
Electronic contribution:    -10.60442       5.54370      -4.51760
Nuclear contribution   :     12.11759      -6.01574       3.81244
                        -----------------------------------------
Total Dipole Moment    :      1.51316      -0.47203      -0.70516
                        -----------------------------------------
Magnitude (a.u.)       :      1.73486
Magnitude (Debye)      :      4.40966

Rotational constants in cm-1:     0.128152     0.053825     0.050608
Rotational constants in MHz :  3841.897096  1613.621976  1517.196867

                             ****ORCA TERMINATED NORMALLY****
TOTAL RUN TIME: 0 days 0 hours 0 minutes 36 seconds 147 msec
