                         Program Version 5.0.0 -  RELEASE  -
|  1> !CAM-B3LYP RIJCOSX def2-SVPD def2/J TightSCF
|  2> *xyz 0 1
|  3> C         -5.57236       -5.80780       -0.81644
|  4> S         -6.90318       -4.61903       -0.52846
|  5> O         -8.11485       -5.25093       -0.95701
|  6> O         -6.53271       -3.42684       -1.31485
|  7> F         -6.86563       -4.29496        0.91412
|  8> C         -3.82708       -4.66110        0.78617
|  9> C         -4.45780       -5.94187        0.22919
| 10> H         -5.17735       -5.54257       -1.79771
| 11> H         -6.07420       -6.76889       -0.92127
| 12> H         -3.68106       -6.56224       -0.22988
| 13> H         -4.84394       -6.51273        1.07581
| 14> H         -3.43706       -4.07576       -0.02016
| 15> H         -3.03403       -4.91680        1.45744
| 16> H         -4.56975       -4.09647        1.31013
| 17> *
| 18> %MaxCore 64000
| 19>
| 20> %pal nprocs 4
| 21> end
| 22>
| 23> %scf
| 24>   MaxIter 150
| 25> end
| 26>
| 27>                          ****END OF INPUT****

CARTESIAN COORDINATES (ANGSTROEM)
---------------------------------
  C     -5.572360   -5.807800   -0.816440
  S     -6.903180   -4.619030   -0.528460
  O     -8.114850   -5.250930   -0.957010
  O     -6.532710   -3.426840   -1.314850
  F     -6.865630   -4.294960    0.914120
  C     -3.827080   -4.661100    0.786170
  C     -4.457800   -5.941870    0.229190
  H     -5.177350   -5.542570   -1.797710
  H     -6.074200   -6.768890   -0.921270
  H     -3.681060   -6.562240   -0.229880
  H     -4.843940   -6.512730    1.075810
  H     -3.437060   -4.075760   -0.020160
  H     -3.034030   -4.916800    1.457440
  H     -4.569750   -4.096470    1.310130

 Total Charge           Charge          ....    0
 Multiplicity           Mult            ....    1
 Number of Electrons    NEL             ....   66
 Basis Dimension        Dim             ....  212

ORBITAL ENERGIES
----------------

  NO   OCC          E(Eh)            E(eV)
   0   2.0000     -89.220044     -2427.8008
   1   2.0000     -24.878371      -676.9749
   2   2.0000     -19.234030      -523.3846
   3   2.0000     -19.218615      -522.9651
   4   2.0000     -10.324245      -280.9370
   5   2.0000     -10.297397      -280.2064
   6   2.0000     -10.266306      -279.3604
   7   2.0000      -8.273807      -225.1417
   8   2.0000      -6.247894      -170.0138
   9   2.0000      -6.241502      -169.8399
  10   2.0000      -6.240137      -169.8028
  11   2.0000      -1.433340       -39.0032
  12   2.0000      -1.199779       -32.6477
  13   2.0000      -1.093932       -29.7674
  14   2.0000      -0.916391       -24.9363
  15   2.0000      -0.834366       -22.7042
  16   2.0000      -0.782728       -21.2991
  17   2.0000      -0.720753       -19.6127
  18   2.0000      -0.657547       -17.8928
  19   2.0000      -0.648118       -17.6362
  20   2.0000      -0.617304       -16.7977
  21   2.0000      -0.572565       -15.5803
  22   2.0000      -0.549372       -14.9492
  23   2.0000      -0.544394       -14.8137
  24   2.0000      -0.523216       -14.2374
  25   2.0000      -0.506038       -13.7700
  26   2.0000      -0.467769       -12.7286
  27   2.0000      -0.457529       -12.4500
  28   2.0000      -0.450492       -12.2585
  29   2.0000      -0.433509       -11.7964
  30   2.0000      -0.403762       -10.9869
  31   2.0000      -0.391696       -10.6586
  32   2.0000      -0.381406       -10.3786
  33   0.0000       0.022861         0.6221
  34   0.0000       0.054279         1.4770
  35   0.0000       0.058220         1.5843
  36   0.0000       0.060646         1.6503
  37   0.0000       0.077314         2.1038

MULLIKEN ATOMIC CHARGES
-----------------------
   0 C :    0.175072
   1 S :    1.426105
   2 O :   -0.651434
   3 O :   -0.668420
   4 F :   -0.426293
   5 C :    1.019350
   6 C :   -0.114911
   7 H :   -0.007514
   8 H :   -0.050450
   9 H :   -0.141325
  10 H :   -0.105241
  11 H :   -0.112780
  12 H :   -0.094026
  13 H :   -0.248133
Sum of atomic charges:   -0.0000000

LOEWDIN ATOMIC CHARGES
----------------------
   0 C :   -0.033417
   1 S :    1.125592
   2 O :   -0.459257
   3 O :   -0.486028
   4 F :   -0.273931
   5 C :    0.140430
   6 C :   -0.072330
   7 H :    0.031853
   8 H :    0.019651
   9 H :    0.030635
  10 H :    0.025731
  11 H :   -0.005051
  12 H :   -0.010181
  13 H :   -0.033697

  Mayer bond orders larger than 0.100000
B(  0-C ,  1-S ) :   0.9436 B(  0-C ,  6-C ) :   1.2705 B(  0-C ,  7-H ) :   0.8780
B(  0-C ,  8-H ) :   0.8749 B(  0-C ,  9-H ) :   0.1742 B(  0-C , 10-H ) :   0.1427
B(  1-S ,  2-O ) :   1.5690 B(  1-S ,  3-O ) :   1.4841 B(  1-S ,  4-F ) :   0.6376
B(  5-C ,  6-C ) :   1.2656 B(  5-C , 11-H ) :   0.7221 B(  5-C , 12-H ) :   0.6800
B(  5-C , 13-H ) :   0.7684 B(  6-C ,  7-H ) :   0.1426 B(  6-C ,  8-H ) :   0.1540
B(  6-C ,  9-H ) :   0.8081 B(  6-C , 10-H ) :   0.8873 B(  6-C , 11-H ) :   0.2325
B(  6-C , 12-H ) :   0.2376 B(  6-C , 13-H ) :   0.2197 B( 11-H , 13-H ) :   0.1115

FINAL SINGLE POINT ENERGY      -766.427168875467

DIPOLE MOMENT
-------------
                                X             Y             Z
Electronic contribution:    -11.10777       4.00652      -0.66847
Nuclear contribution   :     12.47562      -5.08213       1.41531
                        -----------------------------------------
Total Dipole Moment    :      1.36785      -1.07561       0.74684
                        -----------------------------------------
Magnitude (a.u.)       :      1.89360
Magnitude (Debye)      :      4.81315

Rotational constants in cm-1:     0.128398     0.054249     0.051014
Rotational constants in MHz :  3849.278549  1626.338413  1529.351405

                             ****ORCA TERMINATED NORMALLY****
TOTAL RUN TIME: 0 days 0 hours 0 minutes 39 seconds 680 msec
