                         Program Version 5.0.0 -  RELEASE  -
|  1> !CAM-B3LYP RIJCOSX def2-SVPD def2/J TightSCF xyzfile
|  2>
|  3> *xyzfile 0 1 D3.xyz
|  4>
|  5> %MaxCore 64000
|  6>
|  7> %pal nprocs 4
|  8> end
|  9>
| 10> %scf
| 11>   MaxIter 150
| 12> end
| 13>
| 14>
| 15>                          ****END OF INPUT****

CARTESIAN COORDINATES (ANGSTROEM)
---------------------------------
  C     -4.382623   -1.670889    1.216201
  C     -5.763539   -1.915170    0.705012
  C     -3.281728   -2.191272    0.294361
  C     -5.572364   -5.807798   -0.816445
  S     -6.903179   -4.619033   -0.528458
  H     -5.840812   -2.115205   -0.300646
  H     -6.408823   -1.148656    0.936124
  H     -6.174781   -2.790606    1.051433
  O     -8.114853   -5.250932   -0.957007
  O     -6.532715   -3.426838   -1.314848
  H     -4.328618   -2.139223    2.198103
  H     -4.261583   -0.597399    1.357248
  F     -6.865632   -4.294957    0.914118
  C     -3.474641   -3.605898   -0.259608
  H     -2.354548   -2.127602    0.871433
  H     -3.166611   -1.499693   -0.545037
  C     -3.827078   -4.661097    0.786174
  H     -2.560559   -3.889391   -0.788050
  H     -4.255932   -3.570040   -1.019300
  C     -4.457800   -5.941875    0.229195
  H     -5.177347   -5.542575   -1.797714
  H     -6.074202   -6.768894   -0.921272
  H     -4.530506   -4.253640    1.511979
  H     -2.933400   -4.932302    1.356825
  H     -3.681064   -6.562236   -0.229885
  H     -4.843942   -6.512728    1.075805

 Total Charge           Charge          ....    0
 Multiplicity           Mult            ....    1
 Number of Electrons    NEL             ....   98
 Basis Dimension        Dim             ....  356

ORBITAL ENERGIES
----------------

  NO   OCC          E(Eh)            E(eV)
   0   2.0000     -89.227094     -2427.9927
   1   2.0000     -24.884074      -677.1301
   2   2.0000     -19.238895      -523.5170
   3   2.0000     -19.222291      -523.0651
   4   2.0000     -10.326219      -280.9907
   5   2.0000     -10.294106      -280.1169
   6   2.0000     -10.269430      -279.4454
   7   2.0000     -10.253877      -279.0222
   8   2.0000     -10.246532      -278.8223
   9   2.0000     -10.236724      -278.5554
  10   2.0000     -10.189412      -277.2680
  11   2.0000      -8.279740      -225.3032
  12   2.0000      -6.253913      -170.1776
  13   2.0000      -6.247546      -170.0044
  14   2.0000      -6.246068      -169.9642
  15   2.0000      -1.443128       -39.2695
  16   2.0000      -1.205782       -32.8110
  17   2.0000      -1.102459       -29.9994
  18   2.0000      -0.923659       -25.1340
  19   2.0000      -0.883221       -24.0337
  20   2.0000      -0.835410       -22.7327
  21   2.0000      -0.809668       -22.0322
  22   2.0000      -0.774482       -21.0747
  23   2.0000      -0.733695       -19.9649
  24   2.0000      -0.699795       -19.0424
  25   2.0000      -0.666020       -18.1233
  26   2.0000      -0.659325       -17.9412
  27   2.0000      -0.626794       -17.0559
  28   2.0000      -0.620038       -16.8721
  29   2.0000      -0.571983       -15.5644
  30   2.0000      -0.565601       -15.3908
  31   2.0000      -0.552065       -15.0224
  32   2.0000      -0.533812       -14.5258
  33   2.0000      -0.524538       -14.2734
  34   2.0000      -0.519025       -14.1234
  35   2.0000      -0.498517       -13.5653
  36   2.0000      -0.476664       -12.9707
  37   2.0000      -0.465177       -12.6581
  38   2.0000      -0.459718       -12.5096
  39   2.0000      -0.459440       -12.5020
  40   2.0000      -0.430128       -11.7044
  41   2.0000      -0.423411       -11.5216
  42   2.0000      -0.415201       -11.2982
  43   2.0000      -0.400846       -10.9076
  44   2.0000      -0.399736       -10.8774
  45   2.0000      -0.390116       -10.6156
  46   2.0000      -0.372313       -10.1312
  47   2.0000      -0.369052       -10.0424
  48   2.0000      -0.353223        -9.6117
  49   0.0000       0.023580         0.6417
  50   0.0000       0.051095         1.3904
  51   0.0000       0.051703         1.4069
  52   0.0000       0.057544         1.5658
  53   0.0000       0.071254         1.9389

MULLIKEN ATOMIC CHARGES
-----------------------
   0 C :    0.122051
   1 C :    2.232391
   2 C :    0.593837
   3 C :    0.328817
   4 S :    1.455058
   5 H :   -0.486307
   6 H :   -0.469253
   7 H :   -1.074953
   8 O :   -0.678026
   9 O :   -0.645582
  10 H :    0.062548
  11 H :   -0.488629
  12 F :   -0.518514
  13 C :    0.304695
  14 H :   -0.133501
  15 H :   -0.011790
  16 C :    0.219861
  17 H :   -0.413470
  18 H :   -0.146965
  19 C :    0.634825
  20 H :    0.094077
  21 H :   -0.343705
  22 H :   -0.121269
  23 H :   -0.311364
  24 H :   -0.091849
  25 H :   -0.112985
Sum of atomic charges:    0.0000000

LOEWDIN ATOMIC CHARGES
----------------------
   0 C :   -0.043884
   1 C :    0.139694
   2 C :   -0.021380
   3 C :   -0.021587
   4 S :    1.170167
   5 H :   -0.096899
   6 H :   -0.016473
   7 H :   -0.110884
   8 O :   -0.443674
   9 O :   -0.462013
  10 H :    0.014040
  11 H :    0.017756
  12 F :   -0.271893
  13 C :   -0.009073
  14 H :    0.016871
  15 H :    0.027512
  16 C :   -0.013168
  17 H :    0.026047
  18 H :   -0.016574
  19 C :   -0.024601
  20 H :    0.031688
  21 H :    0.018828
  22 H :   -0.005479
  23 H :    0.032870
  24 H :    0.034014
  25 H :    0.028095

  Mayer bond orders larger than 0.100000
B(  0-C ,  1-C ) :   1.0142 B(  0-C ,  2-C ) :   1.1282 B(  0-C ,  5-H ) :   0.3576
B(  0-C ,  6-H ) :   0.1025 B(  0-C ,  7-H ) :   0.4270 B(  0-C , 10-H ) :   0.6694
B(  0-C , 11-H ) :   0.9565 B(  0-C , 14-H ) :   0.1834 B(  0-C , 15-H ) :   0.1806
B(  1-C ,  2-C ) :   0.1908 B(  1-C ,  5-H ) :  -0.2527 B(  1-C ,  6-H ) :   0.3925
B(  1-C ,  7-H ) :  -0.9742 B(  1-C , 10-H ) :   0.2266 B(  1-C , 17-H ) :   0.1230
B(  2-C , 10-H ) :   0.1374 B(  2-C , 13-C ) :   1.2508 B(  2-C , 14-H ) :   0.7200
B(  2-C , 15-H ) :   0.6117 B(  2-C , 17-H ) :   0.1027 B(  2-C , 18-H ) :   0.1250
B(  3-C ,  4-S ) :   0.9328 B(  3-C , 19-C ) :   1.1726 B(  3-C , 20-H ) :   0.8468
B(  3-C , 21-H ) :   0.8607 B(  3-C , 24-H ) :   0.1452 B(  3-C , 25-H ) :   0.1312
B(  4-S ,  8-O ) :   1.6221 B(  4-S ,  9-O ) :   1.4306 B(  4-S , 12-F ) :   0.6105
B(  5-H ,  6-H ) :  -0.1117 B(  5-H ,  7-H ) :   1.1083 B(  5-H ,  9-O ) :   0.2019
B(  5-H , 11-H ) :   0.1724 B(  5-H , 17-H ) :  -0.1192 B(  5-H , 18-H ) :   0.1661
B(  6-H ,  7-H ) :   0.1224 B(  6-H , 11-H ) :  -0.1566 B(  6-H , 17-H ) :   0.1247
B(  6-H , 18-H ) :  -0.1585 B(  7-H , 10-H ) :  -0.1325 B(  7-H , 11-H ) :   0.1122
B(  7-H , 12-F ) :   0.1877 B(  7-H , 17-H ) :  -0.1278 B(  9-O , 12-F ) :   0.1197
B( 10-H , 11-H ) :  -0.2508 B( 10-H , 22-H ) :   0.1530 B( 11-H , 14-H ) :   0.1128
B( 13-C , 14-H ) :   0.1849 B( 13-C , 15-H ) :   0.2810 B( 13-C , 16-C ) :   1.1529
B( 13-C , 17-H ) :   0.7624 B( 13-C , 18-H ) :   0.7788 B( 13-C , 22-H ) :   0.1199
B( 13-C , 23-H ) :   0.1825 B( 14-H , 15-H ) :  -0.1225 B( 16-C , 17-H ) :   0.1984
B( 16-C , 18-H ) :   0.1906 B( 16-C , 19-C ) :   1.2354 B( 16-C , 22-H ) :   0.8365
B( 16-C , 23-H ) :   0.7726 B( 16-C , 24-H ) :   0.1538 B( 16-C , 25-H ) :   0.2823
B( 19-C , 21-H ) :   0.2221 B( 19-C , 24-H ) :   0.7080 B( 19-C , 25-H ) :   0.6238
B( 24-H , 25-H ) :  -0.1118

FINAL SINGLE POINT ENERGY      -923.422338565442

DIPOLE MOMENT
-------------
                                X             Y             Z
Electronic contribution:    -16.46705      -6.89484      -3.43793
Nuclear contribution   :     17.63907       5.79106       3.97609
                        -----------------------------------------
Total Dipole Moment    :      1.17202      -1.10378       0.53817
                        -----------------------------------------
Magnitude (a.u.)       :      1.69753
Magnitude (Debye)      :      4.31477

Rotational constants in cm-1:     0.048663     0.025472     0.020259
Rotational constants in MHz :  1458.892793   763.621130   607.350055

                             ****ORCA TERMINATED NORMALLY****
TOTAL RUN TIME: 0 days 0 hours 2 minutes 50 seconds 993 msec
