                         Program Version 5.0.0 -  RELEASE  -
|  1> !LC-BLYP RIJCOSX def2-SVPD def2/J TightSCF
|  2> *xyz -1 1
|  3> C         -5.57236       -5.80780       -0.81644
|  4> S         -6.90318       -4.61903       -0.52846
|  5> O         -8.11485       -5.25093       -0.95701
|  6> O         -6.53271       -3.42684       -1.31485
|  7> O         -6.86563       -4.29496        0.91412
|  8> H         -5.55376       -6.07856       -1.85145
|  9> H         -5.73990       -6.68165       -0.22212
| 10> H         -4.63562       -5.36690       -0.54622
| 11> *
| 12> %MaxCore 64000
| 13>
| 14> %pal nprocs 4
| 15> end
| 16>
| 17> %scf
| 18>   MaxIter 150
| 19> end
| 20>
| 21>                          ****END OF INPUT****

CARTESIAN COORDINATES (ANGSTROEM)
---------------------------------
  C     -5.572360   -5.807800   -0.816440
  S     -6.903180   -4.619030   -0.528460
  O     -8.114850   -5.250930   -0.957010
  O     -6.532710   -3.426840   -1.314850
  O     -6.865630   -4.294960    0.914120
  H     -5.553760   -6.078560   -1.851450
  H     -5.739900   -6.681650   -0.222120
  H     -4.635620   -5.366900   -0.546220

 Total Charge           Charge          ....   -1
 Multiplicity           Mult            ....    1
 Number of Electrons    NEL             ....   50
 Basis Dimension        Dim             ....  140

ORBITAL ENERGIES
----------------

  NO   OCC          E(Eh)            E(eV)
   0   2.0000     -88.312118     -2403.0949
   1   2.0000     -18.743167      -510.0275
   2   2.0000     -18.730400      -509.6801
   3   2.0000     -18.729442      -509.6540
   4   2.0000      -9.944085      -270.5923
   5   2.0000      -7.860618      -213.8983
   6   2.0000      -5.894919      -160.4089
   7   2.0000      -5.894765      -160.4047
   8   2.0000      -5.894637      -160.4012
   9   2.0000      -1.029763       -28.0213
  10   2.0000      -0.883548       -24.0426
  11   2.0000      -0.860049       -23.4031
  12   2.0000      -0.693913       -18.8823
  13   2.0000      -0.495870       -13.4933
  14   2.0000      -0.410726       -11.1764
  15   2.0000      -0.398436       -10.8420
  16   2.0000      -0.396866       -10.7993
  17   2.0000      -0.352471        -9.5912
  18   2.0000      -0.351492        -9.5646
  19   2.0000      -0.255035        -6.9399
  20   2.0000      -0.254477        -6.9247
  21   2.0000      -0.217459        -5.9174
  22   2.0000      -0.209298        -5.6953
  23   2.0000      -0.202208        -5.5024
  24   2.0000      -0.162426        -4.4198
  25   0.0000       0.195396         5.3170
  26   0.0000       0.221693         6.0326
  27   0.0000       0.222096         6.0435
  28   0.0000       0.227256         6.1839
  29   0.0000       0.256606         6.9826

MULLIKEN ATOMIC CHARGES
-----------------------
   0 C :    0.734464
   1 S :    0.864508
   2 O :   -0.666147
   3 O :   -0.720697
   4 O :   -0.722005
   5 H :   -0.161443
   6 H :   -0.167458
   7 H :   -0.161222
Sum of atomic charges:   -1.0000000

LOEWDIN ATOMIC CHARGES
----------------------
   0 C :    0.048300
   1 S :    0.781281
   2 O :   -0.561102
   3 O :   -0.584847
   4 O :   -0.584020
   5 H :   -0.033406
   6 H :   -0.034080
   7 H :   -0.032127

  Mayer bond orders larger than 0.100000
B(  0-C ,  1-S ) :   0.9344 B(  0-C ,  5-H ) :   0.8712 B(  0-C ,  6-H ) :   0.8721
B(  0-C ,  7-H ) :   0.8743 B(  1-S ,  2-O ) :   1.4112 B(  1-S ,  3-O ) :   1.3672
B(  1-S ,  4-O ) :   1.3645 B(  1-S ,  5-H ) :   0.1304 B(  1-S ,  6-H ) :   0.1303
B(  1-S ,  7-H ) :   0.1400

FINAL SINGLE POINT ENERGY      -662.777203791818

DIPOLE MOMENT
-------------
                                X             Y             Z
Electronic contribution:     -3.18759       2.67382       0.62065
Nuclear contribution   :      4.23639      -3.86101      -0.94151
                        -----------------------------------------
Total Dipole Moment    :      1.04880      -1.18719      -0.32086
                        -----------------------------------------
Magnitude (a.u.)       :      1.61628
Magnitude (Debye)      :      4.10825

Rotational constants in cm-1:     0.172406     0.155169     0.153146
Rotational constants in MHz :  5168.590738  4651.861875  4591.214998

                             ****ORCA TERMINATED NORMALLY****
TOTAL RUN TIME: 0 days 0 hours 0 minutes 11 seconds 690 msec
