                         Program Version 5.0.0 -  RELEASE  -
|  1> !LC-BLYP RIJCOSX def2-SVPD def2/J TightSCF
|  2> *xyz 1 1
|  3> C         -4.38262       -1.67089        1.21620
|  4> N         -5.76354       -1.91517        0.70501
|  5> H         -5.84081       -2.11520       -0.30065
|  6> H         -6.40882       -1.14866        0.93612
|  7> H         -6.17478       -2.79061        1.05143
|  8> H         -4.01369       -0.74796        0.81997
|  9> H         -3.74223       -2.47168        0.91037
| 10> H         -4.40201       -1.61791        2.28471
| 11> *
| 12> %MaxCore 64000
| 13>
| 14> %pal nprocs 4
| 15> end
| 16>
| 17> %scf
| 18>   MaxIter 150
| 19> end
| 20>
| 21>                          ****END OF INPUT****

CARTESIAN COORDINATES (ANGSTROEM)
---------------------------------
  C     -4.382620   -1.670890    1.216200
  N     -5.763540   -1.915170    0.705010
  H     -5.840810   -2.115200   -0.300650
  H     -6.408820   -1.148660    0.936120
  H     -6.174780   -2.790610    1.051430
  H     -4.013690   -0.747960    0.819970
  H     -3.742230   -2.471680    0.910370
  H     -4.402010   -1.617910    2.284710

 Total Charge           Charge          ....    1
 Multiplicity           Mult            ....    1
 Number of Electrons    NEL             ....   18
 Basis Dimension        Dim             ....   88

ORBITAL ENERGIES
----------------

  NO   OCC          E(Eh)            E(eV)
   0   2.0000     -14.535745      -395.5377
   1   2.0000     -10.344014      -281.4749
   2   2.0000      -1.318365       -35.8745
   3   2.0000      -1.046729       -28.4830
   4   2.0000      -0.919598       -25.0235
   5   2.0000      -0.896015       -24.3818
   6   2.0000      -0.822234       -22.3741
   7   2.0000      -0.728454       -19.8222
   8   2.0000      -0.725023       -19.7289
   9   0.0000      -0.142701        -3.8831
  10   0.0000      -0.076554        -2.0832
  11   0.0000      -0.068695        -1.8693
  12   0.0000      -0.068191        -1.8556
  13   0.0000      -0.021486        -0.5847

MULLIKEN ATOMIC CHARGES
-----------------------
   0 C :    1.179258
   1 N :   -0.752432
   2 H :    0.315524
   3 H :    0.345669
   4 H :    0.324279
   5 H :   -0.139932
   6 H :   -0.143827
   7 H :   -0.128540
Sum of atomic charges:    1.0000000

LOEWDIN ATOMIC CHARGES
----------------------
   0 C :    0.273447
   1 N :    0.307817
   2 H :    0.111487
   3 H :    0.113730
   4 H :    0.108923
   5 H :    0.027906
   6 H :    0.027923
   7 H :    0.028766

  Mayer bond orders larger than 0.100000
B(  0-C ,  1-N ) :   0.7852 B(  0-C ,  5-H ) :   0.8498 B(  0-C ,  6-H ) :   0.8493
B(  0-C ,  7-H ) :   0.8410 B(  1-N ,  2-H ) :   0.8435 B(  1-N ,  3-H ) :   0.7953
B(  1-N ,  4-H ) :   0.8383 B(  1-N ,  5-H ) :   0.1068 B(  1-N ,  6-H ) :   0.1093
B(  1-N ,  7-H ) :   0.1113

FINAL SINGLE POINT ENERGY       -95.869273215278

DIPOLE MOMENT
-------------
                                X             Y             Z
Electronic contribution:     -0.96852      -0.13696      -0.35729
Nuclear contribution   :      0.12888      -0.05969       0.04130
                        -----------------------------------------
Total Dipole Moment    :     -0.83964      -0.19666      -0.31600
                        -----------------------------------------
Magnitude (a.u.)       :      0.91844
Magnitude (Debye)      :      2.33449

Rotational constants in cm-1:     2.932748     0.676653     0.669753
Rotational constants in MHz : 87921.559023 20285.538082 20078.692306

                             ****ORCA TERMINATED NORMALLY****
TOTAL RUN TIME: 0 days 0 hours 0 minutes 4 seconds 694 msec
