                         Program Version 5.0.0 -  RELEASE  -
|  1> !LC-BLYP RIJCOSX def2-SVPD def2/J TightSCF
|  2> *xyz 0 1
|  3> C         -5.57236       -5.80780       -0.81644
|  4> S         -6.90318       -4.61903       -0.52846
|  5> F         -8.11485       -5.25093       -0.95701
|  6> O         -6.53271       -3.42684       -1.31485
|  7> O         -6.86563       -4.29496        0.91412
|  8> H         -5.55376       -6.07856       -1.85145
|  9> H         -5.73990       -6.68165       -0.22212
| 10> H         -4.63562       -5.36690       -0.54622
| 11> *
| 12> %MaxCore 64000
| 13>
| 14> %pal nprocs 4
| 15> end
| 16>
| 17> %scf
| 18>   MaxIter 150
| 19> end
| 20>
| 21>                          ****END OF INPUT****

CARTESIAN COORDINATES (ANGSTROEM)
---------------------------------
  C     -5.572360   -5.807800   -0.816440
  S     -6.903180   -4.619030   -0.528460
  F     -8.114850   -5.250930   -0.957010
  O     -6.532710   -3.426840   -1.314850
  O     -6.865630   -4.294960    0.914120
  H     -5.553760   -6.078560   -1.851450
  H     -5.739900   -6.681650   -0.222120
  H     -4.635620   -5.366900   -0.546220

 Total Charge           Charge          ....    0
 Multiplicity           Mult            ....    1
 Number of Electrons    NEL             ....   50
 Basis Dimension        Dim             ....  140

ORBITAL ENERGIES
----------------

  NO   OCC          E(Eh)            E(eV)
   0   2.0000     -88.576345     -2410.2849
   1   2.0000     -24.605580      -669.5519
   2   2.0000     -18.968103      -516.1483
   3   2.0000     -18.967134      -516.1219
   4   2.0000     -10.153303      -276.2854
   5   2.0000      -8.125533      -221.1070
   6   2.0000      -6.164503      -167.7447
   7   2.0000      -6.157258      -167.5475
   8   2.0000      -6.156349      -167.5228
   9   2.0000      -1.475253       -40.1437
  10   2.0000      -1.200790       -32.6752
  11   2.0000      -1.094983       -29.7960
  12   2.0000      -0.916255       -24.9326
  13   2.0000      -0.832530       -22.6543
  14   2.0000      -0.722900       -19.6711
  15   2.0000      -0.705734       -19.2040
  16   2.0000      -0.665685       -18.1142
  17   2.0000      -0.588200       -16.0057
  18   2.0000      -0.583888       -15.8884
  19   2.0000      -0.575328       -15.6555
  20   2.0000      -0.539926       -14.6921
  21   2.0000      -0.490993       -13.3606
  22   2.0000      -0.437570       -11.9069
  23   2.0000      -0.432217       -11.7612
  24   2.0000      -0.406220       -11.0538
  25   0.0000       0.039521         1.0754
  26   0.0000       0.075879         2.0648
  27   0.0000       0.082122         2.2346
  28   0.0000       0.084602         2.3021
  29   0.0000       0.098285         2.6745

MULLIKEN ATOMIC CHARGES
-----------------------
   0 C :    0.701207
   1 S :    1.036589
   2 F :   -0.303433
   3 O :   -0.568220
   4 O :   -0.568683
   5 H :   -0.096049
   6 H :   -0.100490
   7 H :   -0.100919
Sum of atomic charges:   -0.0000000

LOEWDIN ATOMIC CHARGES
----------------------
   0 C :    0.116512
   1 S :    1.054969
   2 F :   -0.235435
   3 O :   -0.464609
   4 O :   -0.463208
   5 H :   -0.007381
   6 H :   -0.007670
   7 H :    0.006823

  Mayer bond orders larger than 0.100000
B(  0-C ,  1-S ) :   0.9881 B(  0-C ,  5-H ) :   0.8735 B(  0-C ,  6-H ) :   0.8759
B(  0-C ,  7-H ) :   0.8755 B(  1-S ,  2-F ) :   0.7995 B(  1-S ,  3-O ) :   1.5732
B(  1-S ,  4-O ) :   1.5700 B(  1-S ,  5-H ) :   0.1038 B(  1-S ,  6-H ) :   0.1041
B(  1-S ,  7-H ) :   0.1375

FINAL SINGLE POINT ENERGY      -687.240625675771

DIPOLE MOMENT
-------------
                                X             Y             Z
Electronic contribution:     -5.19449       1.57496      -0.10439
Nuclear contribution   :      5.53040      -3.27628      -0.52239
                        -----------------------------------------
Total Dipole Moment    :      0.33591      -1.70132      -0.62678
                        -----------------------------------------
Magnitude (a.u.)       :      1.84396
Magnitude (Debye)      :      4.68697

Rotational constants in cm-1:     0.163239     0.153903     0.144751
Rotational constants in MHz :  4893.777363  4613.882823  4339.513182

                             ****ORCA TERMINATED NORMALLY****
TOTAL RUN TIME: 0 days 0 hours 0 minutes 12 seconds 375 msec
