                         Program Version 5.0.0 -  RELEASE  -
|  1> !LC-BLYP RIJCOSX def2-SVPD def2/J TightSCF
|  2> *xyz 0 1
|  3> C         -4.38262       -1.67089        1.21620
|  4> C         -5.76354       -1.91517        0.70501
|  5> H         -5.84081       -2.11520       -0.30065
|  6> H         -6.40882       -1.14866        0.93612
|  7> H         -6.17478       -2.79061        1.05143
|  8> H         -4.01369       -0.74796        0.81997
|  9> H         -3.74223       -2.47168        0.91037
| 10> H         -4.40201       -1.61791        2.28471
| 11> *
| 12> %MaxCore 64000
| 13>
| 14> %pal nprocs 4
| 15> end
| 16>
| 17> %scf
| 18>   MaxIter 150
| 19> end
| 20>
| 21>                          ****END OF INPUT****

CARTESIAN COORDINATES (ANGSTROEM)
---------------------------------
  C     -4.382620   -1.670890    1.216200
  C     -5.763540   -1.915170    0.705010
  H     -5.840810   -2.115200   -0.300650
  H     -6.408820   -1.148660    0.936120
  H     -6.174780   -2.790610    1.051430
  H     -4.013690   -0.747960    0.819970
  H     -3.742230   -2.471680    0.910370
  H     -4.402010   -1.617910    2.284710

 Total Charge           Charge          ....    0
 Multiplicity           Mult            ....    1
 Number of Electrons    NEL             ....   18
 Basis Dimension        Dim             ....   88

ORBITAL ENERGIES
----------------

  NO   OCC          E(Eh)            E(eV)
   0   2.0000     -10.064695      -273.8743
   1   2.0000     -10.050685      -273.4930
   2   2.0000      -0.870594       -23.6901
   3   2.0000      -0.729725       -19.8568
   4   2.0000      -0.556567       -15.1450
   5   2.0000      -0.543379       -14.7861
   6   2.0000      -0.477769       -13.0008
   7   2.0000      -0.448308       -12.1991
   8   2.0000      -0.434930       -11.8350
   9   0.0000       0.079382         2.1601
  10   0.0000       0.108475         2.9517
  11   0.0000       0.160907         4.3785
  12   0.0000       0.164417         4.4740
  13   0.0000       0.183224         4.9858

MULLIKEN ATOMIC CHARGES
-----------------------
   0 C :    0.539325
   1 C :    0.744399
   2 H :   -0.306283
   3 H :   -0.275789
   4 H :   -0.292379
   5 H :   -0.144290
   6 H :   -0.131562
   7 H :   -0.133421
Sum of atomic charges:    0.0000000

LOEWDIN ATOMIC CHARGES
----------------------
   0 C :    0.076167
   1 C :    0.066561
   2 H :   -0.034768
   3 H :   -0.030131
   4 H :   -0.036259
   5 H :   -0.014543
   6 H :   -0.013829
   7 H :   -0.013198

  Mayer bond orders larger than 0.100000
B(  0-C ,  1-C ) :   1.4021 B(  0-C ,  2-H ) :   0.1502 B(  0-C ,  3-H ) :   0.1787
B(  0-C ,  4-H ) :   0.1664 B(  0-C ,  5-H ) :   0.8072 B(  0-C ,  6-H ) :   0.8174
B(  0-C ,  7-H ) :   0.7913 B(  1-C ,  2-H ) :   0.6652 B(  1-C ,  3-H ) :   0.7035
B(  1-C ,  4-H ) :   0.6579 B(  1-C ,  5-H ) :   0.1775 B(  1-C ,  6-H ) :   0.1830
B(  1-C ,  7-H ) :   0.1837 B(  2-H ,  4-H ) :   0.2554

FINAL SINGLE POINT ENERGY       -79.484989709530

DIPOLE MOMENT
-------------
                                X             Y             Z
Electronic contribution:      0.07641       0.07250       0.03077
Nuclear contribution   :     -0.10782      -0.10031      -0.04623
                        -----------------------------------------
Total Dipole Moment    :     -0.03141      -0.02781      -0.01546
                        -----------------------------------------
Magnitude (a.u.)       :      0.04471
Magnitude (Debye)      :      0.11365

Rotational constants in cm-1:     2.932831     0.705715     0.698218
Rotational constants in MHz : 87924.050302 21156.813368 20932.044240

                             ****ORCA TERMINATED NORMALLY****
TOTAL RUN TIME: 0 days 0 hours 0 minutes 4 seconds 518 msec
