                         Program Version 5.0.0 -  RELEASE  -
|  1> !LC-BLYP RIJCOSX def2-SVPD def2/J TightSCF
|  2> *xyz 0 1
|  3> C         -5.57236       -5.80780       -0.81644
|  4> S         -6.90318       -4.61903       -0.52846
|  5> O         -8.11485       -5.25093       -0.95701
|  6> F         -6.53271       -3.42684       -1.31485
|  7> O         -6.86563       -4.29496        0.91412
|  8> H         -5.55376       -6.07856       -1.85145
|  9> H         -5.73990       -6.68165       -0.22212
| 10> H         -4.63562       -5.36690       -0.54622
| 11> *
| 12> %MaxCore 64000
| 13>
| 14> %pal nprocs 4
| 15> end
| 16>
| 17> %scf
| 18>   MaxIter 150
| 19> end
| 20>
| 21>                          ****END OF INPUT****

CARTESIAN COORDINATES (ANGSTROEM)
---------------------------------
  C     -5.572360   -5.807800   -0.816440
  S     -6.903180   -4.619030   -0.528460
  O     -8.114850   -5.250930   -0.957010
  F     -6.532710   -3.426840   -1.314850
  O     -6.865630   -4.294960    0.914120
  H     -5.553760   -6.078560   -1.851450
  H     -5.739900   -6.681650   -0.222120
  H     -4.635620   -5.366900   -0.546220

 Total Charge           Charge          ....    0
 Multiplicity           Mult            ....    1
 Number of Electrons    NEL             ....   50
 Basis Dimension        Dim             ....  140

ORBITAL ENERGIES
----------------

  NO   OCC          E(Eh)            E(eV)
   0   2.0000     -88.574103     -2410.2239
   1   2.0000     -24.584477      -668.9776
   2   2.0000     -18.980827      -516.4946
   3   2.0000     -18.967535      -516.1329
   4   2.0000     -10.152476      -276.2629
   5   2.0000      -8.123232      -221.0444
   6   2.0000      -6.161949      -167.6752
   7   2.0000      -6.155224      -167.4922
   8   2.0000      -6.154258      -167.4659
   9   2.0000      -1.439181       -39.1621
  10   2.0000      -1.215923       -33.0869
  11   2.0000      -1.110566       -30.2200
  12   2.0000      -0.914171       -24.8759
  13   2.0000      -0.815182       -22.1822
  14   2.0000      -0.706386       -19.2217
  15   2.0000      -0.680515       -18.5177
  16   2.0000      -0.661488       -18.0000
  17   2.0000      -0.588911       -16.0251
  18   2.0000      -0.586786       -15.9673
  19   2.0000      -0.573920       -15.6172
  20   2.0000      -0.547126       -14.8881
  21   2.0000      -0.499398       -13.5893
  22   2.0000      -0.449527       -12.2323
  23   2.0000      -0.436450       -11.8764
  24   2.0000      -0.418507       -11.3882
  25   0.0000       0.041743         1.1359
  26   0.0000       0.077495         2.1087
  27   0.0000       0.083270         2.2659
  28   0.0000       0.084535         2.3003
  29   0.0000       0.097391         2.6501

MULLIKEN ATOMIC CHARGES
-----------------------
   0 C :    0.700817
   1 S :    1.039706
   2 O :   -0.529202
   3 F :   -0.331209
   4 O :   -0.579854
   5 H :   -0.095286
   6 H :   -0.105695
   7 H :   -0.099278
Sum of atomic charges:   -0.0000000

LOEWDIN ATOMIC CHARGES
----------------------
   0 C :    0.117056
   1 S :    1.052598
   2 O :   -0.443213
   3 F :   -0.254385
   4 O :   -0.463791
   5 H :   -0.007087
   6 H :    0.005417
   7 H :   -0.006595

  Mayer bond orders larger than 0.100000
B(  0-C ,  1-S ) :   0.9878 B(  0-C ,  5-H ) :   0.8757 B(  0-C ,  6-H ) :   0.8718
B(  0-C ,  7-H ) :   0.8775 B(  1-S ,  2-O ) :   1.6137 B(  1-S ,  3-F ) :   0.7468
B(  1-S ,  4-O ) :   1.5677 B(  1-S ,  5-H ) :   0.1051 B(  1-S ,  6-H ) :   0.1304
B(  1-S ,  7-H ) :   0.1133

FINAL SINGLE POINT ENERGY      -687.258792754255

DIPOLE MOMENT
-------------
                                X             Y             Z
Electronic contribution:     -2.55158       4.62861      -0.71746
Nuclear contribution   :      3.94974      -5.09866      -0.16489
                        -----------------------------------------
Total Dipole Moment    :      1.39816      -0.47005      -0.88235
                        -----------------------------------------
Magnitude (a.u.)       :      1.71882
Magnitude (Debye)      :      4.36890

Rotational constants in cm-1:     0.163657     0.151977     0.145976
Rotational constants in MHz :  4906.325390  4556.144033  4376.262759

                             ****ORCA TERMINATED NORMALLY****
TOTAL RUN TIME: 0 days 0 hours 0 minutes 12 seconds 210 msec
