                         Program Version 5.0.0 -  RELEASE  -
|  1> !LC-BLYP RIJCOSX def2-SVPD def2/J TightSCF
|  2> *xyz 0 1
|  3> C         -5.57236       -5.80780       -0.81644
|  4> S         -6.90318       -4.61903       -0.52846
|  5> O         -8.11485       -5.25093       -0.95701
|  6> O         -6.53271       -3.42684       -1.31485
|  7> F         -6.86563       -4.29496        0.91412
|  8> H         -5.55376       -6.07856       -1.85145
|  9> H         -5.73990       -6.68165       -0.22212
| 10> H         -4.63562       -5.36690       -0.54622
| 11> *
| 12> %MaxCore 64000
| 13>
| 14> %pal nprocs 4
| 15> end
| 16>
| 17> %scf
| 18>   MaxIter 150
| 19> end
| 20>
| 21>                          ****END OF INPUT****

CARTESIAN COORDINATES (ANGSTROEM)
---------------------------------
  C     -5.572360   -5.807800   -0.816440
  S     -6.903180   -4.619030   -0.528460
  O     -8.114850   -5.250930   -0.957010
  O     -6.532710   -3.426840   -1.314850
  F     -6.865630   -4.294960    0.914120
  H     -5.553760   -6.078560   -1.851450
  H     -5.739900   -6.681650   -0.222120
  H     -4.635620   -5.366900   -0.546220

 Total Charge           Charge          ....    0
 Multiplicity           Mult            ....    1
 Number of Electrons    NEL             ....   50
 Basis Dimension        Dim             ....  140

ORBITAL ENERGIES
----------------

  NO   OCC          E(Eh)            E(eV)
   0   2.0000     -88.573817     -2410.2161
   1   2.0000     -24.584332      -668.9737
   2   2.0000     -18.980909      -516.4968
   3   2.0000     -18.966675      -516.1095
   4   2.0000     -10.152446      -276.2621
   5   2.0000      -8.122980      -221.0375
   6   2.0000      -6.161660      -167.6673
   7   2.0000      -6.154968      -167.4852
   8   2.0000      -6.154037      -167.4599
   9   2.0000      -1.437274       -39.1102
  10   2.0000      -1.216662       -33.1071
  11   2.0000      -1.111334       -30.2409
  12   2.0000      -0.913423       -24.8555
  13   2.0000      -0.814919       -22.1751
  14   2.0000      -0.705756       -19.2046
  15   2.0000      -0.679260       -18.4836
  16   2.0000      -0.660919       -17.9845
  17   2.0000      -0.588276       -16.0078
  18   2.0000      -0.586894       -15.9702
  19   2.0000      -0.574861       -15.6428
  20   2.0000      -0.547239       -14.8911
  21   2.0000      -0.499498       -13.5920
  22   2.0000      -0.449533       -12.2324
  23   2.0000      -0.435858       -11.8603
  24   2.0000      -0.418599       -11.3906
  25   0.0000       0.041234         1.1220
  26   0.0000       0.077448         2.1075
  27   0.0000       0.083217         2.2644
  28   0.0000       0.084232         2.2921
  29   0.0000       0.095469         2.5978

MULLIKEN ATOMIC CHARGES
-----------------------
   0 C :    0.701676
   1 S :    1.039932
   2 O :   -0.528749
   3 O :   -0.579167
   4 F :   -0.333700
   5 H :   -0.100244
   6 H :   -0.102447
   7 H :   -0.097301
Sum of atomic charges:    0.0000000

LOEWDIN ATOMIC CHARGES
----------------------
   0 C :    0.117185
   1 S :    1.052975
   2 O :   -0.443006
   3 O :   -0.464768
   4 F :   -0.253980
   5 H :    0.005871
   6 H :   -0.008073
   7 H :   -0.006203

  Mayer bond orders larger than 0.100000
B(  0-C ,  1-S ) :   0.9880 B(  0-C ,  5-H ) :   0.8710 B(  0-C ,  6-H ) :   0.8754
B(  0-C ,  7-H ) :   0.8787 B(  1-S ,  2-O ) :   1.6132 B(  1-S ,  3-O ) :   1.5699
B(  1-S ,  4-F ) :   0.7426 B(  1-S ,  5-H ) :   0.1299 B(  1-S ,  6-H ) :   0.1044
B(  1-S ,  7-H ) :   0.1132

FINAL SINGLE POINT ENERGY      -687.258418295150

DIPOLE MOMENT
-------------
                                X             Y             Z
Electronic contribution:     -3.11118       3.16453       3.03206
Nuclear contribution   :      4.28235      -4.23136      -2.39177
                        -----------------------------------------
Total Dipole Moment    :      1.17116      -1.06683       0.64029
                        -----------------------------------------
Magnitude (a.u.)       :      1.70872
Magnitude (Debye)      :      4.34322

Rotational constants in cm-1:     0.164456     0.151338     0.145749
Rotational constants in MHz :  4930.268698  4537.002642  4369.437533

                             ****ORCA TERMINATED NORMALLY****
TOTAL RUN TIME: 0 days 0 hours 0 minutes 12 seconds 175 msec
