                         Program Version 5.0.0 -  RELEASE  -
|  1> !PBE0 D3BJ RIJCOSX def2-SVPD def2/J TightSCF
|  2> *xyz -1 1
|  3> C         -0.50835        1.72268       -4.12430
|  4> S         -1.32861        0.14674       -4.43578
|  5> O         -2.57135        0.47573       -5.06834
|  6> O         -1.51496       -0.40051       -3.06342
|  7> O         -0.37793       -0.62756       -5.20114
|  8> H         -0.31967        2.21655       -5.05456
|  9> H          0.41835        1.54859       -3.61852
| 10> H         -1.13714        2.33776       -3.51504
| 11> *
| 12> %MaxCore 64000
| 13>
| 14> %pal nprocs 4
| 15> end
| 16>
| 17> %scf
| 18>   MaxIter 150
| 19> end
| 20>
| 21>
| 22>                          ****END OF INPUT****

CARTESIAN COORDINATES (ANGSTROEM)
---------------------------------
  C     -0.508350    1.722680   -4.124300
  S     -1.328610    0.146740   -4.435780
  O     -2.571350    0.475730   -5.068340
  O     -1.514960   -0.400510   -3.063420
  O     -0.377930   -0.627560   -5.201140
  H     -0.319670    2.216550   -5.054560
  H      0.418350    1.548590   -3.618520
  H     -1.137140    2.337760   -3.515040

 Total Charge           Charge          ....   -1
 Multiplicity           Mult            ....    1
 Number of Electrons    NEL             ....   50
 Basis Dimension        Dim             ....  140

ORBITAL ENERGIES
----------------

  NO   OCC          E(Eh)            E(eV)
   0   2.0000     -89.037656     -2422.8378
   1   2.0000     -19.000076      -517.0183
   2   2.0000     -18.997227      -516.9408
   3   2.0000     -18.982126      -516.5299
   4   2.0000     -10.081155      -274.3222
   5   2.0000      -7.997070      -217.6113
   6   2.0000      -5.939325      -161.6172
   7   2.0000      -5.939080      -161.6106
   8   2.0000      -5.938911      -161.6060
   9   2.0000      -0.959535       -26.1103
  10   2.0000      -0.823011       -22.3953
  11   2.0000      -0.791789       -21.5457
  12   2.0000      -0.595631       -16.2079
  13   2.0000      -0.402485       -10.9522
  14   2.0000      -0.320061        -8.7093
  15   2.0000      -0.302626        -8.2349
  16   2.0000      -0.302276        -8.2253
  17   2.0000      -0.263764        -7.1774
  18   2.0000      -0.261301        -7.1104
  19   2.0000      -0.167478        -4.5573
  20   2.0000      -0.166663        -4.5351
  21   2.0000      -0.132345        -3.6013
  22   2.0000      -0.123475        -3.3599
  23   2.0000      -0.110743        -3.0135
  24   2.0000      -0.077994        -2.1223
  25   0.0000       0.158605         4.3159
  26   0.0000       0.190184         5.1752
  27   0.0000       0.190836         5.1929
  28   0.0000       0.193634         5.2691
  29   0.0000       0.220365         5.9964

MULLIKEN ATOMIC CHARGES
-----------------------
   0 C :    0.304259
   1 S :    1.183225
   2 O :   -0.779905
   3 O :   -0.839948
   4 O :   -0.795115
   5 H :   -0.030574
   6 H :   -0.020425
   7 H :   -0.021517
Sum of atomic charges:   -1.0000000

LOEWDIN ATOMIC CHARGES
----------------------
   0 C :    0.049310
   1 S :    0.842513
   2 O :   -0.579045
   3 O :   -0.610768
   4 O :   -0.585410
   5 H :   -0.041061
   6 H :   -0.037530
   7 H :   -0.038010

  Mayer bond orders larger than 0.100000
B(  0-C ,  1-S ) :   0.9533 B(  0-C ,  5-H ) :   0.9431 B(  0-C ,  6-H ) :   0.9434
B(  0-C ,  7-H ) :   0.9432 B(  1-S ,  2-O ) :   1.3223 B(  1-S ,  3-O ) :   1.2817
B(  1-S ,  4-O ) :   1.3109 B(  1-S ,  6-H ) :   0.1057 B(  1-S ,  7-H ) :   0.1041

Dispersion correction           -0.005346594
FINAL SINGLE POINT ENERGY      -663.076217098239

DIPOLE MOMENT
-------------
                                X             Y             Z
Electronic contribution:     -1.99828      -3.75772      -0.90667
Nuclear contribution   :      2.60425       5.03732       0.91691
                        -----------------------------------------
Total Dipole Moment    :      0.60597       1.27960       0.01023
                        -----------------------------------------
Magnitude (a.u.)       :      1.41586
Magnitude (Debye)      :      3.59883

Rotational constants in cm-1:     0.171343     0.157827     0.155747
Rotational constants in MHz :  5136.740483  4731.521814  4669.189064

                             ****ORCA TERMINATED NORMALLY****
TOTAL RUN TIME: 0 days 0 hours 0 minutes 10 seconds 298 msec
