                         Program Version 5.0.0 -  RELEASE  -
|  1> !PBE0 D3BJ RIJCOSX def2-SVPD def2/J TightSCF
|  2> *xyz 1 1
|  3> C          1.36401        0.46874       -2.81376
|  4> N          0.42884        0.32140       -1.65531
|  5> H          0.74858       -0.40054       -1.00134
|  6> H         -0.46105        0.02333       -2.07773
|  7> H          0.31026        1.20137       -1.13495
|  8> H          0.99872        1.22859       -3.47261
|  9> H          1.42772       -0.46011       -3.34109
| 10> H          2.33442        0.74312       -2.45611
| 11> *
| 12> %MaxCore 64000
| 13>
| 14> %pal nprocs 4
| 15> end
| 16>
| 17> %scf
| 18>   MaxIter 150
| 19> end
| 20>
| 21>
| 22>                          ****END OF INPUT****

CARTESIAN COORDINATES (ANGSTROEM)
---------------------------------
  C      1.364010    0.468740   -2.813760
  N      0.428840    0.321400   -1.655310
  H      0.748580   -0.400540   -1.001340
  H     -0.461050    0.023330   -2.077730
  H      0.310260    1.201370   -1.134950
  H      0.998720    1.228590   -3.472610
  H      1.427720   -0.460110   -3.341090
  H      2.334420    0.743120   -2.456110

 Total Charge           Charge          ....    1
 Multiplicity           Mult            ....    1
 Number of Electrons    NEL             ....   18
 Basis Dimension        Dim             ....   88

ORBITAL ENERGIES
----------------

  NO   OCC          E(Eh)            E(eV)
   0   2.0000     -14.746541      -401.2738
   1   2.0000     -10.491698      -285.4936
   2   2.0000      -1.243536       -33.8383
   3   2.0000      -0.953537       -25.9471
   4   2.0000      -0.830290       -22.5933
   5   2.0000      -0.825524       -22.4637
   6   2.0000      -0.727606       -19.7992
   7   2.0000      -0.641655       -17.4603
   8   2.0000      -0.639688       -17.4068
   9   0.0000      -0.195438        -5.3181
  10   0.0000      -0.128300        -3.4912
  11   0.0000      -0.123719        -3.3666
  12   0.0000      -0.119500        -3.2518
  13   0.0000      -0.077979        -2.1219

MULLIKEN ATOMIC CHARGES
-----------------------
   0 C :    0.760714
   1 N :   -0.846494
   2 H :    0.369570
   3 H :    0.406634
   4 H :    0.373826
   5 H :   -0.016263
   6 H :   -0.012125
   7 H :   -0.035862
Sum of atomic charges:    1.0000000

LOEWDIN ATOMIC CHARGES
----------------------
   0 C :    0.281141
   1 N :    0.312731
   2 H :    0.107731
   3 H :    0.107793
   4 H :    0.112595
   5 H :    0.026745
   6 H :    0.026942
   7 H :    0.024321

  Mayer bond orders larger than 0.100000
B(  0-C ,  1-N ) :   0.8061 B(  0-C ,  5-H ) :   0.9149 B(  0-C ,  6-H ) :   0.9117
B(  0-C ,  7-H ) :   0.9402 B(  1-N ,  2-H ) :   0.7853 B(  1-N ,  3-H ) :   0.7381
B(  1-N ,  4-H ) :   0.7783

Dispersion correction           -0.002675988
FINAL SINGLE POINT ENERGY       -96.034345060058

DIPOLE MOMENT
-------------
                                X             Y             Z
Electronic contribution:     -0.68215      -0.09498       0.88439
Nuclear contribution   :      0.14628      -0.00095      -0.25828
                        -----------------------------------------
Total Dipole Moment    :     -0.53587      -0.09593       0.62611
                        -----------------------------------------
Magnitude (a.u.)       :      0.82968
Magnitude (Debye)      :      2.10889

Rotational constants in cm-1:     2.853706     0.682028     0.680630
Rotational constants in MHz : 85551.942317 20446.672693 20404.761959

                             ****ORCA TERMINATED NORMALLY****
TOTAL RUN TIME: 0 days 0 hours 0 minutes 4 seconds 406 msec
