                         Program Version 5.0.0 -  RELEASE  -
|  1> !PBE0 D3BJ RIJCOSX def2-SVPD def2/J TightSCF xyzfile
|  2>
|  3> *xyzfile 0 1 B.xyz
|  4>
|  5> %MaxCore 64000
|  6>
|  7> %pal nprocs 4
|  8> end
|  9>
| 10> %scf
| 11>   MaxIter 150
| 12> end
| 13>
| 14>
| 15>                          ****END OF INPUT****

CARTESIAN COORDINATES (ANGSTROEM)
---------------------------------
  C      1.364014    0.468742   -2.813764
  N      0.428844    0.321402   -1.655312
  C      0.968045    1.630639   -3.715749
  C     -0.508347    1.722679   -4.124300
  S     -1.328608    0.146737   -4.435781
  H     -0.591511    2.294958   -5.047219
  H     -1.114114    2.235610   -3.374362
  H      0.748578   -0.400542   -1.001345
  H     -0.461053    0.023332   -2.077731
  H      0.310258    1.201375   -1.134948
  O     -2.571347    0.475733   -5.068341
  O     -1.514963   -0.400512   -3.063420
  H      1.294847   -0.468742   -3.364684
  H      2.376216    0.597400   -2.431495
  H      1.578688    1.520652   -4.612733
  H      1.266653    2.575988   -3.250448
  O     -0.377928   -0.627558   -5.201141

 Total Charge           Charge          ....    0
 Multiplicity           Mult            ....    1
 Number of Electrons    NEL             ....   74
 Basis Dimension        Dim             ....  248

ORBITAL ENERGIES
----------------

  NO   OCC          E(Eh)            E(eV)
   0   2.0000     -89.205751     -2427.4119
   1   2.0000     -19.174731      -521.7710
   2   2.0000     -19.158315      -521.3243
   3   2.0000     -19.156263      -521.2684
   4   2.0000     -14.531978      -395.4352
   5   2.0000     -10.327029      -281.0128
   6   2.0000     -10.279349      -279.7153
   7   2.0000     -10.257818      -279.1294
   8   2.0000      -8.164863      -222.1772
   9   2.0000      -6.107695      -166.1988
  10   2.0000      -6.106664      -166.1708
  11   2.0000      -6.106343      -166.1620
  12   2.0000      -1.129515       -30.7357
  13   2.0000      -1.050849       -28.5950
  14   2.0000      -0.982054       -26.7231
  15   2.0000      -0.979665       -26.6580
  16   2.0000      -0.845779       -23.0148
  17   2.0000      -0.757937       -20.6245
  18   2.0000      -0.672735       -18.3060
  19   2.0000      -0.643686       -17.5156
  20   2.0000      -0.630596       -17.1594
  21   2.0000      -0.564767       -15.3681
  22   2.0000      -0.542622       -14.7655
  23   2.0000      -0.505654       -13.7595
  24   2.0000      -0.489584       -13.3222
  25   2.0000      -0.481548       -13.1036
  26   2.0000      -0.450220       -12.2511
  27   2.0000      -0.441552       -12.0152
  28   2.0000      -0.418645       -11.3919
  29   2.0000      -0.409450       -11.1417
  30   2.0000      -0.391738       -10.6597
  31   2.0000      -0.339748        -9.2450
  32   2.0000      -0.330976        -9.0063
  33   2.0000      -0.301657        -8.2085
  34   2.0000      -0.290625        -7.9083
  35   2.0000      -0.280457        -7.6316
  36   2.0000      -0.251243        -6.8367
  37   0.0000      -0.034878        -0.9491
  38   0.0000       0.010608         0.2887
  39   0.0000       0.015289         0.4160
  40   0.0000       0.039529         1.0756
  41   0.0000       0.053139         1.4460

MULLIKEN ATOMIC CHARGES
-----------------------
   0 C :    0.500792
   1 N :   -0.391388
   2 C :    0.062711
   3 C :    0.028200
   4 S :    1.519213
   5 H :   -0.134528
   6 H :    0.180611
   7 H :    0.288248
   8 H :    0.066653
   9 H :    0.404935
  10 O :   -0.827176
  11 O :   -0.951585
  12 H :    0.144625
  13 H :   -0.220140
  14 H :    0.150618
  15 H :   -0.025895
  16 O :   -0.795893
Sum of atomic charges:    0.0000000

LOEWDIN ATOMIC CHARGES
----------------------
   0 C :    0.092507
   1 N :    0.323359
   2 C :   -0.019788
   3 C :   -0.062751
   4 S :    0.952326
   5 H :    0.020560
   6 H :    0.016290
   7 H :    0.094912
   8 H :   -0.112436
   9 H :    0.097402
  10 O :   -0.504300
  11 O :   -0.516805
  12 H :    0.037970
  13 H :    0.036125
  14 H :    0.042392
  15 H :    0.026860
  16 O :   -0.524622

  Mayer bond orders larger than 0.100000
B(  0-C ,  1-N ) :   0.8429 B(  0-C ,  2-C ) :   1.2423 B(  0-C , 12-H ) :   0.8051
B(  0-C , 13-H ) :   0.9314 B(  0-C , 14-H ) :   0.1369 B(  0-C , 15-H ) :   0.1237
B(  1-N ,  7-H ) :   0.8161 B(  1-N ,  8-H ) :   1.1780 B(  1-N ,  9-H ) :   0.7442
B(  1-N , 12-H ) :   0.1202 B(  1-N , 13-H ) :   0.1009 B(  2-C ,  3-C ) :   1.2815
B(  2-C ,  5-H ) :   0.1467 B(  2-C , 12-H ) :   0.1079 B(  2-C , 14-H ) :   0.8015
B(  2-C , 15-H ) :   0.8433 B(  3-C ,  4-S ) :   0.9066 B(  3-C ,  5-H ) :   0.9323
B(  3-C ,  6-H ) :   0.8765 B(  3-C , 11-O ) :   0.1504 B(  3-C , 14-H ) :   0.1169
B(  4-S , 10-O ) :   1.3934 B(  4-S , 11-O ) :   1.0363 B(  4-S , 16-O ) :   1.3029
B(  8-H , 11-O ) :   0.1995

Dispersion correction           -0.015694283
FINAL SINGLE POINT ENERGY      -797.341560083961

DIPOLE MOMENT
-------------
                                X             Y             Z
Electronic contribution:     -6.88563      -4.11451      -4.27254
Nuclear contribution   :      9.95459       5.57517       7.68169
                        -----------------------------------------
Total Dipole Moment    :      3.06896       1.46066       3.40914
                        -----------------------------------------
Magnitude (a.u.)       :      4.81397
Magnitude (Debye)      :     12.23615

Rotational constants in cm-1:     0.102119     0.045768     0.041299
Rotational constants in MHz :  3061.441288  1372.093000  1238.124534

                             ****ORCA TERMINATED NORMALLY****
TOTAL RUN TIME: 0 days 0 hours 0 minutes 36 seconds 734 msec
