                         Program Version 5.0.0 -  RELEASE  -
|  1> !PBE0 D3BJ RIJCOSX def2-SVPD def2/J TightSCF
|  2> *xyz 0 1
|  3> C         -0.50835        1.72268       -4.12430
|  4> S         -1.32861        0.14674       -4.43578
|  5> F         -2.57135        0.47573       -5.06834
|  6> O         -1.51496       -0.40051       -3.06342
|  7> O         -0.37793       -0.62756       -5.20114
|  8> H         -0.31967        2.21655       -5.05456
|  9> H          0.41835        1.54859       -3.61852
| 10> H         -1.13714        2.33776       -3.51504
| 11> *
| 12> %MaxCore 64000
| 13>
| 14> %pal nprocs 4
| 15> end
| 16>
| 17> %scf
| 18>   MaxIter 150
| 19> end
| 20>
| 21>
| 22>                          ****END OF INPUT****

CARTESIAN COORDINATES (ANGSTROEM)
---------------------------------
  C     -0.508350    1.722680   -4.124300
  S     -1.328610    0.146740   -4.435780
  F     -2.571350    0.475730   -5.068340
  O     -1.514960   -0.400510   -3.063420
  O     -0.377930   -0.627560   -5.201140
  H     -0.319670    2.216550   -5.054560
  H      0.418350    1.548590   -3.618520
  H     -1.137140    2.337760   -3.515040

 Total Charge           Charge          ....    0
 Multiplicity           Mult            ....    1
 Number of Electrons    NEL             ....   50
 Basis Dimension        Dim             ....  140

ORBITAL ENERGIES
----------------

  NO   OCC          E(Eh)            E(eV)
   0   2.0000     -89.305579     -2430.1283
   1   2.0000     -24.914106      -677.9473
   2   2.0000     -19.237893      -523.4897
   3   2.0000     -19.222224      -523.0633
   4   2.0000     -10.292165      -280.0641
   5   2.0000      -8.265622      -224.9190
   6   2.0000      -6.211966      -169.0362
   7   2.0000      -6.205356      -168.8563
   8   2.0000      -6.204444      -168.8315
   9   2.0000      -1.424287       -38.7568
  10   2.0000      -1.139860       -31.0172
  11   2.0000      -1.032879       -28.1061
  12   2.0000      -0.821832       -22.3632
  13   2.0000      -0.749111       -20.3843
  14   2.0000      -0.633046       -17.2261
  15   2.0000      -0.620636       -16.8884
  16   2.0000      -0.579698       -15.7744
  17   2.0000      -0.497199       -13.5295
  18   2.0000      -0.494972       -13.4689
  19   2.0000      -0.482703       -13.1350
  20   2.0000      -0.457925       -12.4608
  21   2.0000      -0.406573       -11.0634
  22   2.0000      -0.357010        -9.7147
  23   2.0000      -0.341449        -9.2913
  24   2.0000      -0.324955        -8.8425
  25   0.0000      -0.004425        -0.1204
  26   0.0000       0.034914         0.9501
  27   0.0000       0.040939         1.1140
  28   0.0000       0.050135         1.3642
  29   0.0000       0.051175         1.3926

MULLIKEN ATOMIC CHARGES
-----------------------
   0 C :    0.287166
   1 S :    1.338199
   2 F :   -0.382998
   3 O :   -0.695051
   4 O :   -0.653747
   5 H :    0.034259
   6 H :    0.030710
   7 H :    0.041460
Sum of atomic charges:   -0.0000000

LOEWDIN ATOMIC CHARGES
----------------------
   0 C :    0.118743
   1 S :    1.114892
   2 F :   -0.253794
   3 O :   -0.489997
   4 O :   -0.466120
   5 H :   -0.014247
   6 H :    0.002240
   7 H :   -0.011717

  Mayer bond orders larger than 0.100000
B(  0-C ,  1-S ) :   1.0136 B(  0-C ,  5-H ) :   0.9287 B(  0-C ,  6-H ) :   0.9330
B(  0-C ,  7-H ) :   0.9294 B(  1-S ,  2-F ) :   0.6903 B(  1-S ,  3-O ) :   1.4899
B(  1-S ,  4-O ) :   1.5190 B(  1-S ,  6-H ) :   0.1042

Dispersion correction           -0.005011031
FINAL SINGLE POINT ENERGY      -687.542377873203

DIPOLE MOMENT
-------------
                                X             Y             Z
Electronic contribution:     -4.04816      -3.18222      -1.99019
Nuclear contribution   :      3.90013       4.80063       1.59574
                        -----------------------------------------
Total Dipole Moment    :     -0.14803       1.61841      -0.39446
                        -----------------------------------------
Magnitude (a.u.)       :      1.67236
Magnitude (Debye)      :      4.25079

Rotational constants in cm-1:     0.163395     0.155047     0.147447
Rotational constants in MHz :  4898.460101  4648.206837  4420.340547

                             ****ORCA TERMINATED NORMALLY****
TOTAL RUN TIME: 0 days 0 hours 0 minutes 11 seconds 493 msec
