                         Program Version 5.0.0 -  RELEASE  -
|  1> !PBE0 D3BJ RIJCOSX def2-SVPD def2/J TightSCF
|  2> *xyz 0 1
|  3> C         -0.50835        1.72268       -4.12430
|  4> S         -1.32861        0.14674       -4.43578
|  5> O         -2.57135        0.47573       -5.06834
|  6> F         -1.51496       -0.40051       -3.06342
|  7> O         -0.37793       -0.62756       -5.20114
|  8> H         -0.31967        2.21655       -5.05456
|  9> H          0.41835        1.54859       -3.61852
| 10> H         -1.13714        2.33776       -3.51504
| 11> *
| 12> %MaxCore 64000
| 13>
| 14> %pal nprocs 4
| 15> end
| 16>
| 17> %scf
| 18>   MaxIter 150
| 19> end
| 20>
| 21>
| 22>                          ****END OF INPUT****

CARTESIAN COORDINATES (ANGSTROEM)
---------------------------------
  C     -0.508350    1.722680   -4.124300
  S     -1.328610    0.146740   -4.435780
  O     -2.571350    0.475730   -5.068340
  F     -1.514960   -0.400510   -3.063420
  O     -0.377930   -0.627560   -5.201140
  H     -0.319670    2.216550   -5.054560
  H      0.418350    1.548590   -3.618520
  H     -1.137140    2.337760   -3.515040

 Total Charge           Charge          ....    0
 Multiplicity           Mult            ....    1
 Number of Electrons    NEL             ....   50
 Basis Dimension        Dim             ....  140

ORBITAL ENERGIES
----------------

  NO   OCC          E(Eh)            E(eV)
   0   2.0000     -89.302532     -2430.0454
   1   2.0000     -24.886251      -677.1893
   2   2.0000     -19.240092      -523.5495
   3   2.0000     -19.237057      -523.4669
   4   2.0000     -10.291017      -280.0328
   5   2.0000      -8.262539      -224.8351
   6   2.0000      -6.208512      -168.9422
   7   2.0000      -6.202658      -168.7829
   8   2.0000      -6.201622      -168.7547
   9   2.0000      -1.376410       -37.4540
  10   2.0000      -1.154815       -31.4241
  11   2.0000      -1.059403       -28.8278
  12   2.0000      -0.819062       -22.2878
  13   2.0000      -0.725307       -19.7366
  14   2.0000      -0.609790       -16.5932
  15   2.0000      -0.587912       -15.9979
  16   2.0000      -0.575421       -15.6580
  17   2.0000      -0.501289       -13.6408
  18   2.0000      -0.495530       -13.4841
  19   2.0000      -0.479602       -13.0506
  20   2.0000      -0.465710       -12.6726
  21   2.0000      -0.415694       -11.3116
  22   2.0000      -0.365657        -9.9500
  23   2.0000      -0.357203        -9.7200
  24   2.0000      -0.343578        -9.3492
  25   0.0000      -0.000947        -0.0258
  26   0.0000       0.036611         0.9962
  27   0.0000       0.041791         1.1372
  28   0.0000       0.051578         1.4035
  29   0.0000       0.052247         1.4217

MULLIKEN ATOMIC CHARGES
-----------------------
   0 C :    0.283211
   1 S :    1.350373
   2 O :   -0.655272
   3 F :   -0.413572
   4 O :   -0.668187
   5 H :    0.023085
   6 H :    0.040641
   7 H :    0.039721
Sum of atomic charges:   -0.0000000

LOEWDIN ATOMIC CHARGES
----------------------
   0 C :    0.119476
   1 S :    1.111202
   2 O :   -0.460997
   3 F :   -0.279393
   4 O :   -0.466691
   5 H :   -0.000173
   6 H :   -0.011487
   7 H :   -0.011937

  Mayer bond orders larger than 0.100000
B(  0-C ,  1-S ) :   1.0116 B(  0-C ,  5-H ) :   0.9317 B(  0-C ,  6-H ) :   0.9316
B(  0-C ,  7-H ) :   0.9311 B(  1-S ,  2-O ) :   1.5257 B(  1-S ,  3-F ) :   0.6343
B(  1-S ,  4-O ) :   1.5151

Dispersion correction           -0.005010251
FINAL SINGLE POINT ENERGY      -687.566468464383

DIPOLE MOMENT
-------------
                                X             Y             Z
Electronic contribution:     -2.30171      -4.64389       1.35979
Nuclear contribution   :      2.84473       5.67605      -0.40731
                        -----------------------------------------
Total Dipole Moment    :      0.54302       1.03217       0.95248
                        -----------------------------------------
Magnitude (a.u.)       :      1.50581
Magnitude (Debye)      :      3.82746

Rotational constants in cm-1:     0.162669     0.154016     0.148818
Rotational constants in MHz :  4876.699308  4617.284822  4461.441982

                             ****ORCA TERMINATED NORMALLY****
TOTAL RUN TIME: 0 days 0 hours 0 minutes 11 seconds 437 msec
