                         Program Version 5.0.0 -  RELEASE  -
|  1> !PBE0 D3BJ RIJCOSX def2-SVPD def2/J TightSCF
|  2> *xyz 0 1
|  3> C         -0.50835        1.72268       -4.12430
|  4> S         -1.32861        0.14674       -4.43578
|  5> O         -2.57135        0.47573       -5.06834
|  6> O         -1.51496       -0.40051       -3.06342
|  7> F         -0.37793       -0.62756       -5.20114
|  8> H         -0.31967        2.21655       -5.05456
|  9> H          0.41835        1.54859       -3.61852
| 10> H         -1.13714        2.33776       -3.51504
| 11> *
| 12> %MaxCore 64000
| 13>
| 14> %pal nprocs 4
| 15> end
| 16>
| 17> %scf
| 18>   MaxIter 150
| 19> end
| 20>
| 21>
| 22>                          ****END OF INPUT****

CARTESIAN COORDINATES (ANGSTROEM)
---------------------------------
  C     -0.508350    1.722680   -4.124300
  S     -1.328610    0.146740   -4.435780
  O     -2.571350    0.475730   -5.068340
  O     -1.514960   -0.400510   -3.063420
  F     -0.377930   -0.627560   -5.201140
  H     -0.319670    2.216550   -5.054560
  H      0.418350    1.548590   -3.618520
  H     -1.137140    2.337760   -3.515040

 Total Charge           Charge          ....    0
 Multiplicity           Mult            ....    1
 Number of Electrons    NEL             ....   50
 Basis Dimension        Dim             ....  140

ORBITAL ENERGIES
----------------

  NO   OCC          E(Eh)            E(eV)
   0   2.0000     -89.304761     -2430.1061
   1   2.0000     -24.908850      -677.8043
   2   2.0000     -19.240731      -523.5669
   3   2.0000     -19.222034      -523.0581
   4   2.0000     -10.292055      -280.0610
   5   2.0000      -8.264843      -224.8978
   6   2.0000      -6.211082      -169.0121
   7   2.0000      -6.204680      -168.8379
   8   2.0000      -6.203709      -168.8115
   9   2.0000      -1.413794       -38.4713
  10   2.0000      -1.145801       -31.1788
  11   2.0000      -1.035649       -28.1815
  12   2.0000      -0.821196       -22.3459
  13   2.0000      -0.744391       -20.2559
  14   2.0000      -0.627522       -17.0757
  15   2.0000      -0.613623       -16.6975
  16   2.0000      -0.578973       -15.7547
  17   2.0000      -0.499050       -13.5799
  18   2.0000      -0.495212       -13.4754
  19   2.0000      -0.482347       -13.1253
  20   2.0000      -0.459593       -12.5062
  21   2.0000      -0.409755       -11.1500
  22   2.0000      -0.360764        -9.8169
  23   2.0000      -0.341709        -9.2984
  24   2.0000      -0.326869        -8.8945
  25   0.0000      -0.004344        -0.1182
  26   0.0000       0.035258         0.9594
  27   0.0000       0.040317         1.0971
  28   0.0000       0.050453         1.3729
  29   0.0000       0.051272         1.3952

MULLIKEN ATOMIC CHARGES
-----------------------
   0 C :    0.286892
   1 S :    1.338613
   2 O :   -0.642388
   3 O :   -0.696724
   4 F :   -0.392074
   5 H :    0.033985
   6 H :    0.041722
   7 H :    0.029973
Sum of atomic charges:    0.0000000

LOEWDIN ATOMIC CHARGES
----------------------
   0 C :    0.119045
   1 S :    1.114271
   2 O :   -0.460428
   3 O :   -0.489928
   4 F :   -0.259291
   5 H :   -0.014205
   6 H :   -0.011389
   7 H :    0.001926

  Mayer bond orders larger than 0.100000
B(  0-C ,  1-S ) :   1.0132 B(  0-C ,  5-H ) :   0.9290 B(  0-C ,  6-H ) :   0.9300
B(  0-C ,  7-H ) :   0.9328 B(  1-S ,  2-O ) :   1.5291 B(  1-S ,  3-O ) :   1.4895
B(  1-S ,  4-F ) :   0.6767 B(  1-S ,  7-H ) :   0.1032

Dispersion correction           -0.005011004
FINAL SINGLE POINT ENERGY      -687.546736212750

DIPOLE MOMENT
-------------
                                X             Y             Z
Electronic contribution:     -0.41358      -5.01038      -2.21116
Nuclear contribution   :      1.70876       5.90289       1.72841
                        -----------------------------------------
Total Dipole Moment    :      1.29518       0.89251      -0.48275
                        -----------------------------------------
Magnitude (a.u.)       :      1.64533
Magnitude (Debye)      :      4.18210

Rotational constants in cm-1:     0.163253     0.155214     0.147311
Rotational constants in MHz :  4894.200006  4653.189727  4416.272537

                             ****ORCA TERMINATED NORMALLY****
TOTAL RUN TIME: 0 days 0 hours 0 minutes 11 seconds 454 msec
