                         Program Version 5.0.0 -  RELEASE  -
|  1> !PBE0 D3BJ RIJCOSX def2-SVPD def2/J TightSCF xyzfile
|  2>
|  3> *xyzfile 0 1 D1.xyz
|  4>
|  5> %MaxCore 64000
|  6>
|  7> %pal nprocs 4
|  8> end
|  9>
| 10> %scf
| 11>   MaxIter 150
| 12> end
| 13>
| 14>
| 15>                          ****END OF INPUT****

CARTESIAN COORDINATES (ANGSTROEM)
---------------------------------
  C      1.364014    0.468742   -2.813764
  C      0.428844    0.321402   -1.655312
  C      0.968045    1.630639   -3.715749
  C     -0.508347    1.722679   -4.124300
  S     -1.328608    0.146737   -4.435781
  H     -0.591511    2.294958   -5.047219
  H     -1.114114    2.235610   -3.374362
  H      0.748578   -0.400542   -1.001345
  H     -0.461053    0.023332   -2.077731
  H      0.310258    1.201375   -1.134948
  F     -2.571347    0.475733   -5.068341
  O     -1.514963   -0.400512   -3.063420
  H      1.294847   -0.468742   -3.364684
  H      2.376216    0.597400   -2.431495
  H      1.578688    1.520652   -4.612733
  H      1.266653    2.575988   -3.250448
  O     -0.377928   -0.627558   -5.201141

 Total Charge           Charge          ....    0
 Multiplicity           Mult            ....    1
 Number of Electrons    NEL             ....   74
 Basis Dimension        Dim             ....  248

ORBITAL ENERGIES
----------------

  NO   OCC          E(Eh)            E(eV)
   0   2.0000     -89.304966     -2430.1117
   1   2.0000     -24.914186      -677.9495
   2   2.0000     -19.238806      -523.5145
   3   2.0000     -19.226407      -523.1771
   4   2.0000     -10.297258      -280.2026
   5   2.0000     -10.256995      -279.1070
   6   2.0000     -10.220240      -278.1069
   7   2.0000     -10.161926      -276.5201
   8   2.0000      -8.264935      -224.9003
   9   2.0000      -6.211232      -169.0162
  10   2.0000      -6.205025      -168.8473
  11   2.0000      -6.203425      -168.8038
  12   2.0000      -1.423685       -38.7404
  13   2.0000      -1.144559       -31.1450
  14   2.0000      -1.042251       -28.3611
  15   2.0000      -0.851877       -23.1807
  16   2.0000      -0.796659       -21.6782
  17   2.0000      -0.746213       -20.3055
  18   2.0000      -0.697298       -18.9744
  19   2.0000      -0.630527       -17.1575
  20   2.0000      -0.621540       -16.9130
  21   2.0000      -0.598888       -16.2966
  22   2.0000      -0.564858       -15.3706
  23   2.0000      -0.526125       -14.3166
  24   2.0000      -0.512128       -13.9357
  25   2.0000      -0.481108       -13.0916
  26   2.0000      -0.476781       -12.9739
  27   2.0000      -0.439358       -11.9555
  28   2.0000      -0.421231       -11.4623
  29   2.0000      -0.416844       -11.3429
  30   2.0000      -0.401749       -10.9321
  31   2.0000      -0.372313       -10.1312
  32   2.0000      -0.361593        -9.8395
  33   2.0000      -0.337033        -9.1711
  34   2.0000      -0.335090        -9.1183
  35   2.0000      -0.329711        -8.9719
  36   2.0000      -0.291373        -7.9287
  37   0.0000      -0.000035        -0.0010
  38   0.0000       0.019714         0.5364
  39   0.0000       0.036522         0.9938
  40   0.0000       0.044073         1.1993
  41   0.0000       0.054214         1.4752

MULLIKEN ATOMIC CHARGES
-----------------------
   0 C :   -0.511702
   1 C :    1.796251
   2 C :    0.126219
   3 C :   -0.092782
   4 S :    1.744246
   5 H :   -0.106372
   6 H :    0.294933
   7 H :   -0.076527
   8 H :   -1.004192
   9 H :   -0.081599
  10 F :   -0.511730
  11 O :   -0.923678
  12 H :    0.160904
  13 H :   -0.250241
  14 H :    0.092365
  15 H :    0.047149
  16 O :   -0.703243
Sum of atomic charges:    0.0000000

LOEWDIN ATOMIC CHARGES
----------------------
   0 C :   -0.051021
   1 C :    0.137249
   2 C :   -0.021292
   3 C :   -0.038520
   4 S :    1.182003
   5 H :    0.016098
   6 H :    0.029649
   7 H :   -0.020742
   8 H :   -0.171224
   9 H :   -0.020088
  10 F :   -0.247662
  11 O :   -0.455768
  12 H :    0.020027
  13 H :    0.025051
  14 H :    0.029297
  15 H :    0.039172
  16 O :   -0.452227

  Mayer bond orders larger than 0.100000
B(  0-C ,  1-C ) :   1.0519 B(  0-C ,  2-C ) :   1.2199 B(  0-C ,  7-H ) :   0.2171
B(  0-C ,  8-H ) :   0.4833 B(  0-C ,  9-H ) :   0.2629 B(  0-C , 12-H ) :   0.8302
B(  0-C , 13-H ) :   1.0283 B(  0-C , 14-H ) :   0.1310 B(  0-C , 15-H ) :   0.1514
B(  1-C ,  7-H ) :   0.5118 B(  1-C ,  8-H ) :  -0.3042 B(  1-C ,  9-H ) :   0.3419
B(  1-C , 11-O ) :  -0.1701 B(  1-C , 12-H ) :   0.1213 B(  2-C ,  3-C ) :   1.3270
B(  2-C ,  5-H ) :   0.1965 B(  2-C , 12-H ) :   0.1260 B(  2-C , 14-H ) :   0.8392
B(  2-C , 15-H ) :   0.8089 B(  3-C ,  4-S ) :   0.9608 B(  3-C ,  5-H ) :   0.9000
B(  3-C ,  6-H ) :   0.8260 B(  3-C ,  8-H ) :   0.1214 B(  3-C , 11-O ) :   0.1595
B(  3-C , 14-H ) :   0.1229 B(  4-S ,  8-H ) :  -0.1442 B(  4-S , 10-F ) :   0.6061
B(  4-S , 11-O ) :   1.3069 B(  4-S , 16-O ) :   1.4647 B(  7-H ,  8-H ) :   0.3000
B(  7-H ,  9-H ) :  -0.1658 B(  8-H ,  9-H ) :   0.4649 B(  8-H , 11-O ) :   0.2323

Dispersion correction           -0.015340523
FINAL SINGLE POINT ENERGY      -805.226468167009

DIPOLE MOMENT
-------------
                                X             Y             Z
Electronic contribution:    -12.44310      -4.04891      -9.71133
Nuclear contribution   :     12.25227       5.48563       9.26621
                        -----------------------------------------
Total Dipole Moment    :     -0.19082       1.43672      -0.44512
                        -----------------------------------------
Magnitude (a.u.)       :      1.51615
Magnitude (Debye)      :      3.85375

Rotational constants in cm-1:     0.103176     0.044975     0.040960
Rotational constants in MHz :  3093.138469  1348.317425  1227.945122

                             ****ORCA TERMINATED NORMALLY****
TOTAL RUN TIME: 0 days 0 hours 0 minutes 48 seconds 11 msec
