                         Program Version 5.0.0 -  RELEASE  -
|  1> !PBE0 D3BJ RIJCOSX def2-SVPD def2/J TightSCF xyzfile
|  2>
|  3> *xyzfile 0 1 D2.xyz
|  4>
|  5> %MaxCore 64000
|  6>
|  7> %pal nprocs 4
|  8> end
|  9>
| 10> %scf
| 11>   MaxIter 150
| 12> end
| 13>
| 14>
| 15>                          ****END OF INPUT****

CARTESIAN COORDINATES (ANGSTROEM)
---------------------------------
  C      1.364014    0.468742   -2.813764
  C      0.428844    0.321402   -1.655312
  C      0.968045    1.630639   -3.715749
  C     -0.508347    1.722679   -4.124300
  S     -1.328608    0.146737   -4.435781
  H     -0.591511    2.294958   -5.047219
  H     -1.114114    2.235610   -3.374362
  H      0.748578   -0.400542   -1.001345
  H     -0.461053    0.023332   -2.077731
  H      0.310258    1.201375   -1.134948
  O     -2.571347    0.475733   -5.068341
  F     -1.514963   -0.400512   -3.063420
  H      1.294847   -0.468742   -3.364684
  H      2.376216    0.597400   -2.431495
  H      1.578688    1.520652   -4.612733
  H      1.266653    2.575988   -3.250448
  O     -0.377928   -0.627558   -5.201141

 Total Charge           Charge          ....    0
 Multiplicity           Mult            ....    1
 Number of Electrons    NEL             ....   74
 Basis Dimension        Dim             ....  248

ORBITAL ENERGIES
----------------

  NO   OCC          E(Eh)            E(eV)
   0   2.0000     -89.299797     -2429.9710
   1   2.0000     -24.889329      -677.2731
   2   2.0000     -19.240042      -523.5482
   3   2.0000     -19.236537      -523.4528
   4   2.0000     -10.295018      -280.1417
   5   2.0000     -10.258322      -279.1431
   6   2.0000     -10.234614      -278.4980
   7   2.0000     -10.192638      -277.3558
   8   2.0000      -8.259778      -224.7600
   9   2.0000      -6.205984      -168.8734
  10   2.0000      -6.199894      -168.7077
  11   2.0000      -6.198491      -168.6695
  12   2.0000      -1.385915       -37.7127
  13   2.0000      -1.155389       -31.4397
  14   2.0000      -1.059064       -28.8186
  15   2.0000      -0.858830       -23.3700
  16   2.0000      -0.800180       -21.7740
  17   2.0000      -0.737568       -20.0702
  18   2.0000      -0.714219       -19.4349
  19   2.0000      -0.620075       -16.8731
  20   2.0000      -0.607958       -16.5434
  21   2.0000      -0.591932       -16.1073
  22   2.0000      -0.569286       -15.4910
  23   2.0000      -0.517183       -14.0733
  24   2.0000      -0.499955       -13.6045
  25   2.0000      -0.495192       -13.4749
  26   2.0000      -0.481714       -13.1081
  27   2.0000      -0.446966       -12.1626
  28   2.0000      -0.430125       -11.7043
  29   2.0000      -0.419308       -11.4100
  30   2.0000      -0.412815       -11.2333
  31   2.0000      -0.370998       -10.0954
  32   2.0000      -0.367521       -10.0008
  33   2.0000      -0.355280        -9.6677
  34   2.0000      -0.348520        -9.4837
  35   2.0000      -0.343303        -9.3418
  36   2.0000      -0.332450        -9.0464
  37   0.0000       0.005045         0.1373
  38   0.0000       0.026093         0.7100
  39   0.0000       0.035663         0.9705
  40   0.0000       0.038242         1.0406
  41   0.0000       0.048753         1.3266

MULLIKEN ATOMIC CHARGES
-----------------------
   0 C :   -0.515618
   1 C :    1.873176
   2 C :    0.178892
   3 C :   -0.044442
   4 S :    1.603199
   5 H :   -0.129816
   6 H :    0.281030
   7 H :   -0.051990
   8 H :   -1.074679
   9 H :   -0.059849
  10 O :   -0.749483
  11 F :   -0.637606
  12 H :    0.148362
  13 H :   -0.245402
  14 H :    0.094376
  15 H :    0.050025
  16 O :   -0.720175
Sum of atomic charges:    0.0000000

LOEWDIN ATOMIC CHARGES
----------------------
   0 C :   -0.054543
   1 C :    0.145763
   2 C :   -0.030978
   3 C :   -0.031231
   4 S :    1.145432
   5 H :    0.030671
   6 H :    0.028685
   7 H :   -0.018253
   8 H :   -0.130316
   9 H :   -0.015041
  10 O :   -0.449827
  11 F :   -0.281477
  12 H :    0.017042
  13 H :    0.028046
  14 H :    0.030195
  15 H :    0.035747
  16 O :   -0.449914

  Mayer bond orders larger than 0.100000
B(  0-C ,  1-C ) :   1.0351 B(  0-C ,  2-C ) :   1.2227 B(  0-C ,  7-H ) :   0.2194
B(  0-C ,  8-H ) :   0.4713 B(  0-C ,  9-H ) :   0.2612 B(  0-C , 12-H ) :   0.8454
B(  0-C , 13-H ) :   1.0290 B(  0-C , 14-H ) :   0.1273 B(  0-C , 15-H ) :   0.1529
B(  1-C ,  7-H ) :   0.5114 B(  1-C ,  8-H ) :  -0.4501 B(  1-C ,  9-H ) :   0.3162
B(  1-C , 11-F ) :  -0.1842 B(  1-C , 12-H ) :   0.1144 B(  2-C ,  3-C ) :   1.2883
B(  2-C ,  5-H ) :   0.1710 B(  2-C , 12-H ) :   0.1207 B(  2-C , 14-H ) :   0.8431
B(  2-C , 15-H ) :   0.8019 B(  3-C ,  4-S ) :   0.9995 B(  3-C ,  5-H ) :   0.9362
B(  3-C ,  6-H ) :   0.8418 B(  3-C , 11-F ) :   0.1343 B(  3-C , 14-H ) :   0.1289
B(  4-S ,  8-H ) :  -0.1230 B(  4-S , 10-O ) :   1.5141 B(  4-S , 11-F ) :   0.6014
B(  4-S , 16-O ) :   1.4936 B(  7-H ,  8-H ) :   0.2689 B(  7-H ,  9-H ) :  -0.1730
B(  8-H ,  9-H ) :   0.5017 B(  8-H , 11-F ) :   0.2927

Dispersion correction           -0.015172798
FINAL SINGLE POINT ENERGY      -805.248434183879

DIPOLE MOMENT
-------------
                                X             Y             Z
Electronic contribution:    -10.47891      -5.53447      -6.15284
Nuclear contribution   :     11.08796       6.45140       7.05645
                        -----------------------------------------
Total Dipole Moment    :      0.60906       0.91692       0.90361
                        -----------------------------------------
Magnitude (a.u.)       :      1.42415
Magnitude (Debye)      :      3.61991

Rotational constants in cm-1:     0.100113     0.046890     0.041843
Rotational constants in MHz :  3001.313402  1405.711946  1254.411771

                             ****ORCA TERMINATED NORMALLY****
TOTAL RUN TIME: 0 days 0 hours 0 minutes 42 seconds 777 msec
