                         Program Version 5.0.0 -  RELEASE  -
|  1> !wB97X-D3 RIJCOSX def2-SVP def2/J TightSCF
|  2> *xyz -1 1
|  3> C         -1.10433        0.25137       -2.86006
|  4> C         -0.71189        0.84252       -4.21834
|  5> H          0.15463        1.49980       -4.13091
|  6> H         -1.53813        1.45922       -4.58267
|  7> C         -0.39762       -0.20587       -5.28802
|  8> O          0.61717       -0.00535       -5.99827
|  9> O         -1.13317       -1.22138       -5.34147
| 10> C         -0.19626       -0.86337       -2.32576
| 11> H         -1.14384        1.06671       -2.12968
| 12> H         -2.11440       -0.15683       -2.93032
| 13> H         -0.15538       -1.66172       -3.03700
| 14> H         -0.58845       -1.22999       -1.40020
| 15> H          0.78852       -0.47602       -2.16737
| 16> *
| 17>
| 18> %MaxCore 64000
| 19>
| 20> %pal nprocs 18
| 21> end
| 22>
| 23> %scf
| 24>   MaxIter 150
| 25> end
| 26>
| 27>
| 28>                          ****END OF INPUT****

CARTESIAN COORDINATES (ANGSTROEM)
---------------------------------
  C     -1.104330    0.251370   -2.860060
  C     -0.711890    0.842520   -4.218340
  H      0.154630    1.499800   -4.130910
  H     -1.538130    1.459220   -4.582670
  C     -0.397620   -0.205870   -5.288020
  O      0.617170   -0.005350   -5.998270
  O     -1.133170   -1.221380   -5.341470
  C     -0.196260   -0.863370   -2.325760
  H     -1.143840    1.066710   -2.129680
  H     -2.114400   -0.156830   -2.930320
  H     -0.155380   -1.661720   -3.037000
  H     -0.588450   -1.229990   -1.400200
  H      0.788520   -0.476020   -2.167370

 Total Charge           Charge          ....   -1
 Multiplicity           Mult            ....    1
 Number of Electrons    NEL             ....   48
 Basis Dimension        Dim             ....  119

ORBITAL ENERGIES
----------------

  NO   OCC          E(Eh)            E(eV)
   0   2.0000     -18.944511      -515.5064
   1   2.0000     -18.942273      -515.4454
   2   2.0000     -10.147884      -276.1380
   3   2.0000     -10.131834      -275.7012
   4   2.0000     -10.125082      -275.5175
   5   2.0000     -10.100757      -274.8556
   6   2.0000      -0.897958       -24.4347
   7   2.0000      -0.801015       -21.7967
   8   2.0000      -0.735354       -20.0100
   9   2.0000      -0.639190       -17.3932
  10   2.0000      -0.539120       -14.6702
  11   2.0000      -0.414381       -11.2759
  12   2.0000      -0.394860       -10.7447
  13   2.0000      -0.375117       -10.2075
  14   2.0000      -0.342837        -9.3291
  15   2.0000      -0.309594        -8.4245
  16   2.0000      -0.295310        -8.0358
  17   2.0000      -0.287090        -7.8121
  18   2.0000      -0.274217        -7.4618
  19   2.0000      -0.250602        -6.8192
  20   2.0000      -0.238169        -6.4809
  21   2.0000      -0.111278        -3.0280
  22   2.0000      -0.108583        -2.9547
  23   2.0000      -0.094328        -2.5668
  24   0.0000       0.285087         7.7576
  25   0.0000       0.328382         8.9357
  26   0.0000       0.334762         9.1093
  27   0.0000       0.356349         9.6967
  28   0.0000       0.361401         9.8342

MULLIKEN ATOMIC CHARGES
-----------------------
   0 C :   -0.063569
   1 C :   -0.005403
   2 H :   -0.032286
   3 H :   -0.020515
   4 C :    0.049753
   5 O :   -0.441357
   6 O :   -0.450037
   7 C :   -0.007172
   8 H :   -0.038265
   9 H :   -0.001984
  10 H :    0.047144
  11 H :   -0.027676
  12 H :   -0.008633
Sum of atomic charges:   -1.0000000

LOEWDIN ATOMIC CHARGES
----------------------
   0 C :   -0.045269
   1 C :   -0.095323
   2 H :    0.001088
   3 H :    0.011125
   4 C :   -0.043813
   5 O :   -0.398502
   6 O :   -0.407356
   7 C :   -0.063920
   8 H :   -0.005262
   9 H :    0.011458
  10 H :    0.027250
  11 H :    0.000675
  12 H :    0.007850

  Mayer bond orders larger than 0.100000
B(  0-C ,  1-C ) :   1.0587 B(  0-C ,  7-C ) :   1.0895 B(  0-C ,  8-H ) :   0.9526
B(  0-C ,  9-H ) :   0.9462 B(  1-C ,  2-H ) :   0.9418 B(  1-C ,  3-H ) :   0.9352
B(  1-C ,  4-C ) :   0.9181 B(  4-C ,  5-O ) :   1.8759 B(  4-C ,  6-O ) :   1.8126
B(  5-O ,  6-O ) :   0.1055 B(  7-C , 10-H ) :   0.9603 B(  7-C , 11-H ) :   0.9694
B(  7-C , 12-H ) :   0.9733

Dispersion correction           -0.003359286
FINAL SINGLE POINT ENERGY      -306.822654564295

DIPOLE MOMENT
-------------
                                X             Y             Z
Electronic contribution:      0.71556      -1.12053      -7.29612
Nuclear contribution   :     -1.15173       1.87787       9.37659
                        -----------------------------------------
Total Dipole Moment    :     -0.43617       0.75734       2.08047
                        -----------------------------------------
Magnitude (a.u.)       :      2.25658
Magnitude (Debye)      :      5.73577

Rotational constants in cm-1:     0.203160     0.081703     0.075834
Rotational constants in MHz :  6090.598467  2449.397428  2273.436534

                             ****ORCA TERMINATED NORMALLY****
TOTAL RUN TIME: 0 days 0 hours 0 minutes 7 seconds 545 msec
