                         Program Version 5.0.0 -  RELEASE  -
|  1> !wB97X-D3 RIJCOSX def2-SVP def2/J TightSCF
|  2> *xyz 1 1
|  3> C          2.23447       -2.98975       -2.39762
|  4> N          2.75680       -2.94555       -3.76503
|  5> C          1.98721       -2.59045       -4.81898
|  6> N          0.74322       -3.01749       -4.91352
|  7> N          2.49964       -1.84860       -5.80324
|  8> H          3.30978       -1.29282       -5.55895
|  9> H          1.80103       -1.30430       -6.28913
| 10> H          3.71612       -2.62880       -3.82953
| 11> H          0.39583       -3.62775       -4.18502
| 12> H          0.03920       -2.45438       -5.37137
| 13> C          2.19120       -1.61950       -1.71549
| 14> H          2.87278       -3.66637       -1.82801
| 15> H          1.24619       -3.44744       -2.40784
| 16> C          1.29873       -0.55431       -2.35977
| 17> H          1.87292       -1.78796       -0.68131
| 18> H          3.21681       -1.23843       -1.65443
| 19> H          1.61097       -0.39090       -3.37007
| 20> H          1.37981        0.35955       -1.80916
| 21> H          0.28197       -0.88750       -2.35015
| 22> *
| 23>
| 24> %MaxCore 64000
| 25>
| 26> %pal nprocs 18
| 27> end
| 28>
| 29> %scf
| 30>   MaxIter 150
| 31> end
| 32>
| 33>
| 34>                          ****END OF INPUT****

CARTESIAN COORDINATES (ANGSTROEM)
---------------------------------
  C      2.234470   -2.989750   -2.397620
  N      2.756800   -2.945550   -3.765030
  C      1.987210   -2.590450   -4.818980
  N      0.743220   -3.017490   -4.913520
  N      2.499640   -1.848600   -5.803240
  H      3.309780   -1.292820   -5.558950
  H      1.801030   -1.304300   -6.289130
  H      3.716120   -2.628800   -3.829530
  H      0.395830   -3.627750   -4.185020
  H      0.039200   -2.454380   -5.371370
  C      2.191200   -1.619500   -1.715490
  H      2.872780   -3.666370   -1.828010
  H      1.246190   -3.447440   -2.407840
  C      1.298730   -0.554310   -2.359770
  H      1.872920   -1.787960   -0.681310
  H      3.216810   -1.238430   -1.654430
  H      1.610970   -0.390900   -3.370070
  H      1.379810    0.359550   -1.809160
  H      0.281970   -0.887500   -2.350150

 Total Charge           Charge          ....    1
 Multiplicity           Mult            ....    1
 Number of Electrons    NEL             ....   56
 Basis Dimension        Dim             ....  158

ORBITAL ENERGIES
----------------

  NO   OCC          E(Eh)            E(eV)
   0   2.0000     -14.664194      -399.0330
   1   2.0000     -14.660430      -398.9306
   2   2.0000     -14.655875      -398.8066
   3   2.0000     -10.630101      -289.2598
   4   2.0000     -10.495001      -285.5835
   5   2.0000     -10.437204      -284.0108
   6   2.0000     -10.420133      -283.5462
   7   2.0000      -1.330917       -36.2161
   8   2.0000      -1.213793       -33.0290
   9   2.0000      -1.208479       -32.8844
  10   2.0000      -1.051228       -28.6054
  11   2.0000      -0.977418       -26.5969
  12   2.0000      -0.931870       -25.3575
  13   2.0000      -0.889477       -24.2039
  14   2.0000      -0.872797       -23.7500
  15   2.0000      -0.834834       -22.7170
  16   2.0000      -0.800632       -21.7863
  17   2.0000      -0.784029       -21.3345
  18   2.0000      -0.751914       -20.4606
  19   2.0000      -0.725985       -19.7551
  20   2.0000      -0.698010       -18.9938
  21   2.0000      -0.686408       -18.6781
  22   2.0000      -0.656948       -17.8765
  23   2.0000      -0.617583       -16.8053
  24   2.0000      -0.591286       -16.0897
  25   2.0000      -0.586584       -15.9618
  26   2.0000      -0.576347       -15.6832
  27   2.0000      -0.537512       -14.6264
  28   0.0000      -0.104226        -2.8361
  29   0.0000      -0.049488        -1.3466
  30   0.0000      -0.019509        -0.5309
  31   0.0000      -0.004860        -0.1322
  32   0.0000       0.012602         0.3429

MULLIKEN ATOMIC CHARGES
-----------------------
   0 C :    0.040437
   1 N :   -0.168368
   2 C :    0.062857
   3 N :   -0.049595
   4 N :   -0.034329
   5 H :    0.174286
   6 H :    0.175928
   7 H :    0.169063
   8 H :    0.181248
   9 H :    0.186795
  10 C :   -0.119128
  11 H :    0.095359
  12 H :    0.052887
  13 C :   -0.026430
  14 H :    0.083373
  15 H :    0.055571
  16 H :   -0.001013
  17 H :    0.082850
  18 H :    0.038211
Sum of atomic charges:    1.0000000

LOEWDIN ATOMIC CHARGES
----------------------
   0 C :    0.043380
   1 N :    0.008373
   2 C :    0.155576
   3 N :    0.058861
   4 N :    0.043198
   5 H :    0.107597
   6 H :    0.110312
   7 H :    0.102575
   8 H :    0.109824
   9 H :    0.115218
  10 C :   -0.049610
  11 H :    0.052302
  12 H :    0.029084
  13 C :   -0.054464
  14 H :    0.051232
  15 H :    0.033827
  16 H :    0.006139
  17 H :    0.049268
  18 H :    0.027310

  Mayer bond orders larger than 0.100000
B(  0-C ,  1-N ) :   0.9266 B(  0-C , 10-C ) :   1.0597 B(  0-C , 11-H ) :   0.9509
B(  0-C , 12-H ) :   0.9586 B(  1-N ,  2-C ) :   1.3558 B(  1-N ,  7-H ) :   0.9099
B(  2-C ,  3-N ) :   1.4147 B(  2-C ,  4-N ) :   1.3764 B(  3-N ,  8-H ) :   0.9230
B(  3-N ,  9-H ) :   0.9241 B(  4-N ,  5-H ) :   0.9285 B(  4-N ,  6-H ) :   0.9300
B( 10-C , 13-C ) :   1.0794 B( 10-C , 14-H ) :   0.9457 B( 10-C , 15-H ) :   0.9523
B( 13-C , 16-H ) :   0.9573 B( 13-C , 17-H ) :   0.9664 B( 13-C , 18-H ) :   0.9774

Dispersion correction           -0.006059597
FINAL SINGLE POINT ENERGY      -323.385503010780

DIPOLE MOMENT
-------------
                                X             Y             Z
Electronic contribution:      1.21136      -3.52774      -5.64203
Nuclear contribution   :     -1.48325       3.81474       4.74728
                        -----------------------------------------
Total Dipole Moment    :     -0.27188       0.28700      -0.89475
                        -----------------------------------------
Magnitude (a.u.)       :      0.97820
Magnitude (Debye)      :      2.48639

Rotational constants in cm-1:     0.127669     0.058023     0.053953
Rotational constants in MHz :  3827.411023  1739.493733  1617.466565

                             ****ORCA TERMINATED NORMALLY****
TOTAL RUN TIME: 0 days 0 hours 0 minutes 13 seconds 276 msec
