                         Program Version 5.0.0 -  RELEASE  -
|  1> !wB97X-D3 RIJCOSX def2-SVP def2/J TightSCF xyzfile
|  2>
|  3> *xyzfile 0 1 B.xyz
|  4>
|  5> %MaxCore 64000
|  6>
|  7> %pal nprocs 18
|  8> end
|  9>
| 10> %scf
| 11>   MaxIter 150
| 12> end
| 13>
| 14>
| 15>                          ****END OF INPUT****

CARTESIAN COORDINATES (ANGSTROEM)
---------------------------------
  C      2.234473   -2.989754   -2.397622
  N      2.756799   -2.945553   -3.765029
  C     -1.104325    0.251374   -2.860056
  C     -0.711893    0.842517   -4.218344
  H      0.154626    1.499800   -4.130909
  H     -1.538134    1.459222   -4.582671
  C     -0.397624   -0.205875   -5.288018
  C      1.987208   -2.590451   -4.818975
  N      0.743221   -3.017493   -4.913524
  N      2.499636   -1.848598   -5.803241
  H      3.309780   -1.292818   -5.558947
  H      1.801025   -1.304298   -6.289129
  H      3.716116   -2.628797   -3.829533
  H      0.395828   -3.627747   -4.185024
  H      0.039201   -2.454383   -5.371367
  O      0.617165   -0.005348   -5.998273
  O     -1.133173   -1.221380   -5.341465
  C      2.191199   -1.619503   -1.715492
  H      2.872783   -3.666368   -1.828014
  H      1.246188   -3.447444   -2.407842
  C      1.298729   -0.554314   -2.359773
  H      1.872917   -1.787955   -0.681310
  H      3.216809   -1.238432   -1.654428
  C     -0.196255   -0.863365   -2.325763
  H      1.612531   -0.371346   -3.393065
  H      1.480944    0.388638   -1.834444
  H     -0.404105   -1.761825   -2.909448
  H     -0.490439   -1.087880   -1.294131
  H     -1.143842    1.066711   -2.129680
  H     -2.114401   -0.156834   -2.930323

 Total Charge           Charge          ....    0
 Multiplicity           Mult            ....    1
 Number of Electrons    NEL             ....  102
 Basis Dimension        Dim             ....  267

ORBITAL ENERGIES
----------------

  NO   OCC          E(Eh)            E(eV)
   0   2.0000     -19.143968      -520.9339
   1   2.0000     -19.142162      -520.8847
   2   2.0000     -14.503193      -394.6519
   3   2.0000     -14.472140      -393.8070
   4   2.0000     -14.471118      -393.7792
   5   2.0000     -10.457026      -284.5501
   6   2.0000     -10.365257      -282.0530
   7   2.0000     -10.337615      -281.3008
   8   2.0000     -10.313661      -280.6490
   9   2.0000     -10.293598      -280.1031
  10   2.0000     -10.278804      -279.7005
  11   2.0000     -10.267867      -279.4029
  12   2.0000     -10.250688      -278.9354
  13   2.0000      -1.159686       -31.5567
  14   2.0000      -1.099567       -29.9207
  15   2.0000      -1.051632       -28.6164
  16   2.0000      -1.028057       -27.9749
  17   2.0000      -0.999748       -27.2045
  18   2.0000      -0.929869       -25.3030
  19   2.0000      -0.884954       -24.0808
  20   2.0000      -0.832344       -22.6492
  21   2.0000      -0.785954       -21.3869
  22   2.0000      -0.758799       -20.6480
  23   2.0000      -0.726022       -19.7561
  24   2.0000      -0.716872       -19.5071
  25   2.0000      -0.681467       -18.5437
  26   2.0000      -0.658475       -17.9180
  27   2.0000      -0.635868       -17.3028
  28   2.0000      -0.610646       -16.6165
  29   2.0000      -0.600914       -16.3517
  30   2.0000      -0.583155       -15.8684
  31   2.0000      -0.571786       -15.5591
  32   2.0000      -0.558182       -15.1889
  33   2.0000      -0.545684       -14.8488
  34   2.0000      -0.534058       -14.5325
  35   2.0000      -0.523534       -14.2461
  36   2.0000      -0.508802       -13.8452
  37   2.0000      -0.498199       -13.5567
  38   2.0000      -0.481135       -13.0923
  39   2.0000      -0.472312       -12.8523
  40   2.0000      -0.459584       -12.5059
  41   2.0000      -0.449858       -12.2413
  42   2.0000      -0.435500       -11.8505
  43   2.0000      -0.418495       -11.3878
  44   2.0000      -0.404785       -11.0148
  45   2.0000      -0.398786       -10.8515
  46   2.0000      -0.393637       -10.7114
  47   2.0000      -0.385221       -10.4824
  48   2.0000      -0.309220        -8.4143
  49   2.0000      -0.301584        -8.2065
  50   2.0000      -0.294003        -8.0002
  51   0.0000       0.068486         1.8636
  52   0.0000       0.098269         2.6740
  53   0.0000       0.119811         3.2602
  54   0.0000       0.139085         3.7847
  55   0.0000       0.155811         4.2398

MULLIKEN ATOMIC CHARGES
-----------------------
   0 C :    0.068997
   1 N :   -0.182256
   2 C :    0.000885
   3 C :   -0.023409
   4 H :    0.010387
   5 H :    0.037594
   6 C :    0.131745
   7 C :    0.022488
   8 N :   -0.028542
   9 N :   -0.032019
  10 H :    0.136847
  11 H :    0.156931
  12 H :    0.141360
  13 H :    0.146159
  14 H :    0.158926
  15 O :   -0.430449
  16 O :   -0.423469
  17 C :   -0.033020
  18 H :    0.052299
  19 H :    0.040955
  20 C :   -0.052584
  21 H :    0.036540
  22 H :    0.022491
  23 C :   -0.050311
  24 H :    0.024028
  25 H :    0.029763
  26 H :   -0.011536
  27 H :    0.008933
  28 H :    0.009768
  29 H :    0.030501
Sum of atomic charges:   -0.0000000

LOEWDIN ATOMIC CHARGES
----------------------
   0 C :    0.039677
   1 N :   -0.022776
   2 C :   -0.032717
   3 C :   -0.079498
   4 H :    0.017776
   5 H :    0.038061
   6 C :    0.011115
   7 C :    0.142606
   8 N :    0.062783
   9 N :    0.028942
  10 H :    0.085661
  11 H :    0.064906
  12 H :    0.085668
  13 H :    0.087052
  14 H :    0.056233
  15 O :   -0.342219
  16 O :   -0.336860
  17 C :   -0.048264
  18 H :    0.033419
  19 H :    0.025351
  20 C :   -0.047398
  21 H :    0.032943
  22 H :    0.022879
  23 C :   -0.047655
  24 H :    0.018858
  25 H :    0.030418
  26 H :    0.007882
  27 H :    0.018813
  28 H :    0.017324
  29 H :    0.029017

  Mayer bond orders larger than 0.100000
B(  0-C ,  1-N ) :   0.9616 B(  0-C , 17-C ) :   1.0589 B(  0-C , 18-H ) :   0.9553
B(  0-C , 19-H ) :   0.9561 B(  1-N ,  7-C ) :   1.2703 B(  1-N , 12-H ) :   0.9184
B(  2-C ,  3-C ) :   1.0668 B(  2-C , 23-C ) :   1.0907 B(  2-C , 28-H ) :   0.9507
B(  2-C , 29-H ) :   0.9407 B(  3-C ,  4-H ) :   0.9439 B(  3-C ,  5-H ) :   0.9302
B(  3-C ,  6-C ) :   0.9530 B(  6-C , 15-O ) :   1.7134 B(  6-C , 16-O ) :   1.6921
B(  7-C ,  8-N ) :   1.4909 B(  7-C ,  9-N ) :   1.4164 B(  8-N , 13-H ) :   0.9288
B(  8-N , 14-H ) :   0.8259 B(  9-N , 10-H ) :   0.9375 B(  9-N , 11-H ) :   0.8537
B( 11-H , 15-O ) :   0.1725 B( 14-H , 16-O ) :   0.2060 B( 17-C , 20-C ) :   1.0787
B( 17-C , 21-H ) :   0.9406 B( 17-C , 22-H ) :   0.9477 B( 20-C , 23-C ) :   1.0605
B( 20-C , 24-H ) :   0.9204 B( 20-C , 25-H ) :   0.9428 B( 23-C , 26-H ) :   0.9300
B( 23-C , 27-H ) :   0.9472

Dispersion correction           -0.016101868
FINAL SINGLE POINT ENERGY      -629.215795681197

DIPOLE MOMENT
-------------
                                X             Y             Z
Electronic contribution:      0.67068      -2.92222     -10.33919
Nuclear contribution   :      1.76912       1.50070      12.36652
                        -----------------------------------------
Total Dipole Moment    :      2.43979      -1.42152       2.02733
                        -----------------------------------------
Magnitude (a.u.)       :      3.47612
Magnitude (Debye)      :      8.83559

Rotational constants in cm-1:     0.033272     0.023886     0.017112
Rotational constants in MHz :   997.469575   716.074432   513.001395

                             ****ORCA TERMINATED NORMALLY****
TOTAL RUN TIME: 0 days 0 hours 0 minutes 31 seconds 284 msec
