                         Program Version 5.0.0 -  RELEASE  -
|  1> !wB97X-D3 RIJCOSX def2-SVP def2/J TightSCF
|  2> *xyz 0 1
|  3> C         -1.10433        0.25137       -2.86006
|  4> C         -0.71189        0.84252       -4.21834
|  5> H          0.15463        1.49980       -4.13091
|  6> H         -1.53813        1.45922       -4.58267
|  7> C         -0.39762       -0.20587       -5.28802
|  8> F          0.61717       -0.00535       -5.99827
|  9> O         -1.13317       -1.22138       -5.34147
| 10> C         -0.19626       -0.86337       -2.32576
| 11> H         -1.14384        1.06671       -2.12968
| 12> H         -2.11440       -0.15683       -2.93032
| 13> H         -0.15538       -1.66172       -3.03700
| 14> H         -0.58845       -1.22999       -1.40020
| 15> H          0.78852       -0.47602       -2.16737
| 16> *
| 17>
| 18> %MaxCore 64000
| 19>
| 20> %pal nprocs 18
| 21> end
| 22>
| 23> %scf
| 24>   MaxIter 150
| 25> end
| 26>
| 27>
| 28>                          ****END OF INPUT****

CARTESIAN COORDINATES (ANGSTROEM)
---------------------------------
  C     -1.104330    0.251370   -2.860060
  C     -0.711890    0.842520   -4.218340
  H      0.154630    1.499800   -4.130910
  H     -1.538130    1.459220   -4.582670
  C     -0.397620   -0.205870   -5.288020
  F      0.617170   -0.005350   -5.998270
  O     -1.133170   -1.221380   -5.341470
  C     -0.196260   -0.863370   -2.325760
  H     -1.143840    1.066710   -2.129680
  H     -2.114400   -0.156830   -2.930320
  H     -0.155380   -1.661720   -3.037000
  H     -0.588450   -1.229990   -1.400200
  H      0.788520   -0.476020   -2.167370

 Total Charge           Charge          ....    0
 Multiplicity           Mult            ....    1
 Number of Electrons    NEL             ....   48
 Basis Dimension        Dim             ....  119

ORBITAL ENERGIES
----------------

  NO   OCC          E(Eh)            E(eV)
   0   2.0000     -24.859033      -676.4487
   1   2.0000     -19.241485      -523.5874
   2   2.0000     -10.464019      -284.7404
   3   2.0000     -10.316651      -280.7303
   4   2.0000     -10.300127      -280.2807
   5   2.0000     -10.277145      -279.6553
   6   2.0000      -1.415064       -38.5058
   7   2.0000      -1.133838       -30.8533
   8   2.0000      -0.919690       -25.0260
   9   2.0000      -0.835682       -22.7401
  10   2.0000      -0.763154       -20.7665
  11   2.0000      -0.712724       -19.3942
  12   2.0000      -0.649596       -17.6764
  13   2.0000      -0.631617       -17.1872
  14   2.0000      -0.606420       -16.5015
  15   2.0000      -0.564988       -15.3741
  16   2.0000      -0.551535       -15.0080
  17   2.0000      -0.513928       -13.9847
  18   2.0000      -0.495098       -13.4723
  19   2.0000      -0.461617       -12.5612
  20   2.0000      -0.448634       -12.2080
  21   2.0000      -0.438237       -11.9250
  22   2.0000      -0.434158       -11.8140
  23   2.0000      -0.383856       -10.4453
  24   0.0000       0.062930         1.7124
  25   0.0000       0.140244         3.8162
  26   0.0000       0.181646         4.9428
  27   0.0000       0.187769         5.1094
  28   0.0000       0.204400         5.5620

MULLIKEN ATOMIC CHARGES
-----------------------
   0 C :   -0.090102
   1 C :   -0.087062
   2 H :    0.042965
   3 H :    0.076441
   4 C :    0.256094
   5 F :   -0.080079
   6 O :   -0.270744
   7 C :   -0.040355
   8 H :    0.036212
   9 H :    0.048653
  10 H :    0.049497
  11 H :    0.035424
  12 H :    0.023055
Sum of atomic charges:    0.0000000

LOEWDIN ATOMIC CHARGES
----------------------
   0 C :   -0.034347
   1 C :   -0.077063
   2 H :    0.030457
   3 H :    0.054897
   4 C :    0.113932
   5 F :    0.042253
   6 O :   -0.204743
   7 C :   -0.058138
   8 H :    0.028570
   9 H :    0.031464
  10 H :    0.024989
  11 H :    0.028531
  12 H :    0.019199

  Mayer bond orders larger than 0.100000
B(  0-C ,  1-C ) :   1.0625 B(  0-C ,  7-C ) :   1.0898 B(  0-C ,  8-H ) :   0.9570
B(  0-C ,  9-H ) :   0.9512 B(  1-C ,  2-H ) :   0.9435 B(  1-C ,  3-H ) :   0.9279
B(  1-C ,  4-C ) :   0.9883 B(  4-C ,  5-F ) :   1.1978 B(  4-C ,  6-O ) :   2.0554
B(  7-C , 10-H ) :   0.9681 B(  7-C , 11-H ) :   0.9717 B(  7-C , 12-H ) :   0.9772

Dispersion correction           -0.003283612
FINAL SINGLE POINT ENERGY      -331.373089351971

DIPOLE MOMENT
-------------
                                X             Y             Z
Electronic contribution:      2.61679      -0.71947     -10.74627
Nuclear contribution   :     -2.39146       1.63977      11.24418
                        -----------------------------------------
Total Dipole Moment    :      0.22534       0.92030       0.49791
                        -----------------------------------------
Magnitude (a.u.)       :      1.07035
Magnitude (Debye)      :      2.72060

Rotational constants in cm-1:     0.198868     0.077542     0.072498
Rotational constants in MHz :  5961.919605  2324.650173  2173.425242

                             ****ORCA TERMINATED NORMALLY****
TOTAL RUN TIME: 0 days 0 hours 0 minutes 7 seconds 50 msec
