                         Program Version 5.0.0 -  RELEASE  -
|  1> !wB97X-D3 RIJCOSX def2-SVP def2/J TightSCF
|  2> *xyz 0 1
|  3> C          2.23447       -2.98975       -2.39762
|  4> C          2.75680       -2.94555       -3.76503
|  5> C          1.98721       -2.59045       -4.81898
|  6> N          0.74322       -3.01749       -4.91352
|  7> N          2.49964       -1.84860       -5.80324
|  8> H          3.30978       -1.29282       -5.55895
|  9> H          1.80103       -1.30430       -6.28913
| 10> H          3.71612       -2.62880       -3.82953
| 11> H          0.39583       -3.62775       -4.18502
| 12> H          0.03920       -2.45438       -5.37137
| 13> C          2.19120       -1.61950       -1.71549
| 14> H          2.87278       -3.66637       -1.82801
| 15> H          1.24619       -3.44744       -2.40784
| 16> C          1.29873       -0.55431       -2.35977
| 17> H          1.87292       -1.78796       -0.68131
| 18> H          3.21681       -1.23843       -1.65443
| 19> H          1.61097       -0.39090       -3.37007
| 20> H          1.37981        0.35955       -1.80916
| 21> H          0.28197       -0.88750       -2.35015
| 22> *
| 23>
| 24> %MaxCore 64000
| 25>
| 26> %pal nprocs 18
| 27> end
| 28>
| 29> %scf
| 30>   MaxIter 150
| 31> end
| 32>
| 33>
| 34>                          ****END OF INPUT****

CARTESIAN COORDINATES (ANGSTROEM)
---------------------------------
  C      2.234470   -2.989750   -2.397620
  C      2.756800   -2.945550   -3.765030
  C      1.987210   -2.590450   -4.818980
  N      0.743220   -3.017490   -4.913520
  N      2.499640   -1.848600   -5.803240
  H      3.309780   -1.292820   -5.558950
  H      1.801030   -1.304300   -6.289130
  H      3.716120   -2.628800   -3.829530
  H      0.395830   -3.627750   -4.185020
  H      0.039200   -2.454380   -5.371370
  C      2.191200   -1.619500   -1.715490
  H      2.872780   -3.666370   -1.828010
  H      1.246190   -3.447440   -2.407840
  C      1.298730   -0.554310   -2.359770
  H      1.872920   -1.787960   -0.681310
  H      3.216810   -1.238430   -1.654430
  H      1.610970   -0.390900   -3.370070
  H      1.379810    0.359550   -1.809160
  H      0.281970   -0.887500   -2.350150

 Total Charge           Charge          ....    0
 Multiplicity           Mult            ....    1
 Number of Electrons    NEL             ....   56
 Basis Dimension        Dim             ....  158

ORBITAL ENERGIES
----------------

  NO   OCC          E(Eh)            E(eV)
   0   2.0000     -14.436791      -392.8451
   1   2.0000     -14.432391      -392.7253
   2   2.0000     -10.333860      -281.1986
   3   2.0000     -10.267218      -279.3852
   4   2.0000     -10.264552      -279.3127
   5   2.0000     -10.261817      -279.2382
   6   2.0000     -10.204738      -277.6850
   7   2.0000      -1.075973       -29.2787
   8   2.0000      -0.981152       -26.6985
   9   2.0000      -0.893695       -24.3187
  10   2.0000      -0.826536       -22.4912
  11   2.0000      -0.763985       -20.7891
  12   2.0000      -0.701215       -19.0810
  13   2.0000      -0.668159       -18.1815
  14   2.0000      -0.641538       -17.4571
  15   2.0000      -0.605295       -16.4709
  16   2.0000      -0.565255       -15.3814
  17   2.0000      -0.547728       -14.9044
  18   2.0000      -0.537752       -14.6330
  19   2.0000      -0.508389       -13.8340
  20   2.0000      -0.482126       -13.1193
  21   2.0000      -0.468731       -12.7548
  22   2.0000      -0.444007       -12.0820
  23   2.0000      -0.430465       -11.7135
  24   2.0000      -0.406205       -11.0534
  25   2.0000      -0.401524       -10.9260
  26   2.0000      -0.364552        -9.9200
  27   2.0000      -0.239008        -6.5037
  28   0.0000       0.117377         3.1940
  29   0.0000       0.153883         4.1874
  30   0.0000       0.164276         4.4702
  31   0.0000       0.167288         4.5521
  32   0.0000       0.187353         5.0981

MULLIKEN ATOMIC CHARGES
-----------------------
   0 C :    0.014383
   1 C :   -0.131586
   2 C :   -0.095514
   3 N :   -0.087546
   4 N :   -0.079303
   5 H :    0.127785
   6 H :    0.106968
   7 H :   -0.083638
   8 H :    0.129584
   9 H :    0.113746
  10 C :   -0.053007
  11 H :    0.011811
  12 H :   -0.025646
  13 C :   -0.005071
  14 H :    0.011184
  15 H :    0.006886
  16 H :    0.008804
  17 H :    0.024579
  18 H :    0.005580
Sum of atomic charges:   -0.0000000

LOEWDIN ATOMIC CHARGES
----------------------
   0 C :   -0.039765
   1 C :   -0.234033
   2 C :    0.025075
   3 N :   -0.013132
   4 N :   -0.025596
   5 H :    0.079639
   6 H :    0.065098
   7 H :   -0.013984
   8 H :    0.081458
   9 H :    0.066351
  10 C :   -0.043637
  11 H :    0.022532
  12 H :    0.004937
  13 C :   -0.059524
  14 H :    0.015743
  15 H :    0.017595
  16 H :    0.013333
  17 H :    0.022553
  18 H :    0.015358

  Mayer bond orders larger than 0.100000
B(  0-C ,  1-C ) :   1.0796 B(  0-C , 10-C ) :   1.0640 B(  0-C , 11-H ) :   0.9334
B(  0-C , 12-H ) :   0.9480 B(  1-C ,  2-C ) :   1.6786 B(  1-C ,  7-H ) :   0.9337
B(  2-C ,  3-N ) :   1.2631 B(  2-C ,  4-N ) :   1.2091 B(  3-N ,  8-H ) :   0.9453
B(  3-N ,  9-H ) :   0.9443 B(  4-N ,  5-H ) :   0.9478 B(  4-N ,  6-H ) :   0.9579
B( 10-C , 13-C ) :   1.0888 B( 10-C , 14-H ) :   0.9506 B( 10-C , 15-H ) :   0.9515
B( 13-C , 16-H ) :   0.9650 B( 13-C , 17-H ) :   0.9718 B( 13-C , 18-H ) :   0.9731

Dispersion correction           -0.006035613
FINAL SINGLE POINT ENERGY      -306.914157573930

DIPOLE MOMENT
-------------
                                X             Y             Z
Electronic contribution:      0.48148      -2.79635      -5.16199
Nuclear contribution   :     -1.30515       3.65216       4.73330
                        -----------------------------------------
Total Dipole Moment    :     -0.82367       0.85581      -0.42868
                        -----------------------------------------
Magnitude (a.u.)       :      1.26278
Magnitude (Debye)      :      3.20973

Rotational constants in cm-1:     0.129987     0.058163     0.054282
Rotational constants in MHz :  3896.918182  1743.696851  1627.337267

                             ****ORCA TERMINATED NORMALLY****
TOTAL RUN TIME: 0 days 0 hours 0 minutes 12 seconds 372 msec
