                         Program Version 5.0.0 -  RELEASE  -
|  1> !wB97X-D3 RIJCOSX def2-SVP def2/J TightSCF
|  2> *xyz 0 1
|  3> C         -1.10433        0.25137       -2.86006
|  4> C         -0.71189        0.84252       -4.21834
|  5> H          0.15463        1.49980       -4.13091
|  6> H         -1.53813        1.45922       -4.58267
|  7> C         -0.39762       -0.20587       -5.28802
|  8> O          0.61717       -0.00535       -5.99827
|  9> F         -1.13317       -1.22138       -5.34147
| 10> C         -0.19626       -0.86337       -2.32576
| 11> H         -1.14384        1.06671       -2.12968
| 12> H         -2.11440       -0.15683       -2.93032
| 13> H         -0.15538       -1.66172       -3.03700
| 14> H         -0.58845       -1.22999       -1.40020
| 15> H          0.78852       -0.47602       -2.16737
| 16> *
| 17>
| 18> %MaxCore 64000
| 19>
| 20> %pal nprocs 18
| 21> end
| 22>
| 23> %scf
| 24>   MaxIter 150
| 25> end
| 26>
| 27>
| 28>                          ****END OF INPUT****

CARTESIAN COORDINATES (ANGSTROEM)
---------------------------------
  C     -1.104330    0.251370   -2.860060
  C     -0.711890    0.842520   -4.218340
  H      0.154630    1.499800   -4.130910
  H     -1.538130    1.459220   -4.582670
  C     -0.397620   -0.205870   -5.288020
  O      0.617170   -0.005350   -5.998270
  F     -1.133170   -1.221380   -5.341470
  C     -0.196260   -0.863370   -2.325760
  H     -1.143840    1.066710   -2.129680
  H     -2.114400   -0.156830   -2.930320
  H     -0.155380   -1.661720   -3.037000
  H     -0.588450   -1.229990   -1.400200
  H      0.788520   -0.476020   -2.167370

 Total Charge           Charge          ....    0
 Multiplicity           Mult            ....    1
 Number of Electrons    NEL             ....   48
 Basis Dimension        Dim             ....  119

ORBITAL ENERGIES
----------------

  NO   OCC          E(Eh)            E(eV)
   0   2.0000     -24.860408      -676.4861
   1   2.0000     -19.239342      -523.5291
   2   2.0000     -10.462403      -284.6964
   3   2.0000     -10.315097      -280.6881
   4   2.0000     -10.305072      -280.4153
   5   2.0000     -10.285307      -279.8774
   6   2.0000      -1.415842       -38.5270
   7   2.0000      -1.131412       -30.7873
   8   2.0000      -0.925343       -25.1799
   9   2.0000      -0.836169       -22.7533
  10   2.0000      -0.762845       -20.7581
  11   2.0000      -0.719522       -19.5792
  12   2.0000      -0.652232       -17.7481
  13   2.0000      -0.642760       -17.4904
  14   2.0000      -0.587955       -15.9991
  15   2.0000      -0.572752       -15.5854
  16   2.0000      -0.553537       -15.0625
  17   2.0000      -0.516056       -14.0426
  18   2.0000      -0.496427       -13.5085
  19   2.0000      -0.470568       -12.8048
  20   2.0000      -0.457774       -12.4567
  21   2.0000      -0.444702       -12.1010
  22   2.0000      -0.433271       -11.7899
  23   2.0000      -0.378024       -10.2866
  24   0.0000       0.067466         1.8358
  25   0.0000       0.134605         3.6628
  26   0.0000       0.180913         4.9229
  27   0.0000       0.184262         5.0140
  28   0.0000       0.201740         5.4896

MULLIKEN ATOMIC CHARGES
-----------------------
   0 C :   -0.124259
   1 C :   -0.073204
   2 H :    0.068159
   3 H :    0.069067
   4 C :    0.247567
   5 O :   -0.263487
   6 F :   -0.083467
   7 C :   -0.033757
   8 H :    0.042124
   9 H :    0.038557
  10 H :    0.037560
  11 H :    0.038750
  12 H :    0.036391
Sum of atomic charges:   -0.0000000

LOEWDIN ATOMIC CHARGES
----------------------
   0 C :   -0.046755
   1 C :   -0.072322
   2 H :    0.046729
   3 H :    0.048856
   4 C :    0.108750
   5 O :   -0.199679
   6 F :    0.040923
   7 C :   -0.057267
   8 H :    0.030951
   9 H :    0.024784
  10 H :    0.020368
  11 H :    0.029280
  12 H :    0.025384

  Mayer bond orders larger than 0.100000
B(  0-C ,  1-C ) :   1.0433 B(  0-C ,  7-C ) :   1.0847 B(  0-C ,  8-H ) :   0.9556
B(  0-C ,  9-H ) :   0.9554 B(  1-C ,  2-H ) :   0.9511 B(  1-C ,  3-H ) :   0.9324
B(  1-C ,  4-C ) :   0.9947 B(  4-C ,  5-O ) :   2.0894 B(  4-C ,  6-F ) :   1.1758
B(  7-C , 10-H ) :   0.9695 B(  7-C , 11-H ) :   0.9721 B(  7-C , 12-H ) :   0.9763

Dispersion correction           -0.003297995
FINAL SINGLE POINT ENERGY      -331.372041496133

DIPOLE MOMENT
-------------
                                X             Y             Z
Electronic contribution:     -0.31997      -2.75853      -9.58790
Nuclear contribution   :     -0.41432       3.01336      10.50227
                        -----------------------------------------
Total Dipole Moment    :     -0.73429       0.25483       0.91437
                        -----------------------------------------
Magnitude (a.u.)       :      1.20008
Magnitude (Debye)      :      3.05037

Rotational constants in cm-1:     0.192167     0.080512     0.073747
Rotational constants in MHz :  5761.018137  2413.690728  2210.882638

                             ****ORCA TERMINATED NORMALLY****
TOTAL RUN TIME: 0 days 0 hours 0 minutes 6 seconds 584 msec
