                         Program Version 5.0.0 -  RELEASE  -
|  1> !wB97X-D3 RIJCOSX def2-SVP def2/J TightSCF
|  2> *xyz 0 1
|  3> C          2.23447       -2.98975       -2.39762
|  4> N          2.75680       -2.94555       -3.76503
|  5> C          1.98721       -2.59045       -4.81898
|  6> C          0.74322       -3.01749       -4.91352
|  7> N          2.49964       -1.84860       -5.80324
|  8> H          3.30978       -1.29282       -5.55895
|  9> H          1.80103       -1.30430       -6.28913
| 10> H          3.71612       -2.62880       -3.82953
| 11> H          0.39583       -3.62775       -4.18502
| 12> H          0.03920       -2.45438       -5.37137
| 13> C          2.19120       -1.61950       -1.71549
| 14> H          2.87278       -3.66637       -1.82801
| 15> H          1.24619       -3.44744       -2.40784
| 16> C          1.29873       -0.55431       -2.35977
| 17> H          1.87292       -1.78796       -0.68131
| 18> H          3.21681       -1.23843       -1.65443
| 19> H          1.61097       -0.39090       -3.37007
| 20> H          1.37981        0.35955       -1.80916
| 21> H          0.28197       -0.88750       -2.35015
| 22> *
| 23>
| 24> %MaxCore 64000
| 25>
| 26> %pal nprocs 18
| 27> end
| 28>
| 29> %scf
| 30>   MaxIter 150
| 31> end
| 32>
| 33>
| 34>                          ****END OF INPUT****

CARTESIAN COORDINATES (ANGSTROEM)
---------------------------------
  C      2.234470   -2.989750   -2.397620
  N      2.756800   -2.945550   -3.765030
  C      1.987210   -2.590450   -4.818980
  C      0.743220   -3.017490   -4.913520
  N      2.499640   -1.848600   -5.803240
  H      3.309780   -1.292820   -5.558950
  H      1.801030   -1.304300   -6.289130
  H      3.716120   -2.628800   -3.829530
  H      0.395830   -3.627750   -4.185020
  H      0.039200   -2.454380   -5.371370
  C      2.191200   -1.619500   -1.715490
  H      2.872780   -3.666370   -1.828010
  H      1.246190   -3.447440   -2.407840
  C      1.298730   -0.554310   -2.359770
  H      1.872920   -1.787960   -0.681310
  H      3.216810   -1.238430   -1.654430
  H      1.610970   -0.390900   -3.370070
  H      1.379810    0.359550   -1.809160
  H      0.281970   -0.887500   -2.350150

 Total Charge           Charge          ....    0
 Multiplicity           Mult            ....    1
 Number of Electrons    NEL             ....   56
 Basis Dimension        Dim             ....  158

ORBITAL ENERGIES
----------------

  NO   OCC          E(Eh)            E(eV)
   0   2.0000     -14.431405      -392.6985
   1   2.0000     -14.431284      -392.6952
   2   2.0000     -10.330411      -281.1048
   3   2.0000     -10.317958      -280.7659
   4   2.0000     -10.287619      -279.9403
   5   2.0000     -10.273689      -279.5613
   6   2.0000     -10.199749      -277.5493
   7   2.0000      -1.073684       -29.2164
   8   2.0000      -0.992426       -27.0053
   9   2.0000      -0.886489       -24.1226
  10   2.0000      -0.823518       -22.4091
  11   2.0000      -0.793101       -21.5814
  12   2.0000      -0.707850       -19.2616
  13   2.0000      -0.660328       -17.9684
  14   2.0000      -0.640861       -17.4387
  15   2.0000      -0.607889       -16.5415
  16   2.0000      -0.570343       -15.5198
  17   2.0000      -0.554574       -15.0907
  18   2.0000      -0.522967       -14.2307
  19   2.0000      -0.506953       -13.7949
  20   2.0000      -0.495165       -13.4741
  21   2.0000      -0.473159       -12.8753
  22   2.0000      -0.459852       -12.5132
  23   2.0000      -0.449112       -12.2210
  24   2.0000      -0.436656       -11.8820
  25   2.0000      -0.426522       -11.6063
  26   2.0000      -0.340324        -9.2607
  27   2.0000      -0.256190        -6.9713
  28   0.0000       0.122782         3.3411
  29   0.0000       0.149070         4.0564
  30   0.0000       0.158763         4.3202
  31   0.0000       0.175499         4.7756
  32   0.0000       0.191404         5.2084

MULLIKEN ATOMIC CHARGES
-----------------------
   0 C :    0.104224
   1 N :   -0.214189
   2 C :   -0.015078
   3 C :   -0.119121
   4 N :   -0.089062
   5 H :    0.097692
   6 H :    0.128468
   7 H :    0.104235
   8 H :   -0.033282
   9 H :   -0.033875
  10 C :   -0.107788
  11 H :    0.028628
  12 H :    0.040778
  13 C :    0.000156
  14 H :    0.025849
  15 H :    0.012102
  16 H :    0.014563
  17 H :    0.026877
  18 H :    0.028824
Sum of atomic charges:    0.0000000

LOEWDIN ATOMIC CHARGES
----------------------
   0 C :    0.041736
   1 N :   -0.047502
   2 C :    0.035245
   3 C :   -0.235636
   4 N :   -0.029459
   5 H :    0.057842
   6 H :    0.082773
   7 H :    0.061094
   8 H :   -0.006315
   9 H :   -0.005898
  10 C :   -0.056418
  11 H :    0.022971
  12 H :    0.028738
  13 C :   -0.054269
  14 H :    0.024953
  15 H :    0.015746
  16 H :    0.016315
  17 H :    0.023014
  18 H :    0.025069

  Mayer bond orders larger than 0.100000
B(  0-C ,  1-N ) :   0.9917 B(  0-C , 10-C ) :   1.0711 B(  0-C , 11-H ) :   0.9586
B(  0-C , 12-H ) :   0.9531 B(  1-N ,  2-C ) :   1.1535 B(  1-N ,  7-H ) :   0.9366
B(  2-C ,  3-C ) :   1.7693 B(  2-C ,  4-N ) :   1.2054 B(  3-C ,  8-H ) :   0.9521
B(  3-C ,  9-H ) :   0.9536 B(  4-N ,  5-H ) :   0.9512 B(  4-N ,  6-H ) :   0.9498
B( 10-C , 13-C ) :   1.0850 B( 10-C , 14-H ) :   0.9491 B( 10-C , 15-H ) :   0.9529
B( 13-C , 16-H ) :   0.9644 B( 13-C , 17-H ) :   0.9715 B( 13-C , 18-H ) :   0.9752

Dispersion correction           -0.006060786
FINAL SINGLE POINT ENERGY      -306.908728028978

DIPOLE MOMENT
-------------
                                X             Y             Z
Electronic contribution:      2.41438      -2.63531      -3.94698
Nuclear contribution   :     -1.74624       3.63640       4.48172
                        -----------------------------------------
Total Dipole Moment    :      0.66815       1.00109       0.53474
                        -----------------------------------------
Magnitude (a.u.)       :      1.31703
Magnitude (Debye)      :      3.34761

Rotational constants in cm-1:     0.131012     0.059513     0.054636
Rotational constants in MHz :  3927.631151  1784.169731  1637.945644

                             ****ORCA TERMINATED NORMALLY****
TOTAL RUN TIME: 0 days 0 hours 0 minutes 11 seconds 921 msec
