                         Program Version 5.0.0 -  RELEASE  -
|  1> !wB97X-D3 RIJCOSX def2-SVP def2/J TightSCF
|  2> *xyz 0 1
|  3> C          2.23447       -2.98975       -2.39762
|  4> N          2.75680       -2.94555       -3.76503
|  5> C          1.98721       -2.59045       -4.81898
|  6> N          0.74322       -3.01749       -4.91352
|  7> C          2.49964       -1.84860       -5.80324
|  8> H          3.30978       -1.29282       -5.55895
|  9> H          1.80103       -1.30430       -6.28913
| 10> H          3.71612       -2.62880       -3.82953
| 11> H          0.39583       -3.62775       -4.18502
| 12> H          0.03920       -2.45438       -5.37137
| 13> C          2.19120       -1.61950       -1.71549
| 14> H          2.87278       -3.66637       -1.82801
| 15> H          1.24619       -3.44744       -2.40784
| 16> C          1.29873       -0.55431       -2.35977
| 17> H          1.87292       -1.78796       -0.68131
| 18> H          3.21681       -1.23843       -1.65443
| 19> H          1.61097       -0.39090       -3.37007
| 20> H          1.37981        0.35955       -1.80916
| 21> H          0.28197       -0.88750       -2.35015
| 22> *
| 23>
| 24> %MaxCore 64000
| 25>
| 26> %pal nprocs 18
| 27> end
| 28>
| 29> %scf
| 30>   MaxIter 150
| 31> end
| 32>
| 33>
| 34>                          ****END OF INPUT****

CARTESIAN COORDINATES (ANGSTROEM)
---------------------------------
  C      2.234470   -2.989750   -2.397620
  N      2.756800   -2.945550   -3.765030
  C      1.987210   -2.590450   -4.818980
  N      0.743220   -3.017490   -4.913520
  C      2.499640   -1.848600   -5.803240
  H      3.309780   -1.292820   -5.558950
  H      1.801030   -1.304300   -6.289130
  H      3.716120   -2.628800   -3.829530
  H      0.395830   -3.627750   -4.185020
  H      0.039200   -2.454380   -5.371370
  C      2.191200   -1.619500   -1.715490
  H      2.872780   -3.666370   -1.828010
  H      1.246190   -3.447440   -2.407840
  C      1.298730   -0.554310   -2.359770
  H      1.872920   -1.787960   -0.681310
  H      3.216810   -1.238430   -1.654430
  H      1.610970   -0.390900   -3.370070
  H      1.379810    0.359550   -1.809160
  H      0.281970   -0.887500   -2.350150

 Total Charge           Charge          ....    0
 Multiplicity           Mult            ....    1
 Number of Electrons    NEL             ....   56
 Basis Dimension        Dim             ....  158

ORBITAL ENERGIES
----------------

  NO   OCC          E(Eh)            E(eV)
   0   2.0000     -14.434348      -392.7786
   1   2.0000     -14.430495      -392.6737
   2   2.0000     -10.335073      -281.2316
   3   2.0000     -10.327085      -281.0143
   4   2.0000     -10.290837      -280.0279
   5   2.0000     -10.275707      -279.6162
   6   2.0000     -10.195517      -277.4341
   7   2.0000      -1.075750       -29.2726
   8   2.0000      -0.992080       -26.9959
   9   2.0000      -0.893663       -24.3178
  10   2.0000      -0.832909       -22.6646
  11   2.0000      -0.778837       -21.1932
  12   2.0000      -0.702768       -19.1233
  13   2.0000      -0.700318       -19.0566
  14   2.0000      -0.638786       -17.3823
  15   2.0000      -0.590239       -16.0612
  16   2.0000      -0.585941       -15.9443
  17   2.0000      -0.549734       -14.9590
  18   2.0000      -0.545300       -14.8384
  19   2.0000      -0.502136       -13.6638
  20   2.0000      -0.485199       -13.2029
  21   2.0000      -0.474836       -12.9210
  22   2.0000      -0.459236       -12.4964
  23   2.0000      -0.452268       -12.3068
  24   2.0000      -0.436453       -11.8765
  25   2.0000      -0.434512       -11.8237
  26   2.0000      -0.342572        -9.3218
  27   2.0000      -0.251964        -6.8563
  28   0.0000       0.123617         3.3638
  29   0.0000       0.146052         3.9743
  30   0.0000       0.153075         4.1654
  31   0.0000       0.171143         4.6570
  32   0.0000       0.182107         4.9554

MULLIKEN ATOMIC CHARGES
-----------------------
   0 C :    0.073928
   1 N :   -0.199769
   2 C :   -0.045603
   3 N :   -0.110507
   4 C :   -0.067993
   5 H :   -0.050813
   6 H :   -0.046319
   7 H :    0.127303
   8 H :    0.112701
   9 H :    0.139918
  10 C :   -0.093269
  11 H :    0.034639
  12 H :    0.010874
  13 C :   -0.015480
  14 H :    0.023940
  15 H :    0.023077
  16 H :    0.039434
  17 H :    0.032594
  18 H :    0.011346
Sum of atomic charges:    0.0000000

LOEWDIN ATOMIC CHARGES
----------------------
   0 C :    0.030198
   1 N :   -0.048312
   2 C :    0.044601
   3 N :   -0.012267
   4 C :   -0.263263
   5 H :   -0.012912
   6 H :   -0.007901
   7 H :    0.080653
   8 H :    0.064986
   9 H :    0.085330
  10 C :   -0.056888
  11 H :    0.025197
  12 H :    0.014079
  13 C :   -0.058216
  14 H :    0.023385
  15 H :    0.021200
  16 H :    0.026144
  17 H :    0.026399
  18 H :    0.017585

  Mayer bond orders larger than 0.100000
B(  0-C ,  1-N ) :   1.0122 B(  0-C , 10-C ) :   1.0536 B(  0-C , 11-H ) :   0.9576
B(  0-C , 12-H ) :   0.9565 B(  1-N ,  2-C ) :   1.1749 B(  1-N ,  7-H ) :   0.9311
B(  2-C ,  3-N ) :   1.2138 B(  2-C ,  4-C ) :   1.7448 B(  3-N ,  8-H ) :   0.9558
B(  3-N ,  9-H ) :   0.9469 B(  4-C ,  5-H ) :   0.9501 B(  4-C ,  6-H ) :   0.9545
B( 10-C , 13-C ) :   1.0827 B( 10-C , 14-H ) :   0.9489 B( 10-C , 15-H ) :   0.9525
B( 13-C , 16-H ) :   0.9604 B( 13-C , 17-H ) :   0.9712 B( 13-C , 18-H ) :   0.9759

Dispersion correction           -0.006083774
FINAL SINGLE POINT ENERGY      -306.904503599611

DIPOLE MOMENT
-------------
                                X             Y             Z
Electronic contribution:      0.70588      -3.85774      -3.04484
Nuclear contribution   :     -1.36148       3.89245       4.28682
                        -----------------------------------------
Total Dipole Moment    :     -0.65560       0.03472       1.24198
                        -----------------------------------------
Magnitude (a.u.)       :      1.40483
Magnitude (Debye)      :      3.57079

Rotational constants in cm-1:     0.130039     0.059901     0.055416
Rotational constants in MHz :  3898.472533  1795.778295  1661.317267

                             ****ORCA TERMINATED NORMALLY****
TOTAL RUN TIME: 0 days 0 hours 0 minutes 10 seconds 377 msec
