                         Program Version 5.0.0 -  RELEASE  -
|  1> !wB97X-D3 RIJCOSX def2-SVP def2/J TightSCF xyzfile
|  2>
|  3> *xyzfile 0 1 D1.xyz
|  4>
|  5> %MaxCore 64000
|  6>
|  7> %pal nprocs 18
|  8> end
|  9>
| 10> %scf
| 11>   MaxIter 150
| 12> end
| 13>
| 14>
| 15>                          ****END OF INPUT****

CARTESIAN COORDINATES (ANGSTROEM)
---------------------------------
  C      2.234473   -2.989754   -2.397622
  C      2.756799   -2.945553   -3.765029
  C     -1.104325    0.251374   -2.860056
  C     -0.711893    0.842517   -4.218344
  H      0.154626    1.499800   -4.130909
  H     -1.538134    1.459222   -4.582671
  C     -0.397624   -0.205875   -5.288018
  C      1.987208   -2.590451   -4.818975
  N      0.743221   -3.017493   -4.913524
  N      2.499636   -1.848598   -5.803241
  H      3.309780   -1.292818   -5.558947
  H      1.801025   -1.304298   -6.289129
  H      3.716116   -2.628797   -3.829533
  H      0.395828   -3.627747   -4.185024
  H      0.039201   -2.454383   -5.371367
  F      0.617165   -0.005348   -5.998273
  O     -1.133173   -1.221380   -5.341465
  C      2.191199   -1.619503   -1.715492
  H      2.872783   -3.666368   -1.828014
  H      1.246188   -3.447444   -2.407842
  C      1.298729   -0.554314   -2.359773
  H      1.872917   -1.787955   -0.681310
  H      3.216809   -1.238432   -1.654428
  C     -0.196255   -0.863365   -2.325763
  H      1.612531   -0.371346   -3.393065
  H      1.480944    0.388638   -1.834444
  H     -0.404105   -1.761825   -2.909448
  H     -0.490439   -1.087880   -1.294131
  H     -1.143842    1.066711   -2.129680
  H     -2.114401   -0.156834   -2.930323

 Total Charge           Charge          ....    0
 Multiplicity           Mult            ....    1
 Number of Electrons    NEL             ....  102
 Basis Dimension        Dim             ....  267

ORBITAL ENERGIES
----------------

  NO   OCC          E(Eh)            E(eV)
   0   2.0000     -24.901632      -677.6079
   1   2.0000     -19.279190      -524.6134
   2   2.0000     -14.417735      -392.3265
   3   2.0000     -14.409734      -392.1088
   4   2.0000     -10.499325      -285.7012
   5   2.0000     -10.334269      -281.2098
   6   2.0000     -10.322265      -280.8831
   7   2.0000     -10.308857      -280.5183
   8   2.0000     -10.287850      -279.9466
   9   2.0000     -10.283792      -279.8362
  10   2.0000     -10.269538      -279.4483
  11   2.0000     -10.257927      -279.1324
  12   2.0000     -10.194053      -277.3943
  13   2.0000      -1.458438       -39.6861
  14   2.0000      -1.176462       -32.0132
  15   2.0000      -1.062037       -28.8995
  16   2.0000      -0.966214       -26.2920
  17   2.0000      -0.942703       -25.6523
  18   2.0000      -0.899340       -24.4723
  19   2.0000      -0.861263       -23.4362
  20   2.0000      -0.816212       -22.2103
  21   2.0000      -0.794680       -21.6244
  22   2.0000      -0.757644       -20.6165
  23   2.0000      -0.718620       -19.5547
  24   2.0000      -0.696390       -18.9497
  25   2.0000      -0.684422       -18.6241
  26   2.0000      -0.673088       -18.3157
  27   2.0000      -0.652314       -17.7504
  28   2.0000      -0.644666       -17.5423
  29   2.0000      -0.617069       -16.7913
  30   2.0000      -0.591829       -16.1045
  31   2.0000      -0.583281       -15.8719
  32   2.0000      -0.576817       -15.6960
  33   2.0000      -0.552744       -15.0409
  34   2.0000      -0.542562       -14.7639
  35   2.0000      -0.535958       -14.5842
  36   2.0000      -0.520937       -14.1754
  37   2.0000      -0.507197       -13.8015
  38   2.0000      -0.490613       -13.3503
  39   2.0000      -0.482744       -13.1361
  40   2.0000      -0.472264       -12.8510
  41   2.0000      -0.461895       -12.5688
  42   2.0000      -0.451983       -12.2991
  43   2.0000      -0.439988       -11.9727
  44   2.0000      -0.429493       -11.6871
  45   2.0000      -0.419468       -11.4143
  46   2.0000      -0.408099       -11.1049
  47   2.0000      -0.401101       -10.9145
  48   2.0000      -0.394313       -10.7298
  49   2.0000      -0.346222        -9.4212
  50   2.0000      -0.228183        -6.2092
  51   0.0000       0.026897         0.7319
  52   0.0000       0.126091         3.4311
  53   0.0000       0.151150         4.1130
  54   0.0000       0.155371         4.2278
  55   0.0000       0.159867         4.3502

MULLIKEN ATOMIC CHARGES
-----------------------
   0 C :    0.016074
   1 C :   -0.132147
   2 C :   -0.005935
   3 C :   -0.082514
   4 H :    0.053836
   5 H :    0.082526
   6 C :    0.286615
   7 C :   -0.118328
   8 N :   -0.079856
   9 N :   -0.079054
  10 H :    0.121362
  11 H :    0.097753
  12 H :   -0.092195
  13 H :    0.128130
  14 H :    0.112944
  15 F :   -0.081253
  16 O :   -0.274244
  17 C :    0.021724
  18 H :    0.009286
  19 H :   -0.020788
  20 C :   -0.027657
  21 H :    0.004399
  22 H :    0.005630
  23 C :   -0.065377
  24 H :   -0.008897
  25 H :    0.012478
  26 H :    0.006140
  27 H :    0.026463
  28 H :    0.037631
  29 H :    0.045254
Sum of atomic charges:   -0.0000000

LOEWDIN ATOMIC CHARGES
----------------------
   0 C :   -0.039648
   1 C :   -0.244531
   2 C :   -0.027259
   3 C :   -0.068365
   4 H :    0.035095
   5 H :    0.058806
   6 C :    0.137991
   7 C :    0.021623
   8 N :   -0.011551
   9 N :   -0.032163
  10 H :    0.074739
  11 H :    0.039090
  12 H :   -0.017347
  13 H :    0.076611
  14 H :    0.029017
  15 F :    0.068938
  16 O :   -0.173535
  17 C :   -0.037230
  18 H :    0.022334
  19 H :    0.006077
  20 C :   -0.044533
  21 H :    0.015940
  22 H :    0.020578
  23 C :   -0.046115
  24 H :    0.007966
  25 H :    0.020385
  26 H :    0.013877
  27 H :    0.028604
  28 H :    0.031097
  29 H :    0.033507

  Mayer bond orders larger than 0.100000
B(  0-C ,  1-C ) :   1.0862 B(  0-C , 17-C ) :   1.0603 B(  0-C , 18-H ) :   0.9302
B(  0-C , 19-H ) :   0.9480 B(  1-C ,  7-C ) :   1.6622 B(  1-C , 12-H ) :   0.9310
B(  2-C ,  3-C ) :   1.0587 B(  2-C , 23-C ) :   1.0890 B(  2-C , 28-H ) :   0.9487
B(  2-C , 29-H ) :   0.9453 B(  3-C ,  4-H ) :   0.9379 B(  3-C ,  5-H ) :   0.9207
B(  3-C ,  6-C ) :   0.9967 B(  6-C , 15-F ) :   1.1444 B(  6-C , 16-O ) :   1.9676
B(  7-C ,  8-N ) :   1.2948 B(  7-C ,  9-N ) :   1.2092 B(  8-N , 13-H ) :   0.9407
B(  8-N , 14-H ) :   0.9088 B(  9-N , 10-H ) :   0.9475 B(  9-N , 11-H ) :   0.9524
B( 14-H , 16-O ) :   0.1035 B( 17-C , 20-C ) :   1.0832 B( 17-C , 21-H ) :   0.9420
B( 17-C , 22-H ) :   0.9434 B( 20-C , 23-C ) :   1.0620 B( 20-C , 24-H ) :   0.9224
B( 20-C , 25-H ) :   0.9476 B( 23-C , 26-H ) :   0.9312 B( 23-C , 27-H ) :   0.9452

Dispersion correction           -0.015947558
FINAL SINGLE POINT ENERGY      -637.093277878587

DIPOLE MOMENT
-------------
                                X             Y             Z
Electronic contribution:     -3.15738       2.26698     -14.69487
Nuclear contribution   :      2.31842      -0.27661      14.74721
                        -----------------------------------------
Total Dipole Moment    :     -0.83896       1.99037       0.05234
                        -----------------------------------------
Magnitude (a.u.)       :      2.16060
Magnitude (Debye)      :      5.49180

Rotational constants in cm-1:     0.032691     0.023990     0.017099
Rotational constants in MHz :   980.050971   719.190545   512.606858

                             ****ORCA TERMINATED NORMALLY****
TOTAL RUN TIME: 0 days 0 hours 0 minutes 30 seconds 256 msec
