                         Program Version 5.0.0 -  RELEASE  -
|  1> !wB97X-D3 RIJCOSX def2-SVP def2/J TightSCF xyzfile
|  2>
|  3> *xyzfile 0 1 D5.xyz
|  4>
|  5> %MaxCore 64000
|  6>
|  7> %pal nprocs 18
|  8> end
|  9>
| 10> %scf
| 11>   MaxIter 150
| 12> end
| 13>
| 14>
| 15>                          ****END OF INPUT****

CARTESIAN COORDINATES (ANGSTROEM)
---------------------------------
  C      2.234473   -2.989754   -2.397622
  N      2.756799   -2.945553   -3.765029
  C     -1.104325    0.251374   -2.860056
  C     -0.711893    0.842517   -4.218344
  H      0.154626    1.499800   -4.130909
  H     -1.538134    1.459222   -4.582671
  C     -0.397624   -0.205875   -5.288018
  C      1.987208   -2.590451   -4.818975
  C      0.743221   -3.017493   -4.913524
  N      2.499636   -1.848598   -5.803241
  H      3.309780   -1.292818   -5.558947
  H      1.801025   -1.304298   -6.289129
  H      3.716116   -2.628797   -3.829533
  H      0.395828   -3.627747   -4.185024
  H      0.039201   -2.454383   -5.371367
  O      0.617165   -0.005348   -5.998273
  F     -1.133173   -1.221380   -5.341465
  C      2.191199   -1.619503   -1.715492
  H      2.872783   -3.666368   -1.828014
  H      1.246188   -3.447444   -2.407842
  C      1.298729   -0.554314   -2.359773
  H      1.872917   -1.787955   -0.681310
  H      3.216809   -1.238432   -1.654428
  C     -0.196255   -0.863365   -2.325763
  H      1.612531   -0.371346   -3.393065
  H      1.480944    0.388638   -1.834444
  H     -0.404105   -1.761825   -2.909448
  H     -0.490439   -1.087880   -1.294131
  H     -1.143842    1.066711   -2.129680
  H     -2.114401   -0.156834   -2.930323

 Total Charge           Charge          ....    0
 Multiplicity           Mult            ....    1
 Number of Electrons    NEL             ....  102
 Basis Dimension        Dim             ....  267

ORBITAL ENERGIES
----------------

  NO   OCC          E(Eh)            E(eV)
   0   2.0000     -24.871368      -676.7843
   1   2.0000     -19.259975      -524.0906
   2   2.0000     -14.422774      -392.4636
   3   2.0000     -14.402380      -391.9087
   4   2.0000     -10.480373      -285.1855
   5   2.0000     -10.322880      -280.8998
   6   2.0000     -10.318492      -280.7804
   7   2.0000     -10.315690      -280.7042
   8   2.0000     -10.306525      -280.4548
   9   2.0000     -10.289658      -279.9958
  10   2.0000     -10.289256      -279.9849
  11   2.0000     -10.288953      -279.9766
  12   2.0000     -10.184723      -277.1404
  13   2.0000      -1.430609       -38.9289
  14   2.0000      -1.154596       -31.4182
  15   2.0000      -1.059810       -28.8389
  16   2.0000      -0.977556       -26.6007
  17   2.0000      -0.938852       -25.5474
  18   2.0000      -0.894789       -24.3485
  19   2.0000      -0.841858       -22.9081
  20   2.0000      -0.808737       -22.0069
  21   2.0000      -0.792552       -21.5664
  22   2.0000      -0.766332       -20.8530
  23   2.0000      -0.723973       -19.7003
  24   2.0000      -0.690484       -18.7890
  25   2.0000      -0.674661       -18.3585
  26   2.0000      -0.656883       -17.8747
  27   2.0000      -0.642437       -17.4816
  28   2.0000      -0.627276       -17.0691
  29   2.0000      -0.615924       -16.7601
  30   2.0000      -0.587041       -15.9742
  31   2.0000      -0.581316       -15.8184
  32   2.0000      -0.574254       -15.6262
  33   2.0000      -0.549413       -14.9503
  34   2.0000      -0.542348       -14.7580
  35   2.0000      -0.518772       -14.1165
  36   2.0000      -0.511605       -13.9215
  37   2.0000      -0.507448       -13.8084
  38   2.0000      -0.487338       -13.2611
  39   2.0000      -0.482942       -13.1415
  40   2.0000      -0.471739       -12.8367
  41   2.0000      -0.465381       -12.6637
  42   2.0000      -0.451323       -12.2811
  43   2.0000      -0.449885       -12.2420
  44   2.0000      -0.434362       -11.8196
  45   2.0000      -0.422276       -11.4907
  46   2.0000      -0.420682       -11.4474
  47   2.0000      -0.412378       -11.2214
  48   2.0000      -0.393710       -10.7134
  49   2.0000      -0.325366        -8.8537
  50   2.0000      -0.245195        -6.6721
  51   0.0000       0.048945         1.3319
  52   0.0000       0.126771         3.4496
  53   0.0000       0.142727         3.8838
  54   0.0000       0.155675         4.2361
  55   0.0000       0.160236         4.3603

MULLIKEN ATOMIC CHARGES
-----------------------
   0 C :    0.107503
   1 N :   -0.205242
   2 C :   -0.037034
   3 C :   -0.070036
   4 H :    0.069214
   5 H :    0.071692
   6 C :    0.298037
   7 C :   -0.044384
   8 C :   -0.134780
   9 N :   -0.078923
  10 H :    0.091115
  11 H :    0.125667
  12 H :    0.102820
  13 H :   -0.041110
  14 H :   -0.024137
  15 O :   -0.288853
  16 F :   -0.066898
  17 C :   -0.033783
  18 H :    0.026964
  19 H :    0.039586
  20 C :   -0.033654
  21 H :    0.017576
  22 H :    0.013598
  23 C :   -0.063392
  24 H :    0.021211
  25 H :    0.016006
  26 H :    0.024358
  27 H :    0.021838
  28 H :    0.036667
  29 H :    0.038375
Sum of atomic charges:    0.0000000

LOEWDIN ATOMIC CHARGES
----------------------
   0 C :    0.041472
   1 N :   -0.048449
   2 C :   -0.037858
   3 C :   -0.065822
   4 H :    0.046456
   5 H :    0.051615
   6 C :    0.140247
   7 C :    0.033560
   8 C :   -0.250356
   9 N :   -0.029784
  10 H :    0.053828
  11 H :    0.052880
  12 H :    0.060487
  13 H :   -0.011755
  14 H :   -0.026115
  15 O :   -0.184477
  16 F :    0.076513
  17 C :   -0.049285
  18 H :    0.022946
  19 H :    0.026834
  20 C :   -0.044610
  21 H :    0.023961
  22 H :    0.019961
  23 C :   -0.048280
  24 H :    0.018358
  25 H :    0.022065
  26 H :    0.021417
  27 H :    0.025808
  28 H :    0.029889
  29 H :    0.028495

  Mayer bond orders larger than 0.100000
B(  0-C ,  1-N ) :   1.0035 B(  0-C , 17-C ) :   1.0669 B(  0-C , 18-H ) :   0.9564
B(  0-C , 19-H ) :   0.9539 B(  1-N ,  7-C ) :   1.1501 B(  1-N , 12-H ) :   0.9357
B(  2-C ,  3-C ) :   1.0451 B(  2-C , 23-C ) :   1.0880 B(  2-C , 28-H ) :   0.9478
B(  2-C , 29-H ) :   0.9504 B(  3-C ,  4-H ) :   0.9452 B(  3-C ,  5-H ) :   0.9265
B(  3-C ,  6-C ) :   0.9977 B(  6-C , 15-O ) :   1.9624 B(  6-C , 16-F ) :   1.1568
B(  7-C ,  8-C ) :   1.7502 B(  7-C ,  9-N ) :   1.2410 B(  8-C , 13-H ) :   0.9388
B(  8-C , 14-H ) :   0.9492 B(  9-N , 10-H ) :   0.9505 B(  9-N , 11-H ) :   0.9164
B( 17-C , 20-C ) :   1.0836 B( 17-C , 21-H ) :   0.9420 B( 17-C , 22-H ) :   0.9463
B( 20-C , 23-C ) :   1.0592 B( 20-C , 24-H ) :   0.9247 B( 20-C , 25-H ) :   0.9482
B( 23-C , 26-H ) :   0.9309 B( 23-C , 27-H ) :   0.9448

Dispersion correction           -0.015816978
FINAL SINGLE POINT ENERGY      -637.082287316232

DIPOLE MOMENT
-------------
                                X             Y             Z
Electronic contribution:     -4.29932       0.23368     -12.50477
Nuclear contribution   :      4.07548       1.14852      13.79455
                        -----------------------------------------
Total Dipole Moment    :     -0.22383       1.38220       1.28978
                        -----------------------------------------
Magnitude (a.u.)       :      1.90371
Magnitude (Debye)      :      4.83884

Rotational constants in cm-1:     0.033274     0.023559     0.016968
Rotational constants in MHz :   997.539108   706.293545   508.690532

                             ****ORCA TERMINATED NORMALLY****
TOTAL RUN TIME: 0 days 0 hours 0 minutes 32 seconds 460 msec
