                         Program Version 5.0.0 -  RELEASE  -
|  1> !BLYP D3BJ RIJCOSX def2-TZVPD def2/J TightSCF
|  2> *xyz -1 1
|  3> C         -5.57236       -5.80780       -0.81644
|  4> S         -6.90318       -4.61903       -0.52846
|  5> O         -8.11485       -5.25093       -0.95701
|  6> O         -6.53271       -3.42684       -1.31485
|  7> O         -6.86563       -4.29496        0.91412
|  8> C         -4.45780       -5.94187        0.22919
|  9> H         -5.17735       -5.54257       -1.79771
| 10> H         -6.07420       -6.76889       -0.92127
| 11> H         -3.75515       -6.68239       -0.09144
| 12> H         -4.88182       -6.23486        1.16689
| 13> H         -3.95908       -5.00189        0.34143
| 14> *
| 15> %MaxCore 64000
| 16>
| 17> %pal nprocs 4
| 18> end
| 19>
| 20> %scf
| 21>   MaxIter 150
| 22> end
| 23>
| 24>                          ****END OF INPUT****

CARTESIAN COORDINATES (ANGSTROEM)
---------------------------------
  C     -5.572360   -5.807800   -0.816440
  S     -6.903180   -4.619030   -0.528460
  O     -8.114850   -5.250930   -0.957010
  O     -6.532710   -3.426840   -1.314850
  O     -6.865630   -4.294960    0.914120
  C     -4.457800   -5.941870    0.229190
  H     -5.177350   -5.542570   -1.797710
  H     -6.074200   -6.768890   -0.921270
  H     -3.755150   -6.682390   -0.091440
  H     -4.881820   -6.234860    1.166890
  H     -3.959080   -5.001890    0.341430

 Total Charge           Charge          ....   -1
 Multiplicity           Mult            ....    1
 Number of Electrons    NEL             ....   58
 Basis Dimension        Dim             ....  285

ORBITAL ENERGIES
----------------

  NO   OCC          E(Eh)            E(eV)
   0   2.0000     -88.079648     -2396.7691
   1   2.0000     -18.556659      -504.9524
   2   2.0000     -18.543808      -504.6027
   3   2.0000     -18.542912      -504.5783
   4   2.0000      -9.764789      -265.7134
   5   2.0000      -9.762054      -265.6390
   6   2.0000      -7.610549      -207.0936
   7   2.0000      -5.639152      -153.4491
   8   2.0000      -5.638257      -153.4248
   9   2.0000      -5.638020      -153.4183
  10   2.0000      -0.824242       -22.4288
  11   2.0000      -0.698915       -19.0184
  12   2.0000      -0.676739       -18.4150
  13   2.0000      -0.552452       -15.0330
  14   2.0000      -0.439233       -11.9521
  15   2.0000      -0.317959        -8.6521
  16   2.0000      -0.265112        -7.2141
  17   2.0000      -0.254186        -6.9168
  18   2.0000      -0.221308        -6.0221
  19   2.0000      -0.203181        -5.5288
  20   2.0000      -0.200604        -5.4587
  21   2.0000      -0.177155        -4.8206
  22   2.0000      -0.171975        -4.6797
  23   2.0000      -0.098967        -2.6930
  24   2.0000      -0.095883        -2.6091
  25   2.0000      -0.069735        -1.8976
  26   2.0000      -0.058703        -1.5974
  27   2.0000      -0.050625        -1.3776
  28   2.0000      -0.014426        -0.3926
  29   0.0000       0.107422         2.9231
  30   0.0000       0.134209         3.6520
  31   0.0000       0.143398         3.9021
  32   0.0000       0.152349         4.1456
  33   0.0000       0.168233         4.5778

MULLIKEN ATOMIC CHARGES
-----------------------
   0 C :   -0.455054
   1 S :    1.235040
   2 O :   -0.687121
   3 O :   -0.735972
   4 O :   -0.737846
   5 C :   -1.081126
   6 H :    0.272204
   7 H :    0.274186
   8 H :    0.340912
   9 H :    0.280826
  10 H :    0.293952
Sum of atomic charges:   -1.0000000

LOEWDIN ATOMIC CHARGES
----------------------
   0 C :   -0.319494
   1 S :    0.331540
   2 O :   -0.369181
   3 O :   -0.404094
   4 O :   -0.396281
   5 C :   -0.138390
   6 H :    0.072556
   7 H :    0.068763
   8 H :    0.044043
   9 H :    0.052708
  10 H :    0.057830

  Mayer bond orders larger than 0.100000
B(  0-C ,  1-S ) :   0.9124 B(  0-C ,  2-O ) :   0.1476 B(  0-C ,  3-O ) :   0.1402
B(  0-C ,  4-O ) :   0.1076 B(  0-C ,  5-C ) :   0.5279 B(  0-C ,  6-H ) :   0.9639
B(  0-C ,  7-H ) :   0.9508 B(  1-S ,  2-O ) :   1.4855 B(  1-S ,  3-O ) :   1.4578
B(  1-S ,  4-O ) :   1.4396 B(  5-C ,  8-H ) :   0.9113 B(  5-C ,  9-H ) :   0.9981
B(  5-C , 10-H ) :   0.9746

Dispersion correction           -0.020196004
FINAL SINGLE POINT ENERGY      -703.245533489145

DIPOLE MOMENT
-------------
                                X             Y             Z
Electronic contribution:     -6.74226       4.37185      -0.90920
Nuclear contribution   :      8.13140      -5.68016       0.80206
                        -----------------------------------------
Total Dipole Moment    :      1.38914      -1.30831      -0.10714
                        -----------------------------------------
Magnitude (a.u.)       :      1.91125
Magnitude (Debye)      :      4.85801

Rotational constants in cm-1:     0.162101     0.080498     0.079099
Rotational constants in MHz :  4859.669771  2413.267251  2371.338602

                             ****ORCA TERMINATED NORMALLY****
TOTAL RUN TIME: 0 days 0 hours 0 minutes 15 seconds 506 msec
