                         Program Version 5.0.0 -  RELEASE  -
|  1> !BLYP D3BJ RIJCOSX def2-TZVPD def2/J TightSCF
|  2> *xyz 1 1
|  3> C         -4.38262       -1.67089        1.21620
|  4> N         -5.76354       -1.91517        0.70501
|  5> C         -3.28173       -2.19127        0.29436
|  6> H         -5.84081       -2.11520       -0.30065
|  7> H         -6.40882       -1.14866        0.93612
|  8> H         -6.17478       -2.79061        1.05143
|  9> H         -4.32862       -2.13922        2.19810
| 10> H         -4.26158       -0.59740        1.35725
| 11> H         -3.36057       -1.71407       -0.66008
| 12> H         -3.38775       -3.24919        0.17403
| 13> H         -2.32559       -1.97514        0.72329
| 14> *
| 15> %MaxCore 64000
| 16>
| 17> %pal nprocs 4
| 18> end
| 19>
| 20> %scf
| 21>   MaxIter 150
| 22> end
| 23>
| 24>                          ****END OF INPUT****

CARTESIAN COORDINATES (ANGSTROEM)
---------------------------------
  C     -4.382620   -1.670890    1.216200
  N     -5.763540   -1.915170    0.705010
  C     -3.281730   -2.191270    0.294360
  H     -5.840810   -2.115200   -0.300650
  H     -6.408820   -1.148660    0.936120
  H     -6.174780   -2.790610    1.051430
  H     -4.328620   -2.139220    2.198100
  H     -4.261580   -0.597400    1.357250
  H     -3.360570   -1.714070   -0.660080
  H     -3.387750   -3.249190    0.174030
  H     -2.325590   -1.975140    0.723290

 Total Charge           Charge          ....    1
 Multiplicity           Mult            ....    1
 Number of Electrons    NEL             ....   26
 Basis Dimension        Dim             ....  183

ORBITAL ENERGIES
----------------

  NO   OCC          E(Eh)            E(eV)
   0   2.0000     -14.338799      -390.1786
   1   2.0000     -10.158040      -276.4143
   2   2.0000     -10.079053      -274.2650
   3   2.0000      -1.128964       -30.7207
   4   2.0000      -0.891434       -24.2572
   5   2.0000      -0.784459       -21.3462
   6   2.0000      -0.740814       -20.1586
   7   2.0000      -0.720537       -19.6068
   8   2.0000      -0.650824       -17.7098
   9   2.0000      -0.590145       -16.0587
  10   2.0000      -0.537153       -14.6167
  11   2.0000      -0.521478       -14.1901
  12   2.0000      -0.504264       -13.7217
  13   0.0000      -0.226318        -6.1584
  14   0.0000      -0.171808        -4.6751
  15   0.0000      -0.168931        -4.5969
  16   0.0000      -0.153055        -4.1648
  17   0.0000      -0.125565        -3.4168

MULLIKEN ATOMIC CHARGES
-----------------------
   0 C :   -0.254128
   1 N :   -0.245040
   2 C :   -1.169142
   3 H :    0.308122
   4 H :    0.323172
   5 H :    0.343226
   6 H :    0.301701
   7 H :    0.301806
   8 H :    0.378549
   9 H :    0.371638
  10 H :    0.340096
Sum of atomic charges:    1.0000000

LOEWDIN ATOMIC CHARGES
----------------------
   0 C :   -0.187003
   1 N :    0.188549
   2 C :   -0.044110
   3 H :    0.174460
   4 H :    0.179283
   5 H :    0.176529
   6 H :    0.132159
   7 H :    0.130869
   8 H :    0.079989
   9 H :    0.079254
  10 H :    0.090021

  Mayer bond orders larger than 0.100000
B(  0-C ,  1-N ) :   0.9676 B(  0-C ,  2-C ) :   0.6066 B(  0-C ,  6-H ) :   0.9260
B(  0-C ,  7-H ) :   0.8994 B(  1-N ,  3-H ) :   0.8775 B(  1-N ,  4-H ) :   0.8775
B(  1-N ,  5-H ) :   0.8638 B(  2-C ,  8-H ) :   0.9114 B(  2-C ,  9-H ) :   0.9331
B(  2-C , 10-H ) :   0.9433

Dispersion correction           -0.012313259
FINAL SINGLE POINT ENERGY      -135.516053660445

DIPOLE MOMENT
-------------
                                X             Y             Z
Electronic contribution:     -1.76395       0.24128       0.30839
Nuclear contribution   :      0.19437      -0.25358      -0.32106
                        -----------------------------------------
Total Dipole Moment    :     -1.56959      -0.01230      -0.01268
                        -----------------------------------------
Magnitude (a.u.)       :      1.56968
Magnitude (Debye)      :      3.98982

Rotational constants in cm-1:     1.030014     0.272489     0.242697
Rotational constants in MHz : 30879.030706  8169.007780  7275.865152

                             ****ORCA TERMINATED NORMALLY****
TOTAL RUN TIME: 0 days 0 hours 0 minutes 8 seconds 348 msec
