                         Program Version 5.0.0 -  RELEASE  -
|  1> !BLYP D3BJ RIJCOSX def2-TZVPD def2/J TightSCF xyzfile
|  2>
|  3> *xyzfile 0 1 B.xyz
|  4>
|  5> %MaxCore 64000
|  6>
|  7> %pal nprocs 4
|  8> end
|  9>
| 10> %scf
| 11>   MaxIter 150
| 12> end
| 13>
| 14>
| 15>                          ****END OF INPUT****

CARTESIAN COORDINATES (ANGSTROEM)
---------------------------------
  C     -4.382623   -1.670889    1.216201
  N     -5.763539   -1.915170    0.705012
  C     -3.281728   -2.191272    0.294361
  C     -5.572364   -5.807798   -0.816445
  S     -6.903179   -4.619033   -0.528458
  H     -5.840812   -2.115205   -0.300646
  H     -6.408823   -1.148656    0.936124
  H     -6.174781   -2.790606    1.051433
  O     -8.114853   -5.250932   -0.957007
  O     -6.532715   -3.426838   -1.314848
  H     -4.328618   -2.139223    2.198103
  H     -4.261583   -0.597399    1.357248
  O     -6.865632   -4.294957    0.914118
  C     -3.474641   -3.605898   -0.259608
  H     -2.354548   -2.127602    0.871433
  H     -3.166611   -1.499693   -0.545037
  C     -3.827078   -4.661097    0.786174
  H     -2.560559   -3.889391   -0.788050
  H     -4.255932   -3.570040   -1.019300
  C     -4.457800   -5.941875    0.229195
  H     -5.177347   -5.542575   -1.797714
  H     -6.074202   -6.768894   -0.921272
  H     -4.530506   -4.253640    1.511979
  H     -2.933400   -4.932302    1.356825
  H     -3.681064   -6.562236   -0.229885
  H     -4.843942   -6.512728    1.075805

 Total Charge           Charge          ....    0
 Multiplicity           Mult            ....    1
 Number of Electrons    NEL             ....   98
 Basis Dimension        Dim             ....  560

ORBITAL ENERGIES
----------------

  NO   OCC          E(Eh)            E(eV)
   0   2.0000     -88.249105     -2401.3802
   1   2.0000     -18.727833      -509.6102
   2   2.0000     -18.723890      -509.5030
   3   2.0000     -18.713060      -509.2083
   4   2.0000     -14.107905      -383.8956
   5   2.0000      -9.989971      -271.8409
   6   2.0000      -9.938266      -270.4340
   7   2.0000      -9.912663      -269.7373
   8   2.0000      -9.908370      -269.6205
   9   2.0000      -9.907742      -269.6034
  10   2.0000      -9.906772      -269.5770
  11   2.0000      -7.780764      -211.7254
  12   2.0000      -5.809570      -158.0864
  13   2.0000      -5.808695      -158.0626
  14   2.0000      -5.807572      -158.0321
  15   2.0000      -0.999567       -27.1996
  16   2.0000      -0.918507       -24.9938
  17   2.0000      -0.868077       -23.6216
  18   2.0000      -0.864571       -23.5262
  19   2.0000      -0.750576       -20.4242
  20   2.0000      -0.712681       -19.3930
  21   2.0000      -0.667110       -18.1530
  22   2.0000      -0.619999       -16.8710
  23   2.0000      -0.570881       -15.5345
  24   2.0000      -0.542579       -14.7643
  25   2.0000      -0.523898       -14.2560
  26   2.0000      -0.517058       -14.0699
  27   2.0000      -0.478408       -13.0182
  28   2.0000      -0.456999       -12.4356
  29   2.0000      -0.435157       -11.8412
  30   2.0000      -0.429781       -11.6949
  31   2.0000      -0.414223       -11.2716
  32   2.0000      -0.395310       -10.7569
  33   2.0000      -0.384819       -10.4715
  34   2.0000      -0.378853       -10.3091
  35   2.0000      -0.372275       -10.1301
  36   2.0000      -0.361960        -9.8494
  37   2.0000      -0.341746        -9.2994
  38   2.0000      -0.330910        -9.0045
  39   2.0000      -0.326618        -8.8877
  40   2.0000      -0.302116        -8.2210
  41   2.0000      -0.295256        -8.0343
  42   2.0000      -0.288126        -7.8403
  43   2.0000      -0.274347        -7.4654
  44   2.0000      -0.266480        -7.2513
  45   2.0000      -0.232758        -6.3337
  46   2.0000      -0.229945        -6.2571
  47   2.0000      -0.223244        -6.0748
  48   2.0000      -0.197451        -5.3729
  49   0.0000      -0.049570        -1.3489
  50   0.0000      -0.015935        -0.4336
  51   0.0000      -0.008672        -0.2360
  52   0.0000      -0.004941        -0.1345
  53   0.0000       0.011895         0.3237

MULLIKEN ATOMIC CHARGES
-----------------------
   0 C :   -0.727313
   1 N :   -0.184906
   2 C :   -0.502634
   3 C :   -0.865540
   4 S :    1.389421
   5 H :    0.324748
   6 H :    0.299849
   7 H :    0.358289
   8 O :   -0.618873
   9 O :   -0.859400
  10 H :    0.367588
  11 H :    0.283840
  12 O :   -0.866446
  13 C :   -0.624460
  14 H :    0.268756
  15 H :    0.272878
  16 C :   -0.410731
  17 H :    0.352885
  18 H :    0.462361
  19 C :   -0.594021
  20 H :    0.373120
  21 H :    0.295009
  22 H :    0.337784
  23 H :    0.315107
  24 H :    0.258481
  25 H :    0.294208
Sum of atomic charges:   -0.0000000

LOEWDIN ATOMIC CHARGES
----------------------
   0 C :   -0.158532
   1 N :    0.158154
   2 C :   -0.174122
   3 C :   -0.234495
   4 S :    0.441775
   5 H :    0.095757
   6 H :    0.167226
   7 H :    0.057348
   8 O :   -0.291214
   9 O :   -0.369025
  10 H :    0.120108
  11 H :    0.117092
  12 O :   -0.350275
  13 C :   -0.194684
  14 H :    0.114421
  15 H :    0.112664
  16 C :   -0.204723
  17 H :    0.118023
  18 H :    0.083596
  19 C :   -0.208044
  20 H :    0.092670
  21 H :    0.092201
  22 H :    0.082030
  23 H :    0.113933
  24 H :    0.108626
  25 H :    0.109490

  Mayer bond orders larger than 0.100000
B(  0-C ,  1-N ) :   0.9864 B(  0-C ,  2-C ) :   0.8218 B(  0-C , 10-H ) :   0.8929
B(  0-C , 11-H ) :   0.8998 B(  0-C , 16-C ) :   0.1717 B(  1-N ,  5-H ) :   0.8196
B(  1-N ,  6-H ) :   0.8485 B(  1-N ,  7-H ) :   0.8352 B(  2-C , 13-C ) :   0.8643
B(  2-C , 14-H ) :   0.9442 B(  2-C , 15-H ) :   0.9545 B(  3-C ,  4-S ) :   0.9040
B(  3-C ,  8-O ) :   0.2053 B(  3-C ,  9-O ) :   0.1545 B(  3-C , 13-C ) :   0.1103
B(  3-C , 19-C ) :   0.7920 B(  3-C , 20-H ) :   0.8652 B(  3-C , 21-H ) :   0.9577
B(  4-S ,  8-O ) :   1.3207 B(  4-S ,  9-O ) :   1.3034 B(  4-S , 12-O ) :   1.3325
B(  9-O , 12-O ) :   0.1340 B(  9-O , 18-H ) :  -0.1055 B( 13-C , 16-C ) :   0.3517
B( 13-C , 17-H ) :   0.8616 B( 13-C , 18-H ) :   0.9546 B( 13-C , 19-C ) :   0.1870
B( 13-C , 22-H ) :  -0.1196 B( 16-C , 19-C ) :   0.9189 B( 16-C , 22-H ) :   0.9646
B( 16-C , 23-H ) :   0.8797 B( 19-C , 24-H ) :   0.9565 B( 19-C , 25-H ) :   0.9176

Dispersion correction           -0.063056626
FINAL SINGLE POINT ENERGY      -916.367551409852

DIPOLE MOMENT
-------------
                                X             Y             Z
Electronic contribution:    -13.61566      -2.96866      -3.70688
Nuclear contribution   :     16.18863       5.15617       4.97370
                        -----------------------------------------
Total Dipole Moment    :      2.57297       2.18751       1.26682
                        -----------------------------------------
Magnitude (a.u.)       :      3.60697
Magnitude (Debye)      :      9.16818

Rotational constants in cm-1:     0.048546     0.025588     0.020102
Rotational constants in MHz :  1455.374030   767.095631   602.645620

                             ****ORCA TERMINATED NORMALLY****
TOTAL RUN TIME: 0 days 0 hours 0 minutes 55 seconds 158 msec
