                         Program Version 5.0.0 -  RELEASE  -
|  1> !BLYP D3BJ RIJCOSX def2-TZVPD def2/J TightSCF
|  2> *xyz 0 1
|  3> C         -5.57236       -5.80780       -0.81644
|  4> S         -6.90318       -4.61903       -0.52846
|  5> F         -8.11485       -5.25093       -0.95701
|  6> O         -6.53271       -3.42684       -1.31485
|  7> O         -6.86563       -4.29496        0.91412
|  8> C         -4.45780       -5.94187        0.22919
|  9> H         -5.17735       -5.54257       -1.79771
| 10> H         -6.07420       -6.76889       -0.92127
| 11> H         -3.75515       -6.68239       -0.09144
| 12> H         -4.88182       -6.23486        1.16689
| 13> H         -3.95908       -5.00189        0.34143
| 14> *
| 15> %MaxCore 64000
| 16>
| 17> %pal nprocs 4
| 18> end
| 19>
| 20> %scf
| 21>   MaxIter 150
| 22> end
| 23>
| 24>                          ****END OF INPUT****

CARTESIAN COORDINATES (ANGSTROEM)
---------------------------------
  C     -5.572360   -5.807800   -0.816440
  S     -6.903180   -4.619030   -0.528460
  F     -8.114850   -5.250930   -0.957010
  O     -6.532710   -3.426840   -1.314850
  O     -6.865630   -4.294960    0.914120
  C     -4.457800   -5.941870    0.229190
  H     -5.177350   -5.542570   -1.797710
  H     -6.074200   -6.768890   -0.921270
  H     -3.755150   -6.682390   -0.091440
  H     -4.881820   -6.234860    1.166890
  H     -3.959080   -5.001890    0.341430

 Total Charge           Charge          ....    0
 Multiplicity           Mult            ....    1
 Number of Electrons    NEL             ....   58
 Basis Dimension        Dim             ....  285

ORBITAL ENERGIES
----------------

  NO   OCC          E(Eh)            E(eV)
   0   2.0000     -88.338141     -2403.8030
   1   2.0000     -24.406009      -664.1213
   2   2.0000     -18.775387      -510.9042
   3   2.0000     -18.775205      -510.8993
   4   2.0000      -9.965211      -271.1672
   5   2.0000      -9.923955      -270.0446
   6   2.0000      -7.869512      -214.1403
   7   2.0000      -5.901689      -160.5931
   8   2.0000      -5.895102      -160.4139
   9   2.0000      -5.894816      -160.4061
  10   2.0000      -1.279679       -34.8218
  11   2.0000      -0.997047       -27.1310
  12   2.0000      -0.904414       -24.6104
  13   2.0000      -0.741364       -20.1735
  14   2.0000      -0.667066       -18.1518
  15   2.0000      -0.610278       -16.6065
  16   2.0000      -0.525154       -14.2902
  17   2.0000      -0.522141       -14.2082
  18   2.0000      -0.493047       -13.4165
  19   2.0000      -0.439679       -11.9643
  20   2.0000      -0.422488       -11.4965
  21   2.0000      -0.390797       -10.6341
  22   2.0000      -0.378263       -10.2931
  23   2.0000      -0.358365        -9.7516
  24   2.0000      -0.345141        -9.3918
  25   2.0000      -0.327548        -8.9130
  26   2.0000      -0.279034        -7.5929
  27   2.0000      -0.273421        -7.4402
  28   2.0000      -0.251327        -6.8390
  29   0.0000      -0.030650        -0.8340
  30   0.0000      -0.017998        -0.4897
  31   0.0000       0.005478         0.1491
  32   0.0000       0.012277         0.3341
  33   0.0000       0.021466         0.5841

MULLIKEN ATOMIC CHARGES
-----------------------
   0 C :   -0.443920
   1 S :    1.178969
   2 F :   -0.120750
   3 O :   -0.576337
   4 O :   -0.583252
   5 C :   -1.104262
   6 H :    0.319898
   7 H :    0.336632
   8 H :    0.345961
   9 H :    0.313118
  10 H :    0.333943
Sum of atomic charges:    0.0000000

LOEWDIN ATOMIC CHARGES
----------------------
   0 C :   -0.277266
   1 S :    0.576354
   2 F :   -0.038285
   3 O :   -0.282779
   4 O :   -0.280657
   5 C :   -0.092381
   6 H :    0.094192
   7 H :    0.086549
   8 H :    0.071332
   9 H :    0.068395
  10 H :    0.074545

  Mayer bond orders larger than 0.100000
B(  0-C ,  1-S ) :   0.9013 B(  0-C ,  3-O ) :   0.1124 B(  0-C ,  5-C ) :   0.6129
B(  0-C ,  6-H ) :   0.9377 B(  0-C ,  7-H ) :   0.8643 B(  1-S ,  2-F ) :   1.0351
B(  1-S ,  3-O ) :   1.6556 B(  1-S ,  4-O ) :   1.6388 B(  3-O ,  4-O ) :   0.1192
B(  5-C ,  8-H ) :   0.9067 B(  5-C ,  9-H ) :   0.9661 B(  5-C , 10-H ) :   0.9435

Dispersion correction           -0.019292721
FINAL SINGLE POINT ENERGY      -727.765912853777

DIPOLE MOMENT
-------------
                                X             Y             Z
Electronic contribution:     -9.40559       3.64355      -1.83201
Nuclear contribution   :      9.80704      -5.24335       1.35017
                        -----------------------------------------
Total Dipole Moment    :      0.40144      -1.59980      -0.48183
                        -----------------------------------------
Magnitude (a.u.)       :      1.71833
Magnitude (Debye)      :      4.36766

Rotational constants in cm-1:     0.156316     0.078308     0.076228
Rotational constants in MHz :  4686.224999  2347.601204  2285.245115

                             ****ORCA TERMINATED NORMALLY****
TOTAL RUN TIME: 0 days 0 hours 0 minutes 16 seconds 378 msec
