                         Program Version 5.0.0 -  RELEASE  -
|  1> !BLYP D3BJ RIJCOSX def2-TZVPD def2/J TightSCF
|  2> *xyz 0 1
|  3> C         -4.38262       -1.67089        1.21620
|  4> C         -5.76354       -1.91517        0.70501
|  5> C         -3.28173       -2.19127        0.29436
|  6> H         -5.84081       -2.11520       -0.30065
|  7> H         -6.40882       -1.14866        0.93612
|  8> H         -6.17478       -2.79061        1.05143
|  9> H         -4.32862       -2.13922        2.19810
| 10> H         -4.26158       -0.59740        1.35725
| 11> H         -3.36057       -1.71407       -0.66008
| 12> H         -3.38775       -3.24919        0.17403
| 13> H         -2.32559       -1.97514        0.72329
| 14> *
| 15> %MaxCore 64000
| 16>
| 17> %pal nprocs 4
| 18> end
| 19>
| 20> %scf
| 21>   MaxIter 150
| 22> end
| 23>
| 24>                          ****END OF INPUT****

CARTESIAN COORDINATES (ANGSTROEM)
---------------------------------
  C     -4.382620   -1.670890    1.216200
  C     -5.763540   -1.915170    0.705010
  C     -3.281730   -2.191270    0.294360
  H     -5.840810   -2.115200   -0.300650
  H     -6.408820   -1.148660    0.936120
  H     -6.174780   -2.790610    1.051430
  H     -4.328620   -2.139220    2.198100
  H     -4.261580   -0.597400    1.357250
  H     -3.360570   -1.714070   -0.660080
  H     -3.387750   -3.249190    0.174030
  H     -2.325590   -1.975140    0.723290

 Total Charge           Charge          ....    0
 Multiplicity           Mult            ....    1
 Number of Electrons    NEL             ....   26
 Basis Dimension        Dim             ....  183

ORBITAL ENERGIES
----------------

  NO   OCC          E(Eh)            E(eV)
   0   2.0000      -9.891328      -269.1567
   1   2.0000      -9.882272      -268.9103
   2   2.0000      -9.863942      -268.4115
   3   2.0000      -0.707676       -19.2568
   4   2.0000      -0.618830       -16.8392
   5   2.0000      -0.524942       -14.2844
   6   2.0000      -0.409265       -11.1367
   7   2.0000      -0.389540       -10.5999
   8   2.0000      -0.360461        -9.8087
   9   2.0000      -0.337427        -9.1819
  10   2.0000      -0.296283        -8.0623
  11   2.0000      -0.289572        -7.8797
  12   2.0000      -0.278040        -7.5659
  13   0.0000      -0.002944        -0.0801
  14   0.0000       0.022256         0.6056
  15   0.0000       0.025317         0.6889
  16   0.0000       0.042976         1.1694
  17   0.0000       0.067366         1.8331

MULLIKEN ATOMIC CHARGES
-----------------------
   0 C :    0.050432
   1 C :   -1.379064
   2 C :   -1.201274
   3 H :    0.398952
   4 H :    0.348223
   5 H :    0.382358
   6 H :    0.214257
   7 H :    0.230557
   8 H :    0.325418
   9 H :    0.314213
  10 H :    0.315928
Sum of atomic charges:    0.0000000

LOEWDIN ATOMIC CHARGES
----------------------
   0 C :   -0.299879
   1 C :   -0.117997
   2 C :   -0.106437
   3 H :    0.048518
   4 H :    0.049648
   5 H :    0.048513
   6 H :    0.098579
   7 H :    0.096915
   8 H :    0.062568
   9 H :    0.062746
  10 H :    0.056827

  Mayer bond orders larger than 0.100000
B(  0-C ,  1-C ) :   0.6253 B(  0-C ,  2-C ) :   0.5484 B(  0-C ,  6-H ) :   0.9786
B(  0-C ,  7-H ) :   0.9725 B(  1-C ,  2-C ) :   0.1597 B(  1-C ,  3-H ) :   0.8629
B(  1-C ,  4-H ) :   0.9072 B(  1-C ,  5-H ) :   0.9168 B(  2-C ,  8-H ) :   0.9622
B(  2-C ,  9-H ) :   0.9773 B(  2-C , 10-H ) :   0.9598

Dispersion correction           -0.012399011
FINAL SINGLE POINT ENERGY      -119.093943738415

DIPOLE MOMENT
-------------
                                X             Y             Z
Electronic contribution:      0.18812       0.24063       0.34140
Nuclear contribution   :     -0.21528      -0.24783      -0.32864
                        -----------------------------------------
Total Dipole Moment    :     -0.02715      -0.00720       0.01276
                        -----------------------------------------
Magnitude (a.u.)       :      0.03085
Magnitude (Debye)      :      0.07842

Rotational constants in cm-1:     1.037566     0.286459     0.254172
Rotational constants in MHz : 31105.431429  8587.814531  7619.871198

                             ****ORCA TERMINATED NORMALLY****
TOTAL RUN TIME: 0 days 0 hours 0 minutes 8 seconds 248 msec
