                         Program Version 5.0.0 -  RELEASE  -
|  1> !BLYP D3BJ RIJCOSX def2-TZVPD def2/J TightSCF
|  2> *xyz 0 1
|  3> C         -5.57236       -5.80780       -0.81644
|  4> S         -6.90318       -4.61903       -0.52846
|  5> O         -8.11485       -5.25093       -0.95701
|  6> F         -6.53271       -3.42684       -1.31485
|  7> O         -6.86563       -4.29496        0.91412
|  8> C         -4.45780       -5.94187        0.22919
|  9> H         -5.17735       -5.54257       -1.79771
| 10> H         -6.07420       -6.76889       -0.92127
| 11> H         -3.75515       -6.68239       -0.09144
| 12> H         -4.88182       -6.23486        1.16689
| 13> H         -3.95908       -5.00189        0.34143
| 14> *
| 15> %MaxCore 64000
| 16>
| 17> %pal nprocs 4
| 18> end
| 19>
| 20> %scf
| 21>   MaxIter 150
| 22> end
| 23>
| 24>                          ****END OF INPUT****

CARTESIAN COORDINATES (ANGSTROEM)
---------------------------------
  C     -5.572360   -5.807800   -0.816440
  S     -6.903180   -4.619030   -0.528460
  O     -8.114850   -5.250930   -0.957010
  F     -6.532710   -3.426840   -1.314850
  O     -6.865630   -4.294960    0.914120
  C     -4.457800   -5.941870    0.229190
  H     -5.177350   -5.542570   -1.797710
  H     -6.074200   -6.768890   -0.921270
  H     -3.755150   -6.682390   -0.091440
  H     -4.881820   -6.234860    1.166890
  H     -3.959080   -5.001890    0.341430

 Total Charge           Charge          ....    0
 Multiplicity           Mult            ....    1
 Number of Electrons    NEL             ....   58
 Basis Dimension        Dim             ....  285

ORBITAL ENERGIES
----------------

  NO   OCC          E(Eh)            E(eV)
   0   2.0000     -88.335635     -2403.7348
   1   2.0000     -24.384431      -663.5341
   2   2.0000     -18.788687      -511.2662
   3   2.0000     -18.775080      -510.8959
   4   2.0000      -9.964521      -271.1484
   5   2.0000      -9.923345      -270.0280
   6   2.0000      -7.867140      -214.0758
   7   2.0000      -5.899411      -160.5311
   8   2.0000      -5.892802      -160.3513
   9   2.0000      -5.892390      -160.3401
  10   2.0000      -1.244167       -33.8555
  11   2.0000      -1.013328       -27.5741
  12   2.0000      -0.919169       -25.0119
  13   2.0000      -0.740954       -20.1624
  14   2.0000      -0.653938       -17.7946
  15   2.0000      -0.603031       -16.4093
  16   2.0000      -0.511755       -13.9256
  17   2.0000      -0.496871       -13.5206
  18   2.0000      -0.487421       -13.2634
  19   2.0000      -0.438243       -11.9252
  20   2.0000      -0.423055       -11.5119
  21   2.0000      -0.398656       -10.8480
  22   2.0000      -0.381131       -10.3711
  23   2.0000      -0.356273        -9.6947
  24   2.0000      -0.351062        -9.5529
  25   2.0000      -0.333507        -9.0752
  26   2.0000      -0.291012        -7.9188
  27   2.0000      -0.278350        -7.5743
  28   2.0000      -0.263476        -7.1695
  29   0.0000      -0.030757        -0.8369
  30   0.0000      -0.013599        -0.3700
  31   0.0000       0.004702         0.1280
  32   0.0000       0.012112         0.3296
  33   0.0000       0.021387         0.5820

MULLIKEN ATOMIC CHARGES
-----------------------
   0 C :   -0.446144
   1 S :    1.181711
   2 O :   -0.547766
   3 F :   -0.164975
   4 O :   -0.584409
   5 C :   -1.079575
   6 H :    0.350594
   7 H :    0.308008
   8 H :    0.346334
   9 H :    0.312829
  10 H :    0.323394
Sum of atomic charges:    0.0000000

LOEWDIN ATOMIC CHARGES
----------------------
   0 C :   -0.272085
   1 S :    0.577894
   2 O :   -0.252030
   3 F :   -0.072331
   4 O :   -0.279525
   5 C :   -0.097993
   6 H :    0.090494
   7 H :    0.096309
   8 H :    0.070030
   9 H :    0.069606
  10 H :    0.069631

  Mayer bond orders larger than 0.100000
B(  0-C ,  1-S ) :   0.9016 B(  0-C ,  2-O ) :   0.1272 B(  0-C ,  5-C ) :   0.5983
B(  0-C ,  6-H ) :   0.8662 B(  0-C ,  7-H ) :   0.9355 B(  1-S ,  2-O ) :   1.6814
B(  1-S ,  3-F ) :   0.9954 B(  1-S ,  4-O ) :   1.6354 B(  2-O ,  4-O ) :   0.1219
B(  5-C ,  8-H ) :   0.9158 B(  5-C ,  9-H ) :   0.9817 B(  5-C , 10-H ) :   0.9381

Dispersion correction           -0.019264349
FINAL SINGLE POINT ENERGY      -727.783764234681

DIPOLE MOMENT
-------------
                                X             Y             Z
Electronic contribution:     -6.77256       6.69527      -2.44687
Nuclear contribution   :      8.15840      -7.14411       1.72305
                        -----------------------------------------
Total Dipole Moment    :      1.38584      -0.44883      -0.72382
                        -----------------------------------------
Magnitude (a.u.)       :      1.62662
Magnitude (Debye)      :      4.13455

Rotational constants in cm-1:     0.153926     0.078297     0.077402
Rotational constants in MHz :  4614.585804  2347.272644  2320.438903

                             ****ORCA TERMINATED NORMALLY****
TOTAL RUN TIME: 0 days 0 hours 0 minutes 16 seconds 530 msec
