                         Program Version 5.0.0 -  RELEASE  -
|  1> !BLYP D3BJ RIJCOSX def2-TZVPD def2/J TightSCF
|  2> *xyz 0 1
|  3> C         -5.57236       -5.80780       -0.81644
|  4> S         -6.90318       -4.61903       -0.52846
|  5> O         -8.11485       -5.25093       -0.95701
|  6> O         -6.53271       -3.42684       -1.31485
|  7> F         -6.86563       -4.29496        0.91412
|  8> C         -4.45780       -5.94187        0.22919
|  9> H         -5.17735       -5.54257       -1.79771
| 10> H         -6.07420       -6.76889       -0.92127
| 11> H         -3.75515       -6.68239       -0.09144
| 12> H         -4.88182       -6.23486        1.16689
| 13> H         -3.95908       -5.00189        0.34143
| 14> *
| 15> %MaxCore 64000
| 16>
| 17> %pal nprocs 4
| 18> end
| 19>
| 20> %scf
| 21>   MaxIter 150
| 22> end
| 23>
| 24>                          ****END OF INPUT****

CARTESIAN COORDINATES (ANGSTROEM)
---------------------------------
  C     -5.572360   -5.807800   -0.816440
  S     -6.903180   -4.619030   -0.528460
  O     -8.114850   -5.250930   -0.957010
  O     -6.532710   -3.426840   -1.314850
  F     -6.865630   -4.294960    0.914120
  C     -4.457800   -5.941870    0.229190
  H     -5.177350   -5.542570   -1.797710
  H     -6.074200   -6.768890   -0.921270
  H     -3.755150   -6.682390   -0.091440
  H     -4.881820   -6.234860    1.166890
  H     -3.959080   -5.001890    0.341430

 Total Charge           Charge          ....    0
 Multiplicity           Mult            ....    1
 Number of Electrons    NEL             ....   58
 Basis Dimension        Dim             ....  285

ORBITAL ENERGIES
----------------

  NO   OCC          E(Eh)            E(eV)
   0   2.0000     -88.335208     -2403.7232
   1   2.0000     -24.383338      -663.5044
   2   2.0000     -18.788437      -511.2594
   3   2.0000     -18.774381      -510.8769
   4   2.0000      -9.963832      -271.1297
   5   2.0000      -9.930096      -270.2116
   6   2.0000      -7.866748      -214.0651
   7   2.0000      -5.899086      -160.5223
   8   2.0000      -5.892226      -160.3356
   9   2.0000      -5.892128      -160.3330
  10   2.0000      -1.241612       -33.7860
  11   2.0000      -1.013890       -27.5894
  12   2.0000      -0.919787       -25.0287
  13   2.0000      -0.743614       -20.2348
  14   2.0000      -0.651481       -17.7277
  15   2.0000      -0.607135       -16.5210
  16   2.0000      -0.516735       -14.0611
  17   2.0000      -0.496227       -13.5030
  18   2.0000      -0.480370       -13.0715
  19   2.0000      -0.442267       -12.0347
  20   2.0000      -0.417032       -11.3480
  21   2.0000      -0.398310       -10.8386
  22   2.0000      -0.390683       -10.6310
  23   2.0000      -0.364500        -9.9186
  24   2.0000      -0.351344        -9.5605
  25   2.0000      -0.335266        -9.1231
  26   2.0000      -0.291815        -7.9407
  27   2.0000      -0.276403        -7.5213
  28   2.0000      -0.263179        -7.1615
  29   0.0000      -0.037581        -1.0226
  30   0.0000      -0.002660        -0.0724
  31   0.0000       0.007504         0.2042
  32   0.0000       0.012991         0.3535
  33   0.0000       0.019006         0.5172

MULLIKEN ATOMIC CHARGES
-----------------------
   0 C :   -0.366798
   1 S :    1.192056
   2 O :   -0.545620
   3 O :   -0.584336
   4 F :   -0.178810
   5 C :   -1.164638
   6 H :    0.309878
   7 H :    0.320129
   8 H :    0.333214
   9 H :    0.337670
  10 H :    0.347256
Sum of atomic charges:    0.0000000

LOEWDIN ATOMIC CHARGES
----------------------
   0 C :   -0.268347
   1 S :    0.576994
   2 O :   -0.251833
   3 O :   -0.284213
   4 F :   -0.071151
   5 C :   -0.100822
   6 H :    0.100564
   7 H :    0.092346
   8 H :    0.070548
   9 H :    0.065436
  10 H :    0.070478

  Mayer bond orders larger than 0.100000
B(  0-C ,  1-S ) :   0.8820 B(  0-C ,  2-O ) :   0.1202 B(  0-C ,  3-O ) :   0.1051
B(  0-C ,  5-C ) :   0.5468 B(  0-C ,  6-H ) :   0.9295 B(  0-C ,  7-H ) :   0.9160
B(  1-S ,  2-O ) :   1.6807 B(  1-S ,  3-O ) :   1.6471 B(  1-S ,  4-F ) :   0.9935
B(  2-O ,  3-O ) :   0.1157 B(  5-C ,  8-H ) :   0.9398 B(  5-C ,  9-H ) :   0.9346
B(  5-C , 10-H ) :   0.9366

Dispersion correction           -0.019173023
FINAL SINGLE POINT ENERGY      -727.783859848772

DIPOLE MOMENT
-------------
                                X             Y             Z
Electronic contribution:     -7.30981       5.21490       1.27300
Nuclear contribution   :      8.50531      -6.23950      -0.59960
                        -----------------------------------------
Total Dipole Moment    :      1.19550      -1.02460       0.67340
                        -----------------------------------------
Magnitude (a.u.)       :      1.71245
Magnitude (Debye)      :      4.35270

Rotational constants in cm-1:     0.152799     0.080212     0.076962
Rotational constants in MHz :  4580.804531  2404.707790  2307.252710

                             ****ORCA TERMINATED NORMALLY****
TOTAL RUN TIME: 0 days 0 hours 0 minutes 15 seconds 902 msec
