                         Program Version 5.0.0 -  RELEASE  -
|  1> !BLYP D3BJ RIJCOSX def2-TZVPD def2/J TightSCF xyzfile
|  2>
|  3> *xyzfile 0 1 D1.xyz
|  4>
|  5> %MaxCore 64000
|  6>
|  7> %pal nprocs 4
|  8> end
|  9>
| 10> %scf
| 11>   MaxIter 150
| 12> end
| 13>
| 14>
| 15>                          ****END OF INPUT****

CARTESIAN COORDINATES (ANGSTROEM)
---------------------------------
  C     -4.382623   -1.670889    1.216201
  C     -5.763539   -1.915170    0.705012
  C     -3.281728   -2.191272    0.294361
  C     -5.572364   -5.807798   -0.816445
  S     -6.903179   -4.619033   -0.528458
  H     -5.840812   -2.115205   -0.300646
  H     -6.408823   -1.148656    0.936124
  H     -6.174781   -2.790606    1.051433
  F     -8.114853   -5.250932   -0.957007
  O     -6.532715   -3.426838   -1.314848
  H     -4.328618   -2.139223    2.198103
  H     -4.261583   -0.597399    1.357248
  O     -6.865632   -4.294957    0.914118
  C     -3.474641   -3.605898   -0.259608
  H     -2.354548   -2.127602    0.871433
  H     -3.166611   -1.499693   -0.545037
  C     -3.827078   -4.661097    0.786174
  H     -2.560559   -3.889391   -0.788050
  H     -4.255932   -3.570040   -1.019300
  C     -4.457800   -5.941875    0.229195
  H     -5.177347   -5.542575   -1.797714
  H     -6.074202   -6.768894   -0.921272
  H     -4.530506   -4.253640    1.511979
  H     -2.933400   -4.932302    1.356825
  H     -3.681064   -6.562236   -0.229885
  H     -4.843942   -6.512728    1.075805

 Total Charge           Charge          ....    0
 Multiplicity           Mult            ....    1
 Number of Electrons    NEL             ....   98
 Basis Dimension        Dim             ....  560

ORBITAL ENERGIES
----------------

  NO   OCC          E(Eh)            E(eV)
   0   2.0000     -88.343969     -2403.9616
   1   2.0000     -24.409592      -664.2188
   2   2.0000     -18.783009      -511.1117
   3   2.0000     -18.781693      -511.0759
   4   2.0000      -9.965501      -271.1751
   5   2.0000      -9.931067      -270.2381
   6   2.0000      -9.899875      -269.3893
   7   2.0000      -9.889593      -269.1095
   8   2.0000      -9.881813      -268.8978
   9   2.0000      -9.868268      -268.5292
  10   2.0000      -9.813020      -267.0258
  11   2.0000      -7.875749      -214.3100
  12   2.0000      -5.907808      -160.7596
  13   2.0000      -5.901393      -160.5851
  14   2.0000      -5.901052      -160.5758
  15   2.0000      -1.283620       -34.9291
  16   2.0000      -1.009793       -27.4779
  17   2.0000      -0.917308       -24.9612
  18   2.0000      -0.753232       -20.4965
  19   2.0000      -0.714911       -19.4537
  20   2.0000      -0.678013       -18.4497
  21   2.0000      -0.653357       -17.7787
  22   2.0000      -0.619630       -16.8610
  23   2.0000      -0.576110       -15.6767
  24   2.0000      -0.545210       -14.8359
  25   2.0000      -0.529283       -14.4025
  26   2.0000      -0.518650       -14.1132
  27   2.0000      -0.493053       -13.4167
  28   2.0000      -0.478712       -13.0264
  29   2.0000      -0.438833       -11.9413
  30   2.0000      -0.438584       -11.9345
  31   2.0000      -0.414126       -11.2690
  32   2.0000      -0.411114       -11.1870
  33   2.0000      -0.389214       -10.5911
  34   2.0000      -0.382424       -10.4063
  35   2.0000      -0.362916        -9.8755
  36   2.0000      -0.361226        -9.8295
  37   2.0000      -0.339298        -9.2328
  38   2.0000      -0.331140        -9.0108
  39   2.0000      -0.327418        -8.9095
  40   2.0000      -0.298748        -8.1294
  41   2.0000      -0.293983        -7.9997
  42   2.0000      -0.289916        -7.8890
  43   2.0000      -0.287433        -7.8214
  44   2.0000      -0.278363        -7.5746
  45   2.0000      -0.266467        -7.2509
  46   2.0000      -0.252552        -6.8723
  47   2.0000      -0.245843        -6.6897
  48   2.0000      -0.224376        -6.1056
  49   0.0000      -0.032373        -0.8809
  50   0.0000      -0.021845        -0.5944
  51   0.0000       0.002284         0.0621
  52   0.0000       0.002908         0.0791
  53   0.0000       0.008799         0.2394

MULLIKEN ATOMIC CHARGES
-----------------------
   0 C :   -0.204735
   1 C :   -1.907781
   2 C :   -0.714374
   3 C :   -0.884325
   4 S :    1.197512
   5 H :    0.649185
   6 H :    0.476570
   7 H :    0.670891
   8 F :   -0.064923
   9 O :   -0.670712
  10 H :    0.255379
  11 H :    0.230173
  12 O :   -0.686226
  13 C :   -0.474952
  14 H :    0.229783
  15 H :    0.266576
  16 C :   -0.447083
  17 H :    0.338158
  18 H :    0.343481
  19 C :   -0.538547
  20 H :    0.380915
  21 H :    0.359584
  22 H :    0.348399
  23 H :    0.306408
  24 H :    0.256958
  25 H :    0.283684
Sum of atomic charges:   -0.0000000

LOEWDIN ATOMIC CHARGES
----------------------
   0 C :   -0.234979
   1 C :   -0.119512
   2 C :   -0.197169
   3 C :   -0.217451
   4 S :    0.636205
   5 H :    0.019622
   6 H :    0.064363
   7 H :   -0.009364
   8 F :   -0.026079
   9 O :   -0.286114
  10 H :    0.099831
  11 H :    0.100316
  12 O :   -0.275485
  13 C :   -0.195657
  14 H :    0.101342
  15 H :    0.108928
  16 C :   -0.193814
  17 H :    0.111152
  18 H :    0.082527
  19 C :   -0.198187
  20 H :    0.100789
  21 H :    0.092752
  22 H :    0.092144
  23 H :    0.117284
  24 H :    0.115961
  25 H :    0.110593

  Mayer bond orders larger than 0.100000
B(  0-C ,  1-C ) :   0.3119 B(  0-C ,  2-C ) :   0.8277 B(  0-C , 10-H ) :   0.9057
B(  0-C , 11-H ) :   0.9677 B(  0-C , 13-C ) :  -0.1135 B(  0-C , 16-C ) :   0.1576
B(  1-C ,  2-C ) :   0.1152 B(  1-C ,  5-H ) :   0.5736 B(  1-C ,  6-H ) :   0.7338
B(  1-C ,  7-H ) :   0.6682 B(  1-C ,  9-O ) :   0.1316 B(  1-C , 12-O ) :   0.1514
B(  2-C , 13-C ) :   0.9098 B(  2-C , 14-H ) :   0.9581 B(  2-C , 15-H ) :   0.9213
B(  2-C , 16-C ) :   0.1479 B(  3-C ,  4-S ) :   0.9156 B(  3-C ,  8-F ) :   0.1083
B(  3-C ,  9-O ) :   0.1492 B(  3-C , 12-O ) :   0.1029 B(  3-C , 13-C ) :   0.1393
B(  3-C , 19-C ) :   0.8191 B(  3-C , 20-H ) :   0.8613 B(  3-C , 21-H ) :   0.8686
B(  4-S ,  8-F ) :   0.8667 B(  4-S ,  9-O ) :   1.6557 B(  4-S , 12-O ) :   1.6994
B(  5-H ,  9-O ) :  -0.1297 B(  7-H , 12-O ) :  -0.2424 B(  9-O , 12-O ) :   0.1972
B( 13-C , 16-C ) :   0.3858 B( 13-C , 17-H ) :   0.8706 B( 13-C , 18-H ) :   1.0043
B( 13-C , 19-C ) :   0.1578 B( 16-C , 19-C ) :   0.8768 B( 16-C , 22-H ) :   0.9669
B( 16-C , 23-H ) :   0.8841 B( 19-C , 24-H ) :   0.9491 B( 19-C , 25-H ) :   0.9189

Dispersion correction           -0.062316465
FINAL SINGLE POINT ENERGY      -924.245061491422

DIPOLE MOMENT
-------------
                                X             Y             Z
Electronic contribution:    -18.96989      -8.57672      -6.69604
Nuclear contribution   :     19.08524       6.89775       6.14221
                        -----------------------------------------
Total Dipole Moment    :      0.11535      -1.67897      -0.55382
                        -----------------------------------------
Magnitude (a.u.)       :      1.77171
Magnitude (Debye)      :      4.50334

Rotational constants in cm-1:     0.049343     0.024787     0.019726
Rotational constants in MHz :  1479.262779   743.087234   591.370705

                             ****ORCA TERMINATED NORMALLY****
TOTAL RUN TIME: 0 days 0 hours 0 minutes 59 seconds 174 msec
