                         Program Version 5.0.0 -  RELEASE  -
|  1> !BLYP D3BJ RIJCOSX def2-TZVPD def2/J TightSCF xyzfile
|  2>
|  3> *xyzfile 0 1 D2.xyz
|  4>
|  5> %MaxCore 64000
|  6>
|  7> %pal nprocs 4
|  8> end
|  9>
| 10> %scf
| 11>   MaxIter 150
| 12> end
| 13>
| 14>
| 15>                          ****END OF INPUT****

CARTESIAN COORDINATES (ANGSTROEM)
---------------------------------
  C     -4.382623   -1.670889    1.216201
  C     -5.763539   -1.915170    0.705012
  C     -3.281728   -2.191272    0.294361
  C     -5.572364   -5.807798   -0.816445
  S     -6.903179   -4.619033   -0.528458
  H     -5.840812   -2.115205   -0.300646
  H     -6.408823   -1.148656    0.936124
  H     -6.174781   -2.790606    1.051433
  O     -8.114853   -5.250932   -0.957007
  F     -6.532715   -3.426838   -1.314848
  H     -4.328618   -2.139223    2.198103
  H     -4.261583   -0.597399    1.357248
  O     -6.865632   -4.294957    0.914118
  C     -3.474641   -3.605898   -0.259608
  H     -2.354548   -2.127602    0.871433
  H     -3.166611   -1.499693   -0.545037
  C     -3.827078   -4.661097    0.786174
  H     -2.560559   -3.889391   -0.788050
  H     -4.255932   -3.570040   -1.019300
  C     -4.457800   -5.941875    0.229195
  H     -5.177347   -5.542575   -1.797714
  H     -6.074202   -6.768894   -0.921272
  H     -4.530506   -4.253640    1.511979
  H     -2.933400   -4.932302    1.356825
  H     -3.681064   -6.562236   -0.229885
  H     -4.843942   -6.512728    1.075805

 Total Charge           Charge          ....    0
 Multiplicity           Mult            ....    1
 Number of Electrons    NEL             ....   98
 Basis Dimension        Dim             ....  560

ORBITAL ENERGIES
----------------

  NO   OCC          E(Eh)            E(eV)
   0   2.0000     -88.339393     -2403.8371
   1   2.0000     -24.387569      -663.6195
   2   2.0000     -18.791788      -511.3506
   3   2.0000     -18.778691      -510.9942
   4   2.0000      -9.964268      -271.1415
   5   2.0000      -9.930886      -270.2332
   6   2.0000      -9.906588      -269.5720
   7   2.0000      -9.904990      -269.5285
   8   2.0000      -9.894837      -269.2522
   9   2.0000      -9.882308      -268.9113
  10   2.0000      -9.833769      -267.5904
  11   2.0000      -7.871315      -214.1894
  12   2.0000      -5.903497      -160.6423
  13   2.0000      -5.897007      -160.4657
  14   2.0000      -5.896476      -160.4513
  15   2.0000      -1.251722       -34.0611
  16   2.0000      -1.018866       -27.7247
  17   2.0000      -0.928612       -25.2688
  18   2.0000      -0.755675       -20.5630
  19   2.0000      -0.723333       -19.6829
  20   2.0000      -0.679308       -18.4849
  21   2.0000      -0.655825       -17.8459
  22   2.0000      -0.622173       -16.9302
  23   2.0000      -0.586536       -15.9604
  24   2.0000      -0.549874       -14.9628
  25   2.0000      -0.514849       -14.0098
  26   2.0000      -0.504016       -13.7150
  27   2.0000      -0.491991       -13.3877
  28   2.0000      -0.491894       -13.3851
  29   2.0000      -0.442426       -12.0390
  30   2.0000      -0.434715       -11.8292
  31   2.0000      -0.415090       -11.2952
  32   2.0000      -0.407572       -11.0906
  33   2.0000      -0.403294       -10.9742
  34   2.0000      -0.385951       -10.5022
  35   2.0000      -0.374625       -10.1941
  36   2.0000      -0.354123        -9.6362
  37   2.0000      -0.347018        -9.4428
  38   2.0000      -0.343141        -9.3373
  39   2.0000      -0.338211        -9.2032
  40   2.0000      -0.313211        -8.5229
  41   2.0000      -0.308192        -8.3863
  42   2.0000      -0.305416        -8.3108
  43   2.0000      -0.289453        -7.8764
  44   2.0000      -0.284626        -7.7451
  45   2.0000      -0.275871        -7.5068
  46   2.0000      -0.269276        -7.3274
  47   2.0000      -0.267825        -7.2879
  48   2.0000      -0.232835        -6.3358
  49   0.0000      -0.028043        -0.7631
  50   0.0000      -0.017670        -0.4808
  51   0.0000      -0.006031        -0.1641
  52   0.0000      -0.000097        -0.0026
  53   0.0000       0.009325         0.2538

MULLIKEN ATOMIC CHARGES
-----------------------
   0 C :   -0.194202
   1 C :   -2.017577
   2 C :   -0.711390
   3 C :   -0.867605
   4 S :    1.218924
   5 H :    0.637168
   6 H :    0.472201
   7 H :    0.771943
   8 O :   -0.536980
   9 F :   -0.246272
  10 H :    0.263735
  11 H :    0.228841
  12 O :   -0.669810
  13 C :   -0.457524
  14 H :    0.227537
  15 H :    0.267795
  16 C :   -0.449910
  17 H :    0.337597
  18 H :    0.291647
  19 C :   -0.517974
  20 H :    0.435414
  21 H :    0.290525
  22 H :    0.354069
  23 H :    0.301356
  24 H :    0.270030
  25 H :    0.300463
Sum of atomic charges:   -0.0000000

LOEWDIN ATOMIC CHARGES
----------------------
   0 C :   -0.232235
   1 C :   -0.117815
   2 C :   -0.197560
   3 C :   -0.213583
   4 S :    0.621217
   5 H :    0.030002
   6 H :    0.066260
   7 H :   -0.010949
   8 O :   -0.235601
   9 F :   -0.093138
  10 H :    0.103009
  11 H :    0.102149
  12 O :   -0.272412
  13 C :   -0.197371
  14 H :    0.104058
  15 H :    0.108761
  16 C :   -0.195664
  17 H :    0.113396
  18 H :    0.080430
  19 C :   -0.200234
  20 H :    0.097403
  21 H :    0.102230
  22 H :    0.092115
  23 H :    0.118332
  24 H :    0.114477
  25 H :    0.112724

  Mayer bond orders larger than 0.100000
B(  0-C ,  1-C ) :   0.3148 B(  0-C ,  2-C ) :   0.8318 B(  0-C , 10-H ) :   0.9037
B(  0-C , 11-H ) :   0.9725 B(  0-C , 13-C ) :  -0.1039 B(  0-C , 16-C ) :   0.1613
B(  1-C ,  2-C ) :   0.1279 B(  1-C ,  4-S ) :   0.1161 B(  1-C ,  5-H ) :   0.5323
B(  1-C ,  6-H ) :   0.7330 B(  1-C ,  7-H ) :   0.4907 B(  1-C ,  9-F ) :   0.1823
B(  1-C , 12-O ) :   0.2107 B(  2-C , 13-C ) :   0.9065 B(  2-C , 14-H ) :   0.9512
B(  2-C , 15-H ) :   0.9254 B(  2-C , 16-C ) :   0.1396 B(  3-C ,  4-S ) :   0.9206
B(  3-C ,  8-O ) :   0.1735 B(  3-C , 13-C ) :   0.1371 B(  3-C , 19-C ) :   0.7812
B(  3-C , 20-H ) :   0.7776 B(  3-C , 21-H ) :   0.9638 B(  4-S ,  8-O ) :   1.4079
B(  4-S ,  9-F ) :   1.0260 B(  4-S , 12-O ) :   1.6462 B(  5-H ,  9-F ) :  -0.1054
B(  7-H , 12-O ) :  -0.2570 B(  9-F , 12-O ) :   0.1022 B( 13-C , 16-C ) :   0.4064
B( 13-C , 17-H ) :   0.8681 B( 13-C , 18-H ) :   1.0303 B( 13-C , 19-C ) :   0.1325
B( 16-C , 18-H ) :  -0.1183 B( 16-C , 19-C ) :   0.8816 B( 16-C , 22-H ) :   0.9602
B( 16-C , 23-H ) :   0.8767 B( 19-C , 24-H ) :   0.9584 B( 19-C , 25-H ) :   0.9156

Dispersion correction           -0.061695953
FINAL SINGLE POINT ENERGY      -924.261589102939

DIPOLE MOMENT
-------------
                                X             Y             Z
Electronic contribution:    -16.03607      -5.34277      -7.17703
Nuclear contribution   :     17.25367       4.78608       6.55647
                        -----------------------------------------
Total Dipole Moment    :      1.21760      -0.55669      -0.62056
                        -----------------------------------------
Magnitude (a.u.)       :      1.47565
Magnitude (Debye)      :      3.75080

Rotational constants in cm-1:     0.048508     0.025517     0.020225
Rotational constants in MHz :  1454.219007   764.979652   606.316599

                             ****ORCA TERMINATED NORMALLY****
TOTAL RUN TIME: 0 days 0 hours 0 minutes 58 seconds 835 msec
