                         Program Version 5.0.0 -  RELEASE  -
|  1> !BLYP D3BJ RIJCOSX def2-TZVPD def2/J TightSCF xyzfile
|  2>
|  3> *xyzfile 0 1 D3.xyz
|  4>
|  5> %MaxCore 64000
|  6>
|  7> %pal nprocs 4
|  8> end
|  9>
| 10> %scf
| 11>   MaxIter 150
| 12> end
| 13>
| 14>
| 15>                          ****END OF INPUT****

CARTESIAN COORDINATES (ANGSTROEM)
---------------------------------
  C     -4.382623   -1.670889    1.216201
  C     -5.763539   -1.915170    0.705012
  C     -3.281728   -2.191272    0.294361
  C     -5.572364   -5.807798   -0.816445
  S     -6.903179   -4.619033   -0.528458
  H     -5.840812   -2.115205   -0.300646
  H     -6.408823   -1.148656    0.936124
  H     -6.174781   -2.790606    1.051433
  O     -8.114853   -5.250932   -0.957007
  O     -6.532715   -3.426838   -1.314848
  H     -4.328618   -2.139223    2.198103
  H     -4.261583   -0.597399    1.357248
  F     -6.865632   -4.294957    0.914118
  C     -3.474641   -3.605898   -0.259608
  H     -2.354548   -2.127602    0.871433
  H     -3.166611   -1.499693   -0.545037
  C     -3.827078   -4.661097    0.786174
  H     -2.560559   -3.889391   -0.788050
  H     -4.255932   -3.570040   -1.019300
  C     -4.457800   -5.941875    0.229195
  H     -5.177347   -5.542575   -1.797714
  H     -6.074202   -6.768894   -0.921272
  H     -4.530506   -4.253640    1.511979
  H     -2.933400   -4.932302    1.356825
  H     -3.681064   -6.562236   -0.229885
  H     -4.843942   -6.512728    1.075805

 Total Charge           Charge          ....    0
 Multiplicity           Mult            ....    1
 Number of Electrons    NEL             ....   98
 Basis Dimension        Dim             ....  560

ORBITAL ENERGIES
----------------

  NO   OCC          E(Eh)            E(eV)
   0   2.0000     -88.338703     -2403.8183
   1   2.0000     -24.387924      -663.6292
   2   2.0000     -18.791494      -511.3426
   3   2.0000     -18.776758      -510.9415
   4   2.0000      -9.963460      -271.1195
   5   2.0000      -9.935251      -270.3519
   6   2.0000      -9.912925      -269.7444
   7   2.0000      -9.898523      -269.3525
   8   2.0000      -9.892145      -269.1790
   9   2.0000      -9.882638      -268.9203
  10   2.0000      -9.835491      -267.6373
  11   2.0000      -7.870697      -214.1725
  12   2.0000      -5.903015      -160.6292
  13   2.0000      -5.896193      -160.4436
  14   2.0000      -5.895908      -160.4358
  15   2.0000      -1.251619       -34.0583
  16   2.0000      -1.018974       -27.7277
  17   2.0000      -0.927379       -25.2353
  18   2.0000      -0.758291       -20.6341
  19   2.0000      -0.722199       -19.6520
  20   2.0000      -0.679124       -18.4799
  21   2.0000      -0.655710       -17.8428
  22   2.0000      -0.623079       -16.9548
  23   2.0000      -0.586467       -15.9586
  24   2.0000      -0.553626       -15.0649
  25   2.0000      -0.516970       -14.0675
  26   2.0000      -0.512181       -13.9372
  27   2.0000      -0.489527       -13.3207
  28   2.0000      -0.483170       -13.1477
  29   2.0000      -0.441427       -12.0118
  30   2.0000      -0.434699       -11.8288
  31   2.0000      -0.417700       -11.3662
  32   2.0000      -0.404184       -10.9984
  33   2.0000      -0.398714       -10.8496
  34   2.0000      -0.394111       -10.7243
  35   2.0000      -0.376478       -10.2445
  36   2.0000      -0.353557        -9.6208
  37   2.0000      -0.347628        -9.4594
  38   2.0000      -0.342072        -9.3082
  39   2.0000      -0.339548        -9.2396
  40   2.0000      -0.313892        -8.5414
  41   2.0000      -0.307549        -8.3688
  42   2.0000      -0.301299        -8.1988
  43   2.0000      -0.289389        -7.8747
  44   2.0000      -0.285413        -7.7665
  45   2.0000      -0.278291        -7.5727
  46   2.0000      -0.263680        -7.1751
  47   2.0000      -0.261450        -7.1144
  48   2.0000      -0.243031        -6.6132
  49   0.0000      -0.035917        -0.9773
  50   0.0000      -0.010117        -0.2753
  51   0.0000      -0.003275        -0.0891
  52   0.0000      -0.000755        -0.0205
  53   0.0000       0.010876         0.2960

MULLIKEN ATOMIC CHARGES
-----------------------
   0 C :   -0.164343
   1 C :   -2.059885
   2 C :   -0.728958
   3 C :   -0.767978
   4 S :    1.253039
   5 H :    0.748920
   6 H :    0.494192
   7 H :    0.654438
   8 O :   -0.548101
   9 O :   -0.660509
  10 H :    0.258618
  11 H :    0.229426
  12 F :   -0.270656
  13 C :   -0.431801
  14 H :    0.234182
  15 H :    0.273435
  16 C :   -0.428188
  17 H :    0.333992
  18 H :    0.355099
  19 C :   -0.626935
  20 H :    0.383751
  21 H :    0.295611
  22 H :    0.307087
  23 H :    0.302675
  24 H :    0.260608
  25 H :    0.302282
Sum of atomic charges:    0.0000000

LOEWDIN ATOMIC CHARGES
----------------------
   0 C :   -0.234270
   1 C :   -0.116109
   2 C :   -0.195401
   3 C :   -0.207819
   4 S :    0.620088
   5 H :    0.019536
   6 H :    0.066453
   7 H :    0.006878
   8 O :   -0.235502
   9 O :   -0.285574
  10 H :    0.099319
  11 H :    0.102940
  12 F :   -0.088427
  13 C :   -0.195733
  14 H :    0.102733
  15 H :    0.110748
  16 C :   -0.197368
  17 H :    0.113460
  18 H :    0.083186
  19 C :   -0.206685
  20 H :    0.107371
  21 H :    0.098304
  22 H :    0.089741
  23 H :    0.118315
  24 H :    0.114950
  25 H :    0.108866

  Mayer bond orders larger than 0.100000
B(  0-C ,  1-C ) :   0.2879 B(  0-C ,  2-C ) :   0.8227 B(  0-C , 10-H ) :   0.9077
B(  0-C , 11-H ) :   0.9649 B(  0-C , 13-C ) :  -0.1052 B(  0-C , 16-C ) :   0.1374
B(  1-C ,  2-C ) :   0.1255 B(  1-C ,  4-S ) :   0.1041 B(  1-C ,  5-H ) :   0.3990
B(  1-C ,  6-H ) :   0.6848 B(  1-C ,  7-H ) :   0.6373 B(  1-C ,  9-O ) :   0.1994
B(  1-C , 12-F ) :   0.2104 B(  2-C , 13-C ) :   0.9162 B(  2-C , 14-H ) :   0.9577
B(  2-C , 15-H ) :   0.9154 B(  2-C , 16-C ) :   0.1702 B(  3-C ,  4-S ) :   0.8789
B(  3-C ,  8-O ) :   0.1805 B(  3-C ,  9-O ) :   0.1569 B(  3-C , 13-C ) :   0.1163
B(  3-C , 19-C ) :   0.7890 B(  3-C , 20-H ) :   0.8481 B(  3-C , 21-H ) :   0.9878
B(  4-S ,  8-O ) :   1.4060 B(  4-S ,  9-O ) :   1.6009 B(  4-S , 12-F ) :   1.0908
B(  5-H ,  9-O ) :  -0.1645 B(  7-H , 12-F ) :  -0.1965 B(  9-O , 12-F ) :   0.1025
B( 13-C , 16-C ) :   0.3526 B( 13-C , 17-H ) :   0.8692 B( 13-C , 18-H ) :   1.0071
B( 13-C , 19-C ) :   0.1407 B( 16-C , 18-H ) :  -0.1083 B( 16-C , 19-C ) :   0.8231
B( 16-C , 22-H ) :   0.9825 B( 16-C , 23-H ) :   0.8898 B( 19-C , 24-H ) :   0.9453
B( 19-C , 25-H ) :   0.9423

Dispersion correction           -0.061620372
FINAL SINGLE POINT ENERGY      -924.260606224290

DIPOLE MOMENT
-------------
                                X             Y             Z
Electronic contribution:    -16.58960      -6.79951      -3.47528
Nuclear contribution   :     17.63907       5.79106       3.97609
                        -----------------------------------------
Total Dipole Moment    :      1.04947      -1.00845       0.50082
                        -----------------------------------------
Magnitude (a.u.)       :      1.53921
Magnitude (Debye)      :      3.91236

Rotational constants in cm-1:     0.048663     0.025472     0.020259
Rotational constants in MHz :  1458.892793   763.621130   607.350055

                             ****ORCA TERMINATED NORMALLY****
TOTAL RUN TIME: 0 days 0 hours 0 minutes 57 seconds 727 msec
