                         Program Version 5.0.0 -  RELEASE  -
|  1> !BLYP D3BJ RIJCOSX def2-SVP def2/J TightSCF
|  2> *xyz -1 1
|  3> C          3.80351        1.37472       -3.26081
|  4> C          3.93993        0.32036       -4.36773
|  5> H          4.10504       -0.65508       -3.90773
|  6> H          3.02280        0.28052       -4.95712
|  7> C          5.10585        0.66802       -5.30546
|  8> O          4.80913        1.15019       -6.41436
|  9> O          6.26737        0.56500       -4.81948
| 10> H          3.64113        2.33595       -3.70189
| 11> H          4.69995        1.39701       -2.67703
| 12> H          2.97435        1.12625       -2.63180
| 13> *
| 14>
| 15> %MaxCore 64000
| 16>
| 17> %pal nprocs 4
| 18> end
| 19>
| 20> %scf
| 21>   MaxIter 150
| 22> end
| 23>
| 24>
| 25>                          ****END OF INPUT****

CARTESIAN COORDINATES (ANGSTROEM)
---------------------------------
  C      3.803510    1.374720   -3.260810
  C      3.939930    0.320360   -4.367730
  H      4.105040   -0.655080   -3.907730
  H      3.022800    0.280520   -4.957120
  C      5.105850    0.668020   -5.305460
  O      4.809130    1.150190   -6.414360
  O      6.267370    0.565000   -4.819480
  H      3.641130    2.335950   -3.701890
  H      4.699950    1.397010   -2.677030
  H      2.974350    1.126250   -2.631800

 Total Charge           Charge          ....   -1
 Multiplicity           Mult            ....    1
 Number of Electrons    NEL             ....   40
 Basis Dimension        Dim             ....   95

ORBITAL ENERGIES
----------------

  NO   OCC          E(Eh)            E(eV)
   0   2.0000     -18.482103      -502.9236
   1   2.0000     -18.479086      -502.8415
   2   2.0000      -9.761775      -265.6314
   3   2.0000      -9.748365      -265.2665
   4   2.0000      -9.723608      -264.5928
   5   2.0000      -0.673883       -18.3373
   6   2.0000      -0.586177       -15.9507
   7   2.0000      -0.500851       -13.6289
   8   2.0000      -0.376639       -10.2489
   9   2.0000      -0.236689        -6.4406
  10   2.0000      -0.220080        -5.9887
  11   2.0000      -0.175988        -4.7889
  12   2.0000      -0.154360        -4.2003
  13   2.0000      -0.137525        -3.7422
  14   2.0000      -0.120909        -3.2901
  15   2.0000      -0.089562        -2.4371
  16   2.0000      -0.083179        -2.2634
  17   2.0000       0.035455         0.9648
  18   2.0000       0.047691         1.2978
  19   2.0000       0.064719         1.7611
  20   0.0000       0.198149         5.3919
  21   0.0000       0.245300         6.6749
  22   0.0000       0.253903         6.9091
  23   0.0000       0.260349         7.0844
  24   0.0000       0.270297         7.3551

MULLIKEN ATOMIC CHARGES
-----------------------
   0 C :    0.098415
   1 C :    0.129314
   2 H :   -0.098289
   3 H :   -0.108865
   4 C :   -0.091581
   5 O :   -0.359541
   6 O :   -0.390710
   7 H :   -0.048082
   8 H :   -0.048428
   9 H :   -0.082232
Sum of atomic charges:   -1.0000000

LOEWDIN ATOMIC CHARGES
----------------------
   0 C :   -0.047035
   1 C :   -0.079140
   2 H :   -0.014257
   3 H :   -0.018829
   4 C :   -0.093307
   5 O :   -0.353734
   6 O :   -0.380110
   7 H :    0.002060
   8 H :   -0.000511
   9 H :   -0.015139

  Mayer bond orders larger than 0.100000
B(  0-C ,  1-C ) :   1.1302 B(  0-C ,  7-H ) :   0.9588 B(  0-C ,  8-H ) :   0.9509
B(  0-C ,  9-H ) :   0.9506 B(  1-C ,  2-H ) :   0.9020 B(  1-C ,  3-H ) :   0.9008
B(  1-C ,  4-C ) :   0.9119 B(  4-C ,  5-O ) :   1.9030 B(  4-C ,  6-O ) :   1.8499
B(  5-O ,  6-O ) :   0.1407

Dispersion correction           -0.013615532
FINAL SINGLE POINT ENERGY      -267.536732692143

DIPOLE MOMENT
-------------
                                X             Y             Z
Electronic contribution:      4.02108      -0.41038      -4.74574
Nuclear contribution   :     -5.15232       0.33441       5.87398
                        -----------------------------------------
Total Dipole Moment    :     -1.13124      -0.07597       1.12824
                        -----------------------------------------
Magnitude (a.u.)       :      1.59950
Magnitude (Debye)      :      4.06561

Rotational constants in cm-1:     0.295355     0.137164     0.110193
Rotational constants in MHz :  8854.523706  4112.077980  3303.490503

                             ****ORCA TERMINATED NORMALLY****
TOTAL RUN TIME: 0 days 0 hours 0 minutes 7 seconds 395 msec
