                         Program Version 5.0.0 -  RELEASE  -
|  1> !BLYP D3BJ RIJCOSX def2-SVP def2/J TightSCF
|  2> *xyz 1 1
|  3> C          3.90595        2.81985       -3.75292
|  4> N          5.29562        3.13151       -4.10533
|  5> C          3.80351        1.37472       -3.26081
|  6> C          5.70862        3.46889       -5.32419
|  7> N          6.90470        3.03895       -5.71708
|  8> N          4.98188        4.29357       -6.09746
|  9> H          5.00055        4.10131       -7.08776
| 10> H          4.08469        4.59690       -5.73965
| 11> H          5.96336        2.52611       -3.64239
| 12> H          7.04716        2.06686       -5.47360
| 13> H          7.19815        3.30799       -6.64523
| 14> H          3.28202        2.94919       -4.64026
| 15> H          3.56525        3.51457       -2.98252
| 16> H          4.14157        0.71142       -4.02935
| 17> H          2.78528        1.15146       -3.01944
| 18> H          4.41205        1.25066       -2.38949
| 19> *
| 20>
| 21> %MaxCore 64000
| 22>
| 23> %pal nprocs 4
| 24> end
| 25>
| 26> %scf
| 27>   MaxIter 150
| 28> end
| 29>
| 30>
| 31>                          ****END OF INPUT****

CARTESIAN COORDINATES (ANGSTROEM)
---------------------------------
  C      3.905950    2.819850   -3.752920
  N      5.295620    3.131510   -4.105330
  C      3.803510    1.374720   -3.260810
  C      5.708620    3.468890   -5.324190
  N      6.904700    3.038950   -5.717080
  N      4.981880    4.293570   -6.097460
  H      5.000550    4.101310   -7.087760
  H      4.084690    4.596900   -5.739650
  H      5.963360    2.526110   -3.642390
  H      7.047160    2.066860   -5.473600
  H      7.198150    3.307990   -6.645230
  H      3.282020    2.949190   -4.640260
  H      3.565250    3.514570   -2.982520
  H      4.141570    0.711420   -4.029350
  H      2.785280    1.151460   -3.019440
  H      4.412050    1.250660   -2.389490

 Total Charge           Charge          ....    1
 Multiplicity           Mult            ....    1
 Number of Electrons    NEL             ....   48
 Basis Dimension        Dim             ....  134

ORBITAL ENERGIES
----------------

  NO   OCC          E(Eh)            E(eV)
   0   2.0000     -14.246395      -387.6641
   1   2.0000     -14.245056      -387.6277
   2   2.0000     -14.242746      -387.5648
   3   2.0000     -10.244333      -278.7625
   4   2.0000     -10.130064      -275.6531
   5   2.0000     -10.067666      -273.9551
   6   2.0000      -1.116802       -30.3897
   7   2.0000      -1.012192       -27.5431
   8   2.0000      -1.004503       -27.3339
   9   2.0000      -0.850198       -23.1351
  10   2.0000      -0.761686       -20.7265
  11   2.0000      -0.738252       -20.0888
  12   2.0000      -0.714155       -19.4331
  13   2.0000      -0.682942       -18.5838
  14   2.0000      -0.643867       -17.5205
  15   2.0000      -0.633172       -17.2295
  16   2.0000      -0.594661       -16.1815
  17   2.0000      -0.574035       -15.6203
  18   2.0000      -0.540413       -14.7054
  19   2.0000      -0.508703       -13.8425
  20   2.0000      -0.487656       -13.2698
  21   2.0000      -0.473248       -12.8777
  22   2.0000      -0.438383       -11.9290
  23   2.0000      -0.413021       -11.2389
  24   0.0000      -0.212492        -5.7822
  25   0.0000      -0.162556        -4.4234
  26   0.0000      -0.129623        -3.5272
  27   0.0000      -0.115543        -3.1441
  28   0.0000      -0.099308        -2.7023

MULLIKEN ATOMIC CHARGES
-----------------------
   0 C :    0.085947
   1 N :   -0.010032
   2 C :    0.040676
   3 C :   -0.142630
   4 N :    0.074711
   5 N :    0.065747
   6 H :    0.153327
   7 H :    0.148774
   8 H :    0.129092
   9 H :    0.153957
  10 H :    0.145424
  11 H :    0.014439
  12 H :    0.052512
  13 H :    0.007906
  14 H :    0.047725
  15 H :    0.032424
Sum of atomic charges:    1.0000000

LOEWDIN ATOMIC CHARGES
----------------------
   0 C :    0.048584
   1 N :    0.057421
   2 C :   -0.030485
   3 C :    0.099654
   4 N :    0.071886
   5 N :    0.072405
   6 H :    0.103630
   7 H :    0.102946
   8 H :    0.095602
   9 H :    0.103570
  10 H :    0.104252
  11 H :    0.023973
  12 H :    0.039905
  13 H :    0.023960
  14 H :    0.049541
  15 H :    0.033159

  Mayer bond orders larger than 0.100000
B(  0-C ,  1-N ) :   0.9578 B(  0-C ,  2-C ) :   1.1319 B(  0-C , 11-H ) :   0.9355
B(  0-C , 12-H ) :   0.9371 B(  1-N ,  3-C ) :   1.4002 B(  1-N ,  8-H ) :   0.9070
B(  2-C , 13-H ) :   0.9663 B(  2-C , 14-H ) :   0.9516 B(  2-C , 15-H ) :   0.9618
B(  3-C ,  4-N ) :   1.3780 B(  3-C ,  5-N ) :   1.3857 B(  4-N ,  9-H ) :   0.9298
B(  4-N , 10-H ) :   0.9273 B(  5-N ,  6-H ) :   0.9281 B(  5-N ,  7-H ) :   0.9224

Dispersion correction           -0.024721872
FINAL SINGLE POINT ENERGY      -284.069559765176

DIPOLE MOMENT
-------------
                                X             Y             Z
Electronic contribution:      3.57006       3.43268      -2.70026
Nuclear contribution   :     -3.31456      -3.64300       1.57303
                        -----------------------------------------
Total Dipole Moment    :      0.25550      -0.21032      -1.12722
                        -----------------------------------------
Magnitude (a.u.)       :      1.17480
Magnitude (Debye)      :      2.98609

Rotational constants in cm-1:     0.229487     0.071000     0.059428
Rotational constants in MHz :  6879.840828  2128.520047  1781.605314

                             ****ORCA TERMINATED NORMALLY****
TOTAL RUN TIME: 0 days 0 hours 0 minutes 8 seconds 571 msec
