                         Program Version 5.0.0 -  RELEASE  -
|  1> !BLYP D3BJ RIJCOSX def2-TZVP def2/J TightSCF xyzfile
|  2>
|  3> *xyzfile 0 1 B.xyz
|  4>
|  5> %MaxCore 64000
|  6>
|  7> %pal nprocs 18
|  8> end
|  9>
| 10> %scf
| 11>   MaxIter 150
| 12> end
| 13>
| 14>
| 15>                          ****END OF INPUT****

CARTESIAN COORDINATES (ANGSTROEM)
---------------------------------
  C      3.905947    2.819855   -3.752920
  N      5.295615    3.131515   -4.105334
  C      3.803511    1.374716   -3.260807
  C      3.939934    0.320362   -4.367729
  H      4.105043   -0.655085   -3.907733
  H      3.022801    0.280517   -4.957117
  C      5.105846    0.668022   -5.305463
  C      5.708619    3.468885   -5.324190
  N      6.904696    3.038954   -5.717084
  N      4.981884    4.293570   -6.097457
  H      5.000546    4.101311   -7.087761
  H      4.084693    4.596899   -5.739652
  H      5.963358    2.526112   -3.642391
  H      7.047164    2.066861   -5.473604
  H      7.198145    3.307994   -6.645225
  H      3.282025    2.949187   -4.640259
  H      3.565254    3.514574   -2.982523
  H      4.574833    1.215157   -2.500443
  H      2.843514    1.260845   -2.751465
  O      4.809132    1.150187   -6.414361
  O      6.267366    0.564999   -4.819481

 Total Charge           Charge          ....    0
 Multiplicity           Mult            ....    1
 Number of Electrons    NEL             ....   78
 Basis Dimension        Dim             ....  376

ORBITAL ENERGIES
----------------

  NO   OCC          E(Eh)            E(eV)
   0   2.0000     -18.688367      -508.5363
   1   2.0000     -18.683118      -508.3935
   2   2.0000     -14.065785      -382.7495
   3   2.0000     -14.057959      -382.5365
   4   2.0000     -14.035579      -381.9275
   5   2.0000     -10.056307      -273.6460
   6   2.0000      -9.962948      -271.1056
   7   2.0000      -9.953216      -270.8408
   8   2.0000      -9.913688      -269.7652
   9   2.0000      -9.880373      -268.8586
  10   2.0000      -0.954727       -25.9794
  11   2.0000      -0.905359       -24.6361
  12   2.0000      -0.855757       -23.2863
  13   2.0000      -0.837945       -22.8016
  14   2.0000      -0.819139       -22.2899
  15   2.0000      -0.715616       -19.4729
  16   2.0000      -0.639473       -17.4010
  17   2.0000      -0.591878       -16.1058
  18   2.0000      -0.557126       -15.1602
  19   2.0000      -0.545487       -14.8434
  20   2.0000      -0.515041       -14.0150
  21   2.0000      -0.478450       -13.0193
  22   2.0000      -0.460482       -12.5303
  23   2.0000      -0.440231       -11.9793
  24   2.0000      -0.426537       -11.6067
  25   2.0000      -0.414991       -11.2925
  26   2.0000      -0.376811       -10.2536
  27   2.0000      -0.367689       -10.0053
  28   2.0000      -0.356555        -9.7024
  29   2.0000      -0.336780        -9.1642
  30   2.0000      -0.328741        -8.9455
  31   2.0000      -0.321467        -8.7476
  32   2.0000      -0.292136        -7.9494
  33   2.0000      -0.288438        -7.8488
  34   2.0000      -0.269361        -7.3297
  35   2.0000      -0.248150        -6.7525
  36   2.0000      -0.189520        -5.1571
  37   2.0000      -0.168917        -4.5965
  38   2.0000      -0.155723        -4.2374
  39   0.0000      -0.046273        -1.2591
  40   0.0000      -0.017502        -0.4762
  41   0.0000       0.008801         0.2395
  42   0.0000       0.021632         0.5886
  43   0.0000       0.033092         0.9005

MULLIKEN ATOMIC CHARGES
-----------------------
   0 C :   -0.058785
   1 N :   -0.197467
   2 C :   -0.223014
   3 C :   -0.130632
   4 H :    0.072167
   5 H :    0.058246
   6 C :    0.233092
   7 C :    0.294191
   8 N :   -0.287835
   9 N :   -0.376857
  10 H :    0.246517
  11 H :    0.230929
  12 H :    0.224040
  13 H :    0.248684
  14 H :    0.204571
  15 H :    0.083223
  16 H :    0.107399
  17 H :    0.092992
  18 H :    0.087814
  19 O :   -0.414438
  20 O :   -0.494837
Sum of atomic charges:    0.0000000

LOEWDIN ATOMIC CHARGES
----------------------
   0 C :   -0.262095
   1 N :    0.172702
   2 C :   -0.259933
   3 C :   -0.240310
   4 H :    0.136538
   5 H :    0.131942
   6 C :   -0.687262
   7 C :   -0.444471
   8 N :    0.064807
   9 N :    0.042534
  10 H :    0.182023
  11 H :    0.175445
  12 H :    0.201951
  13 H :    0.165576
  14 H :    0.171092
  15 H :    0.135086
  16 H :    0.126918
  17 H :    0.137242
  18 H :    0.136294
  19 O :   -0.023183
  20 O :   -0.062895

  Mayer bond orders larger than 0.100000
B(  0-C ,  1-N ) :   0.9269 B(  0-C ,  2-C ) :   0.9684 B(  0-C , 15-H ) :   0.9610
B(  0-C , 16-H ) :   0.9562 B(  1-N ,  7-C ) :   1.3603 B(  1-N , 12-H ) :   0.8906
B(  2-C ,  3-C ) :   0.9816 B(  2-C , 17-H ) :   0.9573 B(  2-C , 18-H ) :   0.9544
B(  3-C ,  4-H ) :   0.9346 B(  3-C ,  5-H ) :   0.9526 B(  3-C ,  6-C ) :   0.9245
B(  6-C , 19-O ) :   1.8747 B(  6-C , 20-O ) :   1.6956 B(  7-C ,  8-N ) :   1.3908
B(  7-C ,  9-N ) :   1.2419 B(  7-C , 19-O ) :   0.1637 B(  8-N , 13-H ) :   0.8011
B(  8-N , 14-H ) :   0.9239 B(  9-N , 10-H ) :   0.9147 B(  9-N , 11-H ) :   0.9202
B( 13-H , 20-O ) :   0.1844

Dispersion correction           -0.046531852
FINAL SINGLE POINT ENERGY      -511.956335532133

DIPOLE MOMENT
-------------
                                X             Y             Z
Electronic contribution:      4.23701       0.35843      -3.49168
Nuclear contribution   :     -4.94498       2.03334       3.78956
                        -----------------------------------------
Total Dipole Moment    :     -0.70797       2.39177       0.29788
                        -----------------------------------------
Magnitude (a.u.)       :      2.51207
Magnitude (Debye)      :      6.38518

Rotational constants in cm-1:     0.062533     0.042832     0.033687
Rotational constants in MHz :  1874.701390  1284.063603  1009.911042

                             ****ORCA TERMINATED NORMALLY****
TOTAL RUN TIME: 0 days 0 hours 0 minutes 12 seconds 877 msec
