                         Program Version 5.0.0 -  RELEASE  -
|  1> !BLYP D3BJ RIJCOSX def2-SVP def2/J TightSCF
|  2> *xyz 0 1
|  3> C          3.80351        1.37472       -3.26081
|  4> C          3.93993        0.32036       -4.36773
|  5> H          4.10504       -0.65508       -3.90773
|  6> H          3.02280        0.28052       -4.95712
|  7> C          5.10585        0.66802       -5.30546
|  8> F          4.80913        1.15019       -6.41436
|  9> O          6.26737        0.56500       -4.81948
| 10> H          3.64113        2.33595       -3.70189
| 11> H          4.69995        1.39701       -2.67703
| 12> H          2.97435        1.12625       -2.63180
| 13> *
| 14>
| 15> %MaxCore 64000
| 16>
| 17> %pal nprocs 4
| 18> end
| 19>
| 20> %scf
| 21>   MaxIter 150
| 22> end
| 23>
| 24>
| 25>                          ****END OF INPUT****

CARTESIAN COORDINATES (ANGSTROEM)
---------------------------------
  C      3.803510    1.374720   -3.260810
  C      3.939930    0.320360   -4.367730
  H      4.105040   -0.655080   -3.907730
  H      3.022800    0.280520   -4.957120
  C      5.105850    0.668020   -5.305460
  F      4.809130    1.150190   -6.414360
  O      6.267370    0.565000   -4.819480
  H      3.641130    2.335950   -3.701890
  H      4.699950    1.397010   -2.677030
  H      2.974350    1.126250   -2.631800

 Total Charge           Charge          ....    0
 Multiplicity           Mult            ....    1
 Number of Electrons    NEL             ....   40
 Basis Dimension        Dim             ....   95

ORBITAL ENERGIES
----------------

  NO   OCC          E(Eh)            E(eV)
   0   2.0000     -24.357534      -662.8022
   1   2.0000     -18.776982      -510.9477
   2   2.0000     -10.080185      -274.2958
   3   2.0000      -9.945071      -270.6191
   4   2.0000      -9.927322      -270.1362
   5   2.0000      -1.187836       -32.3227
   6   2.0000      -0.910468       -24.7751
   7   2.0000      -0.707385       -19.2489
   8   2.0000      -0.602541       -16.3960
   9   2.0000      -0.560355       -15.2480
  10   2.0000      -0.477846       -13.0029
  11   2.0000      -0.461810       -12.5665
  12   2.0000      -0.431339       -11.7373
  13   2.0000      -0.403202       -10.9717
  14   2.0000      -0.371201       -10.1009
  15   2.0000      -0.343303        -9.3418
  16   2.0000      -0.322877        -8.7859
  17   2.0000      -0.316619        -8.6157
  18   2.0000      -0.289608        -7.8806
  19   2.0000      -0.224015        -6.0958
  20   0.0000      -0.051831        -1.4104
  21   0.0000       0.039080         1.0634
  22   0.0000       0.083123         2.2619
  23   0.0000       0.085005         2.3131
  24   0.0000       0.105533         2.8717

MULLIKEN ATOMIC CHARGES
-----------------------
   0 C :    0.073163
   1 C :    0.035195
   2 H :    0.018160
   3 H :   -0.017153
   4 C :    0.121564
   5 F :   -0.016402
   6 O :   -0.218580
   7 H :   -0.006974
   8 H :    0.012614
   9 H :   -0.001588
Sum of atomic charges:   -0.0000000

LOEWDIN ATOMIC CHARGES
----------------------
   0 C :   -0.024021
   1 C :   -0.057326
   2 H :    0.039539
   3 H :    0.018109
   4 C :    0.059505
   5 F :    0.077871
   6 O :   -0.180696
   7 H :    0.019286
   8 H :    0.024829
   9 H :    0.022905

  Mayer bond orders larger than 0.100000
B(  0-C ,  1-C ) :   1.1170 B(  0-C ,  7-H ) :   0.9686 B(  0-C ,  8-H ) :   0.9666
B(  0-C ,  9-H ) :   0.9606 B(  1-C ,  2-H ) :   0.9256 B(  1-C ,  3-H ) :   0.9193
B(  1-C ,  4-C ) :   1.0034 B(  4-C ,  5-F ) :   1.2544 B(  4-C ,  6-O ) :   2.0833

Dispersion correction           -0.012893687
FINAL SINGLE POINT ENERGY      -292.096350408766

DIPOLE MOMENT
-------------
                                X             Y             Z
Electronic contribution:      4.15265       0.01462      -7.50568
Nuclear contribution   :     -5.17129      -0.01923       7.59895
                        -----------------------------------------
Total Dipole Moment    :     -1.01864      -0.00462       0.09327
                        -----------------------------------------
Magnitude (a.u.)       :      1.02291
Magnitude (Debye)      :      2.60004

Rotational constants in cm-1:     0.282073     0.131822     0.105134
Rotational constants in MHz :  8456.328792  3951.925810  3151.840112

                             ****ORCA TERMINATED NORMALLY****
TOTAL RUN TIME: 0 days 0 hours 0 minutes 6 seconds 973 msec
