                         Program Version 5.0.0 -  RELEASE  -
|  1> !BLYP D3BJ RIJCOSX def2-SVP def2/J TightSCF
|  2> *xyz 0 1
|  3> C          3.90595        2.81985       -3.75292
|  4> C          5.29562        3.13151       -4.10533
|  5> C          3.80351        1.37472       -3.26081
|  6> C          5.70862        3.46889       -5.32419
|  7> N          6.90470        3.03895       -5.71708
|  8> N          4.98188        4.29357       -6.09746
|  9> H          5.00055        4.10131       -7.08776
| 10> H          4.08469        4.59690       -5.73965
| 11> H          5.96336        2.52611       -3.64239
| 12> H          7.04716        2.06686       -5.47360
| 13> H          7.19815        3.30799       -6.64523
| 14> H          3.28202        2.94919       -4.64026
| 15> H          3.56525        3.51457       -2.98252
| 16> H          4.14157        0.71142       -4.02935
| 17> H          2.78528        1.15146       -3.01944
| 18> H          4.41205        1.25066       -2.38949
| 19> *
| 20>
| 21> %MaxCore 64000
| 22>
| 23> %pal nprocs 4
| 24> end
| 25>
| 26> %scf
| 27>   MaxIter 150
| 28> end
| 29>
| 30>
| 31>                          ****END OF INPUT****

CARTESIAN COORDINATES (ANGSTROEM)
---------------------------------
  C      3.905950    2.819850   -3.752920
  C      5.295620    3.131510   -4.105330
  C      3.803510    1.374720   -3.260810
  C      5.708620    3.468890   -5.324190
  N      6.904700    3.038950   -5.717080
  N      4.981880    4.293570   -6.097460
  H      5.000550    4.101310   -7.087760
  H      4.084690    4.596900   -5.739650
  H      5.963360    2.526110   -3.642390
  H      7.047160    2.066860   -5.473600
  H      7.198150    3.307990   -6.645230
  H      3.282020    2.949190   -4.640260
  H      3.565250    3.514570   -2.982520
  H      4.141570    0.711420   -4.029350
  H      2.785280    1.151460   -3.019440
  H      4.412050    1.250660   -2.389490

 Total Charge           Charge          ....    0
 Multiplicity           Mult            ....    1
 Number of Electrons    NEL             ....   48
 Basis Dimension        Dim             ....  134

ORBITAL ENERGIES
----------------

  NO   OCC          E(Eh)            E(eV)
   0   2.0000     -14.017486      -381.4352
   1   2.0000     -14.014080      -381.3425
   2   2.0000      -9.949563      -270.7414
   3   2.0000      -9.893552      -269.2172
   4   2.0000      -9.890319      -269.1293
   5   2.0000      -9.837777      -267.6995
   6   2.0000      -0.856850       -23.3161
   7   2.0000      -0.775446       -21.1010
   8   2.0000      -0.681386       -18.5415
   9   2.0000      -0.606796       -16.5118
  10   2.0000      -0.534720       -14.5505
  11   2.0000      -0.504383       -13.7250
  12   2.0000      -0.469447       -12.7743
  13   2.0000      -0.443409       -12.0658
  14   2.0000      -0.415975       -11.3193
  15   2.0000      -0.384527       -10.4635
  16   2.0000      -0.361624        -9.8403
  17   2.0000      -0.329243        -8.9592
  18   2.0000      -0.310447        -8.4477
  19   2.0000      -0.296109        -8.0575
  20   2.0000      -0.274125        -7.4593
  21   2.0000      -0.269337        -7.3290
  22   2.0000      -0.213903        -5.8206
  23   2.0000      -0.122053        -3.3212
  24   0.0000       0.017482         0.4757
  25   0.0000       0.047552         1.2940
  26   0.0000       0.061617         1.6767
  27   0.0000       0.065413         1.7800
  28   0.0000       0.083252         2.2654

MULLIKEN ATOMIC CHARGES
-----------------------
   0 C :    0.112533
   1 C :   -0.032045
   2 C :    0.084688
   3 C :   -0.234787
   4 N :    0.025869
   5 N :    0.033995
   6 H :    0.069934
   7 H :    0.090655
   8 H :   -0.135237
   9 H :    0.107308
  10 H :    0.066696
  11 H :   -0.068040
  12 H :   -0.039543
  13 H :   -0.033042
  14 H :   -0.033079
  15 H :   -0.015904
Sum of atomic charges:   -0.0000000

LOEWDIN ATOMIC CHARGES
----------------------
   0 C :   -0.028436
   1 C :   -0.192528
   2 C :   -0.036665
   3 C :   -0.013399
   4 N :    0.003866
   5 N :   -0.001028
   6 H :    0.049447
   7 H :    0.071249
   8 H :   -0.016197
   9 H :    0.073855
  10 H :    0.054340
  11 H :   -0.003379
  12 H :    0.006875
  13 H :    0.007904
  14 H :    0.009705
  15 H :    0.014390

  Mayer bond orders larger than 0.100000
B(  0-C ,  1-C ) :   1.0935 B(  0-C ,  2-C ) :   1.1179 B(  0-C , 11-H ) :   0.9181
B(  0-C , 12-H ) :   0.9055 B(  1-C ,  3-C ) :   1.6931 B(  1-C ,  8-H ) :   0.8881
B(  2-C , 13-H ) :   0.9634 B(  2-C , 14-H ) :   0.9505 B(  2-C , 15-H ) :   0.9652
B(  3-C ,  4-N ) :   1.2117 B(  3-C ,  5-N ) :   1.2574 B(  4-N ,  9-H ) :   0.9472
B(  4-N , 10-H ) :   0.9481 B(  5-N ,  6-H ) :   0.9341 B(  5-N ,  7-H ) :   0.9388

Dispersion correction           -0.025850729
FINAL SINGLE POINT ENERGY      -267.585103394258

DIPOLE MOMENT
-------------
                                X             Y             Z
Electronic contribution:      3.28319       3.34303      -2.93691
Nuclear contribution   :     -3.27358      -3.61654       1.70633
                        -----------------------------------------
Total Dipole Moment    :      0.00961      -0.27351      -1.23058
                        -----------------------------------------
Magnitude (a.u.)       :      1.26065
Magnitude (Debye)      :      3.20431

Rotational constants in cm-1:     0.231961     0.071249     0.059473
Rotational constants in MHz :  6954.024434  2135.976855  1782.962814

                             ****ORCA TERMINATED NORMALLY****
TOTAL RUN TIME: 0 days 0 hours 0 minutes 8 seconds 169 msec
