                         Program Version 5.0.0 -  RELEASE  -
|  1> !BLYP D3BJ RIJCOSX def2-SVP def2/J TightSCF
|  2> *xyz 0 1
|  3> C          3.90595        2.81985       -3.75292
|  4> N          5.29562        3.13151       -4.10533
|  5> C          3.80351        1.37472       -3.26081
|  6> C          5.70862        3.46889       -5.32419
|  7> C          6.90470        3.03895       -5.71708
|  8> N          4.98188        4.29357       -6.09746
|  9> H          5.00055        4.10131       -7.08776
| 10> H          4.08469        4.59690       -5.73965
| 11> H          5.96336        2.52611       -3.64239
| 12> H          7.04716        2.06686       -5.47360
| 13> H          7.19815        3.30799       -6.64523
| 14> H          3.28202        2.94919       -4.64026
| 15> H          3.56525        3.51457       -2.98252
| 16> H          4.14157        0.71142       -4.02935
| 17> H          2.78528        1.15146       -3.01944
| 18> H          4.41205        1.25066       -2.38949
| 19> *
| 20>
| 21> %MaxCore 64000
| 22>
| 23> %pal nprocs 4
| 24> end
| 25>
| 26> %scf
| 27>   MaxIter 150
| 28> end
| 29>
| 30>
| 31>                          ****END OF INPUT****

CARTESIAN COORDINATES (ANGSTROEM)
---------------------------------
  C      3.905950    2.819850   -3.752920
  N      5.295620    3.131510   -4.105330
  C      3.803510    1.374720   -3.260810
  C      5.708620    3.468890   -5.324190
  C      6.904700    3.038950   -5.717080
  N      4.981880    4.293570   -6.097460
  H      5.000550    4.101310   -7.087760
  H      4.084690    4.596900   -5.739650
  H      5.963360    2.526110   -3.642390
  H      7.047160    2.066860   -5.473600
  H      7.198150    3.307990   -6.645230
  H      3.282020    2.949190   -4.640260
  H      3.565250    3.514570   -2.982520
  H      4.141570    0.711420   -4.029350
  H      2.785280    1.151460   -3.019440
  H      4.412050    1.250660   -2.389490

 Total Charge           Charge          ....    0
 Multiplicity           Mult            ....    1
 Number of Electrons    NEL             ....   48
 Basis Dimension        Dim             ....  134

ORBITAL ENERGIES
----------------

  NO   OCC          E(Eh)            E(eV)
   0   2.0000     -14.017465      -381.4346
   1   2.0000     -14.013156      -381.3174
   2   2.0000      -9.957211      -270.9495
   3   2.0000      -9.953145      -270.8388
   4   2.0000      -9.921625      -269.9811
   5   2.0000      -9.828125      -267.4369
   6   2.0000      -0.862290       -23.4641
   7   2.0000      -0.786933       -21.4135
   8   2.0000      -0.684183       -18.6176
   9   2.0000      -0.617379       -16.7998
  10   2.0000      -0.552734       -15.0407
  11   2.0000      -0.524764       -14.2796
  12   2.0000      -0.468215       -12.7408
  13   2.0000      -0.432784       -11.7767
  14   2.0000      -0.423519       -11.5245
  15   2.0000      -0.395087       -10.7509
  16   2.0000      -0.364806        -9.9269
  17   2.0000      -0.344038        -9.3618
  18   2.0000      -0.326522        -8.8851
  19   2.0000      -0.320860        -8.7310
  20   2.0000      -0.319041        -8.6815
  21   2.0000      -0.280021        -7.6198
  22   2.0000      -0.204595        -5.5673
  23   2.0000      -0.125288        -3.4093
  24   0.0000       0.022515         0.6127
  25   0.0000       0.041097         1.1183
  26   0.0000       0.053038         1.4432
  27   0.0000       0.064316         1.7501
  28   0.0000       0.082092         2.2338

MULLIKEN ATOMIC CHARGES
-----------------------
   0 C :    0.126686
   1 N :   -0.040313
   2 C :    0.051161
   3 C :   -0.166342
   4 C :   -0.005769
   5 N :    0.009491
   6 H :    0.104786
   7 H :    0.072538
   8 H :    0.082110
   9 H :   -0.074184
  10 H :   -0.101610
  11 H :   -0.030870
  12 H :   -0.013148
  13 H :   -0.001359
  14 H :   -0.010574
  15 H :   -0.002603
Sum of atomic charges:   -0.0000000

LOEWDIN ATOMIC CHARGES
----------------------
   0 C :    0.034374
   1 N :   -0.005545
   2 C :   -0.045534
   3 C :    0.008432
   4 C :   -0.241483
   5 N :    0.004607
   6 H :    0.073362
   7 H :    0.054345
   8 H :    0.073645
   9 H :   -0.013847
  10 H :   -0.017837
  11 H :    0.006430
  12 H :    0.009130
  13 H :    0.019873
  14 H :    0.021728
  15 H :    0.018321

  Mayer bond orders larger than 0.100000
B(  0-C ,  1-N ) :   1.0211 B(  0-C ,  2-C ) :   1.1343 B(  0-C , 11-H ) :   0.9266
B(  0-C , 12-H ) :   0.9390 B(  1-N ,  3-C ) :   1.2464 B(  1-N ,  8-H ) :   0.9242
B(  2-C , 13-H ) :   0.9674 B(  2-C , 14-H ) :   0.9520 B(  2-C , 15-H ) :   0.9629
B(  3-C ,  4-C ) :   1.7166 B(  3-C ,  5-N ) :   1.2208 B(  4-C ,  9-H ) :   0.9268
B(  4-C , 10-H ) :   0.9227 B(  5-N ,  6-H ) :   0.9482 B(  5-N ,  7-H ) :   0.9468

Dispersion correction           -0.025564756
FINAL SINGLE POINT ENERGY      -267.576202527134

DIPOLE MOMENT
-------------
                                X             Y             Z
Electronic contribution:      1.55747       3.32310      -1.28800
Nuclear contribution   :     -2.93222      -3.63618       1.36440
                        -----------------------------------------
Total Dipole Moment    :     -1.37475      -0.31308       0.07640
                        -----------------------------------------
Magnitude (a.u.)       :      1.41202
Magnitude (Debye)      :      3.58907

Rotational constants in cm-1:     0.237993     0.072843     0.061284
Rotational constants in MHz :  7134.860770  2183.763760  1837.240960

                             ****ORCA TERMINATED NORMALLY****
TOTAL RUN TIME: 0 days 0 hours 0 minutes 9 seconds 552 msec
