                         Program Version 5.0.0 -  RELEASE  -
|  1> !BLYP D3BJ RIJCOSX def2-SVP def2/J TightSCF
|  2> *xyz 0 1
|  3> C          3.90595        2.81985       -3.75292
|  4> N          5.29562        3.13151       -4.10533
|  5> C          3.80351        1.37472       -3.26081
|  6> C          5.70862        3.46889       -5.32419
|  7> N          6.90470        3.03895       -5.71708
|  8> C          4.98188        4.29357       -6.09746
|  9> H          5.00055        4.10131       -7.08776
| 10> H          4.08469        4.59690       -5.73965
| 11> H          5.96336        2.52611       -3.64239
| 12> H          7.04716        2.06686       -5.47360
| 13> H          7.19815        3.30799       -6.64523
| 14> H          3.28202        2.94919       -4.64026
| 15> H          3.56525        3.51457       -2.98252
| 16> H          4.14157        0.71142       -4.02935
| 17> H          2.78528        1.15146       -3.01944
| 18> H          4.41205        1.25066       -2.38949
| 19> *
| 20>
| 21> %MaxCore 64000
| 22>
| 23> %pal nprocs 4
| 24> end
| 25>
| 26> %scf
| 27>   MaxIter 150
| 28> end
| 29>
| 30>
| 31>                          ****END OF INPUT****

CARTESIAN COORDINATES (ANGSTROEM)
---------------------------------
  C      3.905950    2.819850   -3.752920
  N      5.295620    3.131510   -4.105330
  C      3.803510    1.374720   -3.260810
  C      5.708620    3.468890   -5.324190
  N      6.904700    3.038950   -5.717080
  C      4.981880    4.293570   -6.097460
  H      5.000550    4.101310   -7.087760
  H      4.084690    4.596900   -5.739650
  H      5.963360    2.526110   -3.642390
  H      7.047160    2.066860   -5.473600
  H      7.198150    3.307990   -6.645230
  H      3.282020    2.949190   -4.640260
  H      3.565250    3.514570   -2.982520
  H      4.141570    0.711420   -4.029350
  H      2.785280    1.151460   -3.019440
  H      4.412050    1.250660   -2.389490

 Total Charge           Charge          ....    0
 Multiplicity           Mult            ....    1
 Number of Electrons    NEL             ....   48
 Basis Dimension        Dim             ....  134

ORBITAL ENERGIES
----------------

  NO   OCC          E(Eh)            E(eV)
   0   2.0000     -14.016098      -381.3974
   1   2.0000     -14.015840      -381.3904
   2   2.0000      -9.952905      -270.8323
   3   2.0000      -9.950920      -270.7783
   4   2.0000      -9.919491      -269.9231
   5   2.0000      -9.833697      -267.5885
   6   2.0000      -0.867241       -23.5988
   7   2.0000      -0.788825       -21.4650
   8   2.0000      -0.674348       -18.3499
   9   2.0000      -0.617541       -16.8042
  10   2.0000      -0.566730       -15.4215
  11   2.0000      -0.496211       -13.5026
  12   2.0000      -0.470708       -12.8086
  13   2.0000      -0.452146       -12.3035
  14   2.0000      -0.411733       -11.2038
  15   2.0000      -0.399708       -10.8766
  16   2.0000      -0.349171        -9.5014
  17   2.0000      -0.346190        -9.4203
  18   2.0000      -0.335090        -9.1183
  19   2.0000      -0.319511        -8.6943
  20   2.0000      -0.311630        -8.4799
  21   2.0000      -0.281997        -7.6735
  22   2.0000      -0.202144        -5.5006
  23   2.0000      -0.129639        -3.5277
  24   0.0000       0.019952         0.5429
  25   0.0000       0.046057         1.2533
  26   0.0000       0.054090         1.4719
  27   0.0000       0.067551         1.8382
  28   0.0000       0.081667         2.2223

MULLIKEN ATOMIC CHARGES
-----------------------
   0 C :    0.150964
   1 N :   -0.055214
   2 C :    0.046576
   3 C :   -0.161134
   4 N :    0.027388
   5 C :   -0.015714
   6 H :   -0.079786
   7 H :   -0.082452
   8 H :    0.059968
   9 H :    0.070700
  10 H :    0.088755
  11 H :   -0.007956
  12 H :   -0.012769
  13 H :   -0.012697
  14 H :   -0.008341
  15 H :   -0.008289
Sum of atomic charges:    0.0000000

LOEWDIN ATOMIC CHARGES
----------------------
   0 C :    0.048429
   1 N :   -0.002306
   2 C :   -0.048187
   3 C :    0.000946
   4 N :    0.001086
   5 C :   -0.229705
   6 H :   -0.014774
   7 H :   -0.014975
   8 H :    0.052352
   9 H :    0.049317
  10 H :    0.074002
  11 H :    0.018644
  12 H :    0.011896
  13 H :    0.014921
  14 H :    0.023269
  15 H :    0.015083

  Mayer bond orders larger than 0.100000
B(  0-C ,  1-N ) :   1.0231 B(  0-C ,  2-C ) :   1.1333 B(  0-C , 11-H ) :   0.9228
B(  0-C , 12-H ) :   0.9414 B(  1-N ,  3-C ) :   1.2131 B(  1-N ,  8-H ) :   0.9281
B(  2-C , 13-H ) :   0.9660 B(  2-C , 14-H ) :   0.9517 B(  2-C , 15-H ) :   0.9618
B(  3-C ,  4-N ) :   1.2442 B(  3-C ,  5-C ) :   1.7115 B(  4-N ,  9-H ) :   0.9388
B(  4-N , 10-H ) :   0.9417 B(  5-C ,  6-H ) :   0.9218 B(  5-C ,  7-H ) :   0.9199

Dispersion correction           -0.025646923
FINAL SINGLE POINT ENERGY      -267.580488591674

DIPOLE MOMENT
-------------
                                X             Y             Z
Electronic contribution:      3.51563       2.10500      -0.98401
Nuclear contribution   :     -3.34013      -3.37002       1.28371
                        -----------------------------------------
Total Dipole Moment    :      0.17549      -1.26502       0.29970
                        -----------------------------------------
Magnitude (a.u.)       :      1.31182
Magnitude (Debye)      :      3.33439

Rotational constants in cm-1:     0.239537     0.072280     0.060961
Rotational constants in MHz :  7181.153552  2166.902802  1827.551447

                             ****ORCA TERMINATED NORMALLY****
TOTAL RUN TIME: 0 days 0 hours 0 minutes 9 seconds 682 msec
