                         Program Version 5.0.0 -  RELEASE  -
|  1> !BLYP D3BJ RIJCOSX def2-TZVP def2/J TightSCF xyzfile
|  2>
|  3> *xyzfile 0 1 D2.xyz
|  4>
|  5> %MaxCore 64000
|  6>
|  7> %pal nprocs 18
|  8> end
|  9>
| 10> %scf
| 11>   MaxIter 150
| 12> end
| 13>
| 14>
| 15>                          ****END OF INPUT****

CARTESIAN COORDINATES (ANGSTROEM)
---------------------------------
  C      3.905947    2.819855   -3.752920
  N      5.295615    3.131515   -4.105334
  C      3.803511    1.374716   -3.260807
  C      3.939934    0.320362   -4.367729
  H      4.105043   -0.655085   -3.907733
  H      3.022801    0.280517   -4.957117
  C      5.105846    0.668022   -5.305463
  C      5.708619    3.468885   -5.324190
  C      6.904696    3.038954   -5.717084
  N      4.981884    4.293570   -6.097457
  H      5.000546    4.101311   -7.087761
  H      4.084693    4.596899   -5.739652
  H      5.963358    2.526112   -3.642391
  H      7.047164    2.066861   -5.473604
  H      7.198145    3.307994   -6.645225
  H      3.282025    2.949187   -4.640259
  H      3.565254    3.514574   -2.982523
  H      4.574833    1.215157   -2.500443
  H      2.843514    1.260845   -2.751465
  F      4.809132    1.150187   -6.414361
  O      6.267366    0.564999   -4.819481

 Total Charge           Charge          ....    0
 Multiplicity           Mult            ....    1
 Number of Electrons    NEL             ....   78
 Basis Dimension        Dim             ....  376

ORBITAL ENERGIES
----------------

  NO   OCC          E(Eh)            E(eV)
   0   2.0000     -24.359012      -662.8424
   1   2.0000     -18.775595      -510.9099
   2   2.0000     -14.006181      -381.1276
   3   2.0000     -14.002695      -381.0327
   4   2.0000     -10.079677      -274.2820
   5   2.0000      -9.950342      -270.7626
   6   2.0000      -9.941016      -270.5088
   7   2.0000      -9.934666      -270.3360
   8   2.0000      -9.933009      -270.2909
   9   2.0000      -9.799344      -266.6537
  10   2.0000      -1.219517       -33.1847
  11   2.0000      -0.942163       -25.6376
  12   2.0000      -0.878468       -23.9043
  13   2.0000      -0.804127       -21.8814
  14   2.0000      -0.738070       -20.0839
  15   2.0000      -0.667587       -18.1660
  16   2.0000      -0.625424       -17.0187
  17   2.0000      -0.594176       -16.1683
  18   2.0000      -0.555762       -15.1230
  19   2.0000      -0.532757       -14.4971
  20   2.0000      -0.496522       -13.5111
  21   2.0000      -0.483635       -13.1604
  22   2.0000      -0.472802       -12.8656
  23   2.0000      -0.451170       -12.2770
  24   2.0000      -0.441898       -12.0247
  25   2.0000      -0.427470       -11.6321
  26   2.0000      -0.416424       -11.3315
  27   2.0000      -0.389321       -10.5940
  28   2.0000      -0.368023       -10.0144
  29   2.0000      -0.355840        -9.6829
  30   2.0000      -0.341644        -9.2966
  31   2.0000      -0.341070        -9.2810
  32   2.0000      -0.323151        -8.7934
  33   2.0000      -0.319830        -8.7030
  34   2.0000      -0.298289        -8.1169
  35   2.0000      -0.287244        -7.8163
  36   2.0000      -0.232095        -6.3156
  37   2.0000      -0.213815        -5.8182
  38   2.0000      -0.130139        -3.5413
  39   0.0000      -0.071740        -1.9521
  40   0.0000      -0.001754        -0.0477
  41   0.0000       0.016126         0.4388
  42   0.0000       0.029749         0.8095
  43   0.0000       0.035542         0.9671

MULLIKEN ATOMIC CHARGES
-----------------------
   0 C :   -0.085573
   1 N :   -0.239282
   2 C :   -0.206637
   3 C :   -0.177239
   4 H :    0.113049
   5 H :    0.087900
   6 C :    0.372869
   7 C :    0.232061
   8 C :   -0.439020
   9 N :   -0.418167
  10 H :    0.219635
  11 H :    0.188146
  12 H :    0.207061
  13 H :    0.119860
  14 H :    0.037973
  15 H :    0.071477
  16 H :    0.104301
  17 H :    0.109555
  18 H :    0.091783
  19 F :   -0.066878
  20 O :   -0.322873
Sum of atomic charges:    0.0000000

LOEWDIN ATOMIC CHARGES
----------------------
   0 C :   -0.282279
   1 N :    0.134283
   2 C :   -0.254414
   3 C :   -0.226569
   4 H :    0.152241
   5 H :    0.137256
   6 C :   -0.525965
   7 C :   -0.500159
   8 C :   -0.331013
   9 N :   -0.003406
  10 H :    0.168435
  11 H :    0.151440
  12 H :    0.196052
  13 H :    0.101754
  14 H :    0.091458
  15 H :    0.126081
  16 H :    0.125607
  17 H :    0.141631
  18 H :    0.138516
  19 F :    0.375970
  20 O :    0.083080

  Mayer bond orders larger than 0.100000
B(  0-C ,  1-N ) :   0.9638 B(  0-C ,  2-C ) :   0.9601 B(  0-C , 15-H ) :   0.9632
B(  0-C , 16-H ) :   0.9599 B(  1-N ,  7-C ) :   1.1856 B(  1-N , 12-H ) :   0.9210
B(  2-C ,  3-C ) :   0.9643 B(  2-C , 17-H ) :   0.9614 B(  2-C , 18-H ) :   0.9534
B(  3-C ,  4-H ) :   0.9452 B(  3-C ,  5-H ) :   0.9423 B(  3-C ,  6-C ) :   0.9774
B(  6-C , 19-F ) :   1.1897 B(  6-C , 20-O ) :   1.9958 B(  7-C ,  8-C ) :   1.6486
B(  7-C ,  9-N ) :   1.0555 B(  8-C , 13-H ) :   0.9551 B(  8-C , 14-H ) :   1.0127
B(  9-N , 10-H ) :   0.9294 B(  9-N , 11-H ) :   0.9372

Dispersion correction           -0.046167353
FINAL SINGLE POINT ENERGY      -519.827274098643

DIPOLE MOMENT
-------------
                                X             Y             Z
Electronic contribution:      2.15222      -3.71544      -5.20579
Nuclear contribution   :     -4.40347       3.21582       5.36161
                        -----------------------------------------
Total Dipole Moment    :     -2.25125      -0.49963       0.15583
                        -----------------------------------------
Magnitude (a.u.)       :      2.31129
Magnitude (Debye)      :      5.87483

Rotational constants in cm-1:     0.061226     0.043199     0.033926
Rotational constants in MHz :  1835.503528  1295.087558  1017.061512

                             ****ORCA TERMINATED NORMALLY****
TOTAL RUN TIME: 0 days 0 hours 0 minutes 14 seconds 3 msec
