                         Program Version 5.0.0 -  RELEASE  -
|  1> !BLYP D3BJ RIJCOSX def2-TZVP def2/J TightSCF xyzfile
|  2>
|  3> *xyzfile 0 1 D3.xyz
|  4>
|  5> %MaxCore 64000
|  6>
|  7> %pal nprocs 18
|  8> end
|  9>
| 10> %scf
| 11>   MaxIter 150
| 12> end
| 13>
| 14>
| 15>                          ****END OF INPUT****

CARTESIAN COORDINATES (ANGSTROEM)
---------------------------------
  C      3.905947    2.819855   -3.752920
  N      5.295615    3.131515   -4.105334
  C      3.803511    1.374716   -3.260807
  C      3.939934    0.320362   -4.367729
  H      4.105043   -0.655085   -3.907733
  H      3.022801    0.280517   -4.957117
  C      5.105846    0.668022   -5.305463
  C      5.708619    3.468885   -5.324190
  N      6.904696    3.038954   -5.717084
  C      4.981884    4.293570   -6.097457
  H      5.000546    4.101311   -7.087761
  H      4.084693    4.596899   -5.739652
  H      5.963358    2.526112   -3.642391
  H      7.047164    2.066861   -5.473604
  H      7.198145    3.307994   -6.645225
  H      3.282025    2.949187   -4.640259
  H      3.565254    3.514574   -2.982523
  H      4.574833    1.215157   -2.500443
  H      2.843514    1.260845   -2.751465
  F      4.809132    1.150187   -6.414361
  O      6.267366    0.564999   -4.819481

 Total Charge           Charge          ....    0
 Multiplicity           Mult            ....    1
 Number of Electrons    NEL             ....   78
 Basis Dimension        Dim             ....  376

ORBITAL ENERGIES
----------------

  NO   OCC          E(Eh)            E(eV)
   0   2.0000     -24.369698      -663.1332
   1   2.0000     -18.793013      -511.3839
   2   2.0000     -14.008714      -381.1965
   3   2.0000     -13.984076      -380.5261
   4   2.0000     -10.094591      -274.6878
   5   2.0000      -9.947355      -270.6813
   6   2.0000      -9.946691      -270.6632
   7   2.0000      -9.937126      -270.4030
   8   2.0000      -9.934445      -270.3300
   9   2.0000      -9.816252      -267.1138
  10   2.0000      -1.229916       -33.4677
  11   2.0000      -0.959988       -26.1226
  12   2.0000      -0.879702       -23.9379
  13   2.0000      -0.801595       -21.8125
  14   2.0000      -0.737817       -20.0770
  15   2.0000      -0.663315       -18.0497
  16   2.0000      -0.628280       -17.0964
  17   2.0000      -0.607888       -16.5415
  18   2.0000      -0.567327       -15.4377
  19   2.0000      -0.507914       -13.8211
  20   2.0000      -0.506674       -13.7873
  21   2.0000      -0.492103       -13.3908
  22   2.0000      -0.476175       -12.9574
  23   2.0000      -0.458516       -12.4768
  24   2.0000      -0.446013       -12.1366
  25   2.0000      -0.429367       -11.6837
  26   2.0000      -0.419755       -11.4221
  27   2.0000      -0.385706       -10.4956
  28   2.0000      -0.374235       -10.1834
  29   2.0000      -0.359180        -9.7738
  30   2.0000      -0.342343        -9.3156
  31   2.0000      -0.340736        -9.2719
  32   2.0000      -0.329718        -8.9721
  33   2.0000      -0.324172        -8.8212
  34   2.0000      -0.313369        -8.5272
  35   2.0000      -0.285524        -7.7695
  36   2.0000      -0.260959        -7.1011
  37   2.0000      -0.207704        -5.6519
  38   2.0000      -0.136634        -3.7180
  39   0.0000      -0.084800        -2.3075
  40   0.0000       0.003848         0.1047
  41   0.0000       0.026560         0.7227
  42   0.0000       0.037753         1.0273
  43   0.0000       0.038112         1.0371

MULLIKEN ATOMIC CHARGES
-----------------------
   0 C :   -0.061268
   1 N :   -0.232605
   2 C :   -0.206820
   3 C :   -0.174811
   4 H :    0.113773
   5 H :    0.096095
   6 C :    0.366305
   7 C :    0.193999
   8 N :   -0.365832
   9 C :   -0.432955
  10 H :    0.061814
  11 H :    0.046659
  12 H :    0.177867
  13 H :    0.213326
  14 H :    0.204045
  15 H :    0.095926
  16 H :    0.103835
  17 H :    0.107516
  18 H :    0.096145
  19 F :   -0.050726
  20 O :   -0.352288
Sum of atomic charges:    0.0000000

LOEWDIN ATOMIC CHARGES
----------------------
   0 C :   -0.266597
   1 N :    0.140558
   2 C :   -0.253450
   3 C :   -0.222765
   4 H :    0.152828
   5 H :    0.140674
   6 C :   -0.523008
   7 C :   -0.504275
   8 N :    0.001971
   9 C :   -0.338194
  10 H :    0.092799
  11 H :    0.092272
  12 H :    0.177980
  13 H :    0.147987
  14 H :    0.167857
  15 H :    0.136776
  16 H :    0.128480
  17 H :    0.140466
  18 H :    0.140420
  19 F :    0.386586
  20 O :    0.060634

  Mayer bond orders larger than 0.100000
B(  0-C ,  1-N ) :   0.9632 B(  0-C ,  2-C ) :   0.9585 B(  0-C , 15-H ) :   0.9597
B(  0-C , 16-H ) :   0.9651 B(  1-N ,  7-C ) :   1.1440 B(  1-N , 12-H ) :   0.9257
B(  2-C ,  3-C ) :   0.9618 B(  2-C , 17-H ) :   0.9620 B(  2-C , 18-H ) :   0.9545
B(  3-C ,  4-H ) :   0.9427 B(  3-C ,  5-H ) :   0.9433 B(  3-C ,  6-C ) :   0.9779
B(  6-C , 19-F ) :   1.2137 B(  6-C , 20-O ) :   1.9412 B(  7-C ,  8-N ) :   1.2167
B(  7-C ,  9-C ) :   1.6183 B(  8-N , 13-H ) :   0.8821 B(  8-N , 14-H ) :   0.9305
B(  9-C , 10-H ) :   0.9802 B(  9-C , 11-H ) :   1.0091

Dispersion correction           -0.046134549
FINAL SINGLE POINT ENERGY      -519.846240580479

DIPOLE MOMENT
-------------
                                X             Y             Z
Electronic contribution:      3.65472      -4.79796      -4.89657
Nuclear contribution   :     -4.64021       3.37029       5.31478
                        -----------------------------------------
Total Dipole Moment    :     -0.98549      -1.42768       0.41821
                        -----------------------------------------
Magnitude (a.u.)       :      1.78447
Magnitude (Debye)      :      4.53577

Rotational constants in cm-1:     0.061077     0.043622     0.034103
Rotational constants in MHz :  1831.041375  1307.759852  1022.388536

                             ****ORCA TERMINATED NORMALLY****
TOTAL RUN TIME: 0 days 0 hours 0 minutes 9 seconds 917 msec
