                         Program Version 5.0.0 -  RELEASE  -
|  1> !CAM-B3LYP RIJCOSX def2-SVPD def2/J TightSCF
|  2> *xyz -1 1
|  3> C         -0.60249       -0.63071        0.49224
|  4> O         -1.71206       -1.37684        0.20253
|  5> H          0.27695       -1.19720        0.26733
|  6> H         -0.60598       -0.37494        1.53122
|  7> H         -0.61066        0.26355       -0.09525
|  8> *
|  9> %MaxCore 64000
| 10>
| 11> %pal nprocs 4
| 12> end
| 13> %scf
| 14>   MaxIter 150
| 15> end
| 16>
| 17>                          ****END OF INPUT****

CARTESIAN COORDINATES (ANGSTROEM)
---------------------------------
  C     -0.602490   -0.630710    0.492240
  O     -1.712060   -1.376840    0.202530
  H      0.276950   -1.197200    0.267330
  H     -0.605980   -0.374940    1.531220
  H     -0.610660    0.263550   -0.095250

 Total Charge           Charge          ....   -1
 Multiplicity           Mult            ....    1
 Number of Electrons    NEL             ....   18
 Basis Dimension        Dim             ....   67

ORBITAL ENERGIES
----------------

  NO   OCC          E(Eh)            E(eV)
   0   2.0000     -18.857877      -513.1489
   1   2.0000     -10.045061      -273.3400
   2   2.0000      -0.729397       -19.8479
   3   2.0000      -0.467832       -12.7304
   4   2.0000      -0.266291        -7.2461
   5   2.0000      -0.266274        -7.2457
   6   2.0000      -0.164804        -4.4846
   7   2.0000      -0.012961        -0.3527
   8   2.0000      -0.012954        -0.3525
   9   0.0000       0.225833         6.1452
  10   0.0000       0.300233         8.1698
  11   0.0000       0.300236         8.1698
  12   0.0000       0.309297         8.4164
  13   0.0000       0.344992         9.3877

MULLIKEN ATOMIC CHARGES
-----------------------
   0 C :    0.970768
   1 O :   -1.017034
   2 H :   -0.317788
   3 H :   -0.318137
   4 H :   -0.317809
Sum of atomic charges:   -1.0000000

LOEWDIN ATOMIC CHARGES
----------------------
   0 C :   -0.115910
   1 O :   -0.652778
   2 H :   -0.077083
   3 H :   -0.077127
   4 H :   -0.077101

  Mayer bond orders larger than 0.100000
B(  0-C ,  1-O ) :   1.1969 B(  0-C ,  2-H ) :   0.8755 B(  0-C ,  3-H ) :   0.8753
B(  0-C ,  4-H ) :   0.8755

FINAL SINGLE POINT ENERGY      -114.968449900868

DIPOLE MOMENT
-------------
                                X             Y             Z
Electronic contribution:     -1.45713      -0.97979      -0.38033
Nuclear contribution   :      2.33640       1.57111       0.61004
                        -----------------------------------------
Total Dipole Moment    :      0.87926       0.59132       0.22971
                        -----------------------------------------
Magnitude (a.u.)       :      1.08422
Magnitude (Debye)      :      2.75586

Rotational constants in cm-1:     5.477665     0.940945     0.940944
Rotational constants in MHz : 164216.266994 28208.811441 28208.799857

                             ****ORCA TERMINATED NORMALLY****
TOTAL RUN TIME: 0 days 0 hours 0 minutes 4 seconds 556 msec
