                         Program Version 5.0.0 -  RELEASE  -
|  1> !CAM-B3LYP RIJCOSX def2-SVPD def2/J TightSCF
|  2> *xyz 1 1
|  3> C         -2.12050        0.88520        1.78951
|  4> N         -3.17690       -0.15948        1.61070
|  5> H         -4.06474        0.23127        1.28675
|  6> H         -3.34407       -0.67151        2.48493
|  7> H         -2.71686       -0.78189        0.93588
|  8> H         -1.96853        1.40078        0.86432
|  9> H         -1.20609        0.41954        2.09270
| 10> H         -2.43151        1.58226        2.53937
| 11> *
| 12> %MaxCore 64000
| 13>
| 14> %pal nprocs 4
| 15> end
| 16>
| 17> %scf
| 18>   MaxIter 150
| 19> end
| 20>
| 21>
| 22>                          ****END OF INPUT****

CARTESIAN COORDINATES (ANGSTROEM)
---------------------------------
  C     -2.120500    0.885200    1.789510
  N     -3.176900   -0.159480    1.610700
  H     -4.064740    0.231270    1.286750
  H     -3.344070   -0.671510    2.484930
  H     -2.716860   -0.781890    0.935880
  H     -1.968530    1.400780    0.864320
  H     -1.206090    0.419540    2.092700
  H     -2.431510    1.582260    2.539370

 Total Charge           Charge          ....    1
 Multiplicity           Mult            ....    1
 Number of Electrons    NEL             ....   18
 Basis Dimension        Dim             ....   88

ORBITAL ENERGIES
----------------

  NO   OCC          E(Eh)            E(eV)
   0   2.0000     -14.754472      -401.4896
   1   2.0000     -10.519511      -286.2504
   2   2.0000      -1.301527       -35.4163
   3   2.0000      -1.011434       -27.5225
   4   2.0000      -0.893547       -24.3147
   5   2.0000      -0.881230       -23.9795
   6   2.0000      -0.779309       -21.2061
   7   2.0000      -0.698312       -19.0020
   8   2.0000      -0.694871       -18.9084
   9   0.0000      -0.169477        -4.6117
  10   0.0000      -0.102915        -2.8005
  11   0.0000      -0.095159        -2.5894
  12   0.0000      -0.092261        -2.5106
  13   0.0000      -0.053599        -1.4585

MULLIKEN ATOMIC CHARGES
-----------------------
   0 C :    1.061152
   1 N :   -0.654980
   2 H :    0.307126
   3 H :    0.323551
   4 H :    0.365384
   5 H :   -0.124538
   6 H :   -0.116027
   7 H :   -0.161667
Sum of atomic charges:    1.0000000

LOEWDIN ATOMIC CHARGES
----------------------
   0 C :    0.279721
   1 N :    0.322307
   2 H :    0.109058
   3 H :    0.109934
   4 H :    0.104501
   5 H :    0.025946
   6 H :    0.026238
   7 H :    0.022294

  Mayer bond orders larger than 0.100000
B(  0-C ,  1-N ) :   0.8648 B(  0-C ,  5-H ) :   0.8665 B(  0-C ,  6-H ) :   0.8591
B(  0-C ,  7-H ) :   0.8991 B(  1-N ,  2-H ) :   0.8522 B(  1-N ,  3-H ) :   0.8352
B(  1-N ,  4-H ) :   0.7800 B(  1-N ,  5-H ) :   0.1015 B(  1-N ,  6-H ) :   0.1026

FINAL SINGLE POINT ENERGY       -96.089337790865

DIPOLE MOMENT
-------------
                                X             Y             Z
Electronic contribution:     -0.83882      -0.76848      -0.13016
Nuclear contribution   :      0.30442       0.18283       0.03339
                        -----------------------------------------
Total Dipole Moment    :     -0.53439      -0.58565      -0.09677
                        -----------------------------------------
Magnitude (a.u.)       :      0.79870
Magnitude (Debye)      :      2.03014

Rotational constants in cm-1:     2.844840     0.686092     0.683099
Rotational constants in MHz : 85286.171795 20568.516729 20478.789944

                             ****ORCA TERMINATED NORMALLY****
TOTAL RUN TIME: 0 days 0 hours 0 minutes 6 seconds 460 msec
