                         Program Version 5.0.0 -  RELEASE  -
|  1> !CAM-B3LYP RIJCOSX def2-SVPD def2/J TightSCF
|  2> *xyz 0 1
|  3> C         -0.60249       -0.63071        0.49224
|  4> F         -1.71206       -1.37684        0.20253
|  5> H          0.27695       -1.19720        0.26733
|  6> H         -0.60598       -0.37494        1.53122
|  7> H         -0.61066        0.26355       -0.09525
|  8> *
|  9> %MaxCore 64000
| 10>
| 11> %pal nprocs 4
| 12> end
| 13> %scf
| 14>   MaxIter 150
| 15> end
| 16>
| 17>                          ****END OF INPUT****

CARTESIAN COORDINATES (ANGSTROEM)
---------------------------------
  C     -0.602490   -0.630710    0.492240
  F     -1.712060   -1.376840    0.202530
  H      0.276950   -1.197200    0.267330
  H     -0.605980   -0.374940    1.531220
  H     -0.610660    0.263550   -0.095250

 Total Charge           Charge          ....    0
 Multiplicity           Mult            ....    1
 Number of Electrons    NEL             ....   18
 Basis Dimension        Dim             ....   67

ORBITAL ENERGIES
----------------

  NO   OCC          E(Eh)            E(eV)
   0   2.0000     -24.758872      -673.7232
   1   2.0000     -10.332027      -281.1487
   2   2.0000      -1.265457       -34.4348
   3   2.0000      -0.782842       -21.3022
   4   2.0000      -0.571883       -15.5617
   5   2.0000      -0.567234       -15.4352
   6   2.0000      -0.567222       -15.4349
   7   2.0000      -0.422882       -11.5072
   8   2.0000      -0.422872       -11.5069
   9   0.0000       0.053402         1.4531
  10   0.0000       0.098499         2.6803
  11   0.0000       0.132649         3.6096
  12   0.0000       0.132651         3.6096
  13   0.0000       0.174408         4.7459

MULLIKEN ATOMIC CHARGES
-----------------------
   0 C :    1.046489
   1 F :   -0.475619
   2 H :   -0.190172
   3 H :   -0.190351
   4 H :   -0.190346
Sum of atomic charges:   -0.0000000

LOEWDIN ATOMIC CHARGES
----------------------
   0 C :    0.265172
   1 F :   -0.250578
   2 H :   -0.004845
   3 H :   -0.004878
   4 H :   -0.004872

  Mayer bond orders larger than 0.100000
B(  0-C ,  1-F ) :   0.8549 B(  0-C ,  2-H ) :   0.9099 B(  0-C ,  3-H ) :   0.9096
B(  0-C ,  4-H ) :   0.9100

FINAL SINGLE POINT ENERGY      -139.595603617208

DIPOLE MOMENT
-------------
                                X             Y             Z
Electronic contribution:     -2.35685      -1.58471      -0.61535
Nuclear contribution   :      2.96306       1.99251       0.77366
                        -----------------------------------------
Total Dipole Moment    :      0.60621       0.40780       0.15831
                        -----------------------------------------
Magnitude (a.u.)       :      0.74757
Magnitude (Debye)      :      1.90016

Rotational constants in cm-1:     5.477665     0.875886     0.875886
Rotational constants in MHz : 164216.266994 26258.396768 26258.386731

                             ****ORCA TERMINATED NORMALLY****
TOTAL RUN TIME: 0 days 0 hours 0 minutes 4 seconds 156 msec
