                         Program Version 5.0.0 -  RELEASE  -
|  1> !CAM-B3LYP RIJCOSX def2-SVPD def2/J TightSCF
|  2> *xyz 0 1
|  3> C         -2.12050        0.88520        1.78951
|  4> C         -3.17690       -0.15948        1.61070
|  5> H         -4.06474        0.23127        1.28675
|  6> H         -3.34407       -0.67151        2.48493
|  7> H         -2.71686       -0.78189        0.93588
|  8> H         -1.96853        1.40078        0.86432
|  9> H         -1.20609        0.41954        2.09270
| 10> H         -2.43151        1.58226        2.53937
| 11> *
| 12> %MaxCore 64000
| 13>
| 14> %pal nprocs 4
| 15> end
| 16>
| 17> %scf
| 18>   MaxIter 150
| 19> end
| 20>
| 21>
| 22>                          ****END OF INPUT****

CARTESIAN COORDINATES (ANGSTROEM)
---------------------------------
  C     -2.120500    0.885200    1.789510
  C     -3.176900   -0.159480    1.610700
  H     -4.064740    0.231270    1.286750
  H     -3.344070   -0.671510    2.484930
  H     -2.716860   -0.781890    0.935880
  H     -1.968530    1.400780    0.864320
  H     -1.206090    0.419540    2.092700
  H     -2.431510    1.582260    2.539370

 Total Charge           Charge          ....    0
 Multiplicity           Mult            ....    1
 Number of Electrons    NEL             ....   18
 Basis Dimension        Dim             ....   88

ORBITAL ENERGIES
----------------

  NO   OCC          E(Eh)            E(eV)
   0   2.0000     -10.236093      -278.5382
   1   2.0000     -10.223254      -278.1889
   2   2.0000      -0.846870       -23.0445
   3   2.0000      -0.691490       -18.8164
   4   2.0000      -0.527234       -14.3468
   5   2.0000      -0.518289       -14.1034
   6   2.0000      -0.434036       -11.8107
   7   2.0000      -0.414613       -11.2822
   8   2.0000      -0.405539       -11.0353
   9   0.0000       0.056899         1.5483
  10   0.0000       0.088099         2.3973
  11   0.0000       0.134936         3.6718
  12   0.0000       0.136757         3.7214
  13   0.0000       0.154899         4.2150

MULLIKEN ATOMIC CHARGES
-----------------------
   0 C :    0.396066
   1 C :    0.806945
   2 H :   -0.291546
   3 H :   -0.249932
   4 H :   -0.209162
   5 H :   -0.145986
   6 H :   -0.138078
   7 H :   -0.168308
Sum of atomic charges:   -0.0000000

LOEWDIN ATOMIC CHARGES
----------------------
   0 C :    0.073560
   1 C :    0.088308
   2 H :   -0.035075
   3 H :   -0.034667
   4 H :   -0.036720
   5 H :   -0.017032
   6 H :   -0.016271
   7 H :   -0.022102

  Mayer bond orders larger than 0.100000
B(  0-C ,  1-C ) :   1.4031 B(  0-C ,  2-H ) :   0.1690 B(  0-C ,  3-H ) :   0.1708
B(  0-C ,  4-H ) :   0.2389 B(  0-C ,  5-H ) :   0.8278 B(  0-C ,  6-H ) :   0.8213
B(  0-C ,  7-H ) :   0.8747 B(  1-C ,  2-H ) :   0.7418 B(  1-C ,  3-H ) :   0.7330
B(  1-C ,  4-H ) :   0.7297 B(  1-C ,  5-H ) :   0.1607 B(  1-C ,  6-H ) :   0.1661
B(  1-C ,  7-H ) :   0.1427

FINAL SINGLE POINT ENERGY       -79.699802028176

DIPOLE MOMENT
-------------
                                X             Y             Z
Electronic contribution:     -0.12342      -0.01797      -0.00245
Nuclear contribution   :      0.12022       0.00247       0.00249
                        -----------------------------------------
Total Dipole Moment    :     -0.00321      -0.01550       0.00004
                        -----------------------------------------
Magnitude (a.u.)       :      0.01583
Magnitude (Debye)      :      0.04024

Rotational constants in cm-1:     2.844858     0.716988     0.713720
Rotational constants in MHz : 85286.697487 21494.771942 21396.773512

                             ****ORCA TERMINATED NORMALLY****
TOTAL RUN TIME: 0 days 0 hours 0 minutes 5 seconds 957 msec
