                         Program Version 5.0.0 -  RELEASE  -
|  1> !B3LYP D3BJ RIJCOSX def2-SVPD def2/J TightSCF
|  2> *xyz -1 1
|  3> C         -0.91495        0.61511        2.50554
|  4> C         -0.05915        1.50352        3.41058
|  5> H          0.36536        2.34431        2.86116
|  6> H         -0.69226        1.92021        4.19898
|  7> C          1.08303        0.74964        4.08571
|  8> O          2.22817        1.26348        4.01983
|  9> O          0.81003       -0.34541        4.63627
| 10> H         -0.30401        0.20228        1.73015
| 11> H         -1.69811        1.19946        2.06954
| 12> H         -1.34124       -0.17772        3.08397
| 13> *
| 14>
| 15> %MaxCore 64000
| 16>
| 17> %pal nprocs 4
| 18> end
| 19>
| 20> %scf
| 21>   MaxIter 150
| 22> end
| 23>
| 24>
| 25>                          ****END OF INPUT****

CARTESIAN COORDINATES (ANGSTROEM)
---------------------------------
  C     -0.914950    0.615110    2.505540
  C     -0.059150    1.503520    3.410580
  H      0.365360    2.344310    2.861160
  H     -0.692260    1.920210    4.198980
  C      1.083030    0.749640    4.085710
  O      2.228170    1.263480    4.019830
  O      0.810030   -0.345410    4.636270
  H     -0.304010    0.202280    1.730150
  H     -1.698110    1.199460    2.069540
  H     -1.341240   -0.177720    3.083970

 Total Charge           Charge          ....   -1
 Multiplicity           Mult            ....    1
 Number of Electrons    NEL             ....   40
 Basis Dimension        Dim             ....  146

ORBITAL ENERGIES
----------------

  NO   OCC          E(Eh)            E(eV)
   0   2.0000     -18.878026      -513.6972
   1   2.0000     -18.877325      -513.6781
   2   2.0000     -10.068395      -273.9750
   3   2.0000     -10.021007      -272.6855
   4   2.0000     -10.009304      -272.3670
   5   2.0000      -0.811628       -22.0855
   6   2.0000      -0.719040       -19.5661
   7   2.0000      -0.598805       -16.2943
   8   2.0000      -0.469111       -12.7652
   9   2.0000      -0.317869        -8.6497
  10   2.0000      -0.293054        -7.9744
  11   2.0000      -0.258025        -7.0212
  12   2.0000      -0.231063        -6.2875
  13   2.0000      -0.215714        -5.8699
  14   2.0000      -0.208527        -5.6743
  15   2.0000      -0.180316        -4.9067
  16   2.0000      -0.163083        -4.4377
  17   2.0000      -0.051641        -1.4052
  18   2.0000      -0.044308        -1.2057
  19   2.0000      -0.029987        -0.8160
  20   0.0000       0.153489         4.1766
  21   0.0000       0.187585         5.1044
  22   0.0000       0.204025         5.5518
  23   0.0000       0.215023         5.8511
  24   0.0000       0.241282         6.5656

MULLIKEN ATOMIC CHARGES
-----------------------
   0 C :    0.793173
   1 C :   -0.123031
   2 H :   -0.155305
   3 H :   -0.084942
   4 C :    0.418506
   5 O :   -0.687317
   6 O :   -0.720633
   7 H :   -0.155539
   8 H :   -0.176120
   9 H :   -0.108790
Sum of atomic charges:   -1.0000000

LOEWDIN ATOMIC CHARGES
----------------------
   0 C :    0.105871
   1 C :   -0.034404
   2 H :   -0.005098
   3 H :    0.006318
   4 C :   -0.310421
   5 O :   -0.331937
   6 O :   -0.322183
   7 H :   -0.026825
   8 H :   -0.048550
   9 H :   -0.032771

  Mayer bond orders larger than 0.100000
B(  0-C ,  1-C ) :   1.2640 B(  0-C ,  3-H ) :   0.1005 B(  0-C ,  7-H ) :   0.8028
B(  0-C ,  8-H ) :   0.7882 B(  0-C ,  9-H ) :   0.7868 B(  1-C ,  2-H ) :   0.9377
B(  1-C ,  3-H ) :   0.8491 B(  1-C ,  4-C ) :   1.0263 B(  1-C ,  7-H ) :   0.1896
B(  1-C ,  8-H ) :   0.2004 B(  1-C ,  9-H ) :   0.2223 B(  2-H ,  4-C ) :   0.2155
B(  4-C ,  5-O ) :   1.4520 B(  4-C ,  6-O ) :   1.4732

Dispersion correction           -0.010966401
FINAL SINGLE POINT ENERGY      -267.525961490862

DIPOLE MOMENT
-------------
                                X             Y             Z
Electronic contribution:      4.71497      -1.00033       3.35347
Nuclear contribution   :     -6.38408       1.63097      -4.40540
                        -----------------------------------------
Total Dipole Moment    :     -1.66911       0.63063      -1.05193
                        -----------------------------------------
Magnitude (a.u.)       :      2.07127
Magnitude (Debye)      :      5.26476

Rotational constants in cm-1:     0.319732     0.134414     0.104753
Rotational constants in MHz :  9585.336550  4029.633034  3140.404334

                             ****ORCA TERMINATED NORMALLY****
TOTAL RUN TIME: 0 days 0 hours 0 minutes 15 seconds 872 msec
