                         Program Version 5.0.0 -  RELEASE  -
|  1> !B3LYP D3BJ RIJCOSX def2-SVPD def2/J TightSCF
|  2> *xyz 1 1
|  3> C          4.60295       -2.44010        2.63478
|  4> C          3.86085       -1.59157        3.62289
|  5> N          2.75650       -2.04616        4.16633
|  6> N          4.25433       -0.36291        3.86046
|  7> H          3.56526        0.31099        4.16898
|  8> H          5.05429       -0.01606        3.33784
|  9> H          2.43970       -2.97389        3.89740
| 10> H          2.06687       -1.41253        4.54981
| 11> C          3.74469       -2.58056        1.36188
| 12> H          5.56156       -1.97135        2.40708
| 13> H          4.81050       -3.42255        3.06310
| 14> H          4.26314       -3.18477        0.64702
| 15> H          3.56325       -1.61180        0.94535
| 16> H          2.81197       -3.04259        1.60980
| 17> *
| 18>
| 19> %MaxCore 64000
| 20>
| 21> %pal nprocs 4
| 22> end
| 23>
| 24> %scf
| 25>   MaxIter 150
| 26> end
| 27>
| 28>
| 29>                          ****END OF INPUT****

CARTESIAN COORDINATES (ANGSTROEM)
---------------------------------
  C      4.602950   -2.440100    2.634780
  C      3.860850   -1.591570    3.622890
  N      2.756500   -2.046160    4.166330
  N      4.254330   -0.362910    3.860460
  H      3.565260    0.310990    4.168980
  H      5.054290   -0.016060    3.337840
  H      2.439700   -2.973890    3.897400
  H      2.066870   -1.412530    4.549810
  C      3.744690   -2.580560    1.361880
  H      5.561560   -1.971350    2.407080
  H      4.810500   -3.422550    3.063100
  H      4.263140   -3.184770    0.647020
  H      3.563250   -1.611800    0.945350
  H      2.811970   -3.042590    1.609800

 Total Charge           Charge          ....    1
 Multiplicity           Mult            ....    1
 Number of Electrons    NEL             ....   40
 Basis Dimension        Dim             ....  172

ORBITAL ENERGIES
----------------

  NO   OCC          E(Eh)            E(eV)
   0   2.0000     -14.577973      -396.6868
   1   2.0000     -14.577004      -396.6604
   2   2.0000     -10.506536      -285.8974
   3   2.0000     -10.386336      -282.6266
   4   2.0000     -10.346681      -281.5475
   5   2.0000      -1.201735       -32.7009
   6   2.0000      -1.104393       -30.0521
   7   2.0000      -0.966580       -26.3020
   8   2.0000      -0.858335       -23.3565
   9   2.0000      -0.816208       -22.2101
  10   2.0000      -0.776065       -21.1178
  11   2.0000      -0.753064       -20.4919
  12   2.0000      -0.701521       -19.0893
  13   2.0000      -0.665219       -18.1015
  14   2.0000      -0.627535       -17.0761
  15   2.0000      -0.603933       -16.4338
  16   2.0000      -0.552480       -15.0337
  17   2.0000      -0.546064       -14.8592
  18   2.0000      -0.533721       -14.5233
  19   2.0000      -0.498511       -13.5652
  20   0.0000      -0.220796        -6.0082
  21   0.0000      -0.163313        -4.4440
  22   0.0000      -0.120582        -3.2812
  23   0.0000      -0.118030        -3.2118
  24   0.0000      -0.089180        -2.4267

MULLIKEN ATOMIC CHARGES
-----------------------
   0 C :   -0.015964
   1 C :    0.406428
   2 N :    0.234719
   3 N :    0.147269
   4 H :   -0.106977
   5 H :    0.037078
   6 H :    0.032427
   7 H :   -0.173484
   8 C :    0.867682
   9 H :   -0.085734
  10 H :   -0.026151
  11 H :   -0.085451
  12 H :   -0.107820
  13 H :   -0.124023
Sum of atomic charges:    1.0000000

LOEWDIN ATOMIC CHARGES
----------------------
   0 C :    0.026381
   1 C :   -0.058625
   2 N :    0.290491
   3 N :    0.289764
   4 H :    0.047903
   5 H :    0.051678
   6 H :    0.050745
   7 H :    0.049842
   8 C :    0.181607
   9 H :    0.035037
  10 H :    0.047452
  11 H :    0.006700
  12 H :   -0.002091
  13 H :   -0.016884

  Mayer bond orders larger than 0.100000
B(  0-C ,  1-C ) :   1.2331 B(  0-C ,  8-C ) :   1.2532 B(  0-C ,  9-H ) :   0.8653
B(  0-C , 10-H ) :   0.8015 B(  0-C , 11-H ) :   0.1673 B(  0-C , 12-H ) :   0.1653
B(  0-C , 13-H ) :   0.2011 B(  1-C ,  2-N ) :   1.1831 B(  1-C ,  3-N ) :   1.1300
B(  1-C ,  4-H ) :  -0.1213 B(  1-C ,  7-H ) :  -0.1281 B(  1-C ,  9-H ) :   0.1872
B(  1-C , 10-H ) :   0.1754 B(  2-N ,  3-N ) :   0.1673 B(  2-N ,  6-H ) :   1.0281
B(  2-N ,  7-H ) :   1.2549 B(  3-N ,  4-H ) :   1.2151 B(  3-N ,  5-H ) :   1.0231
B(  4-H ,  5-H ) :  -0.1411 B(  6-H ,  7-H ) :  -0.1585 B(  8-C , 11-H ) :   0.8319
B(  8-C , 12-H ) :   0.7980 B(  8-C , 13-H ) :   0.7652

Dispersion correction           -0.016931780
FINAL SINGLE POINT ENERGY      -228.747298953267

DIPOLE MOMENT
-------------
                                X             Y             Z
Electronic contribution:     -0.23727       1.78921       3.73569
Nuclear contribution   :     -0.22400      -1.16268      -3.30447
                        -----------------------------------------
Total Dipole Moment    :     -0.46128       0.62654       0.43121
                        -----------------------------------------
Magnitude (a.u.)       :      0.88953
Magnitude (Debye)      :      2.26101

Rotational constants in cm-1:     0.258103     0.130571     0.102508
Rotational constants in MHz :  7737.732062  3914.431392  3073.119154

                             ****ORCA TERMINATED NORMALLY****
TOTAL RUN TIME: 0 days 0 hours 0 minutes 21 seconds 741 msec
