                         Program Version 5.0.0 -  RELEASE  -
|  1> !B3LYP D3BJ RIJCOSX def2-SVPD def2/J TightSCF xyzfile
|  2>
|  3> *xyzfile 0 1 B.xyz
|  4>
|  5> %MaxCore 64000
|  6>
|  7> %pal nprocs 4
|  8> end
|  9>
| 10> %scf
| 11>   MaxIter 150
| 12> end
| 13>
| 14>
| 15>                          ****END OF INPUT****

CARTESIAN COORDINATES (ANGSTROEM)
---------------------------------
  C      4.602954   -2.440100    2.634780
  C     -0.914947    0.615112    2.505538
  C     -0.059146    1.503524    3.410578
  H      0.365364    2.344315    2.861161
  H     -0.692261    1.920207    4.198985
  C      1.083027    0.749640    4.085705
  C      3.860851   -1.591565    3.622893
  N      2.756502   -2.046159    4.166333
  N      4.254325   -0.362905    3.860455
  H      3.565256    0.310994    4.168983
  H      5.054292   -0.016059    3.337838
  H      2.439696   -2.973894    3.897395
  H      2.066869   -1.412532    4.549813
  O      2.228167    1.263475    4.019826
  O      0.810034   -0.345411    4.636269
  C      3.744685   -2.580557    1.361882
  C      0.772139    0.636882    0.562129
  C     -0.130740   -0.193985    1.470763
  H     -0.840563   -0.760165    0.856377
  H      0.466691   -0.938942    2.006959
  H     -1.647961    1.245963    1.991076
  H     -1.478180   -0.081046    3.130424
  C      3.203721   -1.256004    0.826211
  H      2.898939   -3.239289    1.583074
  H      4.334962   -3.095523    0.600188
  C      2.107815   -1.442385   -0.216865
  H      2.786775   -0.672760    1.650711
  H      4.021008   -0.652993    0.414046
  C      1.390662   -0.145912   -0.602422
  H      1.372179   -2.152184    0.176151
  H      2.523302   -1.906787   -1.117115
  H      1.561361    1.100094    1.161831
  H      0.195516    1.468325    0.142758
  H      0.602893   -0.398214   -1.319716
  H      2.087247    0.508272   -1.137335
  H      5.561557   -1.971347    2.407084
  H      4.810498   -3.422552    3.063099

 Total Charge           Charge          ....    0
 Multiplicity           Mult            ....    1
 Number of Electrons    NEL             ....  118
 Basis Dimension        Dim             ....  482

ORBITAL ENERGIES
----------------

  NO   OCC          E(Eh)            E(eV)
   0   2.0000     -19.065631      -518.8022
   1   2.0000     -19.063880      -518.7545
   2   2.0000     -14.372703      -391.1011
   3   2.0000     -14.372531      -391.0964
   4   2.0000     -10.320097      -280.8241
   5   2.0000     -10.249245      -278.8961
   6   2.0000     -10.234229      -278.4875
   7   2.0000     -10.215671      -277.9825
   8   2.0000     -10.191930      -277.3365
   9   2.0000     -10.182919      -277.0913
  10   2.0000     -10.174875      -276.8724
  11   2.0000     -10.164487      -276.5897
  12   2.0000     -10.161284      -276.5026
  13   2.0000     -10.157173      -276.3907
  14   2.0000     -10.148466      -276.1538
  15   2.0000      -1.013809       -27.5872
  16   2.0000      -0.999047       -27.1855
  17   2.0000      -0.918539       -24.9947
  18   2.0000      -0.902649       -24.5623
  19   2.0000      -0.831310       -22.6211
  20   2.0000      -0.796939       -21.6858
  21   2.0000      -0.767193       -20.8764
  22   2.0000      -0.727699       -19.8017
  23   2.0000      -0.690280       -18.7835
  24   2.0000      -0.655076       -17.8255
  25   2.0000      -0.638610       -17.3775
  26   2.0000      -0.616592       -16.7783
  27   2.0000      -0.584099       -15.8941
  28   2.0000      -0.578287       -15.7360
  29   2.0000      -0.569852       -15.5065
  30   2.0000      -0.542287       -14.7564
  31   2.0000      -0.514108       -13.9896
  32   2.0000      -0.509179       -13.8555
  33   2.0000      -0.485013       -13.1979
  34   2.0000      -0.471986       -12.8434
  35   2.0000      -0.462470       -12.5845
  36   2.0000      -0.455653       -12.3989
  37   2.0000      -0.443690       -12.0734
  38   2.0000      -0.431630       -11.7453
  39   2.0000      -0.420016       -11.4292
  40   2.0000      -0.414114       -11.2686
  41   2.0000      -0.406459       -11.0603
  42   2.0000      -0.402384       -10.9494
  43   2.0000      -0.396809       -10.7977
  44   2.0000      -0.376954       -10.2574
  45   2.0000      -0.374280       -10.1847
  46   2.0000      -0.368373       -10.0239
  47   2.0000      -0.362881        -9.8745
  48   2.0000      -0.352526        -9.5927
  49   2.0000      -0.336282        -9.1507
  50   2.0000      -0.332963        -9.0604
  51   2.0000      -0.325106        -8.8466
  52   2.0000      -0.310374        -8.4457
  53   2.0000      -0.305529        -8.3139
  54   2.0000      -0.304067        -8.2741
  55   2.0000      -0.296961        -8.0807
  56   2.0000      -0.239981        -6.5302
  57   2.0000      -0.228962        -6.2304
  58   2.0000      -0.222710        -6.0602
  59   0.0000      -0.039040        -1.0623
  60   0.0000      -0.006885        -0.1873
  61   0.0000       0.012122         0.3298
  62   0.0000       0.024028         0.6538
  63   0.0000       0.032209         0.8765

MULLIKEN ATOMIC CHARGES
-----------------------
   0 C :    0.764687
   1 C :    0.699310
   2 C :    0.371814
   3 H :    0.069462
   4 H :   -0.277675
   5 C :    0.444409
   6 C :    0.180270
   7 N :    0.528110
   8 N :    0.501942
   9 H :   -0.465734
  10 H :    0.062587
  11 H :    0.049031
  12 H :   -0.565032
  13 O :   -0.667200
  14 O :   -0.738361
  15 C :    0.358301
  16 C :   -0.024887
  17 C :    0.012800
  18 H :   -0.262421
  19 H :   -0.157393
  20 H :   -0.188882
  21 H :   -0.031554
  22 C :    0.367020
  23 H :   -0.044458
  24 H :   -0.369882
  25 C :    0.137904
  26 H :   -0.476616
  27 H :   -0.076227
  28 C :    0.995224
  29 H :    0.108078
  30 H :   -0.464231
  31 H :    0.102913
  32 H :   -0.614360
  33 H :   -0.007060
  34 H :   -0.110276
  35 H :   -0.076699
  36 H :   -0.134914
Sum of atomic charges:   -0.0000000

LOEWDIN ATOMIC CHARGES
----------------------
   0 C :    0.045986
   1 C :   -0.019198
   2 C :    0.039132
   3 H :    0.012533
   4 H :    0.027983
   5 C :   -0.192657
   6 C :   -0.074656
   7 N :    0.312579
   8 N :    0.302225
   9 H :   -0.094046
  10 H :    0.034794
  11 H :    0.036319
  12 H :   -0.095333
  13 O :   -0.242661
  14 O :   -0.238853
  15 C :   -0.007746
  16 C :   -0.026195
  17 C :   -0.028522
  18 H :    0.022035
  19 H :    0.002703
  20 H :    0.015809
  21 H :    0.019140
  22 C :   -0.022143
  23 H :    0.016059
  24 H :    0.027180
  25 C :   -0.030468
  26 H :   -0.010141
  27 H :    0.034986
  28 C :   -0.023021
  29 H :    0.014146
  30 H :    0.020561
  31 H :    0.009278
  32 H :    0.021947
  33 H :    0.018468
  34 H :    0.018180
  35 H :    0.023184
  36 H :    0.030412

  Mayer bond orders larger than 0.100000
B(  0-C ,  6-C ) :   1.1454 B(  0-C ,  8-N ) :   0.1064 B(  0-C , 15-C ) :   1.1112
B(  0-C , 35-H ) :   0.6573 B(  0-C , 36-H ) :   0.5635 B(  1-C ,  2-C ) :   1.1679
B(  1-C ,  3-H ) :   0.1146 B(  1-C ,  4-H ) :   0.1769 B(  1-C , 17-C ) :   1.2032
B(  1-C , 19-H ) :   0.1193 B(  1-C , 20-H ) :   0.6766 B(  1-C , 21-H ) :   0.5531
B(  2-C ,  3-H ) :   0.8056 B(  2-C ,  4-H ) :   0.6204 B(  2-C ,  5-C ) :   1.1025
B(  2-C , 17-C ) :   0.1570 B(  2-C , 20-H ) :   0.1831 B(  2-C , 21-H ) :   0.1366
B(  3-H ,  4-H ) :  -0.1022 B(  3-H ,  5-C ) :   0.2331 B(  4-H ,  5-C ) :   0.2406
B(  5-C , 13-O ) :   1.3606 B(  5-C , 14-O ) :   1.2731 B(  6-C ,  7-N ) :   1.0753
B(  6-C ,  8-N ) :   1.1002 B(  6-C , 35-H ) :   0.2661 B(  6-C , 36-H ) :   0.2455
B(  7-N ,  8-N ) :   0.1901 B(  7-N , 11-H ) :   0.9966 B(  7-N , 12-H ) :   1.1125
B(  8-N ,  9-H ) :   1.0870 B(  8-N , 10-H ) :   0.9889 B(  9-H , 10-H ) :  -0.2423
B(  9-H , 13-O ) :   0.1705 B( 11-H , 12-H ) :  -0.2630 B( 12-H , 14-O ) :   0.2334
B( 13-O , 14-O ) :   0.1503 B( 15-C , 22-C ) :   1.1406 B( 15-C , 23-H ) :   0.8171
B( 15-C , 24-H ) :   0.8096 B( 15-C , 25-C ) :   0.1232 B( 15-C , 26-H ) :   0.1485
B( 15-C , 27-H ) :   0.1185 B( 15-C , 35-H ) :   0.1479 B( 15-C , 36-H ) :   0.1990
B( 16-C , 17-C ) :   1.2593 B( 16-C , 18-H ) :   0.1974 B( 16-C , 19-H ) :   0.1503
B( 16-C , 25-C ) :   0.2021 B( 16-C , 28-C ) :   1.0359 B( 16-C , 31-H ) :   0.8010
B( 16-C , 32-H ) :   1.0131 B( 16-C , 33-H ) :   0.1752 B( 16-C , 34-H ) :   0.3355
B( 17-C , 18-H ) :   0.7881 B( 17-C , 19-H ) :   0.8720 B( 17-C , 20-H ) :   0.2251
B( 17-C , 21-H ) :   0.3038 B( 17-C , 31-H ) :   0.1158 B( 17-C , 32-H ) :   0.1274
B( 20-H , 21-H ) :  -0.1517 B( 22-C , 23-H ) :   0.1594 B( 22-C , 24-H ) :   0.2481
B( 22-C , 25-C ) :   1.1783 B( 22-C , 26-H ) :   0.7700 B( 22-C , 27-H ) :   0.6529
B( 22-C , 29-H ) :   0.1572 B( 22-C , 30-H ) :   0.2358 B( 25-C , 26-H ) :   0.1152
B( 25-C , 27-H ) :   0.1248 B( 25-C , 28-C ) :   1.1256 B( 25-C , 29-H ) :   0.7834
B( 25-C , 30-H ) :   0.8581 B( 25-C , 33-H ) :   0.2661 B( 25-C , 34-H ) :   0.1788
B( 26-H , 27-H ) :   0.1988 B( 26-H , 31-H ) :   0.2193 B( 26-H , 32-H ) :  -0.1454
B( 28-C , 29-H ) :   0.1186 B( 28-C , 33-H ) :   0.5670 B( 28-C , 34-H ) :   0.5201
B( 33-H , 34-H ) :  -0.1462

Dispersion correction           -0.069885919
FINAL SINGLE POINT ENERGY      -691.603597783093

DIPOLE MOMENT
-------------
                                X             Y             Z
Electronic contribution:      3.43019       1.61623      12.99635
Nuclear contribution   :     -1.50655      -3.48027     -14.35034
                        -----------------------------------------
Total Dipole Moment    :      1.92363      -1.86404      -1.35399
                        -----------------------------------------
Magnitude (a.u.)       :      3.00138
Magnitude (Debye)      :      7.62891

Rotational constants in cm-1:     0.021781     0.017296     0.011403
Rotational constants in MHz :   652.971749   518.510612   341.853154

                             ****ORCA TERMINATED NORMALLY****
TOTAL RUN TIME: 0 days 0 hours 3 minutes 29 seconds 441 msec
