                         Program Version 5.0.0 -  RELEASE  -
|  1> !B3LYP D3BJ RIJCOSX def2-SVPD def2/J TightSCF
|  2> *xyz 0 1
|  3> C         -0.91495        0.61511        2.50554
|  4> C         -0.05915        1.50352        3.41058
|  5> H          0.36536        2.34431        2.86116
|  6> H         -0.69226        1.92021        4.19898
|  7> C          1.08303        0.74964        4.08571
|  8> F          2.22817        1.26348        4.01983
|  9> O          0.81003       -0.34541        4.63627
| 10> H         -0.30401        0.20228        1.73015
| 11> H         -1.69811        1.19946        2.06954
| 12> H         -1.34124       -0.17772        3.08397
| 13> *
| 14>
| 15> %MaxCore 64000
| 16>
| 17> %pal nprocs 4
| 18> end
| 19>
| 20> %scf
| 21>   MaxIter 150
| 22> end
| 23>
| 24>
| 25>                          ****END OF INPUT****

CARTESIAN COORDINATES (ANGSTROEM)
---------------------------------
  C     -0.914950    0.615110    2.505540
  C     -0.059150    1.503520    3.410580
  H      0.365360    2.344310    2.861160
  H     -0.692260    1.920210    4.198980
  C      1.083030    0.749640    4.085710
  F      2.228170    1.263480    4.019830
  O      0.810030   -0.345410    4.636270
  H     -0.304010    0.202280    1.730150
  H     -1.698110    1.199460    2.069540
  H     -1.341240   -0.177720    3.083970

 Total Charge           Charge          ....    0
 Multiplicity           Mult            ....    1
 Number of Electrons    NEL             ....   40
 Basis Dimension        Dim             ....  146

ORBITAL ENERGIES
----------------

  NO   OCC          E(Eh)            E(eV)
   0   2.0000     -24.769929      -674.0240
   1   2.0000     -19.150475      -521.1109
   2   2.0000     -10.367353      -282.1100
   3   2.0000     -10.217871      -278.0424
   4   2.0000     -10.189462      -277.2694
   5   2.0000      -1.307431       -35.5770
   6   2.0000      -1.027608       -27.9626
   7   2.0000      -0.795901       -21.6576
   8   2.0000      -0.688732       -18.7413
   9   2.0000      -0.638878       -17.3847
  10   2.0000      -0.553331       -15.0569
  11   2.0000      -0.538356       -14.6494
  12   2.0000      -0.509194       -13.8559
  13   2.0000      -0.468262       -12.7421
  14   2.0000      -0.437314       -11.8999
  15   2.0000      -0.401979       -10.9384
  16   2.0000      -0.381982       -10.3943
  17   2.0000      -0.378243       -10.2925
  18   2.0000      -0.352631        -9.5956
  19   2.0000      -0.298790        -8.1305
  20   0.0000      -0.038080        -1.0362
  21   0.0000       0.012776         0.3476
  22   0.0000       0.042472         1.1557
  23   0.0000       0.055538         1.5113
  24   0.0000       0.071020         1.9326

MULLIKEN ATOMIC CHARGES
-----------------------
   0 C :    0.811145
   1 C :   -0.180661
   2 H :   -0.118667
   3 H :   -0.010544
   4 C :    0.704178
   5 F :   -0.362245
   6 O :   -0.484266
   7 H :   -0.128528
   8 H :   -0.137451
   9 H :   -0.092961
Sum of atomic charges:    0.0000000

LOEWDIN ATOMIC CHARGES
----------------------
   0 C :    0.149342
   1 C :    0.009056
   2 H :    0.019210
   3 H :    0.038873
   4 C :   -0.012568
   5 F :   -0.034326
   6 O :   -0.130254
   7 H :   -0.011158
   8 H :   -0.015847
   9 H :   -0.012328

  Mayer bond orders larger than 0.100000
B(  0-C ,  1-C ) :   1.3146 B(  0-C ,  7-H ) :   0.8033 B(  0-C ,  8-H ) :   0.7906
B(  0-C ,  9-H ) :   0.7878 B(  1-C ,  2-H ) :   0.9367 B(  1-C ,  3-H ) :   0.8381
B(  1-C ,  4-C ) :   1.0844 B(  1-C ,  7-H ) :   0.1797 B(  1-C ,  8-H ) :   0.1906
B(  1-C ,  9-H ) :   0.2025 B(  2-H ,  4-C ) :   0.1174 B(  4-C ,  5-F ) :   0.7582
B(  4-C ,  6-O ) :   1.8204 B(  5-F ,  6-O ) :   0.1051

Dispersion correction           -0.010404920
FINAL SINGLE POINT ENERGY      -292.057701070749

DIPOLE MOMENT
-------------
                                X             Y             Z
Electronic contribution:      7.71591      -0.15937       4.08439
Nuclear contribution   :     -8.12386       1.06915      -4.71960
                        -----------------------------------------
Total Dipole Moment    :     -0.40795       0.90978      -0.63521
                        -----------------------------------------
Magnitude (a.u.)       :      1.18220
Magnitude (Debye)      :      3.00492

Rotational constants in cm-1:     0.309513     0.127560     0.099675
Rotational constants in MHz :  9278.979128  3824.146597  2988.174827

                             ****ORCA TERMINATED NORMALLY****
TOTAL RUN TIME: 0 days 0 hours 0 minutes 15 seconds 141 msec
