                         Program Version 5.0.0 -  RELEASE  -
|  1> !B3LYP D3BJ RIJCOSX def2-SVPD def2/J TightSCF
|  2> *xyz 0 1
|  3> C         -0.91495        0.61511        2.50554
|  4> C         -0.05915        1.50352        3.41058
|  5> H          0.36536        2.34431        2.86116
|  6> H         -0.69226        1.92021        4.19898
|  7> C          1.08303        0.74964        4.08571
|  8> O          2.22817        1.26348        4.01983
|  9> F          0.81003       -0.34541        4.63627
| 10> H         -0.30401        0.20228        1.73015
| 11> H         -1.69811        1.19946        2.06954
| 12> H         -1.34124       -0.17772        3.08397
| 13> *
| 14>
| 15> %MaxCore 64000
| 16>
| 17> %pal nprocs 4
| 18> end
| 19>
| 20> %scf
| 21>   MaxIter 150
| 22> end
| 23>
| 24>
| 25>                          ****END OF INPUT****

CARTESIAN COORDINATES (ANGSTROEM)
---------------------------------
  C     -0.914950    0.615110    2.505540
  C     -0.059150    1.503520    3.410580
  H      0.365360    2.344310    2.861160
  H     -0.692260    1.920210    4.198980
  C      1.083030    0.749640    4.085710
  O      2.228170    1.263480    4.019830
  F      0.810030   -0.345410    4.636270
  H     -0.304010    0.202280    1.730150
  H     -1.698110    1.199460    2.069540
  H     -1.341240   -0.177720    3.083970

 Total Charge           Charge          ....    0
 Multiplicity           Mult            ....    1
 Number of Electrons    NEL             ....   40
 Basis Dimension        Dim             ....  146

ORBITAL ENERGIES
----------------

  NO   OCC          E(Eh)            E(eV)
   0   2.0000     -24.771262      -674.0603
   1   2.0000     -19.149371      -521.0809
   2   2.0000     -10.366766      -282.0940
   3   2.0000     -10.217351      -278.0283
   4   2.0000     -10.194982      -277.4196
   5   2.0000      -1.309096       -35.6223
   6   2.0000      -1.025662       -27.9097
   7   2.0000      -0.800120       -21.7724
   8   2.0000      -0.684760       -18.6333
   9   2.0000      -0.645481       -17.5644
  10   2.0000      -0.555781       -15.1236
  11   2.0000      -0.545517       -14.8443
  12   2.0000      -0.500688       -13.6244
  13   2.0000      -0.469229       -12.7684
  14   2.0000      -0.438068       -11.9204
  15   2.0000      -0.406678       -11.0663
  16   2.0000      -0.388692       -10.5769
  17   2.0000      -0.381839       -10.3904
  18   2.0000      -0.354660        -9.6508
  19   2.0000      -0.293635        -7.9902
  20   0.0000      -0.035530        -0.9668
  21   0.0000       0.009882         0.2689
  22   0.0000       0.044298         1.2054
  23   0.0000       0.053694         1.4611
  24   0.0000       0.071454         1.9444

MULLIKEN ATOMIC CHARGES
-----------------------
   0 C :    0.810780
   1 C :   -0.156657
   2 H :   -0.132995
   3 H :   -0.022920
   4 C :    0.715877
   5 O :   -0.455429
   6 F :   -0.387372
   7 H :   -0.130199
   8 H :   -0.135041
   9 H :   -0.106042
Sum of atomic charges:   -0.0000000

LOEWDIN ATOMIC CHARGES
----------------------
   0 C :    0.142336
   1 C :    0.014892
   2 H :    0.031234
   3 H :    0.035862
   4 C :   -0.016614
   5 O :   -0.134002
   6 F :   -0.029735
   7 H :   -0.011110
   8 H :   -0.015457
   9 H :   -0.017406

  Mayer bond orders larger than 0.100000
B(  0-C ,  1-C ) :   1.2853 B(  0-C ,  7-H ) :   0.8123 B(  0-C ,  8-H ) :   0.7986
B(  0-C ,  9-H ) :   0.7802 B(  1-C ,  2-H ) :   0.9605 B(  1-C ,  3-H ) :   0.8379
B(  1-C ,  4-C ) :   1.0517 B(  1-C ,  7-H ) :   0.1733 B(  1-C ,  8-H ) :   0.1917
B(  1-C ,  9-H ) :   0.1934 B(  2-H ,  4-C ) :   0.1572 B(  4-C ,  5-O ) :   1.8171
B(  4-C ,  6-F ) :   0.7319 B(  5-O ,  6-F ) :   0.1142

Dispersion correction           -0.010322680
FINAL SINGLE POINT ENERGY      -292.056709912892

DIPOLE MOMENT
-------------
                                X             Y             Z
Electronic contribution:      5.32896      -2.83096       5.09539
Nuclear contribution   :     -6.57765       2.82334      -5.39171
                        -----------------------------------------
Total Dipole Moment    :     -1.24868      -0.00762      -0.29632
                        -----------------------------------------
Magnitude (a.u.)       :      1.28338
Magnitude (Debye)      :      3.26210

Rotational constants in cm-1:     0.294245     0.132994     0.101060
Rotational constants in MHz :  8821.228602  3987.049251  3029.696815

                             ****ORCA TERMINATED NORMALLY****
TOTAL RUN TIME: 0 days 0 hours 0 minutes 18 seconds 440 msec
