                         Program Version 5.0.0 -  RELEASE  -
|  1> !B3LYP D3BJ RIJCOSX def2-SVPD def2/J TightSCF
|  2> *xyz 0 1
|  3> C          4.60295       -2.44010        2.63478
|  4> C          3.86085       -1.59157        3.62289
|  5> N          2.75650       -2.04616        4.16633
|  6> C          4.25433       -0.36291        3.86046
|  7> H          3.56526        0.31099        4.16898
|  8> H          5.05429       -0.01606        3.33784
|  9> H          2.43970       -2.97389        3.89740
| 10> H          2.06687       -1.41253        4.54981
| 11> C          3.74469       -2.58056        1.36188
| 12> H          5.56156       -1.97135        2.40708
| 13> H          4.81050       -3.42255        3.06310
| 14> H          4.26314       -3.18477        0.64702
| 15> H          3.56325       -1.61180        0.94535
| 16> H          2.81197       -3.04259        1.60980
| 17> *
| 18>
| 19> %MaxCore 64000
| 20>
| 21> %pal nprocs 4
| 22> end
| 23>
| 24> %scf
| 25>   MaxIter 150
| 26> end
| 27>
| 28>
| 29>                          ****END OF INPUT****

CARTESIAN COORDINATES (ANGSTROEM)
---------------------------------
  C      4.602950   -2.440100    2.634780
  C      3.860850   -1.591570    3.622890
  N      2.756500   -2.046160    4.166330
  C      4.254330   -0.362910    3.860460
  H      3.565260    0.310990    4.168980
  H      5.054290   -0.016060    3.337840
  H      2.439700   -2.973890    3.897400
  H      2.066870   -1.412530    4.549810
  C      3.744690   -2.580560    1.361880
  H      5.561560   -1.971350    2.407080
  H      4.810500   -3.422550    3.063100
  H      4.263140   -3.184770    0.647020
  H      3.563250   -1.611800    0.945350
  H      2.811970   -3.042590    1.609800

 Total Charge           Charge          ....    0
 Multiplicity           Mult            ....    1
 Number of Electrons    NEL             ....   40
 Basis Dimension        Dim             ....  172

ORBITAL ENERGIES
----------------

  NO   OCC          E(Eh)            E(eV)
   0   2.0000     -14.332448      -390.0057
   1   2.0000     -10.201510      -277.5972
   2   2.0000     -10.185081      -277.1502
   3   2.0000     -10.173830      -276.8440
   4   2.0000     -10.114854      -275.2392
   5   2.0000      -0.925570       -25.1860
   6   2.0000      -0.773427       -21.0460
   7   2.0000      -0.714240       -19.4354
   8   2.0000      -0.630459       -17.1557
   9   2.0000      -0.568433       -15.4679
  10   2.0000      -0.526037       -14.3142
  11   2.0000      -0.477123       -12.9832
  12   2.0000      -0.439660       -11.9638
  13   2.0000      -0.429819       -11.6960
  14   2.0000      -0.390188       -10.6176
  15   2.0000      -0.381190       -10.3727
  16   2.0000      -0.358286        -9.7495
  17   2.0000      -0.341845        -9.3021
  18   2.0000      -0.326183        -8.8759
  19   2.0000      -0.193365        -5.2617
  20   0.0000       0.013195         0.3590
  21   0.0000       0.034349         0.9347
  22   0.0000       0.053575         1.4579
  23   0.0000       0.055437         1.5085
  24   0.0000       0.063982         1.7410

MULLIKEN ATOMIC CHARGES
-----------------------
   0 C :    0.003049
   1 C :   -0.256219
   2 N :    0.372573
   3 C :    0.521286
   4 H :   -0.450043
   5 H :   -0.158244
   6 H :   -0.124471
   7 H :   -0.232810
   8 C :    0.919831
   9 H :   -0.033041
  10 H :   -0.122850
  11 H :   -0.172982
  12 H :   -0.129405
  13 H :   -0.136676
Sum of atomic charges:   -0.0000000

LOEWDIN ATOMIC CHARGES
----------------------
   0 C :   -0.017491
   1 C :   -0.273315
   2 N :    0.177629
   3 C :    0.175897
   4 H :   -0.088096
   5 H :   -0.086636
   6 H :   -0.001816
   7 H :    0.008320
   8 C :    0.143081
   9 H :    0.019005
  10 H :    0.015644
  11 H :   -0.023484
  12 H :   -0.014637
  13 H :   -0.034101

  Mayer bond orders larger than 0.100000
B(  0-C ,  1-C ) :   1.3150 B(  0-C ,  3-C ) :   0.1096 B(  0-C ,  8-C ) :   1.2340
B(  0-C ,  9-H ) :   0.8608 B(  0-C , 10-H ) :   0.7867 B(  0-C , 11-H ) :   0.2256
B(  0-C , 12-H ) :   0.1756 B(  0-C , 13-H ) :   0.2351 B(  1-C ,  2-N ) :   1.1640
B(  1-C ,  3-C ) :   1.9124 B(  1-C ,  4-H ) :   0.2591 B(  1-C ,  5-H ) :   0.1505
B(  1-C ,  9-H ) :   0.2204 B(  1-C , 10-H ) :   0.2104 B(  2-N ,  3-C ) :   0.2653
B(  2-N ,  6-H ) :   1.0435 B(  2-N ,  7-H ) :   1.1494 B(  3-C ,  4-H ) :   0.6837
B(  3-C ,  5-H ) :   0.8422 B(  6-H ,  7-H ) :  -0.1261 B(  8-C ,  9-H ) :   0.1105
B(  8-C , 11-H ) :   0.7937 B(  8-C , 12-H ) :   0.8018 B(  8-C , 13-H ) :   0.7526

Dispersion correction           -0.017664961
FINAL SINGLE POINT ENERGY      -212.289688979755

DIPOLE MOMENT
-------------
                                X             Y             Z
Electronic contribution:     -0.48929       0.31743       2.83120
Nuclear contribution   :     -0.12319      -0.83296      -3.13501
                        -----------------------------------------
Total Dipole Moment    :     -0.61248      -0.51553      -0.30380
                        -----------------------------------------
Magnitude (a.u.)       :      0.85627
Magnitude (Debye)      :      2.17646

Rotational constants in cm-1:     0.266453     0.134423     0.106086
Rotational constants in MHz :  7988.053142  4029.892766  3180.375228

                             ****ORCA TERMINATED NORMALLY****
TOTAL RUN TIME: 0 days 0 hours 0 minutes 20 seconds 622 msec
