                         Program Version 5.0.0 -  RELEASE  -
|  1> !B3LYP D3BJ RIJCOSX def2-SVPD def2/J TightSCF xyzfile
|  2>
|  3> *xyzfile 0 1 D3.xyz
|  4>
|  5> %MaxCore 64000
|  6>
|  7> %pal nprocs 4
|  8> end
|  9>
| 10> %scf
| 11>   MaxIter 150
| 12> end
| 13>
| 14>
| 15>                          ****END OF INPUT****

CARTESIAN COORDINATES (ANGSTROEM)
---------------------------------
  C      4.602954   -2.440100    2.634780
  C     -0.914947    0.615112    2.505538
  C     -0.059146    1.503524    3.410578
  H      0.365364    2.344315    2.861161
  H     -0.692261    1.920207    4.198985
  C      1.083027    0.749640    4.085705
  C      3.860851   -1.591565    3.622893
  C      2.756502   -2.046159    4.166333
  N      4.254325   -0.362905    3.860455
  H      3.565256    0.310994    4.168983
  H      5.054292   -0.016059    3.337838
  H      2.439696   -2.973894    3.897395
  H      2.066869   -1.412532    4.549813
  O      2.228167    1.263475    4.019826
  F      0.810034   -0.345411    4.636269
  C      3.744685   -2.580557    1.361882
  C      0.772139    0.636882    0.562129
  C     -0.130740   -0.193985    1.470763
  H     -0.840563   -0.760165    0.856377
  H      0.466691   -0.938942    2.006959
  H     -1.647961    1.245963    1.991076
  H     -1.478180   -0.081046    3.130424
  C      3.203721   -1.256004    0.826211
  H      2.898939   -3.239289    1.583074
  H      4.334962   -3.095523    0.600188
  C      2.107815   -1.442385   -0.216865
  H      2.786775   -0.672760    1.650711
  H      4.021008   -0.652993    0.414046
  C      1.390662   -0.145912   -0.602422
  H      1.372179   -2.152184    0.176151
  H      2.523302   -1.906787   -1.117115
  H      1.561361    1.100094    1.161831
  H      0.195516    1.468325    0.142758
  H      0.602893   -0.398214   -1.319716
  H      2.087247    0.508272   -1.137335
  H      5.561557   -1.971347    2.407084
  H      4.810498   -3.422552    3.063099

 Total Charge           Charge          ....    0
 Multiplicity           Mult            ....    1
 Number of Electrons    NEL             ....  118
 Basis Dimension        Dim             ....  482

ORBITAL ENERGIES
----------------

  NO   OCC          E(Eh)            E(eV)
   0   2.0000     -24.784825      -674.4294
   1   2.0000     -19.171303      -521.6777
   2   2.0000     -14.295061      -388.9884
   3   2.0000     -10.386481      -282.6305
   4   2.0000     -10.222427      -278.1664
   5   2.0000     -10.204134      -277.6686
   6   2.0000     -10.188105      -277.2324
   7   2.0000     -10.181901      -277.0636
   8   2.0000     -10.181710      -277.0584
   9   2.0000     -10.177217      -276.9361
  10   2.0000     -10.171265      -276.7742
  11   2.0000     -10.169892      -276.7368
  12   2.0000     -10.169277      -276.7201
  13   2.0000     -10.165783      -276.6250
  14   2.0000     -10.089750      -274.5561
  15   2.0000      -1.326930       -36.1076
  16   2.0000      -1.052894       -28.6507
  17   2.0000      -0.899689       -24.4818
  18   2.0000      -0.828542       -22.5458
  19   2.0000      -0.799509       -21.7557
  20   2.0000      -0.773373       -21.0445
  21   2.0000      -0.739241       -20.1158
  22   2.0000      -0.707073       -19.2404
  23   2.0000      -0.692075       -18.8323
  24   2.0000      -0.668615       -18.1939
  25   2.0000      -0.644143       -17.5280
  26   2.0000      -0.611532       -16.6406
  27   2.0000      -0.586131       -15.9494
  28   2.0000      -0.572796       -15.5866
  29   2.0000      -0.567164       -15.4333
  30   2.0000      -0.553773       -15.0689
  31   2.0000      -0.540685       -14.7128
  32   2.0000      -0.520557       -14.1651
  33   2.0000      -0.493200       -13.4207
  34   2.0000      -0.484149       -13.1744
  35   2.0000      -0.479274       -13.0417
  36   2.0000      -0.467686       -12.7264
  37   2.0000      -0.448807       -12.2127
  38   2.0000      -0.445475       -12.1220
  39   2.0000      -0.433205       -11.7881
  40   2.0000      -0.423908       -11.5351
  41   2.0000      -0.411718       -11.2034
  42   2.0000      -0.409543       -11.1442
  43   2.0000      -0.393579       -10.7098
  44   2.0000      -0.387829       -10.5534
  45   2.0000      -0.378116       -10.2890
  46   2.0000      -0.374044       -10.1783
  47   2.0000      -0.367414        -9.9978
  48   2.0000      -0.354873        -9.6566
  49   2.0000      -0.344876        -9.3845
  50   2.0000      -0.342021        -9.3069
  51   2.0000      -0.335871        -9.1395
  52   2.0000      -0.324242        -8.8231
  53   2.0000      -0.321154        -8.7390
  54   2.0000      -0.314003        -8.5445
  55   2.0000      -0.311123        -8.4661
  56   2.0000      -0.303524        -8.2593
  57   2.0000      -0.295690        -8.0461
  58   2.0000      -0.170706        -4.6451
  59   0.0000      -0.054346        -1.4788
  60   0.0000       0.008025         0.2184
  61   0.0000       0.027583         0.7506
  62   0.0000       0.028284         0.7697
  63   0.0000       0.031754         0.8641

MULLIKEN ATOMIC CHARGES
-----------------------
   0 C :    1.049583
   1 C :    0.716391
   2 C :    0.334349
   3 H :    0.094839
   4 H :   -0.259247
   5 C :    0.687016
   6 C :   -0.525374
   7 C :    1.173416
   8 N :    0.533406
   9 H :   -0.486549
  10 H :    0.043885
  11 H :   -0.284870
  12 H :   -1.015441
  13 O :   -0.521903
  14 F :   -0.484661
  15 C :    0.223929
  16 C :   -0.029850
  17 C :    0.046526
  18 H :   -0.251946
  19 H :   -0.169799
  20 H :   -0.167172
  21 H :   -0.065860
  22 C :    0.361756
  23 H :    0.002806
  24 H :   -0.375196
  25 C :    0.154935
  26 H :   -0.472105
  27 H :   -0.063607
  28 C :    0.994958
  29 H :    0.105728
  30 H :   -0.456870
  31 H :    0.100016
  32 H :   -0.629044
  33 H :   -0.019425
  34 H :   -0.105650
  35 H :   -0.148322
  36 H :   -0.090649
Sum of atomic charges:   -0.0000000

LOEWDIN ATOMIC CHARGES
----------------------
   0 C :    0.024739
   1 C :   -0.014915
   2 C :    0.067645
   3 H :    0.031876
   4 H :    0.039541
   5 C :    0.051189
   6 C :   -0.252194
   7 C :    0.196843
   8 N :    0.208260
   9 H :   -0.107237
  10 H :    0.001950
  11 H :   -0.078192
  12 H :   -0.146213
  13 O :   -0.110319
  14 F :   -0.031758
  15 C :   -0.014352
  16 C :   -0.027867
  17 C :   -0.023729
  18 H :    0.029345
  19 H :    0.009241
  20 H :    0.025746
  21 H :    0.022598
  22 C :   -0.025646
  23 H :    0.014159
  24 H :    0.016739
  25 C :   -0.032338
  26 H :   -0.016651
  27 H :    0.030853
  28 C :   -0.022432
  29 H :    0.013124
  30 H :    0.020919
  31 H :    0.008319
  32 H :    0.020625
  33 H :    0.017486
  34 H :    0.019885
  35 H :    0.009795
  36 H :    0.022966

  Mayer bond orders larger than 0.100000
B(  0-C ,  6-C ) :   1.1854 B(  0-C ,  8-N ) :   0.1144 B(  0-C , 15-C ) :   1.0669
B(  0-C , 35-H ) :   0.3818 B(  0-C , 36-H ) :   0.5605 B(  1-C ,  2-C ) :   1.1474
B(  1-C ,  3-H ) :   0.1019 B(  1-C ,  4-H ) :   0.1909 B(  1-C , 17-C ) :   1.1957
B(  1-C , 19-H ) :   0.1219 B(  1-C , 20-H ) :   0.6965 B(  1-C , 21-H ) :   0.5597
B(  1-C , 28-C ) :   0.1004 B(  2-C ,  3-H ) :   0.8233 B(  2-C ,  4-H ) :   0.6141
B(  2-C ,  5-C ) :   1.1773 B(  2-C , 17-C ) :   0.1390 B(  2-C , 20-H ) :   0.1716
B(  2-C , 21-H ) :   0.1190 B(  3-H ,  4-H ) :  -0.1009 B(  3-H ,  5-C ) :   0.1749
B(  4-H ,  5-C ) :   0.2701 B(  5-C , 13-O ) :   1.6460 B(  5-C , 14-F ) :   0.6133
B(  6-C ,  7-C ) :   1.9188 B(  6-C ,  8-N ) :   0.9174 B(  6-C , 10-H ) :   0.1636
B(  6-C , 12-H ) :   0.3615 B(  6-C , 15-C ) :   0.1703 B(  6-C , 35-H ) :   0.4340
B(  6-C , 36-H ) :   0.2770 B(  7-C ,  8-N ) :   0.4407 B(  7-C , 11-H ) :   0.5390
B(  7-C , 12-H ) :  -0.3676 B(  8-N ,  9-H ) :   0.9980 B(  8-N , 10-H ) :   0.8939
B(  8-N , 11-H ) :   0.2667 B(  8-N , 12-H ) :  -0.2392 B(  9-H , 10-H ) :  -0.2495
B(  9-H , 13-O ) :   0.1332 B( 12-H , 14-F ) :   0.2664 B( 13-O , 14-F ) :   0.1240
B( 15-C , 22-C ) :   1.1171 B( 15-C , 23-H ) :   0.8239 B( 15-C , 24-H ) :   0.8523
B( 15-C , 25-C ) :   0.1213 B( 15-C , 26-H ) :   0.1989 B( 15-C , 27-H ) :   0.1130
B( 15-C , 35-H ) :   0.2370 B( 15-C , 36-H ) :   0.1917 B( 16-C , 17-C ) :   1.2670
B( 16-C , 18-H ) :   0.1945 B( 16-C , 19-H ) :   0.1546 B( 16-C , 25-C ) :   0.1953
B( 16-C , 28-C ) :   1.0383 B( 16-C , 31-H ) :   0.7947 B( 16-C , 32-H ) :   1.0221
B( 16-C , 33-H ) :   0.1767 B( 16-C , 34-H ) :   0.3323 B( 17-C , 18-H ) :   0.8021
B( 17-C , 19-H ) :   0.8466 B( 17-C , 20-H ) :   0.2228 B( 17-C , 21-H ) :   0.3028
B( 17-C , 31-H ) :   0.1185 B( 17-C , 32-H ) :   0.1230 B( 20-H , 21-H ) :  -0.1598
B( 22-C , 23-H ) :   0.1593 B( 22-C , 24-H ) :   0.2569 B( 22-C , 25-C ) :   1.1754
B( 22-C , 26-H ) :   0.8469 B( 22-C , 27-H ) :   0.6474 B( 22-C , 29-H ) :   0.1506
B( 22-C , 30-H ) :   0.2496 B( 23-H , 24-H ) :  -0.1054 B( 23-H , 30-H ) :  -0.1092
B( 25-C , 26-H ) :   0.1189 B( 25-C , 27-H ) :   0.1212 B( 25-C , 28-C ) :   1.1173
B( 25-C , 29-H ) :   0.7877 B( 25-C , 30-H ) :   0.8563 B( 25-C , 33-H ) :   0.2640
B( 25-C , 34-H ) :   0.1834 B( 26-H , 27-H ) :   0.1782 B( 26-H , 31-H ) :   0.2028
B( 26-H , 32-H ) :  -0.1428 B( 28-C , 29-H ) :   0.1165 B( 28-C , 33-H ) :   0.5685
B( 28-C , 34-H ) :   0.5239 B( 33-H , 34-H ) :  -0.1483

Dispersion correction           -0.069860084
FINAL SINGLE POINT ENERGY      -699.462343108942

DIPOLE MOMENT
-------------
                                X             Y             Z
Electronic contribution:     -1.22234       4.75584      15.96400
Nuclear contribution   :      0.05905      -3.94566     -16.70013
                        -----------------------------------------
Total Dipole Moment    :     -1.16329       0.81018      -0.73613
                        -----------------------------------------
Magnitude (a.u.)       :      1.59735
Magnitude (Debye)      :      4.06014

Rotational constants in cm-1:     0.021602     0.017295     0.011353
Rotational constants in MHz :   647.614981   518.478934   340.359556

                             ****ORCA TERMINATED NORMALLY****
TOTAL RUN TIME: 0 days 0 hours 4 minutes 2 seconds 284 msec
