                         Program Version 5.0.0 -  RELEASE  -
|  1> !TPSS D3BJ RIJCOSX def2-SVP def2/J TightSCF
|  2> *xyz -1 1
|  3> C          3.76678       -2.26611       -6.51175
|  4> C          2.49670       -1.84416       -5.73570
|  5> H          1.62642       -2.21743       -6.30895
|  6> H          2.48182       -2.45607       -4.79341
|  7> O          2.45973       -0.50920       -5.50576
|  8> H          3.82914       -1.70941       -7.42340
|  9> H          3.71764       -3.31144       -6.73483
| 10> H          4.63199       -2.06931       -5.91377
| 11> *
| 12>
| 13> %MaxCore 64000
| 14>
| 15> %pal nprocs 4
| 16> end
| 17>
| 18> %scf
| 19>   MaxIter 150
| 20> end
| 21>
| 22>
| 23>                          ****END OF INPUT****

CARTESIAN COORDINATES (ANGSTROEM)
---------------------------------
  C      3.766780   -2.266110   -6.511750
  C      2.496700   -1.844160   -5.735700
  H      1.626420   -2.217430   -6.308950
  H      2.481820   -2.456070   -4.793410
  O      2.459730   -0.509200   -5.505760
  H      3.829140   -1.709410   -7.423400
  H      3.717640   -3.311440   -6.734830
  H      4.631990   -2.069310   -5.913770

 Total Charge           Charge          ....   -1
 Multiplicity           Mult            ....    1
 Number of Electrons    NEL             ....   26
 Basis Dimension        Dim             ....   67

ORBITAL ENERGIES
----------------

  NO   OCC          E(Eh)            E(eV)
   0   2.0000     -18.514514      -503.8055
   1   2.0000      -9.789761      -266.3929
   2   2.0000      -9.776242      -266.0251
   3   2.0000      -0.568873       -15.4798
   4   2.0000      -0.441994       -12.0273
   5   2.0000      -0.295882        -8.0514
   6   2.0000      -0.188731        -5.1356
   7   2.0000      -0.167539        -4.5590
   8   2.0000      -0.111600        -3.0368
   9   2.0000      -0.098262        -2.6739
  10   2.0000      -0.030559        -0.8316
  11   2.0000       0.113671         3.0931
  12   2.0000       0.116579         3.1723
  13   0.0000       0.244298         6.6477
  14   0.0000       0.284516         7.7421
  15   0.0000       0.296018         8.0551
  16   0.0000       0.307381         8.3643
  17   0.0000       0.347085         9.4447

MULLIKEN ATOMIC CHARGES
-----------------------
   0 C :    0.075725
   1 C :    0.242134
   2 H :   -0.178061
   3 H :   -0.185655
   4 O :   -0.672071
   5 H :   -0.073774
   6 H :   -0.137515
   7 H :   -0.070785
Sum of atomic charges:   -1.0000000

LOEWDIN ATOMIC CHARGES
----------------------
   0 C :   -0.102596
   1 C :    0.009857
   2 H :   -0.092743
   3 H :   -0.095794
   4 O :   -0.626700
   5 H :   -0.022758
   6 H :   -0.047945
   7 H :   -0.021321

  Mayer bond orders larger than 0.100000
B(  0-C ,  1-C ) :   0.9910 B(  0-C ,  5-H ) :   0.9518 B(  0-C ,  6-H ) :   0.8989
B(  0-C ,  7-H ) :   0.9563 B(  1-C ,  2-H ) :   0.8516 B(  1-C ,  3-H ) :   0.8387
B(  1-C ,  4-O ) :   1.5264

Dispersion correction           -0.004556868
FINAL SINGLE POINT ENERGY      -154.305591311317

DIPOLE MOMENT
-------------
                                X             Y             Z
Electronic contribution:     -1.11457       3.02768       1.06298
Nuclear contribution   :      1.63615      -3.79938      -1.48621
                        -----------------------------------------
Total Dipole Moment    :      0.52158      -0.77170      -0.42323
                        -----------------------------------------
Magnitude (a.u.)       :      1.02308
Magnitude (Debye)      :      2.60046

Rotational constants in cm-1:     1.265582     0.329289     0.289024
Rotational constants in MHz : 37941.194363  9871.829581  8664.719106

                             ****ORCA TERMINATED NORMALLY****
TOTAL RUN TIME: 0 days 0 hours 0 minutes 7 seconds 217 msec
