                         Program Version 5.0.0 -  RELEASE  -
|  1> !TPSS D3BJ RIJCOSX def2-SVP def2/J TightSCF
|  2> *xyz 1 1
|  3> C          4.99986       -1.59613       -5.92488
|  4> N          5.28156       -1.97413       -4.53576
|  5> C          3.76678       -2.26611       -6.51175
|  6> C          4.79250       -1.36132       -3.45730
|  7> N          3.93990       -0.37492       -3.55736
|  8> N          5.25986       -1.75422       -2.23913
|  9> H          5.92282       -2.52145       -2.18672
| 10> H          4.65468       -1.64040       -1.44202
| 11> H          5.70914       -2.87560       -4.38702
| 12> H          3.33010       -0.31764       -4.36125
| 13> H          3.69849        0.11447       -2.70833
| 14> H          4.84333       -0.51793       -5.94302
| 15> H          5.90170       -1.82250       -6.49647
| 16> H          3.63046       -1.94025       -7.52177
| 17> H          2.90710       -2.00116       -5.93240
| 18> H          3.89538       -3.32820       -6.49392
| 19> *
| 20>
| 21> %MaxCore 64000
| 22>
| 23> %pal nprocs 4
| 24> end
| 25>
| 26> %scf
| 27>   MaxIter 150
| 28> end
| 29>
| 30>
| 31>                          ****END OF INPUT****

CARTESIAN COORDINATES (ANGSTROEM)
---------------------------------
  C      4.999860   -1.596130   -5.924880
  N      5.281560   -1.974130   -4.535760
  C      3.766780   -2.266110   -6.511750
  C      4.792500   -1.361320   -3.457300
  N      3.939900   -0.374920   -3.557360
  N      5.259860   -1.754220   -2.239130
  H      5.922820   -2.521450   -2.186720
  H      4.654680   -1.640400   -1.442020
  H      5.709140   -2.875600   -4.387020
  H      3.330100   -0.317640   -4.361250
  H      3.698490    0.114470   -2.708330
  H      4.843330   -0.517930   -5.943020
  H      5.901700   -1.822500   -6.496470
  H      3.630460   -1.940250   -7.521770
  H      2.907100   -2.001160   -5.932400
  H      3.895380   -3.328200   -6.493920

 Total Charge           Charge          ....    1
 Multiplicity           Mult            ....    1
 Number of Electrons    NEL             ....   48
 Basis Dimension        Dim             ....  134

ORBITAL ENERGIES
----------------

  NO   OCC          E(Eh)            E(eV)
   0   2.0000     -14.342580      -390.2814
   1   2.0000     -14.335476      -390.0881
   2   2.0000     -14.333223      -390.0268
   3   2.0000     -10.320968      -280.8478
   4   2.0000     -10.205712      -277.7116
   5   2.0000     -10.142694      -275.9967
   6   2.0000      -1.136639       -30.9295
   7   2.0000      -1.033785       -28.1307
   8   2.0000      -1.019101       -27.7312
   9   2.0000      -0.868290       -23.6274
  10   2.0000      -0.785264       -21.3681
  11   2.0000      -0.748809       -20.3761
  12   2.0000      -0.738127       -20.0855
  13   2.0000      -0.690255       -18.7828
  14   2.0000      -0.650826       -17.7099
  15   2.0000      -0.646850       -17.6017
  16   2.0000      -0.598826       -16.2949
  17   2.0000      -0.582433       -15.8488
  18   2.0000      -0.565280       -15.3821
  19   2.0000      -0.519526       -14.1370
  20   2.0000      -0.495680       -13.4881
  21   2.0000      -0.478366       -13.0170
  22   2.0000      -0.437092       -11.8939
  23   2.0000      -0.412314       -11.2196
  24   0.0000      -0.193597        -5.2680
  25   0.0000      -0.147042        -4.0012
  26   0.0000      -0.117129        -3.1872
  27   0.0000      -0.104628        -2.8471
  28   0.0000      -0.092443        -2.5155

MULLIKEN ATOMIC CHARGES
-----------------------
   0 C :    0.015144
   1 N :   -0.139098
   2 C :    0.017435
   3 C :    0.063581
   4 N :   -0.013211
   5 N :   -0.060563
   6 H :    0.167275
   7 H :    0.168373
   8 H :    0.162771
   9 H :    0.177049
  10 H :    0.172102
  11 H :    0.054761
  12 H :    0.077433
  13 H :    0.071205
  14 H :    0.017969
  15 H :    0.047775
Sum of atomic charges:    1.0000000

LOEWDIN ATOMIC CHARGES
----------------------
   0 C :    0.047800
   1 N :    0.037371
   2 C :   -0.035633
   3 C :    0.123608
   4 N :    0.077006
   5 N :    0.037744
   6 H :    0.107930
   7 H :    0.102153
   8 H :    0.101050
   9 H :    0.109853
  10 H :    0.112792
  11 H :    0.031902
  12 H :    0.047402
  13 H :    0.047878
  14 H :    0.018230
  15 H :    0.032915

  Mayer bond orders larger than 0.100000
B(  0-C ,  1-N ) :   0.9378 B(  0-C ,  2-C ) :   1.0979 B(  0-C , 11-H ) :   0.9499
B(  0-C , 12-H ) :   0.9441 B(  1-N ,  3-C ) :   1.3669 B(  1-N ,  8-H ) :   0.9110
B(  2-C , 13-H ) :   0.9604 B(  2-C , 14-H ) :   0.9626 B(  2-C , 15-H ) :   0.9660
B(  3-C ,  4-N ) :   1.4109 B(  3-C ,  5-N ) :   1.3462 B(  4-N ,  9-H ) :   0.9185
B(  4-N , 10-H ) :   0.9244 B(  5-N ,  6-H ) :   0.9273 B(  5-N ,  7-H ) :   0.9315

Dispersion correction           -0.015191775
FINAL SINGLE POINT ENERGY      -284.245740882126

DIPOLE MOMENT
-------------
                                X             Y             Z
Electronic contribution:      1.74612       1.08984       4.80674
Nuclear contribution   :     -1.95709      -1.20097      -3.70214
                        -----------------------------------------
Total Dipole Moment    :     -0.21097      -0.11113       1.10461
                        -----------------------------------------
Magnitude (a.u.)       :      1.13005
Magnitude (Debye)      :      2.87236

Rotational constants in cm-1:     0.241661     0.071598     0.061743
Rotational constants in MHz :  7244.800091  2146.442409  1851.001864

                             ****ORCA TERMINATED NORMALLY****
TOTAL RUN TIME: 0 days 0 hours 0 minutes 11 seconds 311 msec
