                         Program Version 5.0.0 -  RELEASE  -
|  1> !TPSS D3BJ RIJCOSX def2-SVP def2/J TightSCF
|  2> *xyz 0 1
|  3> C          3.76678       -2.26611       -6.51175
|  4> C          2.49670       -1.84416       -5.73570
|  5> H          1.62642       -2.21743       -6.30895
|  6> H          2.48182       -2.45607       -4.79341
|  7> F          2.45973       -0.50920       -5.50576
|  8> H          3.82914       -1.70941       -7.42340
|  9> H          3.71764       -3.31144       -6.73483
| 10> H          4.63199       -2.06931       -5.91377
| 11> *
| 12>
| 13> %MaxCore 64000
| 14>
| 15> %pal nprocs 4
| 16> end
| 17>
| 18> %scf
| 19>   MaxIter 150
| 20> end
| 21>
| 22>
| 23>                          ****END OF INPUT****

CARTESIAN COORDINATES (ANGSTROEM)
---------------------------------
  C      3.766780   -2.266110   -6.511750
  C      2.496700   -1.844160   -5.735700
  H      1.626420   -2.217430   -6.308950
  H      2.481820   -2.456070   -4.793410
  F      2.459730   -0.509200   -5.505760
  H      3.829140   -1.709410   -7.423400
  H      3.717640   -3.311440   -6.734830
  H      4.631990   -2.069310   -5.913770

 Total Charge           Charge          ....    0
 Multiplicity           Mult            ....    1
 Number of Electrons    NEL             ....   26
 Basis Dimension        Dim             ....   67

ORBITAL ENERGIES
----------------

  NO   OCC          E(Eh)            E(eV)
   0   2.0000     -24.395237      -663.8281
   1   2.0000     -10.073015      -274.1007
   2   2.0000      -9.994953      -271.9765
   3   2.0000      -1.097519       -29.8650
   4   2.0000      -0.694709       -18.9040
   5   2.0000      -0.569476       -15.4962
   6   2.0000      -0.452734       -12.3195
   7   2.0000      -0.440253       -11.9799
   8   2.0000      -0.400417       -10.8959
   9   2.0000      -0.358185        -9.7467
  10   2.0000      -0.354093        -9.6354
  11   2.0000      -0.279815        -7.6142
  12   2.0000      -0.278721        -7.5844
  13   0.0000       0.054278         1.4770
  14   0.0000       0.097883         2.6635
  15   0.0000       0.101681         2.7669
  16   0.0000       0.115361         3.1391
  17   0.0000       0.132651         3.6096

MULLIKEN ATOMIC CHARGES
-----------------------
   0 C :   -0.046854
   1 C :    0.209650
   2 H :    0.006847
   3 H :    0.007327
   4 F :   -0.244178
   5 H :    0.026604
   6 H :    0.014166
   7 H :    0.026436
Sum of atomic charges:    0.0000000

LOEWDIN ATOMIC CHARGES
----------------------
   0 C :   -0.063510
   1 C :    0.104092
   2 H :    0.003625
   3 H :    0.005717
   4 F :   -0.116025
   5 H :    0.020958
   6 H :    0.024730
   7 H :    0.020411

  Mayer bond orders larger than 0.100000
B(  0-C ,  1-C ) :   1.0916 B(  0-C ,  5-H ) :   0.9706 B(  0-C ,  6-H ) :   0.9589
B(  0-C ,  7-H ) :   0.9725 B(  1-C ,  2-H ) :   0.9530 B(  1-C ,  3-H ) :   0.9501
B(  1-C ,  4-F ) :   1.0195

Dispersion correction           -0.004202250
FINAL SINGLE POINT ENERGY      -178.944090038204

DIPOLE MOMENT
-------------
                                X             Y             Z
Electronic contribution:     -2.09499       4.42587       1.83457
Nuclear contribution   :      2.16248      -5.01128      -1.96962
                        -----------------------------------------
Total Dipole Moment    :      0.06748      -0.58541      -0.13505
                        -----------------------------------------
Magnitude (a.u.)       :      0.60456
Magnitude (Debye)      :      1.53668

Rotational constants in cm-1:     1.244010     0.306580     0.270375
Rotational constants in MHz : 37294.476802  9191.037795  8105.639967

                             ****ORCA TERMINATED NORMALLY****
TOTAL RUN TIME: 0 days 0 hours 0 minutes 6 seconds 626 msec
