                         Program Version 5.0.0 -  RELEASE  -
|  1> !TPSS D3BJ RIJCOSX def2-SVP def2/J TightSCF
|  2> *xyz 0 1
|  3> C          4.99986       -1.59613       -5.92488
|  4> C          5.28156       -1.97413       -4.53576
|  5> C          3.76678       -2.26611       -6.51175
|  6> C          4.79250       -1.36132       -3.45730
|  7> N          3.93990       -0.37492       -3.55736
|  8> N          5.25986       -1.75422       -2.23913
|  9> H          5.92282       -2.52145       -2.18672
| 10> H          4.65468       -1.64040       -1.44202
| 11> H          5.70914       -2.87560       -4.38702
| 12> H          3.33010       -0.31764       -4.36125
| 13> H          3.69849        0.11447       -2.70833
| 14> H          4.84333       -0.51793       -5.94302
| 15> H          5.90170       -1.82250       -6.49647
| 16> H          3.63046       -1.94025       -7.52177
| 17> H          2.90710       -2.00116       -5.93240
| 18> H          3.89538       -3.32820       -6.49392
| 19> *
| 20>
| 21> %MaxCore 64000
| 22>
| 23> %pal nprocs 4
| 24> end
| 25>
| 26> %scf
| 27>   MaxIter 150
| 28> end
| 29>
| 30>
| 31>                          ****END OF INPUT****

CARTESIAN COORDINATES (ANGSTROEM)
---------------------------------
  C      4.999860   -1.596130   -5.924880
  C      5.281560   -1.974130   -4.535760
  C      3.766780   -2.266110   -6.511750
  C      4.792500   -1.361320   -3.457300
  N      3.939900   -0.374920   -3.557360
  N      5.259860   -1.754220   -2.239130
  H      5.922820   -2.521450   -2.186720
  H      4.654680   -1.640400   -1.442020
  H      5.709140   -2.875600   -4.387020
  H      3.330100   -0.317640   -4.361250
  H      3.698490    0.114470   -2.708330
  H      4.843330   -0.517930   -5.943020
  H      5.901700   -1.822500   -6.496470
  H      3.630460   -1.940250   -7.521770
  H      2.907100   -2.001160   -5.932400
  H      3.895380   -3.328200   -6.493920

 Total Charge           Charge          ....    0
 Multiplicity           Mult            ....    1
 Number of Electrons    NEL             ....   48
 Basis Dimension        Dim             ....  134

ORBITAL ENERGIES
----------------

  NO   OCC          E(Eh)            E(eV)
   0   2.0000     -14.113975      -384.0608
   1   2.0000     -14.104592      -383.8055
   2   2.0000     -10.027032      -272.8494
   3   2.0000      -9.967877      -271.2397
   4   2.0000      -9.967421      -271.2273
   5   2.0000      -9.913038      -269.7475
   6   2.0000      -0.879090       -23.9213
   7   2.0000      -0.793510       -21.5925
   8   2.0000      -0.700500       -19.0616
   9   2.0000      -0.625980       -17.0338
  10   2.0000      -0.553753       -15.0684
  11   2.0000      -0.519581       -14.1385
  12   2.0000      -0.491321       -13.3695
  13   2.0000      -0.450312       -12.2536
  14   2.0000      -0.427364       -11.6292
  15   2.0000      -0.394564       -10.7366
  16   2.0000      -0.367646       -10.0042
  17   2.0000      -0.344722        -9.3804
  18   2.0000      -0.333853        -9.0846
  19   2.0000      -0.304868        -8.2959
  20   2.0000      -0.282814        -7.6958
  21   2.0000      -0.276517        -7.5244
  22   2.0000      -0.213847        -5.8191
  23   2.0000      -0.120849        -3.2885
  24   0.0000       0.029156         0.7934
  25   0.0000       0.060770         1.6536
  26   0.0000       0.074217         2.0196
  27   0.0000       0.085245         2.3196
  28   0.0000       0.099371         2.7040

MULLIKEN ATOMIC CHARGES
-----------------------
   0 C :    0.034596
   1 C :   -0.184294
   2 C :    0.059917
   3 C :   -0.048968
   4 N :   -0.056135
   5 N :   -0.096226
   6 H :    0.114023
   7 H :    0.089541
   8 H :   -0.088645
   9 H :    0.129481
  10 H :    0.100709
  11 H :   -0.021520
  12 H :   -0.006736
  13 H :   -0.004335
  14 H :   -0.018771
  15 H :   -0.002637
Sum of atomic charges:   -0.0000000

LOEWDIN ATOMIC CHARGES
----------------------
   0 C :   -0.037680
   1 C :   -0.205200
   2 C :   -0.044699
   3 C :    0.004423
   4 N :    0.005437
   5 N :   -0.032746
   6 H :    0.078955
   7 H :    0.050491
   8 H :   -0.015607
   9 H :    0.080097
  10 H :    0.065027
  11 H :    0.006090
  12 H :    0.018894
  13 H :    0.008547
  14 H :    0.004321
  15 H :    0.013651

  Mayer bond orders larger than 0.100000
B(  0-C ,  1-C ) :   1.0944 B(  0-C ,  2-C ) :   1.0875 B(  0-C , 11-H ) :   0.9322
B(  0-C , 12-H ) :   0.9172 B(  1-C ,  3-C ) :   1.6517 B(  1-C ,  8-H ) :   0.9476
B(  2-C , 13-H ) :   0.9593 B(  2-C , 14-H ) :   0.9656 B(  2-C , 15-H ) :   0.9648
B(  3-C ,  4-N ) :   1.2581 B(  3-C ,  5-N ) :   1.2105 B(  4-N ,  9-H ) :   0.9341
B(  4-N , 10-H ) :   0.9452 B(  5-N ,  6-H ) :   0.9420 B(  5-N ,  7-H ) :   0.9447

Dispersion correction           -0.015813573
FINAL SINGLE POINT ENERGY      -267.767132619775

DIPOLE MOMENT
-------------
                                X             Y             Z
Electronic contribution:      1.18986       1.45135       4.67323
Nuclear contribution   :     -1.82485      -1.28952      -3.74132
                        -----------------------------------------
Total Dipole Moment    :     -0.63499       0.16183       0.93191
                        -----------------------------------------
Magnitude (a.u.)       :      1.13924
Magnitude (Debye)      :      2.89571

Rotational constants in cm-1:     0.245790     0.071632     0.062004
Rotational constants in MHz :  7368.599517  2147.482078  1858.844841

                             ****ORCA TERMINATED NORMALLY****
TOTAL RUN TIME: 0 days 0 hours 0 minutes 10 seconds 218 msec
