                         Program Version 5.0.0 -  RELEASE  -
|  1> !TPSS D3BJ RIJCOSX def2-SVP def2/J TightSCF
|  2> *xyz 0 1
|  3> C          4.99986       -1.59613       -5.92488
|  4> N          5.28156       -1.97413       -4.53576
|  5> C          3.76678       -2.26611       -6.51175
|  6> C          4.79250       -1.36132       -3.45730
|  7> C          3.93990       -0.37492       -3.55736
|  8> N          5.25986       -1.75422       -2.23913
|  9> H          5.92282       -2.52145       -2.18672
| 10> H          4.65468       -1.64040       -1.44202
| 11> H          5.70914       -2.87560       -4.38702
| 12> H          3.33010       -0.31764       -4.36125
| 13> H          3.69849        0.11447       -2.70833
| 14> H          4.84333       -0.51793       -5.94302
| 15> H          5.90170       -1.82250       -6.49647
| 16> H          3.63046       -1.94025       -7.52177
| 17> H          2.90710       -2.00116       -5.93240
| 18> H          3.89538       -3.32820       -6.49392
| 19> *
| 20>
| 21> %MaxCore 64000
| 22>
| 23> %pal nprocs 4
| 24> end
| 25>
| 26> %scf
| 27>   MaxIter 150
| 28> end
| 29>
| 30>
| 31>                          ****END OF INPUT****

CARTESIAN COORDINATES (ANGSTROEM)
---------------------------------
  C      4.999860   -1.596130   -5.924880
  N      5.281560   -1.974130   -4.535760
  C      3.766780   -2.266110   -6.511750
  C      4.792500   -1.361320   -3.457300
  C      3.939900   -0.374920   -3.557360
  N      5.259860   -1.754220   -2.239130
  H      5.922820   -2.521450   -2.186720
  H      4.654680   -1.640400   -1.442020
  H      5.709140   -2.875600   -4.387020
  H      3.330100   -0.317640   -4.361250
  H      3.698490    0.114470   -2.708330
  H      4.843330   -0.517930   -5.943020
  H      5.901700   -1.822500   -6.496470
  H      3.630460   -1.940250   -7.521770
  H      2.907100   -2.001160   -5.932400
  H      3.895380   -3.328200   -6.493920

 Total Charge           Charge          ....    0
 Multiplicity           Mult            ....    1
 Number of Electrons    NEL             ....   48
 Basis Dimension        Dim             ....  134

ORBITAL ENERGIES
----------------

  NO   OCC          E(Eh)            E(eV)
   0   2.0000     -14.108363      -383.9081
   1   2.0000     -14.105965      -383.8428
   2   2.0000     -10.028412      -272.8870
   3   2.0000     -10.027315      -272.8571
   4   2.0000      -9.985421      -271.7171
   5   2.0000      -9.907293      -269.5912
   6   2.0000      -0.879208       -23.9245
   7   2.0000      -0.801517       -21.8104
   8   2.0000      -0.688819       -18.7437
   9   2.0000      -0.645588       -17.5674
  10   2.0000      -0.577384       -15.7114
  11   2.0000      -0.507539       -13.8108
  12   2.0000      -0.487890       -13.2762
  13   2.0000      -0.459801       -12.5118
  14   2.0000      -0.409957       -11.1555
  15   2.0000      -0.399478       -10.8704
  16   2.0000      -0.375204       -10.2098
  17   2.0000      -0.349991        -9.5237
  18   2.0000      -0.338109        -9.2004
  19   2.0000      -0.328671        -8.9436
  20   2.0000      -0.312320        -8.4986
  21   2.0000      -0.299468        -8.1489
  22   2.0000      -0.201464        -5.4821
  23   2.0000      -0.130721        -3.5571
  24   0.0000       0.033024         0.8986
  25   0.0000       0.064611         1.7582
  26   0.0000       0.067787         1.8446
  27   0.0000       0.086707         2.3594
  28   0.0000       0.101971         2.7748

MULLIKEN ATOMIC CHARGES
-----------------------
   0 C :    0.075276
   1 N :   -0.179217
   2 C :    0.028679
   3 C :    0.016395
   4 C :   -0.112028
   5 N :   -0.116666
   6 H :    0.093578
   7 H :    0.121518
   8 H :    0.092815
   9 H :   -0.034277
  10 H :   -0.057829
  11 H :    0.028207
  12 H :    0.008740
  13 H :    0.010337
  14 H :    0.024091
  15 H :    0.000382
Sum of atomic charges:   -0.0000000

LOEWDIN ATOMIC CHARGES
----------------------
   0 C :    0.046990
   1 N :   -0.025414
   2 C :   -0.050905
   3 C :    0.024860
   4 C :   -0.233806
   5 N :   -0.030213
   6 H :    0.059427
   7 H :    0.073575
   8 H :    0.056418
   9 H :   -0.007935
  10 H :   -0.008550
  11 H :    0.025493
  12 H :    0.015298
  13 H :    0.020185
  14 H :    0.021973
  15 H :    0.012603

  Mayer bond orders larger than 0.100000
B(  0-C ,  1-N ) :   1.0058 B(  0-C ,  2-C ) :   1.1035 B(  0-C , 11-H ) :   0.9325
B(  0-C , 12-H ) :   0.9531 B(  1-N ,  3-C ) :   1.1730 B(  1-N ,  8-H ) :   0.9297
B(  2-C , 13-H ) :   0.9597 B(  2-C , 14-H ) :   0.9655 B(  2-C , 15-H ) :   0.9649
B(  3-C ,  4-C ) :   1.7472 B(  3-C ,  5-N ) :   1.1885 B(  4-C ,  9-H ) :   0.9305
B(  4-C , 10-H ) :   0.9347 B(  5-N ,  6-H ) :   0.9519 B(  5-N ,  7-H ) :   0.9495

Dispersion correction           -0.015758979
FINAL SINGLE POINT ENERGY      -267.762806755213

DIPOLE MOMENT
-------------
                                X             Y             Z
Electronic contribution:      2.46988      -0.14921       3.59022
Nuclear contribution   :     -2.10948      -0.95026      -3.53375
                        -----------------------------------------
Total Dipole Moment    :      0.36040      -1.09946       0.05647
                        -----------------------------------------
Magnitude (a.u.)       :      1.15840
Magnitude (Debye)      :      2.94443

Rotational constants in cm-1:     0.255209     0.072067     0.062929
Rotational constants in MHz :  7650.964615  2160.525743  1886.569524

                             ****ORCA TERMINATED NORMALLY****
TOTAL RUN TIME: 0 days 0 hours 0 minutes 11 seconds 481 msec
