                         Program Version 5.0.0 -  RELEASE  -
|  1> !TPSS D3BJ RIJCOSX def2-SVP def2/J TightSCF
|  2> *xyz 0 1
|  3> C          4.99986       -1.59613       -5.92488
|  4> N          5.28156       -1.97413       -4.53576
|  5> C          3.76678       -2.26611       -6.51175
|  6> C          4.79250       -1.36132       -3.45730
|  7> N          3.93990       -0.37492       -3.55736
|  8> C          5.25986       -1.75422       -2.23913
|  9> H          5.92282       -2.52145       -2.18672
| 10> H          4.65468       -1.64040       -1.44202
| 11> H          5.70914       -2.87560       -4.38702
| 12> H          3.33010       -0.31764       -4.36125
| 13> H          3.69849        0.11447       -2.70833
| 14> H          4.84333       -0.51793       -5.94302
| 15> H          5.90170       -1.82250       -6.49647
| 16> H          3.63046       -1.94025       -7.52177
| 17> H          2.90710       -2.00116       -5.93240
| 18> H          3.89538       -3.32820       -6.49392
| 19> *
| 20>
| 21> %MaxCore 64000
| 22>
| 23> %pal nprocs 4
| 24> end
| 25>
| 26> %scf
| 27>   MaxIter 150
| 28> end
| 29>
| 30>
| 31>                          ****END OF INPUT****

CARTESIAN COORDINATES (ANGSTROEM)
---------------------------------
  C      4.999860   -1.596130   -5.924880
  N      5.281560   -1.974130   -4.535760
  C      3.766780   -2.266110   -6.511750
  C      4.792500   -1.361320   -3.457300
  N      3.939900   -0.374920   -3.557360
  C      5.259860   -1.754220   -2.239130
  H      5.922820   -2.521450   -2.186720
  H      4.654680   -1.640400   -1.442020
  H      5.709140   -2.875600   -4.387020
  H      3.330100   -0.317640   -4.361250
  H      3.698490    0.114470   -2.708330
  H      4.843330   -0.517930   -5.943020
  H      5.901700   -1.822500   -6.496470
  H      3.630460   -1.940250   -7.521770
  H      2.907100   -2.001160   -5.932400
  H      3.895380   -3.328200   -6.493920

 Total Charge           Charge          ....    0
 Multiplicity           Mult            ....    1
 Number of Electrons    NEL             ....   48
 Basis Dimension        Dim             ....  134

ORBITAL ENERGIES
----------------

  NO   OCC          E(Eh)            E(eV)
   0   2.0000     -14.114404      -384.0725
   1   2.0000     -14.108828      -383.9207
   2   2.0000     -10.036758      -273.1141
   3   2.0000     -10.031857      -272.9807
   4   2.0000      -9.996865      -272.0285
   5   2.0000      -9.904361      -269.5114
   6   2.0000      -0.889277       -24.1985
   7   2.0000      -0.812567       -22.1111
   8   2.0000      -0.705495       -19.1975
   9   2.0000      -0.629329       -17.1249
  10   2.0000      -0.568987       -15.4829
  11   2.0000      -0.545872       -14.8539
  12   2.0000      -0.491645       -13.3783
  13   2.0000      -0.448915       -12.2156
  14   2.0000      -0.435210       -11.8427
  15   2.0000      -0.401135       -10.9154
  16   2.0000      -0.383059       -10.4236
  17   2.0000      -0.359507        -9.7827
  18   2.0000      -0.338865        -9.2210
  19   2.0000      -0.325310        -8.8521
  20   2.0000      -0.322852        -8.7852
  21   2.0000      -0.301400        -8.2015
  22   2.0000      -0.208790        -5.6815
  23   2.0000      -0.119352        -3.2477
  24   0.0000       0.027592         0.7508
  25   0.0000       0.060765         1.6535
  26   0.0000       0.066930         1.8213
  27   0.0000       0.077432         2.1070
  28   0.0000       0.095919         2.6101

MULLIKEN ATOMIC CHARGES
-----------------------
   0 C :    0.047480
   1 N :   -0.164399
   2 C :    0.035966
   3 C :   -0.057378
   4 N :   -0.057557
   5 C :   -0.101235
   6 H :   -0.061439
   7 H :   -0.047113
   8 H :    0.121746
   9 H :    0.103846
  10 H :    0.122578
  11 H :    0.013576
  12 H :    0.017459
  13 H :    0.011938
  14 H :    0.002335
  15 H :    0.012196
Sum of atomic charges:    0.0000000

LOEWDIN ATOMIC CHARGES
----------------------
   0 C :    0.033500
   1 N :   -0.019439
   2 C :   -0.053690
   3 C :    0.016305
   4 N :    0.007513
   5 C :   -0.262657
   6 H :   -0.014793
   7 H :   -0.016564
   8 H :    0.078463
   9 H :    0.061348
  10 H :    0.084873
  11 H :    0.015894
  12 H :    0.019510
  13 H :    0.020115
  14 H :    0.011883
  15 H :    0.017740

  Mayer bond orders larger than 0.100000
B(  0-C ,  1-N ) :   1.0183 B(  0-C ,  2-C ) :   1.0894 B(  0-C , 11-H ) :   0.9465
B(  0-C , 12-H ) :   0.9502 B(  1-N ,  3-C ) :   1.1926 B(  1-N ,  8-H ) :   0.9278
B(  2-C , 13-H ) :   0.9578 B(  2-C , 14-H ) :   0.9626 B(  2-C , 15-H ) :   0.9650
B(  3-C ,  4-N ) :   1.2608 B(  3-C ,  5-C ) :   1.6788 B(  4-N ,  9-H ) :   0.9382
B(  4-N , 10-H ) :   0.9397 B(  5-C ,  6-H ) :   0.9402 B(  5-C ,  7-H ) :   0.9442

Dispersion correction           -0.015658555
FINAL SINGLE POINT ENERGY      -267.759028730416

DIPOLE MOMENT
-------------
                                X             Y             Z
Electronic contribution:      1.14234       1.29536       2.19323
Nuclear contribution   :     -1.82946      -1.24287      -3.25410
                        -----------------------------------------
Total Dipole Moment    :     -0.68711       0.05249      -1.06087
                        -----------------------------------------
Magnitude (a.u.)       :      1.26504
Magnitude (Debye)      :      3.21548

Rotational constants in cm-1:     0.244672     0.074506     0.064043
Rotational constants in MHz :  7335.067153  2233.624025  1919.970379

                             ****ORCA TERMINATED NORMALLY****
TOTAL RUN TIME: 0 days 0 hours 0 minutes 11 seconds 371 msec
