                         Program Version 5.0.0 -  RELEASE  -
|  1> !TPSS D3BJ RIJCOSX def2-TZVP def2/J TightSCF xyzfile
|  2>
|  3> *xyzfile 0 1 D2.xyz
|  4>
|  5> %MaxCore 64000
|  6>
|  7> %pal nprocs 18
|  8> end
|  9>
| 10> %scf
| 11>   MaxIter 150
| 12> end
| 13>
| 14>
| 15>                          ****END OF INPUT****

CARTESIAN COORDINATES (ANGSTROEM)
---------------------------------
  C      4.999862   -1.596133   -5.924876
  N      5.281560   -1.974132   -4.535764
  C      3.766779   -2.266110   -6.511752
  C      2.496702   -1.844161   -5.735704
  H      1.626416   -2.217434   -6.308950
  H      2.481824   -2.456069   -4.793414
  F      2.459729   -0.509204   -5.505757
  C      4.792500   -1.361316   -3.457295
  C      3.939898   -0.374925   -3.557359
  N      5.259860   -1.754224   -2.239133
  H      5.922824   -2.521451   -2.186720
  H      4.654678   -1.640404   -1.442016
  H      5.709139   -2.875599   -4.387021
  H      3.330101   -0.317639   -4.361247
  H      3.698494    0.114468   -2.708333
  H      4.843333   -0.517930   -5.943019
  H      5.901695   -1.822503   -6.496467
  H      3.886191   -3.357076   -6.533604
  H      3.685602   -1.922168   -7.547128

 Total Charge           Charge          ....    0
 Multiplicity           Mult            ....    1
 Number of Electrons    NEL             ....   64
 Basis Dimension        Dim             ....  314

ORBITAL ENERGIES
----------------

  NO   OCC          E(Eh)            E(eV)
   0   2.0000     -24.407451      -664.1605
   1   2.0000     -14.097256      -383.6058
   2   2.0000     -14.088480      -383.3670
   3   2.0000     -10.063763      -273.8489
   4   2.0000     -10.017559      -272.5916
   5   2.0000     -10.008717      -272.3510
   6   2.0000      -9.993960      -271.9495
   7   2.0000      -9.870397      -268.5871
   8   2.0000      -1.147241       -31.2180
   9   2.0000      -0.890012       -24.2185
  10   2.0000      -0.813227       -22.1290
  11   2.0000      -0.726326       -19.7643
  12   2.0000      -0.653940       -17.7946
  13   2.0000      -0.637672       -17.3519
  14   2.0000      -0.562068       -15.2947
  15   2.0000      -0.518176       -14.1003
  16   2.0000      -0.497389       -13.5346
  17   2.0000      -0.467522       -12.7219
  18   2.0000      -0.466013       -12.6809
  19   2.0000      -0.450065       -12.2469
  20   2.0000      -0.432471       -11.7681
  21   2.0000      -0.412657       -11.2290
  22   2.0000      -0.379305       -10.3214
  23   2.0000      -0.363711        -9.8971
  24   2.0000      -0.345227        -9.3941
  25   2.0000      -0.335283        -9.1235
  26   2.0000      -0.322897        -8.7865
  27   2.0000      -0.302630        -8.2350
  28   2.0000      -0.292139        -7.9495
  29   2.0000      -0.261573        -7.1178
  30   2.0000      -0.206198        -5.6109
  31   2.0000      -0.130178        -3.5423
  32   0.0000       0.009429         0.2566
  33   0.0000       0.035328         0.9613
  34   0.0000       0.050287         1.3684
  35   0.0000       0.059395         1.6162
  36   0.0000       0.065071         1.7707

MULLIKEN ATOMIC CHARGES
-----------------------
   0 C :   -0.138748
   1 N :   -0.341306
   2 C :   -0.120818
   3 C :   -0.031748
   4 H :    0.102833
   5 H :    0.119023
   6 F :   -0.163747
   7 C :    0.393665
   8 C :   -0.596644
   9 N :   -0.513731
  10 H :    0.207496
  11 H :    0.242922
  12 H :    0.181134
  13 H :    0.169506
  14 H :    0.070502
  15 H :    0.147316
  16 H :    0.108187
  17 H :    0.083586
  18 H :    0.080571
Sum of atomic charges:   -0.0000000

LOEWDIN ATOMIC CHARGES
----------------------
   0 C :   -0.273783
   1 N :    0.115879
   2 C :   -0.274072
   3 C :   -0.360844
   4 H :    0.119183
   5 H :    0.131041
   6 F :    0.179021
   7 C :   -0.480567
   8 C :   -0.320999
   9 N :   -0.034747
  10 H :    0.152163
  11 H :    0.166778
  12 H :    0.167032
  13 H :    0.075749
  14 H :    0.095699
  15 H :    0.146120
  16 H :    0.128303
  17 H :    0.133802
  18 H :    0.134241

  Mayer bond orders larger than 0.100000
B(  0-C ,  1-N ) :   0.9588 B(  0-C ,  2-C ) :   1.0204 B(  0-C , 15-H ) :   0.9492
B(  0-C , 16-H ) :   0.9567 B(  1-N ,  7-C ) :   1.1346 B(  1-N , 12-H ) :   0.9165
B(  2-C ,  3-C ) :   1.0332 B(  2-C , 17-H ) :   0.9325 B(  2-C , 18-H ) :   0.9324
B(  3-C ,  4-H ) :   0.9485 B(  3-C ,  5-H ) :   0.9665 B(  3-C ,  6-F ) :   0.9914
B(  7-C ,  8-C ) :   1.6470 B(  7-C ,  9-N ) :   1.0600 B(  8-C , 13-H ) :   0.9507
B(  8-C , 14-H ) :   0.9999 B(  9-N , 10-H ) :   0.9248 B(  9-N , 11-H ) :   0.9145

Dispersion correction           -0.021693307
FINAL SINGLE POINT ENERGY      -406.647307040982

DIPOLE MOMENT
-------------
                                X             Y             Z
Electronic contribution:     -2.24348       2.70547      -0.09991
Nuclear contribution   :      2.43398      -4.26587      -0.19921
                        -----------------------------------------
Total Dipole Moment    :      0.19050      -1.56040      -0.29912
                        -----------------------------------------
Magnitude (a.u.)       :      1.60019
Magnitude (Debye)      :      4.06736

Rotational constants in cm-1:     0.110089     0.049944     0.039407
Rotational constants in MHz :  3300.378855  1497.273856  1181.385913

                             ****ORCA TERMINATED NORMALLY****
TOTAL RUN TIME: 0 days 0 hours 0 minutes 8 seconds 704 msec
