                         Program Version 5.0.0 -  RELEASE  -
|  1> !LC-PBE RIJCOSX def2-SVP def2/J TightSCF
|  2> *xyz -1 1
|  3> C         -0.77455        2.78833       -0.54394
|  4> C          0.69721        3.22791       -0.52513
|  5> O          1.48929        2.37470        0.19919
|  6> H          0.71600        4.26403       -0.13077
|  7> H          1.03615        3.33092       -1.58367
|  8> H         -1.34746        3.48478       -1.11982
|  9> H         -1.15078        2.75876        0.45729
| 10> H         -0.85058        1.81526       -0.98241
| 11> *
| 12>
| 13> %MaxCore 64000
| 14> %pal nprocs 4
| 15> end
| 16>
| 17> %scf
| 18>   MaxIter 150
| 19> end
| 20>
| 21>
| 22>                          ****END OF INPUT****

CARTESIAN COORDINATES (ANGSTROEM)
---------------------------------
  C     -0.774550    2.788330   -0.543940
  C      0.697210    3.227910   -0.525130
  O      1.489290    2.374700    0.199190
  H      0.716000    4.264030   -0.130770
  H      1.036150    3.330920   -1.583670
  H     -1.347460    3.484780   -1.119820
  H     -1.150780    2.758760    0.457290
  H     -0.850580    1.815260   -0.982410

 Total Charge           Charge          ....   -1
 Multiplicity           Mult            ....    1
 Number of Electrons    NEL             ....   26
 Basis Dimension        Dim             ....   67

ORBITAL ENERGIES
----------------

  NO   OCC          E(Eh)            E(eV)
   0   2.0000     -18.586425      -505.7623
   1   2.0000      -9.914383      -269.7841
   2   2.0000      -9.902194      -269.4524
   3   2.0000      -0.792383       -21.5618
   4   2.0000      -0.667888       -18.1742
   5   2.0000      -0.501990       -13.6599
   6   2.0000      -0.378528       -10.3003
   7   2.0000      -0.351416        -9.5625
   8   2.0000      -0.291435        -7.9303
   9   2.0000      -0.269008        -7.3201
  10   2.0000      -0.199056        -5.4166
  11   2.0000      -0.046726        -1.2715
  12   2.0000      -0.043869        -1.1937
  13   0.0000       0.342471         9.3191
  14   0.0000       0.388959        10.5841
  15   0.0000       0.402009        10.9392
  16   0.0000       0.409682        11.1480
  17   0.0000       0.454625        12.3710

MULLIKEN ATOMIC CHARGES
-----------------------
   0 C :   -0.104168
   1 C :    0.150834
   2 O :   -0.723637
   3 H :   -0.124907
   4 H :   -0.125365
   5 H :   -0.058554
   6 H :   -0.006701
   7 H :   -0.007502
Sum of atomic charges:   -1.0000000

LOEWDIN ATOMIC CHARGES
----------------------
   0 C :   -0.145051
   1 C :   -0.023456
   2 O :   -0.688455
   3 H :   -0.066250
   4 H :   -0.066792
   5 H :   -0.016222
   6 H :    0.003362
   7 H :    0.002865

  Mayer bond orders larger than 0.100000
B(  0-C ,  1-C ) :   0.9872 B(  0-C ,  5-H ) :   0.9486 B(  0-C ,  6-H ) :   0.9718
B(  0-C ,  7-H ) :   0.9715 B(  1-C ,  2-O ) :   1.4988 B(  1-C ,  3-H ) :   0.8994
B(  1-C ,  4-H ) :   0.8991

FINAL SINGLE POINT ENERGY      -153.803927049359

DIPOLE MOMENT
-------------
                                X             Y             Z
Electronic contribution:      2.44957      -1.16034       1.27068
Nuclear contribution   :     -3.69910       1.55962      -1.78699
                        -----------------------------------------
Total Dipole Moment    :     -1.24953       0.39929      -0.51631
                        -----------------------------------------
Magnitude (a.u.)       :      1.40973
Magnitude (Debye)      :      3.58324

Rotational constants in cm-1:     1.268893     0.327436     0.287754
Rotational constants in MHz : 38040.440181  9816.269339  8626.646564

                             ****ORCA TERMINATED NORMALLY****
TOTAL RUN TIME: 0 days 0 hours 0 minutes 8 seconds 748 msec
