                         Program Version 5.0.0 -  RELEASE  -
|  1> !LC-PBE RIJCOSX def2-SVP def2/J TightSCF
|  2> *xyz 1 1
|  3> C          3.95643        0.50147       -0.37910
|  4> H          3.16840        0.02920        0.20738
|  5> N          3.80389        1.96157       -0.15675
|  6> C          3.84232        0.14849       -1.85406
|  7> H          4.92323        0.17798        0.00937
|  8> H          4.20643        2.24441        0.74536
|  9> H          2.80827        2.21132       -0.09610
| 10> H          4.28076        2.50155       -0.89104
| 11> H          4.62951        0.62800       -2.39748
| 12> H          2.89665        0.48102       -2.22825
| 13> H          3.92053       -0.91187       -1.97413
| 14> *
| 15>
| 16> %MaxCore 64000
| 17> %pal nprocs 4
| 18> end
| 19>
| 20> %scf
| 21>   MaxIter 150
| 22> end
| 23>
| 24>
| 25>                          ****END OF INPUT****

CARTESIAN COORDINATES (ANGSTROEM)
---------------------------------
  C      3.956430    0.501470   -0.379100
  H      3.168400    0.029200    0.207380
  N      3.803890    1.961570   -0.156750
  C      3.842320    0.148490   -1.854060
  H      4.923230    0.177980    0.009370
  H      4.206430    2.244410    0.745360
  H      2.808270    2.211320   -0.096100
  H      4.280760    2.501550   -0.891040
  H      4.629510    0.628000   -2.397480
  H      2.896650    0.481020   -2.228250
  H      3.920530   -0.911870   -1.974130

 Total Charge           Charge          ....    1
 Multiplicity           Mult            ....    1
 Number of Electrons    NEL             ....   26
 Basis Dimension        Dim             ....   82

ORBITAL ENERGIES
----------------

  NO   OCC          E(Eh)            E(eV)
   0   2.0000     -14.567934      -396.4136
   1   2.0000     -10.380173      -282.4589
   2   2.0000     -10.299741      -280.2702
   3   2.0000      -1.386175       -37.7198
   4   2.0000      -1.135424       -30.8965
   5   2.0000      -1.003973       -27.3195
   6   2.0000      -0.955632       -26.0041
   7   2.0000      -0.935976       -25.4692
   8   2.0000      -0.842329       -22.9209
   9   2.0000      -0.785567       -21.3764
  10   2.0000      -0.718230       -19.5440
  11   2.0000      -0.701579       -19.0909
  12   2.0000      -0.680648       -18.5214
  13   0.0000      -0.086335        -2.3493
  14   0.0000      -0.028801        -0.7837
  15   0.0000      -0.022486        -0.6119
  16   0.0000       0.005751         0.1565
  17   0.0000       0.048436         1.3180

MULLIKEN ATOMIC CHARGES
-----------------------
   0 C :   -0.141612
   1 H :    0.147088
   2 N :   -0.075587
   3 C :   -0.170866
   4 H :    0.153218
   5 H :    0.244778
   6 H :    0.247440
   7 H :    0.243980
   8 H :    0.106175
   9 H :    0.103117
  10 H :    0.142268
Sum of atomic charges:    1.0000000

LOEWDIN ATOMIC CHARGES
----------------------
   0 C :    0.021923
   1 H :    0.065697
   2 N :    0.275932
   3 C :   -0.077916
   4 H :    0.067861
   5 H :    0.157520
   6 H :    0.157487
   7 H :    0.153903
   8 H :    0.051329
   9 H :    0.050828
  10 H :    0.075436

  Mayer bond orders larger than 0.100000
B(  0-C ,  1-H ) :   0.9530 B(  0-C ,  2-N ) :   0.9072 B(  0-C ,  3-C ) :   1.0700
B(  0-C ,  4-H ) :   0.9529 B(  2-N ,  5-H ) :   0.9247 B(  2-N ,  6-H ) :   0.9251
B(  2-N ,  7-H ) :   0.9226 B(  3-C ,  8-H ) :   0.9673 B(  3-C ,  9-H ) :   0.9709
B(  3-C , 10-H ) :   0.9576

FINAL SINGLE POINT ENERGY      -134.983972745242

DIPOLE MOMENT
-------------
                                X             Y             Z
Electronic contribution:     -0.01502       1.41141       1.29544
Nuclear contribution   :     -0.06214      -0.04120      -0.39947
                        -----------------------------------------
Total Dipole Moment    :     -0.07716       1.37021       0.89597
                        -----------------------------------------
Magnitude (a.u.)       :      1.63896
Magnitude (Debye)      :      4.16591

Rotational constants in cm-1:     1.011771     0.281435     0.249812
Rotational constants in MHz : 30332.138762  8437.210602  7489.166323

                             ****ORCA TERMINATED NORMALLY****
TOTAL RUN TIME: 0 days 0 hours 0 minutes 9 seconds 575 msec
