                         Program Version 5.0.0 -  RELEASE  -
|  1> !LC-PBE RIJCOSX def2-TZVP def2/J TightSCF xyzfile
|  2>
|  3> *xyzfile 0 1 B.xyz
|  4>
|  5> %MaxCore 64000
|  6>
|  7> %pal nprocs 18
|  8> end
|  9>
| 10> %scf
| 11>   MaxIter 150
| 12> end
| 13>
| 14>
| 15>                          ****END OF INPUT****

CARTESIAN COORDINATES (ANGSTROEM)
---------------------------------
  C      3.956426    0.501466   -0.379100
  H      3.168398    0.029201    0.207383
  N      3.803893    1.961572   -0.156747
  C      3.842322    0.148490   -1.854058
  H      4.923231    0.177982    0.009371
  H      4.620021    0.694502   -2.402150
  H      4.096015   -0.910930   -1.955103
  C      2.475619    0.412708   -2.485377
  H      2.174689    1.445076   -2.287971
  C      1.383931   -0.532740   -1.995203
  H      2.575613    0.318574   -3.571460
  H      1.264698   -0.412309   -0.915491
  H      1.705223   -1.566885   -2.164984
  C      0.031398   -0.317260   -2.677791
  C     -0.587292    1.060853   -2.436460
  H     -0.662815   -1.089530   -2.329985
  H      0.149465   -0.478040   -3.755648
  H      0.104376    1.828590   -2.793130
  C     -0.951213    1.334978   -0.972500
  H     -1.478832    1.161355   -3.062484
  H     -0.317007    0.741648   -0.311389
  H     -1.980916    1.012842   -0.788958
  C     -0.774550    2.788332   -0.543943
  H     -1.352609    3.459372   -1.192585
  H     -1.171014    2.902331    0.469968
  C      0.697208    3.227911   -0.525126
  O      1.489294    2.374703    0.199189
  H      0.715998    4.264030   -0.130774
  H      1.036148    3.330920   -1.583669
  H      4.206425    2.244406    0.745359
  H      2.808269    2.211323   -0.096097
  H      4.280757    2.501552   -0.891037

 Total Charge           Charge          ....    0
 Multiplicity           Mult            ....    1
 Number of Electrons    NEL             ....   90
 Basis Dimension        Dim             ....  467

ORBITAL ENERGIES
----------------

  NO   OCC          E(Eh)            E(eV)
   0   2.0000     -18.838343      -512.6174
   1   2.0000     -14.293860      -388.9557
   2   2.0000     -10.182522      -277.0805
   3   2.0000     -10.138193      -275.8743
   4   2.0000     -10.111506      -275.1481
   5   2.0000     -10.099007      -274.8079
   6   2.0000     -10.094960      -274.6978
   7   2.0000     -10.093621      -274.6614
   8   2.0000     -10.080988      -274.3176
   9   2.0000     -10.067305      -273.9453
  10   2.0000     -10.060203      -273.7520
  11   2.0000      -1.164136       -31.6778
  12   2.0000      -1.053634       -28.6708
  13   2.0000      -0.998698       -27.1759
  14   2.0000      -0.956917       -26.0390
  15   2.0000      -0.915605       -24.9149
  16   2.0000      -0.867558       -23.6074
  17   2.0000      -0.827356       -22.5135
  18   2.0000      -0.784336       -21.3429
  19   2.0000      -0.755556       -20.5597
  20   2.0000      -0.722737       -19.6667
  21   2.0000      -0.717172       -19.5152
  22   2.0000      -0.702553       -19.1175
  23   2.0000      -0.662042       -18.0151
  24   2.0000      -0.634659       -17.2700
  25   2.0000      -0.614713       -16.7272
  26   2.0000      -0.611992       -16.6532
  27   2.0000      -0.581161       -15.8142
  28   2.0000      -0.564165       -15.3517
  29   2.0000      -0.560041       -15.2395
  30   2.0000      -0.536812       -14.6074
  31   2.0000      -0.527139       -14.3442
  32   2.0000      -0.516223       -14.0471
  33   2.0000      -0.496363       -13.5067
  34   2.0000      -0.487402       -13.2629
  35   2.0000      -0.474995       -12.9253
  36   2.0000      -0.466615       -12.6972
  37   2.0000      -0.451624       -12.2893
  38   2.0000      -0.442009       -12.0277
  39   2.0000      -0.435838       -11.8598
  40   2.0000      -0.413050       -11.2397
  41   2.0000      -0.408520       -11.1164
  42   2.0000      -0.402664       -10.9571
  43   2.0000      -0.306004        -8.3268
  44   2.0000      -0.299961        -8.1623
  45   0.0000       0.078102         2.1253
  46   0.0000       0.118542         3.2257
  47   0.0000       0.123609         3.3636
  48   0.0000       0.137396         3.7387
  49   0.0000       0.150987         4.1086

MULLIKEN ATOMIC CHARGES
-----------------------
   0 C :   -0.270355
   1 H :    0.215876
   2 N :   -0.308557
   3 C :   -0.343752
   4 H :    0.173647
   5 H :    0.171164
   6 H :    0.163897
   7 C :   -0.295717
   8 H :    0.149435
   9 C :   -0.303508
  10 H :    0.155417
  11 H :    0.165201
  12 H :    0.141075
  13 C :   -0.271346
  14 C :   -0.338388
  15 H :    0.146126
  16 H :    0.140836
  17 H :    0.153612
  18 C :   -0.249020
  19 H :    0.140845
  20 H :    0.145483
  21 H :    0.130468
  22 C :   -0.223195
  23 H :    0.112357
  24 H :    0.118221
  25 C :   -0.117005
  26 O :   -0.705060
  27 H :    0.078502
  28 H :    0.056972
  29 H :    0.291672
  30 H :    0.291793
  31 H :    0.283306
Sum of atomic charges:    0.0000000

LOEWDIN ATOMIC CHARGES
----------------------
   0 C :   -0.295959
   1 H :    0.156037
   2 N :    0.133288
   3 C :   -0.293405
   4 H :    0.138205
   5 H :    0.144189
   6 H :    0.155401
   7 C :   -0.283718
   8 H :    0.148805
   9 C :   -0.288047
  10 H :    0.146821
  11 H :    0.145842
  12 H :    0.141055
  13 C :   -0.287986
  14 C :   -0.282761
  15 H :    0.144884
  16 H :    0.140656
  17 H :    0.140324
  18 C :   -0.289775
  19 H :    0.139623
  20 H :    0.146973
  21 H :    0.135655
  22 C :   -0.302719
  23 H :    0.134394
  24 H :    0.139308
  25 C :   -0.498532
  26 O :   -0.283729
  27 H :    0.105098
  28 H :    0.090832
  29 H :    0.200788
  30 H :    0.082449
  31 H :    0.196003

  Mayer bond orders larger than 0.100000
B(  0-C ,  1-H ) :   0.9718 B(  0-C ,  2-N ) :   0.8718 B(  0-C ,  3-C ) :   0.9512
B(  0-C ,  4-H ) :   0.9752 B(  2-N , 29-H ) :   0.9043 B(  2-N , 30-H ) :   0.6314
B(  2-N , 31-H ) :   0.8972 B(  3-C ,  5-H ) :   0.9929 B(  3-C ,  6-H ) :   0.9754
B(  3-C ,  7-C ) :   0.9333 B(  7-C ,  8-H ) :   0.9857 B(  7-C ,  9-C ) :   0.8859
B(  7-C , 10-H ) :   0.9734 B(  9-C , 11-H ) :   0.9778 B(  9-C , 12-H ) :   0.9727
B(  9-C , 13-C ) :   0.9682 B( 13-C , 14-C ) :   0.9317 B( 13-C , 15-H ) :   0.9844
B( 13-C , 16-H ) :   0.9911 B( 14-C , 17-H ) :   0.9993 B( 14-C , 18-C ) :   0.8913
B( 14-C , 19-H ) :   0.9779 B( 18-C , 20-H ) :   0.9736 B( 18-C , 21-H ) :   0.9747
B( 18-C , 22-C ) :   0.9642 B( 22-C , 23-H ) :   0.9755 B( 22-C , 24-H ) :   0.9716
B( 22-C , 25-C ) :   0.9500 B( 25-C , 26-O ) :   1.1730 B( 25-C , 27-H ) :   0.9816
B( 25-C , 28-H ) :   0.9775 B( 26-O , 30-H ) :   0.4289

FINAL SINGLE POINT ENERGY      -484.111436541281

DIPOLE MOMENT
-------------
                                X             Y             Z
Electronic contribution:      2.15735       0.93017       2.55512
Nuclear contribution   :      0.61785      -1.47632      -2.91844
                        -----------------------------------------
Total Dipole Moment    :      2.77520      -0.54615      -0.36332
                        -----------------------------------------
Magnitude (a.u.)       :      2.85167
Magnitude (Debye)      :      7.24836

Rotational constants in cm-1:     0.040993     0.027400     0.018162
Rotational constants in MHz :  1228.944366   821.418004   544.476857

                             ****ORCA TERMINATED NORMALLY****
TOTAL RUN TIME: 0 days 0 hours 0 minutes 57 seconds 137 msec
