                         Program Version 5.0.0 -  RELEASE  -
|  1> !LC-PBE RIJCOSX def2-SVP def2/J TightSCF
|  2> *xyz 0 1
|  3> C         -0.77455        2.78833       -0.54394
|  4> C          0.69721        3.22791       -0.52513
|  5> F          1.48929        2.37470        0.19919
|  6> H          0.71600        4.26403       -0.13077
|  7> H          1.03615        3.33092       -1.58367
|  8> H         -1.34746        3.48478       -1.11982
|  9> H         -1.15078        2.75876        0.45729
| 10> H         -0.85058        1.81526       -0.98241
| 11> *
| 12>
| 13> %MaxCore 64000
| 14> %pal nprocs 4
| 15> end
| 16>
| 17> %scf
| 18>   MaxIter 150
| 19> end
| 20>
| 21>
| 22>                          ****END OF INPUT****

CARTESIAN COORDINATES (ANGSTROEM)
---------------------------------
  C     -0.774550    2.788330   -0.543940
  C      0.697210    3.227910   -0.525130
  F      1.489290    2.374700    0.199190
  H      0.716000    4.264030   -0.130770
  H      1.036150    3.330920   -1.583670
  H     -1.347460    3.484780   -1.119820
  H     -1.150780    2.758760    0.457290
  H     -0.850580    1.815260   -0.982410

 Total Charge           Charge          ....    0
 Multiplicity           Mult            ....    1
 Number of Electrons    NEL             ....   26
 Basis Dimension        Dim             ....   67

ORBITAL ENERGIES
----------------

  NO   OCC          E(Eh)            E(eV)
   0   2.0000     -24.470921      -665.8876
   1   2.0000     -10.201319      -277.5920
   2   2.0000     -10.119327      -275.3609
   3   2.0000      -1.323467       -36.0134
   4   2.0000      -0.930821       -25.3289
   5   2.0000      -0.782737       -21.2994
   6   2.0000      -0.648209       -17.6387
   7   2.0000      -0.641080       -17.4447
   8   2.0000      -0.597241       -16.2518
   9   2.0000      -0.539193       -14.6722
  10   2.0000      -0.534028       -14.5316
  11   2.0000      -0.463394       -12.6096
  12   2.0000      -0.454944       -12.3796
  13   0.0000       0.156688         4.2637
  14   0.0000       0.203983         5.5507
  15   0.0000       0.210787         5.7358
  16   0.0000       0.229950         6.2573
  17   0.0000       0.250926         6.8281

MULLIKEN ATOMIC CHARGES
-----------------------
   0 C :   -0.192810
   1 C :    0.117438
   2 F :   -0.251356
   3 H :    0.054345
   4 H :    0.056000
   5 H :    0.064561
   6 H :    0.076014
   7 H :    0.075809
Sum of atomic charges:   -0.0000000

LOEWDIN ATOMIC CHARGES
----------------------
   0 C :   -0.111031
   1 C :    0.075775
   2 F :   -0.129940
   3 H :    0.022714
   4 H :    0.023953
   5 H :    0.041872
   6 H :    0.038469
   7 H :    0.038189

  Mayer bond orders larger than 0.100000
B(  0-C ,  1-C ) :   1.0676 B(  0-C ,  5-H ) :   0.9658 B(  0-C ,  6-H ) :   0.9737
B(  0-C ,  7-H ) :   0.9739 B(  1-C ,  2-F ) :   1.0169 B(  1-C ,  3-H ) :   0.9629
B(  1-C ,  4-H ) :   0.9627

FINAL SINGLE POINT ENERGY      -178.422212802274

DIPOLE MOMENT
-------------
                                X             Y             Z
Electronic contribution:      4.42242      -1.64024       1.99351
Nuclear contribution   :     -4.89513       2.05627      -2.36166
                        -----------------------------------------
Total Dipole Moment    :     -0.47271       0.41603      -0.36815
                        -----------------------------------------
Magnitude (a.u.)       :      0.72944
Magnitude (Debye)      :      1.85408

Rotational constants in cm-1:     1.247826     0.304622     0.269019
Rotational constants in MHz : 37408.889506  9132.346906  8064.979146

                             ****ORCA TERMINATED NORMALLY****
TOTAL RUN TIME: 0 days 0 hours 0 minutes 7 seconds 401 msec
