                         Program Version 5.0.0 -  RELEASE  -
|  1> !LC-PBE RIJCOSX def2-SVP def2/J TightSCF
|  2> *xyz 0 1
|  3> C          3.95643        0.50147       -0.37910
|  4> H          3.16840        0.02920        0.20738
|  5> C          3.80389        1.96157       -0.15675
|  6> C          3.84232        0.14849       -1.85406
|  7> H          4.92323        0.17798        0.00937
|  8> H          4.20643        2.24441        0.74536
|  9> H          2.80827        2.21132       -0.09610
| 10> H          4.28076        2.50155       -0.89104
| 11> H          4.62951        0.62800       -2.39748
| 12> H          2.89665        0.48102       -2.22825
| 13> H          3.92053       -0.91187       -1.97413
| 14> *
| 15>
| 16> %MaxCore 64000
| 17> %pal nprocs 4
| 18> end
| 19>
| 20> %scf
| 21>   MaxIter 150
| 22> end
| 23>
| 24>
| 25>                          ****END OF INPUT****

CARTESIAN COORDINATES (ANGSTROEM)
---------------------------------
  C      3.956430    0.501470   -0.379100
  H      3.168400    0.029200    0.207380
  C      3.803890    1.961570   -0.156750
  C      3.842320    0.148490   -1.854060
  H      4.923230    0.177980    0.009370
  H      4.206430    2.244410    0.745360
  H      2.808270    2.211320   -0.096100
  H      4.280760    2.501550   -0.891040
  H      4.629510    0.628000   -2.397480
  H      2.896650    0.481020   -2.228250
  H      3.920530   -0.911870   -1.974130

 Total Charge           Charge          ....    0
 Multiplicity           Mult            ....    1
 Number of Electrons    NEL             ....   26
 Basis Dimension        Dim             ....   82

ORBITAL ENERGIES
----------------

  NO   OCC          E(Eh)            E(eV)
   0   2.0000     -10.111039      -275.1353
   1   2.0000     -10.102721      -274.9090
   2   2.0000     -10.085749      -274.4472
   3   2.0000      -0.965090       -26.2614
   4   2.0000      -0.852615       -23.2008
   5   2.0000      -0.738511       -20.0959
   6   2.0000      -0.615996       -16.7621
   7   2.0000      -0.589745       -16.0478
   8   2.0000      -0.539971       -14.6934
   9   2.0000      -0.525623       -14.3029
  10   2.0000      -0.466901       -12.7050
  11   2.0000      -0.463122       -12.6022
  12   2.0000      -0.451254       -12.2792
  13   0.0000       0.156245         4.2516
  14   0.0000       0.204682         5.5697
  15   0.0000       0.207340         5.6420
  16   0.0000       0.211618         5.7584
  17   0.0000       0.241213         6.5637

MULLIKEN ATOMIC CHARGES
-----------------------
   0 C :   -0.197021
   1 H :    0.058241
   2 C :   -0.072466
   3 C :   -0.132071
   4 H :    0.059189
   5 H :    0.036423
   6 H :    0.040727
   7 H :    0.036108
   8 H :    0.057061
   9 H :    0.055258
  10 H :    0.058553
Sum of atomic charges:    0.0000000

LOEWDIN ATOMIC CHARGES
----------------------
   0 C :   -0.069190
   1 H :    0.032753
   2 C :   -0.080040
   3 C :   -0.088415
   4 H :    0.031064
   5 H :    0.027469
   6 H :    0.026721
   7 H :    0.023962
   8 H :    0.031546
   9 H :    0.031716
  10 H :    0.032415

  Mayer bond orders larger than 0.100000
B(  0-C ,  1-H ) :   0.9678 B(  0-C ,  2-C ) :   1.0708 B(  0-C ,  3-C ) :   1.0745
B(  0-C ,  4-H ) :   0.9693 B(  2-C ,  5-H ) :   0.9719 B(  2-C ,  6-H ) :   0.9752
B(  2-C ,  7-H ) :   0.9775 B(  3-C ,  8-H ) :   0.9770 B(  3-C ,  9-H ) :   0.9790
B(  3-C , 10-H ) :   0.9774

FINAL SINGLE POINT ENERGY      -118.607851537155

DIPOLE MOMENT
-------------
                                X             Y             Z
Electronic contribution:      0.07861      -0.28964       0.22793
Nuclear contribution   :     -0.08172       0.30475      -0.19303
                        -----------------------------------------
Total Dipole Moment    :     -0.00310       0.01511       0.03490
                        -----------------------------------------
Magnitude (a.u.)       :      0.03816
Magnitude (Debye)      :      0.09698

Rotational constants in cm-1:     1.020248     0.295755     0.261591
Rotational constants in MHz : 30586.266829  8866.511639  7842.297953

                             ****ORCA TERMINATED NORMALLY****
TOTAL RUN TIME: 0 days 0 hours 0 minutes 9 seconds 445 msec
