                         Program Version 5.0.0 -  RELEASE  -
|  1> !LC-PBE RIJCOSX def2-TZVP def2/J TightSCF xyzfile
|  2>
|  3> *xyzfile 0 1 D.xyz
|  4>
|  5> %MaxCore 64000
|  6>
|  7> %pal nprocs 18
|  8> end
|  9>
| 10> %scf
| 11>   MaxIter 150
| 12> end
| 13>
| 14>
| 15>                          ****END OF INPUT****

CARTESIAN COORDINATES (ANGSTROEM)
---------------------------------
  C      3.956426    0.501466   -0.379100
  H      3.168398    0.029201    0.207383
  C      3.803893    1.961572   -0.156747
  C      3.842322    0.148490   -1.854058
  H      4.923231    0.177982    0.009371
  H      4.620021    0.694502   -2.402150
  H      4.096015   -0.910930   -1.955103
  C      2.475619    0.412708   -2.485377
  H      2.174689    1.445076   -2.287971
  C      1.383931   -0.532740   -1.995203
  H      2.575613    0.318574   -3.571460
  H      1.264698   -0.412309   -0.915491
  H      1.705223   -1.566885   -2.164984
  C      0.031398   -0.317260   -2.677791
  C     -0.587292    1.060853   -2.436460
  H     -0.662815   -1.089530   -2.329985
  H      0.149465   -0.478040   -3.755648
  H      0.104376    1.828590   -2.793130
  C     -0.951213    1.334978   -0.972500
  H     -1.478832    1.161355   -3.062484
  H     -0.317007    0.741648   -0.311389
  H     -1.980916    1.012842   -0.788958
  C     -0.774550    2.788332   -0.543943
  H     -1.352609    3.459372   -1.192585
  H     -1.171014    2.902331    0.469968
  C      0.697208    3.227911   -0.525126
  F      1.489294    2.374703    0.199189
  H      0.715998    4.264030   -0.130774
  H      1.036148    3.330920   -1.583669
  H      4.206425    2.244406    0.745359
  H      2.808269    2.211323   -0.096097
  H      4.280757    2.501552   -0.891037

 Total Charge           Charge          ....    0
 Multiplicity           Mult            ....    1
 Number of Electrons    NEL             ....   90
 Basis Dimension        Dim             ....  467

ORBITAL ENERGIES
----------------

  NO   OCC          E(Eh)            E(eV)
   0   2.0000     -24.496405      -666.5811
   1   2.0000     -10.204055      -277.6665
   2   2.0000     -10.126524      -275.5567
   3   2.0000     -10.112476      -275.1745
   4   2.0000     -10.109186      -275.0849
   5   2.0000     -10.105817      -274.9933
   6   2.0000     -10.099593      -274.8239
   7   2.0000     -10.097422      -274.7648
   8   2.0000     -10.091505      -274.6038
   9   2.0000     -10.080209      -274.2964
  10   2.0000     -10.024595      -272.7831
  11   2.0000      -1.387744       -37.7624
  12   2.0000      -1.004278       -27.3278
  13   2.0000      -0.982885       -26.7457
  14   2.0000      -0.946578       -25.7577
  15   2.0000      -0.911731       -24.8095
  16   2.0000      -0.859949       -23.4004
  17   2.0000      -0.832151       -22.6440
  18   2.0000      -0.788324       -21.4514
  19   2.0000      -0.760838       -20.7035
  20   2.0000      -0.723066       -19.6756
  21   2.0000      -0.707393       -19.2491
  22   2.0000      -0.682578       -18.5739
  23   2.0000      -0.668676       -18.1956
  24   2.0000      -0.644156       -17.5284
  25   2.0000      -0.618129       -16.8202
  26   2.0000      -0.606208       -16.4958
  27   2.0000      -0.594150       -16.1676
  28   2.0000      -0.572475       -15.5778
  29   2.0000      -0.569178       -15.4881
  30   2.0000      -0.549998       -14.9662
  31   2.0000      -0.530851       -14.4452
  32   2.0000      -0.523431       -14.2433
  33   2.0000      -0.508893       -13.8477
  34   2.0000      -0.498653       -13.5690
  35   2.0000      -0.486683       -13.2433
  36   2.0000      -0.479227       -13.0404
  37   2.0000      -0.471513       -12.8305
  38   2.0000      -0.451119       -12.2756
  39   2.0000      -0.445750       -12.1295
  40   2.0000      -0.439295       -11.9538
  41   2.0000      -0.437869       -11.9150
  42   2.0000      -0.421184       -11.4610
  43   2.0000      -0.419578       -11.4173
  44   2.0000      -0.398212       -10.8359
  45   0.0000       0.115038         3.1304
  46   0.0000       0.126233         3.4350
  47   0.0000       0.132390         3.6025
  48   0.0000       0.142085         3.8663
  49   0.0000       0.153772         4.1844

MULLIKEN ATOMIC CHARGES
-----------------------
   0 C :   -0.254480
   1 H :    0.134286
   2 C :   -0.506010
   3 C :   -0.291600
   4 H :    0.129704
   5 H :    0.153140
   6 H :    0.134146
   7 C :   -0.273382
   8 H :    0.121676
   9 C :   -0.326721
  10 H :    0.148540
  11 H :    0.153026
  12 H :    0.151038
  13 C :   -0.259828
  14 C :   -0.352683
  15 H :    0.149661
  16 H :    0.149839
  17 H :    0.157285
  18 C :   -0.277106
  19 H :    0.153163
  20 H :    0.164256
  21 H :    0.155288
  22 C :   -0.299901
  23 H :    0.156899
  24 H :    0.154067
  25 C :   -0.114976
  26 F :   -0.157535
  27 H :    0.154793
  28 H :    0.153257
  29 H :    0.140015
  30 H :    0.165951
  31 H :    0.134190
Sum of atomic charges:    0.0000000

LOEWDIN ATOMIC CHARGES
----------------------
   0 C :   -0.321817
   1 H :    0.140201
   2 C :   -0.344509
   3 C :   -0.288558
   4 H :    0.138276
   5 H :    0.143715
   6 H :    0.141952
   7 C :   -0.282509
   8 H :    0.139000
   9 C :   -0.286752
  10 H :    0.143924
  11 H :    0.140375
  12 H :    0.145867
  13 C :   -0.287245
  14 C :   -0.283121
  15 H :    0.145012
  16 H :    0.144640
  17 H :    0.140672
  18 C :   -0.284420
  19 H :    0.143121
  20 H :    0.148792
  21 H :    0.144999
  22 C :   -0.295333
  23 H :    0.151988
  24 H :    0.147645
  25 C :   -0.365345
  26 F :    0.184275
  27 H :    0.135174
  28 H :    0.132651
  29 H :    0.110910
  30 H :    0.065909
  31 H :    0.110511

  Mayer bond orders larger than 0.100000
B(  0-C ,  1-H ) :   0.9918 B(  0-C ,  2-C ) :   0.8871 B(  0-C ,  3-C ) :   0.9416
B(  0-C ,  4-H ) :   0.9878 B(  2-C , 29-H ) :   0.9971 B(  2-C , 30-H ) :   0.9746
B(  2-C , 31-H ) :   0.9753 B(  3-C ,  5-H ) :   0.9948 B(  3-C ,  6-H ) :   0.9854
B(  3-C ,  7-C ) :   0.9573 B(  7-C ,  8-H ) :   0.9846 B(  7-C ,  9-C ) :   0.8939
B(  7-C , 10-H ) :   0.9751 B(  9-C , 11-H ) :   0.9888 B(  9-C , 12-H ) :   0.9764
B(  9-C , 13-C ) :   0.9508 B( 13-C , 14-C ) :   0.9327 B( 13-C , 15-H ) :   0.9873
B( 13-C , 16-H ) :   0.9859 B( 14-C , 17-H ) :   1.0005 B( 14-C , 18-C ) :   0.8788
B( 14-C , 19-H ) :   0.9755 B( 18-C , 20-H ) :   0.9847 B( 18-C , 21-H ) :   0.9724
B( 18-C , 22-C ) :   0.9457 B( 22-C , 23-H ) :   0.9606 B( 22-C , 24-H ) :   0.9757
B( 22-C , 25-C ) :   0.9796 B( 25-C , 26-F ) :   0.9413 B( 25-C , 27-H ) :   0.9799
B( 25-C , 28-H ) :   0.9755

FINAL SINGLE POINT ENERGY      -492.071141282740

DIPOLE MOMENT
-------------
                                X             Y             Z
Electronic contribution:     -1.98712       3.30424       4.25927
Nuclear contribution   :      1.09293      -2.80761      -4.51228
                        -----------------------------------------
Total Dipole Moment    :     -0.89419       0.49662      -0.25301
                        -----------------------------------------
Magnitude (a.u.)       :      1.05367
Magnitude (Debye)      :      2.67821

Rotational constants in cm-1:     0.040502     0.027818     0.018259
Rotational constants in MHz :  1214.218058   833.972871   547.398614

                             ****ORCA TERMINATED NORMALLY****
TOTAL RUN TIME: 0 days 0 hours 0 minutes 57 seconds 488 msec
