                         Program Version 5.0.0 -  RELEASE  -
|  1> !wB97X-D3 RIJCOSX def2-TZVP def2/J TightSCF
|  2> *xyz -1 1
|  3> C         -0.10608        1.76991       -4.08984
|  4> C         -0.25875        1.00432       -5.40983
|  5> C          0.39596       -0.37070       -5.33994
|  6> H          0.23915        1.56939       -6.20125
|  7> H         -1.30936        0.88869       -5.68245
|  8> O         -0.32633       -1.39040       -5.49128
|  9> O          1.61941       -0.40073       -5.03683
| 10> H         -0.57627        2.72718       -4.17630
| 11> H          0.93321        1.90140       -3.87192
| 12> H         -0.56868        1.21534       -3.30031
| 13> *
| 14> %MaxCore 64000
| 15>
| 16> %pal nprocs 4
| 17> end
| 18>
| 19> %scf
| 20>   MaxIter 150
| 21> end
| 22>
| 23>
| 24>                          ****END OF INPUT****

CARTESIAN COORDINATES (ANGSTROEM)
---------------------------------
  C     -0.106080    1.769910   -4.089840
  C     -0.258750    1.004320   -5.409830
  C      0.395960   -0.370700   -5.339940
  H      0.239150    1.569390   -6.201250
  H     -1.309360    0.888690   -5.682450
  O     -0.326330   -1.390400   -5.491280
  O      1.619410   -0.400730   -5.036830
  H     -0.576270    2.727180   -4.176300
  H      0.933210    1.901400   -3.871920
  H     -0.568680    1.215340   -3.300310

 Total Charge           Charge          ....   -1
 Multiplicity           Mult            ....    1
 Number of Electrons    NEL             ....   40
 Basis Dimension        Dim             ....  185

ORBITAL ENERGIES
----------------

  NO   OCC          E(Eh)            E(eV)
   0   2.0000     -18.952282      -515.7178
   1   2.0000     -18.950913      -515.6806
   2   2.0000     -10.149180      -276.1732
   3   2.0000     -10.107998      -275.0526
   4   2.0000     -10.096964      -274.7524
   5   2.0000      -0.924655       -25.1612
   6   2.0000      -0.828564       -22.5464
   7   2.0000      -0.718968       -19.5641
   8   2.0000      -0.583352       -15.8738
   9   2.0000      -0.420836       -11.4515
  10   2.0000      -0.391233       -10.6460
  11   2.0000      -0.356399        -9.6981
  12   2.0000      -0.323580        -8.8051
  13   2.0000      -0.306911        -8.3515
  14   2.0000      -0.300082        -8.1657
  15   2.0000      -0.266937        -7.2637
  16   2.0000      -0.250659        -6.8208
  17   2.0000      -0.130572        -3.5530
  18   2.0000      -0.127230        -3.4621
  19   2.0000      -0.112787        -3.0691
  20   0.0000       0.263668         7.1748
  21   0.0000       0.304831         8.2949
  22   0.0000       0.325091         8.8462
  23   0.0000       0.329255         8.9595
  24   0.0000       0.343574         9.3491

MULLIKEN ATOMIC CHARGES
-----------------------
   0 C :   -0.320514
   1 C :   -0.119998
   2 C :    0.255716
   3 H :    0.036495
   4 H :    0.042755
   5 O :   -0.565460
   6 O :   -0.575274
   7 H :    0.054160
   8 H :    0.102201
   9 H :    0.089920
Sum of atomic charges:   -1.0000000

LOEWDIN ATOMIC CHARGES
----------------------
   0 C :   -0.320635
   1 C :   -0.288009
   2 C :   -0.688704
   3 H :    0.121016
   4 H :    0.117038
   5 O :   -0.125220
   6 O :   -0.128590
   7 H :    0.092266
   8 H :    0.112190
   9 H :    0.108647

  Mayer bond orders larger than 0.100000
B(  0-C ,  1-C ) :   0.9636 B(  0-C ,  7-H ) :   0.9770 B(  0-C ,  8-H ) :   0.9748
B(  0-C ,  9-H ) :   0.9850 B(  1-C ,  2-C ) :   0.9449 B(  1-C ,  3-H ) :   0.9634
B(  1-C ,  4-H ) :   0.9632 B(  2-C ,  5-O ) :   1.8544 B(  2-C ,  6-O ) :   1.7997

Dispersion correction           -0.001961723
FINAL SINGLE POINT ENERGY      -267.865298896751

DIPOLE MOMENT
-------------
                                X             Y             Z
Electronic contribution:      1.74443      -5.33465      -1.70403
Nuclear contribution   :     -2.46071       7.20791       1.95694
                        -----------------------------------------
Total Dipole Moment    :     -0.71628       1.87327       0.25291
                        -----------------------------------------
Magnitude (a.u.)       :      2.02142
Magnitude (Debye)      :      5.13805

Rotational constants in cm-1:     0.309435     0.135317     0.107436
Rotational constants in MHz :  9276.637721  4056.700783  3220.846587

                             ****ORCA TERMINATED NORMALLY****
TOTAL RUN TIME: 0 days 0 hours 0 minutes 32 seconds 532 msec
