                         Program Version 5.0.0 -  RELEASE  -
|  1> !wB97X-D3 RIJCOSX def2-TZVP def2/J TightSCF
|  2> *xyz 1 1
|  3> C          0.81607       -2.10149       -2.18655
|  4> H          1.69623       -2.36869       -1.60046
|  5> N          1.10055       -2.46749       -3.59927
|  6> C          0.51624       -0.61363       -2.03937
|  7> H         -0.02007       -2.71285       -1.84084
|  8> H          1.70061       -1.75723       -4.07838
|  9> H          0.29386       -2.35977       -4.25632
| 10> H          1.50132       -3.42848       -3.69491
| 11> H         -0.34841       -0.36504       -2.61858
| 12> H          1.35358       -0.04503       -2.38643
| 13> H          0.33317       -0.38682       -1.00984
| 14> *
| 15> %MaxCore 64000
| 16>
| 17> %pal nprocs 4
| 18> end
| 19>
| 20> %scf
| 21>   MaxIter 150
| 22> end
| 23>
| 24>
| 25>                          ****END OF INPUT****

CARTESIAN COORDINATES (ANGSTROEM)
---------------------------------
  C      0.816070   -2.101490   -2.186550
  H      1.696230   -2.368690   -1.600460
  N      1.100550   -2.467490   -3.599270
  C      0.516240   -0.613630   -2.039370
  H     -0.020070   -2.712850   -1.840840
  H      1.700610   -1.757230   -4.078380
  H      0.293860   -2.359770   -4.256320
  H      1.501320   -3.428480   -3.694910
  H     -0.348410   -0.365040   -2.618580
  H      1.353580   -0.045030   -2.386430
  H      0.333170   -0.386820   -1.009840

 Total Charge           Charge          ....    1
 Multiplicity           Mult            ....    1
 Number of Electrons    NEL             ....   26
 Basis Dimension        Dim             ....  141

ORBITAL ENERGIES
----------------

  NO   OCC          E(Eh)            E(eV)
   0   2.0000     -14.761393      -401.6779
   1   2.0000     -10.529304      -286.5169
   2   2.0000     -10.448280      -284.3121
   3   2.0000      -1.327359       -36.1193
   4   2.0000      -1.081258       -29.4225
   5   2.0000      -0.960575       -26.1386
   6   2.0000      -0.892257       -24.2796
   7   2.0000      -0.874678       -23.8012
   8   2.0000      -0.801774       -21.8174
   9   2.0000      -0.737236       -20.0612
  10   2.0000      -0.679206       -18.4821
  11   2.0000      -0.664157       -18.0726
  12   2.0000      -0.645627       -17.5684
  13   0.0000      -0.111213        -3.0263
  14   0.0000      -0.050428        -1.3722
  15   0.0000      -0.047191        -1.2841
  16   0.0000      -0.029289        -0.7970
  17   0.0000       0.014016         0.3814

MULLIKEN ATOMIC CHARGES
-----------------------
   0 C :   -0.178003
   1 H :    0.188707
   2 N :   -0.334096
   3 C :   -0.375194
   4 H :    0.192828
   5 H :    0.330920
   6 H :    0.335400
   7 H :    0.354885
   8 H :    0.150101
   9 H :    0.150165
  10 H :    0.184287
Sum of atomic charges:    1.0000000

LOEWDIN ATOMIC CHARGES
----------------------
   0 C :   -0.277647
   1 H :    0.153615
   2 N :    0.148034
   3 C :   -0.276309
   4 H :    0.153426
   5 H :    0.230273
   6 H :    0.229707
   7 H :    0.233334
   8 H :    0.129390
   9 H :    0.128880
  10 H :    0.147298

  Mayer bond orders larger than 0.100000
B(  0-C ,  1-H ) :   0.9504 B(  0-C ,  2-N ) :   0.8631 B(  0-C ,  3-C ) :   1.0000
B(  0-C ,  4-H ) :   0.9515 B(  2-N ,  5-H ) :   0.8723 B(  2-N ,  6-H ) :   0.8714
B(  2-N ,  7-H ) :   0.8606 B(  3-C ,  8-H ) :   0.9628 B(  3-C ,  9-H ) :   0.9608
B(  3-C , 10-H ) :   0.9575

Dispersion correction           -0.001532289
FINAL SINGLE POINT ENERGY      -135.546170284529

DIPOLE MOMENT
-------------
                                X             Y             Z
Electronic contribution:      0.42475      -1.44683      -1.09260
Nuclear contribution   :     -0.07506       0.54337      -0.16191
                        -----------------------------------------
Total Dipole Moment    :      0.34970      -0.90347      -1.25451
                        -----------------------------------------
Magnitude (a.u.)       :      1.58503
Magnitude (Debye)      :      4.02884

Rotational constants in cm-1:     0.999557     0.280801     0.246932
Rotational constants in MHz : 29965.963633  8418.199581  7402.841054

                             ****ORCA TERMINATED NORMALLY****
TOTAL RUN TIME: 0 days 0 hours 0 minutes 18 seconds 990 msec
