                         Program Version 5.0.0 -  RELEASE  -
|  1> !wB97X-D3 RIJCOSX def2-TZVP def2/J TightSCF xyzfile
|  2>
|  3> *xyzfile 0 1 B.xyz
|  4>
|  5> %MaxCore 64000
|  6>
|  7> %pal nprocs 18
|  8> end
|  9>
| 10> %scf
| 11>   MaxIter 150
| 12> end
| 13>
| 14>
| 15>                          ****END OF INPUT****

CARTESIAN COORDINATES (ANGSTROEM)
---------------------------------
  C      0.816067   -2.101491   -2.186546
  H      1.696232   -2.368691   -1.600457
  N      1.100552   -2.467492   -3.599269
  C      0.516243   -0.613634   -2.039373
  H     -0.020066   -2.712849   -1.840844
  C     -0.868621   -0.193925   -2.546303
  C     -0.984801    1.284739   -2.928686
  H     -0.764939    1.904116   -2.051568
  H     -2.032613    1.478953   -3.178952
  C     -0.106085    1.769914   -4.089836
  H     -0.347744    2.822196   -4.262942
  H      0.949683    1.745875   -3.808781
  C     -0.258747    1.004323   -5.409829
  C      0.395958   -0.370696   -5.339939
  H      0.239150    1.569393   -6.201253
  H     -1.309360    0.888694   -5.682455
  H      1.700606   -1.757225   -4.078378
  H      0.293855   -2.359766   -4.256324
  H      1.501324   -3.428479   -3.694915
  O     -0.326329   -1.390398   -5.491279
  O      1.619412   -0.400726   -5.036827
  H     -1.607271   -0.412651   -1.768955
  H     -1.157234   -0.796164   -3.409254
  H      1.299044   -0.056805   -2.558982
  H      0.612393   -0.365579   -0.979171

 Total Charge           Charge          ....    0
 Multiplicity           Mult            ....    1
 Number of Electrons    NEL             ....   80
 Basis Dimension        Dim             ....  400

ORBITAL ENERGIES
----------------

  NO   OCC          E(Eh)            E(eV)
   0   2.0000     -19.161372      -521.4074
   1   2.0000     -19.159882      -521.3669
   2   2.0000     -14.510044      -394.8384
   3   2.0000     -10.348857      -281.6067
   4   2.0000     -10.348219      -281.5894
   5   2.0000     -10.289383      -279.9883
   6   2.0000     -10.271047      -279.4894
   7   2.0000     -10.266646      -279.3696
   8   2.0000     -10.259533      -279.1761
   9   2.0000     -10.249791      -278.9110
  10   2.0000      -1.144521       -31.1440
  11   2.0000      -1.095482       -29.8096
  12   2.0000      -1.041856       -28.3504
  13   2.0000      -0.932806       -25.3829
  14   2.0000      -0.888651       -24.1814
  15   2.0000      -0.839995       -22.8574
  16   2.0000      -0.774098       -21.0643
  17   2.0000      -0.738481       -20.0951
  18   2.0000      -0.682025       -18.5589
  19   2.0000      -0.671626       -18.2759
  20   2.0000      -0.646087       -17.5809
  21   2.0000      -0.618538       -16.8313
  22   2.0000      -0.584347       -15.9009
  23   2.0000      -0.571356       -15.5474
  24   2.0000      -0.556788       -15.1510
  25   2.0000      -0.544947       -14.8288
  26   2.0000      -0.523426       -14.2432
  27   2.0000      -0.516914       -14.0659
  28   2.0000      -0.497625       -13.5411
  29   2.0000      -0.486578       -13.2405
  30   2.0000      -0.482071       -13.1178
  31   2.0000      -0.467536       -12.7223
  32   2.0000      -0.446654       -12.1541
  33   2.0000      -0.442254       -12.0343
  34   2.0000      -0.417123       -11.3505
  35   2.0000      -0.403011       -10.9665
  36   2.0000      -0.398451       -10.8424
  37   2.0000      -0.340769        -9.2728
  38   2.0000      -0.328950        -8.9512
  39   2.0000      -0.322061        -8.7637
  40   0.0000       0.080666         2.1950
  41   0.0000       0.115072         3.1313
  42   0.0000       0.126645         3.4462
  43   0.0000       0.136972         3.7272
  44   0.0000       0.140666         3.8277

MULLIKEN ATOMIC CHARGES
-----------------------
   0 C :   -0.143969
   1 H :    0.137776
   2 N :   -0.304919
   3 C :   -0.269231
   4 H :    0.137941
   5 C :   -0.211037
   6 C :   -0.220011
   7 H :    0.096412
   8 H :    0.105444
   9 C :   -0.211960
  10 H :    0.104139
  11 H :    0.120845
  12 C :   -0.140604
  13 C :    0.279622
  14 H :    0.107340
  15 H :    0.096208
  16 H :    0.298731
  17 H :    0.298757
  18 H :    0.275207
  19 O :   -0.533123
  20 O :   -0.545975
  21 H :    0.102386
  22 H :    0.142088
  23 H :    0.161605
  24 H :    0.116327
Sum of atomic charges:   -0.0000000

LOEWDIN ATOMIC CHARGES
----------------------
   0 C :   -0.275953
   1 H :    0.134342
   2 N :    0.117171
   3 C :   -0.266643
   4 H :    0.136207
   5 C :   -0.268959
   6 C :   -0.266229
   7 H :    0.134563
   8 H :    0.138287
   9 C :   -0.266445
  10 H :    0.135257
  11 H :    0.137451
  12 C :   -0.234444
  13 C :   -0.629586
  14 H :    0.145689
  15 H :    0.138657
  16 H :    0.183741
  17 H :    0.184284
  18 H :    0.196249
  19 O :   -0.073959
  20 O :   -0.068084
  21 H :    0.133977
  22 H :    0.144394
  23 H :    0.148413
  24 H :    0.141623

  Mayer bond orders larger than 0.100000
B(  0-C ,  1-H ) :   0.9769 B(  0-C ,  2-N ) :   0.9142 B(  0-C ,  3-C ) :   0.9831
B(  0-C ,  4-H ) :   0.9750 B(  2-N , 16-H ) :   0.7686 B(  2-N , 17-H ) :   0.7791
B(  2-N , 18-H ) :   0.9007 B(  3-C ,  5-C ) :   0.9088 B(  3-C , 23-H ) :   0.9819
B(  3-C , 24-H ) :   0.9579 B(  5-C ,  6-C ) :   0.9738 B(  5-C , 21-H ) :   0.9626
B(  5-C , 22-H ) :   0.9828 B(  6-C ,  7-H ) :   0.9744 B(  6-C ,  8-H ) :   0.9742
B(  6-C ,  9-C ) :   0.9880 B(  9-C , 10-H ) :   0.9745 B(  9-C , 11-H ) :   0.9820
B(  9-C , 12-C ) :   0.9515 B( 12-C , 13-C ) :   0.9553 B( 12-C , 14-H ) :   0.9489
B( 12-C , 15-H ) :   0.9727 B( 13-C , 19-O ) :   1.7005 B( 13-C , 20-O ) :   1.6659
B( 16-H , 20-O ) :   0.1894 B( 17-H , 19-O ) :   0.1792

Dispersion correction           -0.011303590
FINAL SINGLE POINT ENERGY      -481.056623398636

DIPOLE MOMENT
-------------
                                X             Y             Z
Electronic contribution:      2.30857      -3.13164      -6.24115
Nuclear contribution   :     -2.02598       1.95876       8.24116
                        -----------------------------------------
Total Dipole Moment    :      0.28259      -1.17288       2.00001
                        -----------------------------------------
Magnitude (a.u.)       :      2.33571
Magnitude (Debye)      :      5.93689

Rotational constants in cm-1:     0.052900     0.041948     0.028766
Rotational constants in MHz :  1585.892512  1257.572595   862.390225

                             ****ORCA TERMINATED NORMALLY****
TOTAL RUN TIME: 0 days 0 hours 0 minutes 45 seconds 150 msec
