                         Program Version 5.0.0 -  RELEASE  -
|  1> !wB97X-D3 RIJCOSX def2-TZVP def2/J TightSCF
|  2> *xyz 0 1
|  3> C         -0.10608        1.76991       -4.08984
|  4> C         -0.25875        1.00432       -5.40983
|  5> C          0.39596       -0.37070       -5.33994
|  6> H          0.23915        1.56939       -6.20125
|  7> H         -1.30936        0.88869       -5.68245
|  8> F         -0.32633       -1.39040       -5.49128
|  9> O          1.61941       -0.40073       -5.03683
| 10> H         -0.57627        2.72718       -4.17630
| 11> H          0.93321        1.90140       -3.87192
| 12> H         -0.56868        1.21534       -3.30031
| 13> *
| 14> %MaxCore 64000
| 15>
| 16> %pal nprocs 4
| 17> end
| 18>
| 19> %scf
| 20>   MaxIter 150
| 21> end
| 22>
| 23>
| 24>                          ****END OF INPUT****

CARTESIAN COORDINATES (ANGSTROEM)
---------------------------------
  C     -0.106080    1.769910   -4.089840
  C     -0.258750    1.004320   -5.409830
  C      0.395960   -0.370700   -5.339940
  H      0.239150    1.569390   -6.201250
  H     -1.309360    0.888690   -5.682450
  F     -0.326330   -1.390400   -5.491280
  O      1.619410   -0.400730   -5.036830
  H     -0.576270    2.727180   -4.176300
  H      0.933210    1.901400   -3.871920
  H     -0.568680    1.215340   -3.300310

 Total Charge           Charge          ....    0
 Multiplicity           Mult            ....    1
 Number of Electrons    NEL             ....   40
 Basis Dimension        Dim             ....  185

ORBITAL ENERGIES
----------------

  NO   OCC          E(Eh)            E(eV)
   0   2.0000     -24.854030      -676.3125
   1   2.0000     -19.233177      -523.3614
   2   2.0000     -10.454523      -284.4820
   3   2.0000     -10.308385      -280.5054
   4   2.0000     -10.278966      -279.7049
   5   2.0000      -1.432882       -38.9907
   6   2.0000      -1.144725       -31.1496
   7   2.0000      -0.918497       -24.9936
   8   2.0000      -0.801597       -21.8126
   9   2.0000      -0.746623       -20.3166
  10   2.0000      -0.652310       -17.7502
  11   2.0000      -0.638242       -17.3674
  12   2.0000      -0.612715       -16.6728
  13   2.0000      -0.567170       -15.4335
  14   2.0000      -0.533813       -14.5258
  15   2.0000      -0.496313       -13.5054
  16   2.0000      -0.474605       -12.9147
  17   2.0000      -0.470675       -12.8077
  18   2.0000      -0.439236       -11.9522
  19   2.0000      -0.388230       -10.5643
  20   0.0000       0.054930         1.4947
  21   0.0000       0.116688         3.1752
  22   0.0000       0.155988         4.2446
  23   0.0000       0.169519         4.6128
  24   0.0000       0.183712         4.9990

MULLIKEN ATOMIC CHARGES
-----------------------
   0 C :   -0.353721
   1 C :   -0.197608
   2 C :    0.398560
   3 H :    0.130251
   4 H :    0.112434
   5 F :   -0.107552
   6 O :   -0.367617
   7 H :    0.123262
   8 H :    0.143597
   9 H :    0.118394
Sum of atomic charges:   -0.0000000

LOEWDIN ATOMIC CHARGES
----------------------
   0 C :   -0.283883
   1 C :   -0.258580
   2 C :   -0.484062
   3 H :    0.155042
   4 H :    0.138041
   5 F :    0.318006
   6 O :    0.051520
   7 H :    0.118703
   8 H :    0.125772
   9 H :    0.119440

  Mayer bond orders larger than 0.100000
B(  0-C ,  1-C ) :   0.9727 B(  0-C ,  7-H ) :   0.9735 B(  0-C ,  8-H ) :   0.9701
B(  0-C ,  9-H ) :   0.9764 B(  1-C ,  2-C ) :   0.9862 B(  1-C ,  3-H ) :   0.9480
B(  1-C ,  4-H ) :   0.9644 B(  2-C ,  5-F ) :   1.1574 B(  2-C ,  6-O ) :   2.0153

Dispersion correction           -0.001915525
FINAL SINGLE POINT ENERGY      -292.436597752468

DIPOLE MOMENT
-------------
                                X             Y             Z
Electronic contribution:      0.83504      -8.18839      -2.57539
Nuclear contribution   :     -1.80992       8.85192       2.42184
                        -----------------------------------------
Total Dipole Moment    :     -0.97488       0.66354      -0.15354
                        -----------------------------------------
Magnitude (a.u.)       :      1.18922
Magnitude (Debye)      :      3.02277

Rotational constants in cm-1:     0.298360     0.128849     0.102271
Rotational constants in MHz :  8944.606599  3862.796179  3066.020510

                             ****ORCA TERMINATED NORMALLY****
TOTAL RUN TIME: 0 days 0 hours 0 minutes 31 seconds 980 msec
