                         Program Version 5.0.0 -  RELEASE  -
|  1> !wB97X-D3 RIJCOSX def2-TZVP def2/J TightSCF
|  2> *xyz 0 1
|  3> C          0.81607       -2.10149       -2.18655
|  4> H          1.69623       -2.36869       -1.60046
|  5> C          1.10055       -2.46749       -3.59927
|  6> C          0.51624       -0.61363       -2.03937
|  7> H         -0.02007       -2.71285       -1.84084
|  8> H          1.70061       -1.75723       -4.07838
|  9> H          0.29386       -2.35977       -4.25632
| 10> H          1.50132       -3.42848       -3.69491
| 11> H         -0.34841       -0.36504       -2.61858
| 12> H          1.35358       -0.04503       -2.38643
| 13> H          0.33317       -0.38682       -1.00984
| 14> *
| 15> %MaxCore 64000
| 16>
| 17> %pal nprocs 4
| 18> end
| 19>
| 20> %scf
| 21>   MaxIter 150
| 22> end
| 23>
| 24>
| 25>                          ****END OF INPUT****

CARTESIAN COORDINATES (ANGSTROEM)
---------------------------------
  C      0.816070   -2.101490   -2.186550
  H      1.696230   -2.368690   -1.600460
  C      1.100550   -2.467490   -3.599270
  C      0.516240   -0.613630   -2.039370
  H     -0.020070   -2.712850   -1.840840
  H      1.700610   -1.757230   -4.078380
  H      0.293860   -2.359770   -4.256320
  H      1.501320   -3.428480   -3.694910
  H     -0.348410   -0.365040   -2.618580
  H      1.353580   -0.045030   -2.386430
  H      0.333170   -0.386820   -1.009840

 Total Charge           Charge          ....    0
 Multiplicity           Mult            ....    1
 Number of Electrons    NEL             ....   26
 Basis Dimension        Dim             ....  141

ORBITAL ENERGIES
----------------

  NO   OCC          E(Eh)            E(eV)
   0   2.0000     -10.262384      -279.2537
   1   2.0000     -10.251354      -278.9535
   2   2.0000     -10.237881      -278.5869
   3   2.0000      -0.906974       -24.6800
   4   2.0000      -0.802224       -21.8296
   5   2.0000      -0.699504       -19.0345
   6   2.0000      -0.562308       -15.3012
   7   2.0000      -0.546874       -14.8812
   8   2.0000      -0.510329       -13.8868
   9   2.0000      -0.472621       -12.8607
  10   2.0000      -0.435292       -11.8449
  11   2.0000      -0.429973       -11.7001
  12   2.0000      -0.413677       -11.2567
  13   0.0000       0.121449         3.3048
  14   0.0000       0.166185         4.5221
  15   0.0000       0.167426         4.5559
  16   0.0000       0.178194         4.8489
  17   0.0000       0.196989         5.3604

MULLIKEN ATOMIC CHARGES
-----------------------
   0 C :   -0.132652
   1 H :    0.084823
   2 C :   -0.351245
   3 C :   -0.337439
   4 H :    0.085590
   5 H :    0.101314
   6 H :    0.110214
   7 H :    0.115786
   8 H :    0.104464
   9 H :    0.106999
  10 H :    0.112146
Sum of atomic charges:    0.0000000

LOEWDIN ATOMIC CHARGES
----------------------
   0 C :   -0.321014
   1 H :    0.131814
   2 C :   -0.316748
   3 C :   -0.303248
   4 H :    0.130791
   5 H :    0.113116
   6 H :    0.111383
   7 H :    0.110866
   8 H :    0.114705
   9 H :    0.114495
  10 H :    0.113840

  Mayer bond orders larger than 0.100000
B(  0-C ,  1-H ) :   0.9745 B(  0-C ,  2-C ) :   0.9816 B(  0-C ,  3-C ) :   0.9826
B(  0-C ,  4-H ) :   0.9732 B(  2-C ,  5-H ) :   0.9817 B(  2-C ,  6-H ) :   0.9829
B(  2-C ,  7-H ) :   0.9795 B(  3-C ,  8-H ) :   0.9787 B(  3-C ,  9-H ) :   0.9795
B(  3-C , 10-H ) :   0.9826

Dispersion correction           -0.001479541
FINAL SINGLE POINT ENERGY      -119.140615456079

DIPOLE MOMENT
-------------
                                X             Y             Z
Electronic contribution:     -0.01868      -0.30804       0.46375
Nuclear contribution   :      0.01737       0.30387      -0.47422
                        -----------------------------------------
Total Dipole Moment    :     -0.00131      -0.00417      -0.01047
                        -----------------------------------------
Magnitude (a.u.)       :      0.01134
Magnitude (Debye)      :      0.02883

Rotational constants in cm-1:     1.006891     0.295208     0.258491
Rotational constants in MHz : 30185.831813  8850.104914  7749.351732

                             ****ORCA TERMINATED NORMALLY****
TOTAL RUN TIME: 0 days 0 hours 0 minutes 18 seconds 648 msec
