                         Program Version 5.0.0 -  RELEASE  -
|  1> !wB97X-D3 RIJCOSX def2-TZVP def2/J TightSCF
|  2> *xyz 0 1
|  3> C         -0.10608        1.76991       -4.08984
|  4> C         -0.25875        1.00432       -5.40983
|  5> C          0.39596       -0.37070       -5.33994
|  6> H          0.23915        1.56939       -6.20125
|  7> H         -1.30936        0.88869       -5.68245
|  8> O         -0.32633       -1.39040       -5.49128
|  9> F          1.61941       -0.40073       -5.03683
| 10> H         -0.57627        2.72718       -4.17630
| 11> H          0.93321        1.90140       -3.87192
| 12> H         -0.56868        1.21534       -3.30031
| 13> *
| 14> %MaxCore 64000
| 15>
| 16> %pal nprocs 4
| 17> end
| 18>
| 19> %scf
| 20>   MaxIter 150
| 21> end
| 22>
| 23>
| 24>                          ****END OF INPUT****

CARTESIAN COORDINATES (ANGSTROEM)
---------------------------------
  C     -0.106080    1.769910   -4.089840
  C     -0.258750    1.004320   -5.409830
  C      0.395960   -0.370700   -5.339940
  H      0.239150    1.569390   -6.201250
  H     -1.309360    0.888690   -5.682450
  O     -0.326330   -1.390400   -5.491280
  F      1.619410   -0.400730   -5.036830
  H     -0.576270    2.727180   -4.176300
  H      0.933210    1.901400   -3.871920
  H     -0.568680    1.215340   -3.300310

 Total Charge           Charge          ....    0
 Multiplicity           Mult            ....    1
 Number of Electrons    NEL             ....   40
 Basis Dimension        Dim             ....  185

ORBITAL ENERGIES
----------------

  NO   OCC          E(Eh)            E(eV)
   0   2.0000     -24.852669      -676.2755
   1   2.0000     -19.234029      -523.3845
   2   2.0000     -10.453684      -284.4592
   3   2.0000     -10.308169      -280.4995
   4   2.0000     -10.284101      -279.8446
   5   2.0000      -1.431462       -38.9521
   6   2.0000      -1.144729       -31.1497
   7   2.0000      -0.923208       -25.1218
   8   2.0000      -0.798907       -21.7394
   9   2.0000      -0.750381       -20.4189
  10   2.0000      -0.653884       -17.7931
  11   2.0000      -0.641954       -17.4684
  12   2.0000      -0.605076       -16.4650
  13   2.0000      -0.567590       -15.4449
  14   2.0000      -0.535188       -14.5632
  15   2.0000      -0.499808       -13.6005
  16   2.0000      -0.480708       -13.0807
  17   2.0000      -0.474444       -12.9103
  18   2.0000      -0.444070       -12.0838
  19   2.0000      -0.384890       -10.4734
  20   0.0000       0.058877         1.6021
  21   0.0000       0.112739         3.0678
  22   0.0000       0.154263         4.1977
  23   0.0000       0.171625         4.6702
  24   0.0000       0.187255         5.0955

MULLIKEN ATOMIC CHARGES
-----------------------
   0 C :   -0.355633
   1 C :   -0.195456
   2 C :    0.386647
   3 H :    0.116907
   4 H :    0.137937
   5 O :   -0.359080
   6 F :   -0.113239
   7 H :    0.128089
   8 H :    0.124578
   9 H :    0.129251
Sum of atomic charges:    0.0000000

LOEWDIN ATOMIC CHARGES
----------------------
   0 C :   -0.289938
   1 C :   -0.253595
   2 C :   -0.487328
   3 H :    0.147479
   4 H :    0.151196
   5 O :    0.053077
   6 F :    0.316761
   7 H :    0.120717
   8 H :    0.119709
   9 H :    0.121922

  Mayer bond orders larger than 0.100000
B(  0-C ,  1-C ) :   0.9644 B(  0-C ,  7-H ) :   0.9737 B(  0-C ,  8-H ) :   0.9731
B(  0-C ,  9-H ) :   0.9734 B(  1-C ,  2-C ) :   1.0013 B(  1-C ,  3-H ) :   0.9476
B(  1-C ,  4-H ) :   0.9665 B(  2-C ,  5-O ) :   2.0429 B(  2-C ,  6-F ) :   1.1416

Dispersion correction           -0.001926137
FINAL SINGLE POINT ENERGY      -292.437975132890

DIPOLE MOMENT
-------------
                                X             Y             Z
Electronic contribution:      4.08257      -6.50351      -1.80955
Nuclear contribution   :     -3.93139       7.77287       1.92635
                        -----------------------------------------
Total Dipole Moment    :      0.15118       1.26936       0.11680
                        -----------------------------------------
Magnitude (a.u.)       :      1.28366
Magnitude (Debye)      :      3.26280

Rotational constants in cm-1:     0.286068     0.133630     0.103472
Rotational constants in MHz :  8576.109806  4006.118234  3102.010802

                             ****ORCA TERMINATED NORMALLY****
TOTAL RUN TIME: 0 days 0 hours 0 minutes 33 seconds 205 msec
