                         Program Version 5.0.0 -  RELEASE  -
|  1> !wB97X-D3 RIJCOSX def2-TZVP def2/J TightSCF xyzfile
|  2>
|  3> *xyzfile 0 1 D1.xyz
|  4>
|  5> %MaxCore 64000
|  6>
|  7> %pal nprocs 18
|  8> end
|  9>
| 10> %scf
| 11>   MaxIter 150
| 12> end
| 13>
| 14>
| 15>                          ****END OF INPUT****

CARTESIAN COORDINATES (ANGSTROEM)
---------------------------------
  C      0.816067   -2.101491   -2.186546
  H      1.696232   -2.368691   -1.600457
  C      1.100552   -2.467492   -3.599269
  C      0.516243   -0.613634   -2.039373
  H     -0.020066   -2.712849   -1.840844
  C     -0.868621   -0.193925   -2.546303
  C     -0.984801    1.284739   -2.928686
  H     -0.764939    1.904116   -2.051568
  H     -2.032613    1.478953   -3.178952
  C     -0.106085    1.769914   -4.089836
  H     -0.347744    2.822196   -4.262942
  H      0.949683    1.745875   -3.808781
  C     -0.258747    1.004323   -5.409829
  C      0.395958   -0.370696   -5.339939
  H      0.239150    1.569393   -6.201253
  H     -1.309360    0.888694   -5.682455
  H      1.700606   -1.757225   -4.078378
  H      0.293855   -2.359766   -4.256324
  H      1.501324   -3.428479   -3.694915
  F     -0.326329   -1.390398   -5.491279
  O      1.619412   -0.400726   -5.036827
  H     -1.607271   -0.412651   -1.768955
  H     -1.157234   -0.796164   -3.409254
  H      1.299044   -0.056805   -2.558982
  H      0.612393   -0.365579   -0.979171

 Total Charge           Charge          ....    0
 Multiplicity           Mult            ....    1
 Number of Electrons    NEL             ....   80
 Basis Dimension        Dim             ....  400

ORBITAL ENERGIES
----------------

  NO   OCC          E(Eh)            E(eV)
   0   2.0000     -24.863650      -676.5743
   1   2.0000     -19.241414      -523.5855
   2   2.0000     -10.464064      -284.7416
   3   2.0000     -10.310118      -280.5526
   4   2.0000     -10.289698      -279.9969
   5   2.0000     -10.277900      -279.6759
   6   2.0000     -10.270244      -279.4675
   7   2.0000     -10.256331      -279.0890
   8   2.0000     -10.246664      -278.8259
   9   2.0000     -10.195560      -277.4353
  10   2.0000      -1.447982       -39.4016
  11   2.0000      -1.161179       -31.5973
  12   2.0000      -0.944240       -25.6941
  13   2.0000      -0.910823       -24.7847
  14   2.0000      -0.861476       -23.4420
  15   2.0000      -0.821106       -22.3434
  16   2.0000      -0.776295       -21.1241
  17   2.0000      -0.749890       -20.4056
  18   2.0000      -0.709625       -19.3099
  19   2.0000      -0.665626       -18.1126
  20   2.0000      -0.664629       -18.0855
  21   2.0000      -0.647268       -17.6131
  22   2.0000      -0.631063       -17.1721
  23   2.0000      -0.580809       -15.8046
  24   2.0000      -0.560114       -15.2415
  25   2.0000      -0.544433       -14.8148
  26   2.0000      -0.538856       -14.6630
  27   2.0000      -0.523949       -14.2574
  28   2.0000      -0.510675       -13.8962
  29   2.0000      -0.497367       -13.5340
  30   2.0000      -0.479263       -13.0414
  31   2.0000      -0.463482       -12.6120
  32   2.0000      -0.458179       -12.4677
  33   2.0000      -0.444949       -12.1077
  34   2.0000      -0.430547       -11.7158
  35   2.0000      -0.419206       -11.4072
  36   2.0000      -0.409905       -11.1541
  37   2.0000      -0.398554       -10.8452
  38   2.0000      -0.389115       -10.5883
  39   2.0000      -0.356892        -9.7115
  40   0.0000       0.042321         1.1516
  41   0.0000       0.109419         2.9774
  42   0.0000       0.136246         3.7074
  43   0.0000       0.141883         3.8608
  44   0.0000       0.144316         3.9270

MULLIKEN ATOMIC CHARGES
-----------------------
   0 C :   -0.122026
   1 H :    0.085925
   2 C :   -0.421915
   3 C :   -0.222023
   4 H :    0.074246
   5 C :   -0.214089
   6 C :   -0.215609
   7 H :    0.108819
   8 H :    0.105556
   9 C :   -0.224364
  10 H :    0.119261
  11 H :    0.141792
  12 C :   -0.185627
  13 C :    0.370344
  14 H :    0.145321
  15 H :    0.119888
  16 H :    0.159369
  17 H :    0.098094
  18 H :    0.102539
  19 F :   -0.103172
  20 O :   -0.360783
  21 H :    0.111191
  22 H :    0.106159
  23 H :    0.123863
  24 H :    0.097240
Sum of atomic charges:    0.0000000

LOEWDIN ATOMIC CHARGES
----------------------
   0 C :   -0.301599
   1 H :    0.133492
   2 C :   -0.334471
   3 C :   -0.266283
   4 H :    0.130212
   5 C :   -0.265397
   6 C :   -0.267507
   7 H :    0.140189
   8 H :    0.135954
   9 C :   -0.257084
  10 H :    0.140918
  11 H :    0.144200
  12 C :   -0.227879
  13 C :   -0.480914
  14 H :    0.159580
  15 H :    0.143413
  16 H :    0.114755
  17 H :    0.103998
  18 H :    0.104195
  19 F :    0.329394
  20 O :    0.076920
  21 H :    0.138168
  22 H :    0.135437
  23 H :    0.137988
  24 H :    0.132323

  Mayer bond orders larger than 0.100000
B(  0-C ,  1-H ) :   0.9710 B(  0-C ,  2-C ) :   0.9722 B(  0-C ,  3-C ) :   0.9827
B(  0-C ,  4-H ) :   0.9770 B(  2-C , 16-H ) :   0.9582 B(  2-C , 17-H ) :   0.9912
B(  2-C , 18-H ) :   0.9774 B(  3-C ,  5-C ) :   0.9181 B(  3-C , 23-H ) :   0.9957
B(  3-C , 24-H ) :   0.9658 B(  5-C ,  6-C ) :   0.9818 B(  5-C , 21-H ) :   0.9664
B(  5-C , 22-H ) :   0.9855 B(  6-C ,  7-H ) :   0.9717 B(  6-C ,  8-H ) :   0.9787
B(  6-C ,  9-C ) :   0.9827 B(  9-C , 10-H ) :   0.9710 B(  9-C , 11-H ) :   0.9767
B(  9-C , 12-C ) :   0.9418 B( 12-C , 13-C ) :   0.9928 B( 12-C , 14-H ) :   0.9459
B( 12-C , 15-H ) :   0.9612 B( 13-C , 19-F ) :   1.1349 B( 13-C , 20-O ) :   1.9630

Dispersion correction           -0.010976484
FINAL SINGLE POINT ENERGY      -488.969163231440

DIPOLE MOMENT
-------------
                                X             Y             Z
Electronic contribution:      0.33185      -1.97447     -10.58860
Nuclear contribution   :     -1.21560       2.80077      10.24180
                        -----------------------------------------
Total Dipole Moment    :     -0.88375       0.82631      -0.34679
                        -----------------------------------------
Magnitude (a.u.)       :      1.25859
Magnitude (Debye)      :      3.19909

Rotational constants in cm-1:     0.051255     0.042531     0.028894
Rotational constants in MHz :  1536.587743  1275.050721   866.218876

                             ****ORCA TERMINATED NORMALLY****
TOTAL RUN TIME: 0 days 0 hours 1 minutes 8 seconds 647 msec
