                         Program Version 5.0.0 -  RELEASE  -
|  1> !wB97X-D3 RIJCOSX def2-TZVP def2/J TightSCF xyzfile
|  2>
|  3> *xyzfile 0 1 D2.xyz
|  4>
|  5> %MaxCore 64000
|  6>
|  7> %pal nprocs 18
|  8> end
|  9>
| 10> %scf
| 11>   MaxIter 150
| 12> end
| 13>
| 14>
| 15>                          ****END OF INPUT****

CARTESIAN COORDINATES (ANGSTROEM)
---------------------------------
  C      0.816067   -2.101491   -2.186546
  H      1.696232   -2.368691   -1.600457
  C      1.100552   -2.467492   -3.599269
  C      0.516243   -0.613634   -2.039373
  H     -0.020066   -2.712849   -1.840844
  C     -0.868621   -0.193925   -2.546303
  C     -0.984801    1.284739   -2.928686
  H     -0.764939    1.904116   -2.051568
  H     -2.032613    1.478953   -3.178952
  C     -0.106085    1.769914   -4.089836
  H     -0.347744    2.822196   -4.262942
  H      0.949683    1.745875   -3.808781
  C     -0.258747    1.004323   -5.409829
  C      0.395958   -0.370696   -5.339939
  H      0.239150    1.569393   -6.201253
  H     -1.309360    0.888694   -5.682455
  H      1.700606   -1.757225   -4.078378
  H      0.293855   -2.359766   -4.256324
  H      1.501324   -3.428479   -3.694915
  O     -0.326329   -1.390398   -5.491279
  F      1.619412   -0.400726   -5.036827
  H     -1.607271   -0.412651   -1.768955
  H     -1.157234   -0.796164   -3.409254
  H      1.299044   -0.056805   -2.558982
  H      0.612393   -0.365579   -0.979171

 Total Charge           Charge          ....    0
 Multiplicity           Mult            ....    1
 Number of Electrons    NEL             ....   80
 Basis Dimension        Dim             ....  400

ORBITAL ENERGIES
----------------

  NO   OCC          E(Eh)            E(eV)
   0   2.0000     -24.863641      -676.5741
   1   2.0000     -19.241304      -523.5825
   2   2.0000     -10.463507      -284.7265
   3   2.0000     -10.309976      -280.5487
   4   2.0000     -10.293820      -280.1091
   5   2.0000     -10.277956      -279.6774
   6   2.0000     -10.264900      -279.3221
   7   2.0000     -10.260359      -279.1986
   8   2.0000     -10.247756      -278.8556
   9   2.0000     -10.196738      -277.4674
  10   2.0000      -1.447700       -39.3939
  11   2.0000      -1.160857       -31.5885
  12   2.0000      -0.946798       -25.7637
  13   2.0000      -0.912586       -24.8327
  14   2.0000      -0.862212       -23.4620
  15   2.0000      -0.820353       -22.3229
  16   2.0000      -0.775276       -21.0963
  17   2.0000      -0.750958       -20.4346
  18   2.0000      -0.710930       -19.3454
  19   2.0000      -0.670887       -18.2558
  20   2.0000      -0.666818       -18.1450
  21   2.0000      -0.651869       -17.7383
  22   2.0000      -0.616352       -16.7718
  23   2.0000      -0.582029       -15.8378
  24   2.0000      -0.559368       -15.2212
  25   2.0000      -0.545474       -14.8431
  26   2.0000      -0.540638       -14.7115
  27   2.0000      -0.529215       -14.4007
  28   2.0000      -0.513600       -13.9758
  29   2.0000      -0.489623       -13.3233
  30   2.0000      -0.481584       -13.1046
  31   2.0000      -0.472762       -12.8645
  32   2.0000      -0.464196       -12.6314
  33   2.0000      -0.444457       -12.0943
  34   2.0000      -0.424666       -11.5558
  35   2.0000      -0.422979       -11.5098
  36   2.0000      -0.409183       -11.1344
  37   2.0000      -0.394055       -10.7228
  38   2.0000      -0.393437       -10.7060
  39   2.0000      -0.357472        -9.7273
  40   0.0000       0.044020         1.1978
  41   0.0000       0.107401         2.9225
  42   0.0000       0.135627         3.6906
  43   0.0000       0.138060         3.7568
  44   0.0000       0.145560         3.9609

MULLIKEN ATOMIC CHARGES
-----------------------
   0 C :   -0.115402
   1 H :    0.083159
   2 C :   -0.415982
   3 C :   -0.225268
   4 H :    0.079872
   5 C :   -0.232046
   6 C :   -0.203577
   7 H :    0.106220
   8 H :    0.107935
   9 C :   -0.248147
  10 H :    0.123883
  11 H :    0.131356
  12 C :   -0.177905
  13 C :    0.368844
  14 H :    0.136683
  15 H :    0.137984
  16 H :    0.090068
  17 H :    0.163146
  18 H :    0.102127
  19 O :   -0.350520
  20 F :   -0.111708
  21 H :    0.106796
  22 H :    0.143244
  23 H :    0.098837
  24 H :    0.100402
Sum of atomic charges:    0.0000000

LOEWDIN ATOMIC CHARGES
----------------------
   0 C :   -0.301380
   1 H :    0.131486
   2 C :   -0.332520
   3 C :   -0.267744
   4 H :    0.133131
   5 C :   -0.266513
   6 C :   -0.266981
   7 H :    0.138868
   8 H :    0.137729
   9 C :   -0.264515
  10 H :    0.141788
  11 H :    0.137654
  12 C :   -0.222933
  13 C :   -0.480938
  14 H :    0.152949
  15 H :    0.155707
  16 H :    0.107090
  17 H :    0.112810
  18 H :    0.104973
  19 O :    0.071393
  20 F :    0.332766
  21 H :    0.137169
  22 H :    0.144506
  23 H :    0.130318
  24 H :    0.133187

  Mayer bond orders larger than 0.100000
B(  0-C ,  1-H ) :   0.9727 B(  0-C ,  2-C ) :   0.9689 B(  0-C ,  3-C ) :   0.9848
B(  0-C ,  4-H ) :   0.9758 B(  2-C , 16-H ) :   0.9847 B(  2-C , 17-H ) :   0.9682
B(  2-C , 18-H ) :   0.9767 B(  3-C ,  5-C ) :   0.9177 B(  3-C , 23-H ) :   0.9999
B(  3-C , 24-H ) :   0.9663 B(  5-C ,  6-C ) :   0.9735 B(  5-C , 21-H ) :   0.9656
B(  5-C , 22-H ) :   0.9829 B(  6-C ,  7-H ) :   0.9734 B(  6-C ,  8-H ) :   0.9763
B(  6-C ,  9-C ) :   0.9805 B(  9-C , 10-H ) :   0.9728 B(  9-C , 11-H ) :   0.9856
B(  9-C , 12-C ) :   0.9238 B( 12-C , 13-C ) :   0.9998 B( 12-C , 14-H ) :   0.9492
B( 12-C , 15-H ) :   0.9672 B( 13-C , 19-O ) :   1.9886 B( 13-C , 20-F ) :   1.1235

Dispersion correction           -0.010991985
FINAL SINGLE POINT ENERGY      -488.969229040051

DIPOLE MOMENT
-------------
                                X             Y             Z
Electronic contribution:      3.59904      -0.30383      -9.81753
Nuclear contribution   :     -3.57245       1.60200       9.69133
                        -----------------------------------------
Total Dipole Moment    :      0.02660       1.29816      -0.12619
                        -----------------------------------------
Magnitude (a.u.)       :      1.30455
Magnitude (Debye)      :      3.31591

Rotational constants in cm-1:     0.051520     0.042563     0.028962
Rotational constants in MHz :  1544.537298  1275.996546   868.258224

                             ****ORCA TERMINATED NORMALLY****
TOTAL RUN TIME: 0 days 0 hours 1 minutes 8 seconds 806 msec
