                         Program Version 5.0.0 -  RELEASE  -
|  1> !LC-PBE RIJCOSX def2-SVPD def2/J TightSCF
|  2> *xyz -1 1
|  3> C         -0.05915        1.50352        3.41058
|  4> C          1.08303        0.74964        4.08571
|  5> O          2.22817        1.26348        4.01983
|  6> O          0.81003       -0.34541        4.63627
|  7> H          0.31461        2.41205        2.98658
|  8> H         -0.81316        1.73160        4.13470
|  9> H         -0.47977        0.89552        2.63708
| 10> *
| 11>
| 12> %MaxCore 64000
| 13>
| 14> %pal nprocs 4
| 15> end
| 16>
| 17> %scf
| 18>   MaxIter 150
| 19> end
| 20>
| 21>
| 22>                          ****END OF INPUT****

CARTESIAN COORDINATES (ANGSTROEM)
---------------------------------
  C     -0.059150    1.503520    3.410580
  C      1.083030    0.749640    4.085710
  O      2.228170    1.263480    4.019830
  O      0.810030   -0.345410    4.636270
  H      0.314610    2.412050    2.986580
  H     -0.813160    1.731600    4.134700
  H     -0.479770    0.895520    2.637080

 Total Charge           Charge          ....   -1
 Multiplicity           Mult            ....    1
 Number of Electrons    NEL             ....   32
 Basis Dimension        Dim             ....  110

ORBITAL ENERGIES
----------------

  NO   OCC          E(Eh)            E(eV)
   0   2.0000     -18.724013      -509.5063
   1   2.0000     -18.723418      -509.4901
   2   2.0000     -10.017854      -272.5997
   3   2.0000      -9.939615      -270.4707
   4   2.0000      -0.977461       -26.5981
   5   2.0000      -0.873838       -23.7783
   6   2.0000      -0.711983       -19.3740
   7   2.0000      -0.451171       -12.2770
   8   2.0000      -0.407030       -11.0758
   9   2.0000      -0.388711       -10.5774
  10   2.0000      -0.372651       -10.1404
  11   2.0000      -0.324333        -8.8256
  12   2.0000      -0.308191        -8.3863
  13   2.0000      -0.176212        -4.7950
  14   2.0000      -0.173712        -4.7269
  15   2.0000      -0.160615        -4.3705
  16   0.0000       0.237259         6.4561
  17   0.0000       0.270182         7.3520
  18   0.0000       0.297114         8.0849
  19   0.0000       0.306924         8.3518
  20   0.0000       0.333042         9.0625

MULLIKEN ATOMIC CHARGES
-----------------------
   0 C :    0.244145
   1 C :   -0.044314
   2 O :   -0.605842
   3 O :   -0.618997
   4 H :    0.000097
   5 H :    0.012799
   6 H :    0.012113
Sum of atomic charges:   -1.0000000

LOEWDIN ATOMIC CHARGES
----------------------
   0 C :    0.107750
   1 C :   -0.359542
   2 O :   -0.337907
   3 O :   -0.338993
   4 H :   -0.028783
   5 H :   -0.021695
   6 H :   -0.020830

  Mayer bond orders larger than 0.100000
B(  0-C ,  1-C ) :   1.2022 B(  0-C ,  4-H ) :   0.8953 B(  0-C ,  5-H ) :   0.8484
B(  0-C ,  6-H ) :   0.8523 B(  1-C ,  2-O ) :   1.5689 B(  1-C ,  3-O ) :   1.5749
B(  1-C ,  4-H ) :   0.2039 B(  1-C ,  5-H ) :   0.1311 B(  1-C ,  6-H ) :   0.1280

FINAL SINGLE POINT ENERGY      -227.726438794111

DIPOLE MOMENT
-------------
                                X             Y             Z
Electronic contribution:      2.61693      -1.72339       1.53799
Nuclear contribution   :     -3.75920       2.48542      -2.19871
                        -----------------------------------------
Total Dipole Moment    :     -1.14227       0.76203      -0.66072
                        -----------------------------------------
Magnitude (a.u.)       :      1.52382
Magnitude (Debye)      :      3.87324

Rotational constants in cm-1:     0.392838     0.334689     0.186890
Rotational constants in MHz : 11776.984954 10033.729666  5602.815156

                             ****ORCA TERMINATED NORMALLY****
TOTAL RUN TIME: 0 days 0 hours 0 minutes 7 seconds 241 msec
