                         Program Version 5.0.0 -  RELEASE  -
|  1> !LC-PBE RIJCOSX def2-SVPD def2/J TightSCF
|  2> *xyz 1 1
|  3> C          4.60295       -2.44010        2.63478
|  4> C          3.86085       -1.59157        3.62289
|  5> N          2.75650       -2.04616        4.16633
|  6> N          4.25433       -0.36291        3.86046
|  7> H          3.56526        0.31099        4.16898
|  8> H          5.05429       -0.01606        3.33784
|  9> H          2.43970       -2.97389        3.89740
| 10> H          2.06687       -1.41253        4.54981
| 11> H          5.47239       -1.91604        2.29664
| 12> H          3.96816       -2.65362        1.80030
| 13> H          4.89801       -3.35632        3.10209
| 14> *
| 15>
| 16> %MaxCore 64000
| 17>
| 18> %pal nprocs 4
| 19> end
| 20>
| 21> %scf
| 22>   MaxIter 150
| 23> end
| 24>
| 25>
| 26>                          ****END OF INPUT****

CARTESIAN COORDINATES (ANGSTROEM)
---------------------------------
  C      4.602950   -2.440100    2.634780
  C      3.860850   -1.591570    3.622890
  N      2.756500   -2.046160    4.166330
  N      4.254330   -0.362910    3.860460
  H      3.565260    0.310990    4.168980
  H      5.054290   -0.016060    3.337840
  H      2.439700   -2.973890    3.897400
  H      2.066870   -1.412530    4.549810
  H      5.472390   -1.916040    2.296640
  H      3.968160   -2.653620    1.800300
  H      4.898010   -3.356320    3.102090

 Total Charge           Charge          ....    1
 Multiplicity           Mult            ....    1
 Number of Electrons    NEL             ....   32
 Basis Dimension        Dim             ....  136

ORBITAL ENERGIES
----------------

  NO   OCC          E(Eh)            E(eV)
   0   2.0000     -14.482661      -394.0933
   1   2.0000     -14.481984      -394.0748
   2   2.0000     -10.471720      -284.9500
   3   2.0000     -10.329443      -281.0784
   4   2.0000      -1.387571       -37.7577
   5   2.0000      -1.279196       -34.8087
   6   2.0000      -1.126302       -30.6482
   7   2.0000      -0.998755       -27.1775
   8   2.0000      -0.930666       -25.3247
   9   2.0000      -0.924525       -25.1576
  10   2.0000      -0.844723       -22.9861
  11   2.0000      -0.820079       -22.3155
  12   2.0000      -0.759742       -20.6736
  13   2.0000      -0.743675       -20.2364
  14   2.0000      -0.714931       -19.4543
  15   2.0000      -0.634673       -17.2703
  16   0.0000      -0.132250        -3.5987
  17   0.0000      -0.082731        -2.2512
  18   0.0000      -0.040045        -1.0897
  19   0.0000      -0.035449        -0.9646
  20   0.0000      -0.013996        -0.3809

MULLIKEN ATOMIC CHARGES
-----------------------
   0 C :    0.280713
   1 C :    0.227525
   2 N :    0.018030
   3 N :   -0.060145
   4 H :    0.006443
   5 H :    0.128789
   6 H :    0.105330
   7 H :   -0.065045
   8 H :    0.112136
   9 H :    0.106605
  10 H :    0.139620
Sum of atomic charges:    1.0000000

LOEWDIN ATOMIC CHARGES
----------------------
   0 C :    0.204166
   1 C :   -0.068986
   2 N :    0.260951
   3 N :    0.263711
   4 H :    0.060177
   5 H :    0.062365
   6 H :    0.068191
   7 H :    0.059909
   8 H :    0.017966
   9 H :    0.037321
  10 H :    0.034229

  Mayer bond orders larger than 0.100000
B(  0-C ,  1-C ) :   1.3233 B(  0-C ,  8-H ) :   0.8276 B(  0-C ,  9-H ) :   0.8599
B(  0-C , 10-H ) :   0.7343 B(  1-C ,  2-N ) :   1.1682 B(  1-C ,  3-N ) :   1.1094
B(  1-C ,  4-H ) :  -0.1147 B(  1-C ,  7-H ) :  -0.1304 B(  1-C ,  8-H ) :   0.1799
B(  1-C , 10-H ) :   0.1894 B(  2-N ,  3-N ) :   0.1539 B(  2-N ,  6-H ) :   1.0295
B(  2-N ,  7-H ) :   1.2286 B(  3-N ,  4-H ) :   1.1959 B(  3-N ,  5-H ) :   0.9934
B(  4-H ,  5-H ) :  -0.1270 B(  6-H ,  7-H ) :  -0.1391 B(  8-H , 10-H ) :   0.1075

FINAL SINGLE POINT ENERGY      -188.980970292370

DIPOLE MOMENT
-------------
                                X             Y             Z
Electronic contribution:     -0.95614       1.14357       1.59574
Nuclear contribution   :      0.47466      -0.79212      -1.71537
                        -----------------------------------------
Total Dipole Moment    :     -0.48148       0.35145      -0.11963
                        -----------------------------------------
Magnitude (a.u.)       :      0.60799
Magnitude (Debye)      :      1.54539

Rotational constants in cm-1:     0.335502     0.299428     0.163704
Rotational constants in MHz : 10058.111638  8976.630214  4907.722182

                             ****ORCA TERMINATED NORMALLY****
TOTAL RUN TIME: 0 days 0 hours 0 minutes 10 seconds 919 msec
