                         Program Version 5.0.0 -  RELEASE  -
|  1> !LC-PBE RIJCOSX def2-SVPD def2/J TightSCF xyzfile
|  2>
|  3> *xyzfile 0 1 B.xyz
|  4>
|  5> %MaxCore 64000
|  6>
|  7> %pal nprocs 4
|  8> end
|  9>
| 10> %scf
| 11>   MaxIter 150
| 12> end
| 13>
| 14>
| 15>                          ****END OF INPUT****

CARTESIAN COORDINATES (ANGSTROEM)
---------------------------------
  C      4.602954   -2.440100    2.634780
  C     -0.914947    0.615112    2.505538
  C     -0.059146    1.503524    3.410578
  H      0.365364    2.344315    2.861161
  H     -0.692261    1.920207    4.198985
  C      1.083027    0.749640    4.085705
  C      3.860851   -1.591565    3.622893
  N      2.756502   -2.046159    4.166333
  N      4.254325   -0.362905    3.860455
  H      3.565256    0.310994    4.168983
  H      5.054292   -0.016059    3.337838
  H      2.439696   -2.973894    3.897395
  H      2.066869   -1.412532    4.549813
  O      2.228167    1.263475    4.019826
  O      0.810034   -0.345411    4.636269
  C      3.744685   -2.580557    1.361882
  C      0.772139    0.636882    0.562129
  C     -0.130740   -0.193985    1.470763
  H     -0.840563   -0.760165    0.856377
  H      0.466691   -0.938942    2.006959
  H     -1.647961    1.245963    1.991076
  H     -1.478180   -0.081046    3.130424
  C      3.203721   -1.256004    0.826211
  H      2.898939   -3.239289    1.583074
  H      4.334962   -3.095523    0.600188
  C      2.107815   -1.442385   -0.216865
  H      2.786775   -0.672760    1.650711
  H      4.021008   -0.652993    0.414046
  C      1.390662   -0.145912   -0.602422
  H      1.372179   -2.152184    0.176151
  H      2.523302   -1.906787   -1.117115
  H      1.561361    1.100094    1.161831
  H      0.195516    1.468325    0.142758
  H      0.602893   -0.398214   -1.319716
  H      2.087247    0.508272   -1.137335
  H      5.561557   -1.971347    2.407084
  H      4.810498   -3.422552    3.063099

 Total Charge           Charge          ....    0
 Multiplicity           Mult            ....    1
 Number of Electrons    NEL             ....  118
 Basis Dimension        Dim             ....  482

ORBITAL ENERGIES
----------------

  NO   OCC          E(Eh)            E(eV)
   0   2.0000     -18.918308      -514.7933
   1   2.0000     -18.916323      -514.7393
   2   2.0000     -14.272270      -388.3682
   3   2.0000     -14.271902      -388.3582
   4   2.0000     -10.276410      -279.6353
   5   2.0000     -10.200868      -277.5797
   6   2.0000     -10.182160      -277.0707
   7   2.0000     -10.163165      -276.5538
   8   2.0000     -10.138178      -275.8738
   9   2.0000     -10.128939      -275.6225
  10   2.0000     -10.120688      -275.3979
  11   2.0000     -10.110012      -275.1074
  12   2.0000     -10.107006      -275.0256
  13   2.0000     -10.103311      -274.9251
  14   2.0000     -10.094241      -274.6783
  15   2.0000      -1.192848       -32.4590
  16   2.0000      -1.171089       -31.8669
  17   2.0000      -1.084913       -29.5220
  18   2.0000      -1.065149       -28.9842
  19   2.0000      -1.015662       -27.6376
  20   2.0000      -0.980353       -26.6768
  21   2.0000      -0.947851       -25.7923
  22   2.0000      -0.903084       -24.5742
  23   2.0000      -0.861589       -23.4450
  24   2.0000      -0.818207       -22.2646
  25   2.0000      -0.801386       -21.8068
  26   2.0000      -0.777772       -21.1642
  27   2.0000      -0.743010       -20.2183
  28   2.0000      -0.733983       -19.9727
  29   2.0000      -0.723237       -19.6803
  30   2.0000      -0.699274       -19.0282
  31   2.0000      -0.665886       -18.1197
  32   2.0000      -0.650573       -17.7030
  33   2.0000      -0.633969       -17.2512
  34   2.0000      -0.623601       -16.9691
  35   2.0000      -0.610850       -16.6221
  36   2.0000      -0.601661       -16.3720
  37   2.0000      -0.590012       -16.0550
  38   2.0000      -0.578470       -15.7410
  39   2.0000      -0.562381       -15.3032
  40   2.0000      -0.557165       -15.1612
  41   2.0000      -0.549518       -14.9531
  42   2.0000      -0.543062       -14.7775
  43   2.0000      -0.537346       -14.6219
  44   2.0000      -0.516155       -14.0453
  45   2.0000      -0.507968       -13.8225
  46   2.0000      -0.501047       -13.6342
  47   2.0000      -0.497481       -13.5371
  48   2.0000      -0.482915       -13.1408
  49   2.0000      -0.465404       -12.6643
  50   2.0000      -0.460002       -12.5173
  51   2.0000      -0.452990       -12.3265
  52   2.0000      -0.437439       -11.9033
  53   2.0000      -0.431200       -11.7335
  54   2.0000      -0.428967       -11.6728
  55   2.0000      -0.420567       -11.4442
  56   2.0000      -0.369162       -10.0454
  57   2.0000      -0.358444        -9.7538
  58   2.0000      -0.357226        -9.7206
  59   0.0000       0.051226         1.3939
  60   0.0000       0.069999         1.9048
  61   0.0000       0.086361         2.3500
  62   0.0000       0.096024         2.6129
  63   0.0000       0.104294         2.8380

MULLIKEN ATOMIC CHARGES
-----------------------
   0 C :    0.364040
   1 C :    0.333032
   2 C :    0.017307
   3 H :    0.219510
   4 H :   -0.059968
   5 C :    0.278491
   6 C :    0.187844
   7 N :    0.317988
   8 N :    0.294733
   9 H :   -0.355516
  10 H :    0.157552
  11 H :    0.145053
  12 H :   -0.461008
  13 O :   -0.597265
  14 O :   -0.643330
  15 C :    0.030866
  16 C :   -0.333078
  17 C :   -0.281140
  18 H :   -0.102546
  19 H :   -0.012829
  20 H :    0.001483
  21 H :    0.127725
  22 C :    0.039547
  23 H :    0.086340
  24 H :   -0.154602
  25 C :   -0.179402
  26 H :   -0.280605
  27 H :    0.059244
  28 C :    0.615114
  29 H :    0.233350
  30 H :   -0.239011
  31 H :    0.217907
  32 H :   -0.386074
  33 H :    0.155491
  34 H :    0.059438
  35 H :    0.088297
  36 H :    0.056022
Sum of atomic charges:    0.0000000

LOEWDIN ATOMIC CHARGES
----------------------
   0 C :    0.018296
   1 C :   -0.048065
   2 C :    0.009282
   3 H :    0.028651
   4 H :    0.044790
   5 C :   -0.209177
   6 C :   -0.073949
   7 N :    0.296906
   8 N :    0.285071
   9 H :   -0.090107
  10 H :    0.047456
  11 H :    0.048876
  12 H :   -0.091495
  13 O :   -0.241861
  14 O :   -0.237891
  15 C :   -0.035656
  16 C :   -0.055286
  17 C :   -0.056555
  18 H :    0.037194
  19 H :    0.016634
  20 H :    0.031825
  21 H :    0.034404
  22 C :   -0.049439
  23 H :    0.030649
  24 H :    0.042056
  25 C :   -0.059728
  26 H :    0.002305
  27 H :    0.049612
  28 C :   -0.052761
  29 H :    0.028547
  30 H :    0.035891
  31 H :    0.022794
  32 H :    0.037033
  33 H :    0.033894
  34 H :    0.033814
  35 H :    0.039099
  36 H :    0.046889

  Mayer bond orders larger than 0.100000
B(  0-C ,  6-C ) :   1.1979 B(  0-C , 15-C ) :   1.1378 B(  0-C , 35-H ) :   0.7736
B(  0-C , 36-H ) :   0.7113 B(  1-C ,  2-C ) :   1.2210 B(  1-C ,  4-H ) :   0.1297
B(  1-C , 17-C ) :   1.2481 B(  1-C , 20-H ) :   0.8124 B(  1-C , 21-H ) :   0.6886
B(  2-C ,  3-H ) :   0.8429 B(  2-C ,  4-H ) :   0.7801 B(  2-C ,  5-C ) :   1.1560
B(  2-C , 20-H ) :   0.1307 B(  3-H ,  5-C ) :   0.1741 B(  4-H ,  5-C ) :   0.1869
B(  5-C , 13-O ) :   1.4671 B(  5-C , 14-O ) :   1.4004 B(  6-C ,  7-N ) :   1.0983
B(  6-C ,  8-N ) :   1.1431 B(  6-C , 35-H ) :   0.1852 B(  6-C , 36-H ) :   0.1930
B(  7-N ,  8-N ) :   0.1359 B(  7-N , 11-H ) :   0.9713 B(  7-N , 12-H ) :   1.2107
B(  8-N ,  9-H ) :   1.1479 B(  8-N , 10-H ) :   0.9705 B(  9-H , 10-H ) :  -0.2225
B(  9-H , 13-O ) :   0.1714 B( 11-H , 12-H ) :  -0.2461 B( 12-H , 14-O ) :   0.2334
B( 13-O , 14-O ) :   0.1368 B( 15-C , 22-C ) :   1.1866 B( 15-C , 23-H ) :   0.8931
B( 15-C , 24-H ) :   0.9586 B( 15-C , 26-H ) :   0.1036 B( 15-C , 27-H ) :   0.1009
B( 15-C , 35-H ) :   0.1224 B( 15-C , 36-H ) :   0.1358 B( 16-C , 17-C ) :   1.2903
B( 16-C , 18-H ) :   0.1643 B( 16-C , 19-H ) :   0.1138 B( 16-C , 25-C ) :   0.1226
B( 16-C , 28-C ) :   1.0977 B( 16-C , 31-H ) :   0.8354 B( 16-C , 32-H ) :   1.1944
B( 16-C , 33-H ) :   0.1244 B( 16-C , 34-H ) :   0.2390 B( 17-C , 18-H ) :   0.9226
B( 17-C , 19-H ) :   0.9673 B( 17-C , 20-H ) :   0.1681 B( 17-C , 21-H ) :   0.2211
B( 17-C , 32-H ) :   0.1168 B( 22-C , 23-H ) :   0.1067 B( 22-C , 24-H ) :   0.2148
B( 22-C , 25-C ) :   1.2478 B( 22-C , 26-H ) :   0.9047 B( 22-C , 27-H ) :   0.7635
B( 22-C , 29-H ) :   0.1031 B( 22-C , 30-H ) :   0.2120 B( 25-C , 28-C ) :   1.1778
B( 25-C , 29-H ) :   0.8215 B( 25-C , 30-H ) :   1.0237 B( 25-C , 33-H ) :   0.1843
B( 25-C , 34-H ) :   0.1338 B( 26-H , 27-H ) :   0.2115 B( 26-H , 31-H ) :   0.1956
B( 26-H , 32-H ) :  -0.1133 B( 28-C , 33-H ) :   0.6865 B( 28-C , 34-H ) :   0.6903

FINAL SINGLE POINT ENERGY      -689.773978443591

DIPOLE MOMENT
-------------
                                X             Y             Z
Electronic contribution:      3.44517       1.57648      12.91989
Nuclear contribution   :     -1.50655      -3.48027     -14.35034
                        -----------------------------------------
Total Dipole Moment    :      1.93861      -1.90380      -1.43045
                        -----------------------------------------
Magnitude (a.u.)       :      3.07065
Magnitude (Debye)      :      7.80496

Rotational constants in cm-1:     0.021781     0.017296     0.011403
Rotational constants in MHz :   652.971749   518.510612   341.853154

                             ****ORCA TERMINATED NORMALLY****
TOTAL RUN TIME: 0 days 0 hours 4 minutes 11 seconds 373 msec
