                         Program Version 5.0.0 -  RELEASE  -
|  1> !LC-PBE RIJCOSX def2-SVPD def2/J TightSCF
|  2> *xyz 0 1
|  3> C         -0.05915        1.50352        3.41058
|  4> C          1.08303        0.74964        4.08571
|  5> F          2.22817        1.26348        4.01983
|  6> O          0.81003       -0.34541        4.63627
|  7> H          0.31461        2.41205        2.98658
|  8> H         -0.81316        1.73160        4.13470
|  9> H         -0.47977        0.89552        2.63708
| 10> *
| 11>
| 12> %MaxCore 64000
| 13>
| 14> %pal nprocs 4
| 15> end
| 16>
| 17> %scf
| 18>   MaxIter 150
| 19> end
| 20>
| 21>
| 22>                          ****END OF INPUT****

CARTESIAN COORDINATES (ANGSTROEM)
---------------------------------
  C     -0.059150    1.503520    3.410580
  C      1.083030    0.749640    4.085710
  F      2.228170    1.263480    4.019830
  O      0.810030   -0.345410    4.636270
  H      0.314610    2.412050    2.986580
  H     -0.813160    1.731600    4.134700
  H     -0.479770    0.895520    2.637080

 Total Charge           Charge          ....    0
 Multiplicity           Mult            ....    1
 Number of Electrons    NEL             ....   32
 Basis Dimension        Dim             ....  110

ORBITAL ENERGIES
----------------

  NO   OCC          E(Eh)            E(eV)
   0   2.0000     -24.584473      -668.9775
   1   2.0000     -19.006131      -517.1831
   2   2.0000     -10.325687      -280.9762
   3   2.0000     -10.156915      -276.3837
   4   2.0000      -1.470498       -40.0143
   5   2.0000      -1.195693       -32.5365
   6   2.0000      -0.945563       -25.7301
   7   2.0000      -0.818687       -22.2776
   8   2.0000      -0.712494       -19.3879
   9   2.0000      -0.705683       -19.2026
  10   2.0000      -0.655958       -17.8495
  11   2.0000      -0.589865       -16.0511
  12   2.0000      -0.576278       -15.6813
  13   2.0000      -0.548697       -14.9308
  14   2.0000      -0.495463       -13.4822
  15   2.0000      -0.438260       -11.9257
  16   0.0000       0.063358         1.7241
  17   0.0000       0.079601         2.1661
  18   0.0000       0.118656         3.2288
  19   0.0000       0.155623         4.2347
  20   0.0000       0.158190         4.3046

MULLIKEN ATOMIC CHARGES
-----------------------
   0 C :    0.128344
   1 C :    0.319800
   2 F :   -0.295234
   3 O :   -0.420993
   4 H :    0.058734
   5 H :    0.103858
   6 H :    0.105492
Sum of atomic charges:    0.0000000

LOEWDIN ATOMIC CHARGES
----------------------
   0 C :    0.180136
   1 C :   -0.051317
   2 F :   -0.027032
   3 O :   -0.136747
   4 H :    0.000048
   5 H :    0.017217
   6 H :    0.017694

  Mayer bond orders larger than 0.100000
B(  0-C ,  1-C ) :   1.2541 B(  0-C ,  4-H ) :   0.9044 B(  0-C ,  5-H ) :   0.8370
B(  0-C ,  6-H ) :   0.8397 B(  1-C ,  2-F ) :   0.8697 B(  1-C ,  3-O ) :   1.8916
B(  1-C ,  4-H ) :   0.1202 B(  1-C ,  5-H ) :   0.1101 B(  1-C ,  6-H ) :   0.1064

FINAL SINGLE POINT ENERGY      -252.232480885296

DIPOLE MOMENT
-------------
                                X             Y             Z
Electronic contribution:      4.65792      -0.99141       1.54417
Nuclear contribution   :     -5.01294       1.99942      -2.18092
                        -----------------------------------------
Total Dipole Moment    :     -0.35502       1.00802      -0.63675
                        -----------------------------------------
Magnitude (a.u.)       :      1.24402
Magnitude (Debye)      :      3.16206

Rotational constants in cm-1:     0.368501     0.321908     0.177384
Rotational constants in MHz : 11047.396090  9650.552559  5317.833075

                             ****ORCA TERMINATED NORMALLY****
TOTAL RUN TIME: 0 days 0 hours 0 minutes 7 seconds 488 msec
