                         Program Version 5.0.0 -  RELEASE  -
|  1> !LC-PBE RIJCOSX def2-SVPD def2/J TightSCF
|  2> *xyz 0 1
|  3> C          4.60295       -2.44010        2.63478
|  4> C          3.86085       -1.59157        3.62289
|  5> C          2.75650       -2.04616        4.16633
|  6> N          4.25433       -0.36291        3.86046
|  7> H          3.56526        0.31099        4.16898
|  8> H          5.05429       -0.01606        3.33784
|  9> H          2.43970       -2.97389        3.89740
| 10> H          2.06687       -1.41253        4.54981
| 11> H          5.47239       -1.91604        2.29664
| 12> H          3.96816       -2.65362        1.80030
| 13> H          4.89801       -3.35632        3.10209
| 14> *
| 15>
| 16> %MaxCore 64000
| 17>
| 18> %pal nprocs 4
| 19> end
| 20>
| 21> %scf
| 22>   MaxIter 150
| 23> end
| 24>
| 25>
| 26>                          ****END OF INPUT****

CARTESIAN COORDINATES (ANGSTROEM)
---------------------------------
  C      4.602950   -2.440100    2.634780
  C      3.860850   -1.591570    3.622890
  C      2.756500   -2.046160    4.166330
  N      4.254330   -0.362910    3.860460
  H      3.565260    0.310990    4.168980
  H      5.054290   -0.016060    3.337840
  H      2.439700   -2.973890    3.897400
  H      2.066870   -1.412530    4.549810
  H      5.472390   -1.916040    2.296640
  H      3.968160   -2.653620    1.800300
  H      4.898010   -3.356320    3.102090

 Total Charge           Charge          ....    0
 Multiplicity           Mult            ....    1
 Number of Electrons    NEL             ....   32
 Basis Dimension        Dim             ....  136

ORBITAL ENERGIES
----------------

  NO   OCC          E(Eh)            E(eV)
   0   2.0000     -14.229518      -387.2049
   1   2.0000     -10.154245      -276.3111
   2   2.0000     -10.119320      -275.3607
   3   2.0000     -10.055589      -273.6265
   4   2.0000      -1.101613       -29.9764
   5   2.0000      -0.925691       -25.1893
   6   2.0000      -0.854897       -23.2629
   7   2.0000      -0.721110       -19.6224
   8   2.0000      -0.673458       -18.3257
   9   2.0000      -0.619561       -16.8591
  10   2.0000      -0.578849       -15.7513
  11   2.0000      -0.535854       -14.5813
  12   2.0000      -0.524075       -14.2608
  13   2.0000      -0.496633       -13.5141
  14   2.0000      -0.468175       -12.7397
  15   2.0000      -0.310790        -8.4570
  16   0.0000       0.090325         2.4579
  17   0.0000       0.124962         3.4004
  18   0.0000       0.127006         3.4560
  19   0.0000       0.129632         3.5275
  20   0.0000       0.165178         4.4947

MULLIKEN ATOMIC CHARGES
-----------------------
   0 C :    0.486359
   1 C :   -0.398015
   2 C :    0.160207
   3 N :    0.045856
   4 H :   -0.028711
   5 H :   -0.015445
   6 H :   -0.067658
   7 H :   -0.303618
   8 H :   -0.019587
   9 H :    0.037979
  10 H :    0.102633
Sum of atomic charges:   -0.0000000

LOEWDIN ATOMIC CHARGES
----------------------
   0 C :    0.137528
   1 C :   -0.298581
   2 C :    0.128691
   3 N :    0.143750
   4 H :    0.018285
   5 H :    0.007658
   6 H :   -0.064086
   7 H :   -0.071993
   8 H :   -0.015265
   9 H :    0.007527
  10 H :    0.006486

  Mayer bond orders larger than 0.100000
B(  0-C ,  1-C ) :   1.2169 B(  0-C ,  8-H ) :   0.7770 B(  0-C ,  9-H ) :   0.8560
B(  0-C , 10-H ) :   0.7380 B(  1-C ,  2-C ) :   1.9715 B(  1-C ,  3-N ) :   1.0552
B(  1-C ,  6-H ) :   0.1455 B(  1-C ,  7-H ) :   0.1208 B(  1-C ,  8-H ) :   0.2296
B(  1-C ,  9-H ) :   0.1050 B(  1-C , 10-H ) :   0.1983 B(  2-C ,  3-N ) :   0.2351
B(  2-C ,  6-H ) :   0.8099 B(  2-C ,  7-H ) :   0.9151 B(  3-N ,  4-H ) :   1.1268
B(  3-N ,  5-H ) :   1.0358 B(  4-H ,  5-H ) :  -0.1147

FINAL SINGLE POINT ENERGY      -172.541806120982

DIPOLE MOMENT
-------------
                                X             Y             Z
Electronic contribution:      0.12553       1.44352       1.05012
Nuclear contribution   :      0.22927      -0.89318      -1.58153
                        -----------------------------------------
Total Dipole Moment    :      0.35480       0.55033      -0.53141
                        -----------------------------------------
Magnitude (a.u.)       :      0.84329
Magnitude (Debye)      :      2.14348

Rotational constants in cm-1:     0.356805     0.302813     0.169682
Rotational constants in MHz : 10696.748191  9078.116910  5086.926242

                             ****ORCA TERMINATED NORMALLY****
TOTAL RUN TIME: 0 days 0 hours 0 minutes 12 seconds 325 msec
