                         Program Version 5.0.0 -  RELEASE  -
|  1> !LC-PBE RIJCOSX def2-SVPD def2/J TightSCF
|  2> *xyz 0 1
|  3> C         -0.05915        1.50352        3.41058
|  4> C          1.08303        0.74964        4.08571
|  5> O          2.22817        1.26348        4.01983
|  6> F          0.81003       -0.34541        4.63627
|  7> H          0.31461        2.41205        2.98658
|  8> H         -0.81316        1.73160        4.13470
|  9> H         -0.47977        0.89552        2.63708
| 10> *
| 11>
| 12> %MaxCore 64000
| 13>
| 14> %pal nprocs 4
| 15> end
| 16>
| 17> %scf
| 18>   MaxIter 150
| 19> end
| 20>
| 21>
| 22>                          ****END OF INPUT****

CARTESIAN COORDINATES (ANGSTROEM)
---------------------------------
  C     -0.059150    1.503520    3.410580
  C      1.083030    0.749640    4.085710
  O      2.228170    1.263480    4.019830
  F      0.810030   -0.345410    4.636270
  H      0.314610    2.412050    2.986580
  H     -0.813160    1.731600    4.134700
  H     -0.479770    0.895520    2.637080

 Total Charge           Charge          ....    0
 Multiplicity           Mult            ....    1
 Number of Electrons    NEL             ....   32
 Basis Dimension        Dim             ....  110

ORBITAL ENERGIES
----------------

  NO   OCC          E(Eh)            E(eV)
   0   2.0000     -24.585180      -668.9968
   1   2.0000     -19.006051      -517.1810
   2   2.0000     -10.325510      -280.9714
   3   2.0000     -10.156671      -276.3771
   4   2.0000      -1.471346       -40.0374
   5   2.0000      -1.195208       -32.5233
   6   2.0000      -0.945407       -25.7258
   7   2.0000      -0.819073       -22.2881
   8   2.0000      -0.713723       -19.4214
   9   2.0000      -0.705663       -19.2021
  10   2.0000      -0.655308       -17.8318
  11   2.0000      -0.588709       -16.0196
  12   2.0000      -0.576996       -15.7009
  13   2.0000      -0.548313       -14.9203
  14   2.0000      -0.497884       -13.5481
  15   2.0000      -0.436387       -11.8747
  16   0.0000       0.066770         1.8169
  17   0.0000       0.079635         2.1670
  18   0.0000       0.118406         3.2220
  19   0.0000       0.153009         4.1636
  20   0.0000       0.160294         4.3618

MULLIKEN ATOMIC CHARGES
-----------------------
   0 C :    0.144836
   1 C :    0.332472
   2 O :   -0.405712
   3 F :   -0.314165
   4 H :    0.044279
   5 H :    0.098528
   6 H :    0.099763
Sum of atomic charges:   -0.0000000

LOEWDIN ATOMIC CHARGES
----------------------
   0 C :    0.179560
   1 C :   -0.052769
   2 O :   -0.137267
   3 F :   -0.024483
   4 H :    0.011845
   5 H :    0.011057
   6 H :    0.012056

  Mayer bond orders larger than 0.100000
B(  0-C ,  1-C ) :   1.2347 B(  0-C ,  4-H ) :   0.9205 B(  0-C ,  5-H ) :   0.8345
B(  0-C ,  6-H ) :   0.8363 B(  1-C ,  2-O ) :   1.9144 B(  1-C ,  3-F ) :   0.8374
B(  1-C ,  4-H ) :   0.1631

FINAL SINGLE POINT ENERGY      -252.232465847998

DIPOLE MOMENT
-------------
                                X             Y             Z
Electronic contribution:      2.32256      -3.64108       2.55903
Nuclear contribution   :     -3.54758       3.66189      -2.81789
                        -----------------------------------------
Total Dipole Moment    :     -1.22502       0.02081      -0.25886
                        -----------------------------------------
Magnitude (a.u.)       :      1.25224
Magnitude (Debye)      :      3.18294

Rotational constants in cm-1:     0.369278     0.321254     0.177365
Rotational constants in MHz : 11070.686557  9630.951649  5317.254673

                             ****ORCA TERMINATED NORMALLY****
TOTAL RUN TIME: 0 days 0 hours 0 minutes 7 seconds 602 msec
