                         Program Version 5.0.0 -  RELEASE  -
|  1> !LC-PBE RIJCOSX def2-SVPD def2/J TightSCF
|  2> *xyz 0 1
|  3> C          4.60295       -2.44010        2.63478
|  4> C          3.86085       -1.59157        3.62289
|  5> N          2.75650       -2.04616        4.16633
|  6> C          4.25433       -0.36291        3.86046
|  7> H          3.56526        0.31099        4.16898
|  8> H          5.05429       -0.01606        3.33784
|  9> H          2.43970       -2.97389        3.89740
| 10> H          2.06687       -1.41253        4.54981
| 11> H          5.47239       -1.91604        2.29664
| 12> H          3.96816       -2.65362        1.80030
| 13> H          4.89801       -3.35632        3.10209
| 14> *
| 15>
| 16> %MaxCore 64000
| 17>
| 18> %pal nprocs 4
| 19> end
| 20>
| 21> %scf
| 22>   MaxIter 150
| 23> end
| 24>
| 25>
| 26>                          ****END OF INPUT****

CARTESIAN COORDINATES (ANGSTROEM)
---------------------------------
  C      4.602950   -2.440100    2.634780
  C      3.860850   -1.591570    3.622890
  N      2.756500   -2.046160    4.166330
  C      4.254330   -0.362910    3.860460
  H      3.565260    0.310990    4.168980
  H      5.054290   -0.016060    3.337840
  H      2.439700   -2.973890    3.897400
  H      2.066870   -1.412530    4.549810
  H      5.472390   -1.916040    2.296640
  H      3.968160   -2.653620    1.800300
  H      4.898010   -3.356320    3.102090

 Total Charge           Charge          ....    0
 Multiplicity           Mult            ....    1
 Number of Electrons    NEL             ....   32
 Basis Dimension        Dim             ....  136

ORBITAL ENERGIES
----------------

  NO   OCC          E(Eh)            E(eV)
   0   2.0000     -14.229605      -387.2072
   1   2.0000     -10.155514      -276.3456
   2   2.0000     -10.119211      -275.3577
   3   2.0000     -10.057479      -273.6779
   4   2.0000      -1.100845       -29.9555
   5   2.0000      -0.926319       -25.2064
   6   2.0000      -0.855952       -23.2916
   7   2.0000      -0.724316       -19.7096
   8   2.0000      -0.671949       -18.2847
   9   2.0000      -0.618630       -16.8338
  10   2.0000      -0.580816       -15.8048
  11   2.0000      -0.535048       -14.5594
  12   2.0000      -0.525926       -14.3112
  13   2.0000      -0.495043       -13.4708
  14   2.0000      -0.466010       -12.6808
  15   2.0000      -0.313366        -8.5271
  16   0.0000       0.090422         2.4605
  17   0.0000       0.126658         3.4465
  18   0.0000       0.127734         3.4758
  19   0.0000       0.131465         3.5773
  20   0.0000       0.168020         4.5720

MULLIKEN ATOMIC CHARGES
-----------------------
   0 C :    0.476512
   1 C :   -0.472941
   2 N :    0.131105
   3 C :    0.183030
   4 H :   -0.305408
   5 H :   -0.029683
   6 H :   -0.060947
   7 H :   -0.108508
   8 H :    0.094547
   9 H :    0.039158
  10 H :    0.053134
Sum of atomic charges:   -0.0000000

LOEWDIN ATOMIC CHARGES
----------------------
   0 C :    0.136370
   1 C :   -0.303357
   2 N :    0.143098
   3 C :    0.133640
   4 H :   -0.070667
   5 H :   -0.070897
   6 H :    0.013514
   7 H :    0.017918
   8 H :   -0.002558
   9 H :    0.004732
  10 H :   -0.001794

  Mayer bond orders larger than 0.100000
B(  0-C ,  1-C ) :   1.3492 B(  0-C ,  8-H ) :   0.8350 B(  0-C ,  9-H ) :   0.7760
B(  0-C , 10-H ) :   0.7039 B(  1-C ,  2-N ) :   1.1204 B(  1-C ,  3-C ) :   1.9832
B(  1-C ,  4-H ) :   0.1621 B(  1-C ,  8-H ) :   0.1830 B(  1-C ,  9-H ) :   0.2026
B(  1-C , 10-H ) :   0.2296 B(  2-N ,  3-C ) :   0.2331 B(  2-N ,  6-H ) :   1.0890
B(  2-N ,  7-H ) :   1.1741 B(  3-C ,  4-H ) :   0.8550 B(  3-C ,  5-H ) :   0.8982
B(  6-H ,  7-H ) :  -0.1224

FINAL SINGLE POINT ENERGY      -172.542651797736

DIPOLE MOMENT
-------------
                                X             Y             Z
Electronic contribution:     -1.18412      -0.01859       1.34750
Nuclear contribution   :      0.56519      -0.51568      -1.65012
                        -----------------------------------------
Total Dipole Moment    :     -0.61894      -0.53427      -0.30262
                        -----------------------------------------
Magnitude (a.u.)       :      0.87185
Magnitude (Debye)      :      2.21606

Rotational constants in cm-1:     0.356673     0.303029     0.169717
Rotational constants in MHz : 10692.789749  9084.577259  5087.998414

                             ****ORCA TERMINATED NORMALLY****
TOTAL RUN TIME: 0 days 0 hours 0 minutes 12 seconds 487 msec
