                         Program Version 5.0.0 -  RELEASE  -
|  1> !LC-PBE RIJCOSX def2-SVPD def2/J TightSCF xyzfile
|  2>
|  3> *xyzfile 0 1 D4.xyz
|  4>
|  5> %MaxCore 64000
|  6>
|  7> %pal nprocs 4
|  8> end
|  9>
| 10> %scf
| 11>   MaxIter 150
| 12> end
| 13>
| 14>
| 15>                          ****END OF INPUT****

CARTESIAN COORDINATES (ANGSTROEM)
---------------------------------
  C      4.602954   -2.440100    2.634780
  C     -0.914947    0.615112    2.505538
  C     -0.059146    1.503524    3.410578
  H      0.365364    2.344315    2.861161
  H     -0.692261    1.920207    4.198985
  C      1.083027    0.749640    4.085705
  C      3.860851   -1.591565    3.622893
  N      2.756502   -2.046159    4.166333
  C      4.254325   -0.362905    3.860455
  H      3.565256    0.310994    4.168983
  H      5.054292   -0.016059    3.337838
  H      2.439696   -2.973894    3.897395
  H      2.066869   -1.412532    4.549813
  O      2.228167    1.263475    4.019826
  F      0.810034   -0.345411    4.636269
  C      3.744685   -2.580557    1.361882
  C      0.772139    0.636882    0.562129
  C     -0.130740   -0.193985    1.470763
  H     -0.840563   -0.760165    0.856377
  H      0.466691   -0.938942    2.006959
  H     -1.647961    1.245963    1.991076
  H     -1.478180   -0.081046    3.130424
  C      3.203721   -1.256004    0.826211
  H      2.898939   -3.239289    1.583074
  H      4.334962   -3.095523    0.600188
  C      2.107815   -1.442385   -0.216865
  H      2.786775   -0.672760    1.650711
  H      4.021008   -0.652993    0.414046
  C      1.390662   -0.145912   -0.602422
  H      1.372179   -2.152184    0.176151
  H      2.523302   -1.906787   -1.117115
  H      1.561361    1.100094    1.161831
  H      0.195516    1.468325    0.142758
  H      0.602893   -0.398214   -1.319716
  H      2.087247    0.508272   -1.137335
  H      5.561557   -1.971347    2.407084
  H      4.810498   -3.422552    3.063099

 Total Charge           Charge          ....    0
 Multiplicity           Mult            ....    1
 Number of Electrons    NEL             ....  118
 Basis Dimension        Dim             ....  482

ORBITAL ENERGIES
----------------

  NO   OCC          E(Eh)            E(eV)
   0   2.0000     -24.610713      -669.6915
   1   2.0000     -19.018726      -517.5258
   2   2.0000     -14.206534      -386.5795
   3   2.0000     -10.336887      -281.2810
   4   2.0000     -10.169125      -276.7160
   5   2.0000     -10.152373      -276.2601
   6   2.0000     -10.137262      -275.8489
   7   2.0000     -10.127788      -275.5911
   8   2.0000     -10.127660      -275.5876
   9   2.0000     -10.123012      -275.4611
  10   2.0000     -10.118599      -275.3411
  11   2.0000     -10.117219      -275.3035
  12   2.0000     -10.113199      -275.1941
  13   2.0000     -10.109411      -275.0910
  14   2.0000     -10.021841      -272.7082
  15   2.0000      -1.498296       -40.7707
  16   2.0000      -1.213279       -33.0150
  17   2.0000      -1.083199       -29.4753
  18   2.0000      -1.014862       -27.6158
  19   2.0000      -0.982562       -26.7369
  20   2.0000      -0.953726       -25.9522
  21   2.0000      -0.912340       -24.8260
  22   2.0000      -0.883936       -24.0531
  23   2.0000      -0.857082       -23.3224
  24   2.0000      -0.842812       -22.9341
  25   2.0000      -0.809528       -22.0284
  26   2.0000      -0.775295       -21.0968
  27   2.0000      -0.747574       -20.3425
  28   2.0000      -0.739761       -20.1299
  29   2.0000      -0.732047       -19.9200
  30   2.0000      -0.707720       -19.2580
  31   2.0000      -0.694236       -18.8911
  32   2.0000      -0.670736       -18.2516
  33   2.0000      -0.649551       -17.6752
  34   2.0000      -0.637757       -17.3543
  35   2.0000      -0.632883       -17.2216
  36   2.0000      -0.607539       -16.5320
  37   2.0000      -0.593007       -16.1365
  38   2.0000      -0.586642       -15.9633
  39   2.0000      -0.580418       -15.7940
  40   2.0000      -0.565290       -15.3823
  41   2.0000      -0.556913       -15.1544
  42   2.0000      -0.549536       -14.9536
  43   2.0000      -0.530536       -14.4366
  44   2.0000      -0.519664       -14.1408
  45   2.0000      -0.511799       -13.9268
  46   2.0000      -0.509206       -13.8562
  47   2.0000      -0.496253       -13.5037
  48   2.0000      -0.489779       -13.3276
  49   2.0000      -0.480454       -13.0738
  50   2.0000      -0.477096       -12.9824
  51   2.0000      -0.462190       -12.5768
  52   2.0000      -0.453571       -12.3423
  53   2.0000      -0.449873       -12.2417
  54   2.0000      -0.437012       -11.8917
  55   2.0000      -0.435734       -11.8569
  56   2.0000      -0.430020       -11.7014
  57   2.0000      -0.401099       -10.9145
  58   2.0000      -0.288214        -7.8427
  59   0.0000       0.046973         1.2782
  60   0.0000       0.076942         2.0937
  61   0.0000       0.092278         2.5110
  62   0.0000       0.098324         2.6755
  63   0.0000       0.103110         2.8058

MULLIKEN ATOMIC CHARGES
-----------------------
   0 C :    0.435317
   1 C :    0.339734
   2 C :   -0.025855
   3 H :    0.251375
   4 H :   -0.028499
   5 C :    0.557218
   6 C :   -0.504680
   7 N :    0.371727
   8 C :    0.763657
   9 H :   -0.628259
  10 H :   -0.096275
  11 H :    0.078652
  12 H :   -0.471122
  13 O :   -0.427093
  14 F :   -0.406855
  15 C :    0.015866
  16 C :   -0.333131
  17 C :   -0.256129
  18 H :   -0.096040
  19 H :   -0.033380
  20 H :    0.018537
  21 H :    0.088567
  22 C :    0.128098
  23 H :    0.121596
  24 H :   -0.217479
  25 C :   -0.142119
  26 H :   -0.379169
  27 H :    0.047528
  28 C :    0.611579
  29 H :    0.200845
  30 H :   -0.244349
  31 H :    0.197607
  32 H :   -0.372043
  33 H :    0.149526
  34 H :    0.067035
  35 H :    0.212394
  36 H :    0.005620
Sum of atomic charges:   -0.0000000

LOEWDIN ATOMIC CHARGES
----------------------
   0 C :   -0.006079
   1 C :   -0.046294
   2 C :    0.038218
   3 H :    0.048014
   4 H :    0.054489
   5 C :    0.034459
   6 C :   -0.272294
   7 N :    0.188980
   8 C :    0.168804
   9 H :   -0.162938
  10 H :   -0.057709
  11 H :    0.014874
  12 H :   -0.067923
  13 O :   -0.104822
  14 F :   -0.012514
  15 C :   -0.044786
  16 C :   -0.055377
  17 C :   -0.054396
  18 H :    0.043689
  19 H :    0.019948
  20 H :    0.041364
  21 H :    0.036128
  22 C :   -0.048236
  23 H :    0.021502
  24 H :    0.033216
  25 C :   -0.064456
  26 H :   -0.003492
  27 H :    0.051084
  28 C :   -0.051623
  29 H :    0.025047
  30 H :    0.035610
  31 H :    0.024022
  32 H :    0.036417
  33 H :    0.032714
  34 H :    0.036332
  35 H :    0.036137
  36 H :    0.031891

  Mayer bond orders larger than 0.100000
B(  0-C ,  6-C ) :   1.3405 B(  0-C ,  8-C ) :   0.1014 B(  0-C , 15-C ) :   1.1208
B(  0-C , 24-H ) :   0.1014 B(  0-C , 35-H ) :   0.7638 B(  0-C , 36-H ) :   0.6226
B(  1-C ,  2-C ) :   1.1987 B(  1-C ,  4-H ) :   0.1400 B(  1-C , 17-C ) :   1.2380
B(  1-C , 20-H ) :   0.8231 B(  1-C , 21-H ) :   0.7110 B(  2-C ,  3-H ) :   0.8671
B(  2-C ,  4-H ) :   0.7690 B(  2-C ,  5-C ) :   1.1824 B(  2-C , 20-H ) :   0.1196
B(  3-H ,  5-C ) :   0.1121 B(  4-H ,  5-C ) :   0.2020 B(  5-C , 13-O ) :   1.8441
B(  5-C , 14-F ) :   0.6447 B(  6-C ,  7-N ) :   0.9480 B(  6-C ,  8-C ) :   2.1423
B(  6-C ,  9-H ) :   0.3218 B(  6-C , 10-H ) :   0.2528 B(  6-C , 35-H ) :   0.1359
B(  6-C , 36-H ) :   0.2682 B(  7-N ,  8-C ) :   0.3393 B(  7-N , 11-H ) :   0.9842
B(  7-N , 12-H ) :   1.1350 B(  8-C ,  9-H ) :   0.2864 B(  8-C , 10-H ) :   0.7370
B(  9-H , 13-O ) :   0.1559 B( 11-H , 12-H ) :  -0.2231 B( 12-H , 14-F ) :   0.1120
B( 13-O , 14-F ) :   0.1124 B( 15-C , 22-C ) :   1.1524 B( 15-C , 23-H ) :   0.8458
B( 15-C , 24-H ) :   0.9826 B( 15-C , 26-H ) :   0.1241 B( 15-C , 35-H ) :   0.1343
B( 15-C , 36-H ) :   0.1504 B( 16-C , 17-C ) :   1.2945 B( 16-C , 18-H ) :   0.1595
B( 16-C , 19-H ) :   0.1175 B( 16-C , 25-C ) :   0.1175 B( 16-C , 28-C ) :   1.1090
B( 16-C , 31-H ) :   0.8376 B( 16-C , 32-H ) :   1.1848 B( 16-C , 33-H ) :   0.1235
B( 16-C , 34-H ) :   0.2380 B( 17-C , 18-H ) :   0.9381 B( 17-C , 19-H ) :   0.9545
B( 17-C , 20-H ) :   0.1669 B( 17-C , 21-H ) :   0.2176 B( 17-C , 32-H ) :   0.1158
B( 22-C , 24-H ) :   0.1841 B( 22-C , 25-C ) :   1.2148 B( 22-C , 26-H ) :   0.9260
B( 22-C , 27-H ) :   0.7571 B( 22-C , 30-H ) :   0.2299 B( 25-C , 28-C ) :   1.1739
B( 25-C , 29-H ) :   0.8362 B( 25-C , 30-H ) :   1.0154 B( 25-C , 33-H ) :   0.1819
B( 25-C , 34-H ) :   0.1328 B( 26-H , 27-H ) :   0.2241 B( 26-H , 31-H ) :   0.1779
B( 26-H , 32-H ) :  -0.1001 B( 28-C , 33-H ) :   0.6936 B( 28-C , 34-H ) :   0.6896

FINAL SINGLE POINT ENERGY      -697.608952604910

DIPOLE MOMENT
-------------
                                X             Y             Z
Electronic contribution:     -2.31997       3.58854      16.15517
Nuclear contribution   :      0.32481      -3.64700     -16.75441
                        -----------------------------------------
Total Dipole Moment    :     -1.99516      -0.05846      -0.59924
                        -----------------------------------------
Magnitude (a.u.)       :      2.08403
Magnitude (Debye)      :      5.29717

Rotational constants in cm-1:     0.021629     0.017327     0.011372
Rotational constants in MHz :   648.414821   519.443407   340.925013

                             ****ORCA TERMINATED NORMALLY****
TOTAL RUN TIME: 0 days 0 hours 4 minutes 37 seconds 448 msec
