                         Program Version 5.0.0 -  RELEASE  -
|  1> !wB97X-D3 RIJCOSX def2-SVPD def2/J TightSCF CPCM(Water)
|  2> *xyz -1 1
|  3> C         -0.77455        2.78833       -0.54394
|  4> C          0.69721        3.22791       -0.52513
|  5> O          1.48929        2.37470        0.19919
|  6> H          0.71600        4.26403       -0.13077
|  7> H          1.03615        3.33092       -1.58367
|  8> H         -1.34746        3.48478       -1.11982
|  9> H         -1.15078        2.75876        0.45729
| 10> H         -0.85058        1.81526       -0.98241
| 11> *
| 12>
| 13> %MaxCore 64000
| 14> %pal nprocs 18
| 15> end
| 16>
| 17> %scf
| 18>   MaxIter 150
| 19> end
| 20>
| 21>
| 22>                          ****END OF INPUT****

CARTESIAN COORDINATES (ANGSTROEM)
---------------------------------
  C     -0.774550    2.788330   -0.543940
  C      0.697210    3.227910   -0.525130
  O      1.489290    2.374700    0.199190
  H      0.716000    4.264030   -0.130770
  H      1.036150    3.330920   -1.583670
  H     -1.347460    3.484780   -1.119820
  H     -1.150780    2.758760    0.457290
  H     -0.850580    1.815260   -0.982410

 Total Charge           Charge          ....   -1
 Multiplicity           Mult            ....    1
 Number of Electrons    NEL             ....   26
 Basis Dimension        Dim             ....  103

ORBITAL ENERGIES
----------------

  NO   OCC          E(Eh)            E(eV)
   0   2.0000     -19.120016      -520.2821
   1   2.0000     -10.287308      -279.9319
   2   2.0000     -10.244827      -278.7759
   3   2.0000      -0.988299       -26.8930
   4   2.0000      -0.805777       -21.9263
   5   2.0000      -0.656270       -17.8580
   6   2.0000      -0.527015       -14.3408
   7   2.0000      -0.498936       -13.5767
   8   2.0000      -0.448806       -12.2126
   9   2.0000      -0.429065       -11.6754
  10   2.0000      -0.412330       -11.2201
  11   2.0000      -0.271556        -7.3894
  12   2.0000      -0.270667        -7.3652
  13   0.0000       0.106833         2.9071
  14   0.0000       0.134603         3.6627
  15   0.0000       0.151202         4.1144
  16   0.0000       0.155410         4.2289
  17   0.0000       0.189518         5.1571

MULLIKEN ATOMIC CHARGES
-----------------------
   0 C :    0.365458
   1 C :    0.098172
   2 O :   -0.964062
   3 H :   -0.145526
   4 H :   -0.135672
   5 H :   -0.034754
   6 H :   -0.090625
   7 H :   -0.092992
Sum of atomic charges:   -1.0000000

LOEWDIN ATOMIC CHARGES
----------------------
   0 C :    0.077145
   1 C :   -0.270962
   2 O :   -0.682343
   3 H :   -0.016570
   4 H :   -0.012279
   5 H :   -0.031344
   6 H :   -0.031453
   7 H :   -0.032195

  Mayer bond orders larger than 0.100000
B(  0-C ,  1-C ) :   1.2219 B(  0-C ,  5-H ) :   0.8762 B(  0-C ,  6-H ) :   0.8833
B(  0-C ,  7-H ) :   0.8856 B(  1-C ,  2-O ) :   1.2811 B(  1-C ,  3-H ) :   0.9614
B(  1-C ,  4-H ) :   0.9686 B(  1-C ,  5-H ) :   0.1094 B(  1-C ,  6-H ) :   0.1557
B(  1-C ,  7-H ) :   0.1537

Dispersion correction           -0.000860166
FINAL SINGLE POINT ENERGY      -154.390582811412

DIPOLE MOMENT
-------------
                                X             Y             Z
Electronic contribution:      1.72189      -0.61931       0.76590
Nuclear contribution   :     -3.69910       1.55962      -1.78699
                        -----------------------------------------
Total Dipole Moment    :     -1.97721       0.94031      -1.02109
                        -----------------------------------------
Magnitude (a.u.)       :      2.41582
Magnitude (Debye)      :      6.14051

Rotational constants in cm-1:     1.268893     0.327436     0.287754
Rotational constants in MHz : 38040.440181  9816.269339  8626.646564

                             ****ORCA TERMINATED NORMALLY****
TOTAL RUN TIME: 0 days 0 hours 0 minutes 5 seconds 263 msec
