                         Program Version 5.0.0 -  RELEASE  -
|  1> !wB97X-D3 RIJCOSX def2-SVPD def2/J TightSCF CPCM(Water)
|  2> *xyz 1 1
|  3> C          3.95643        0.50147       -0.37910
|  4> H          3.16840        0.02920        0.20738
|  5> N          3.80389        1.96157       -0.15675
|  6> C          3.84232        0.14849       -1.85406
|  7> H          4.92323        0.17798        0.00937
|  8> H          4.20643        2.24441        0.74536
|  9> H          2.80827        2.21132       -0.09610
| 10> H          4.28076        2.50155       -0.89104
| 11> H          4.62951        0.62800       -2.39748
| 12> H          2.89665        0.48102       -2.22825
| 13> H          3.92053       -0.91187       -1.97413
| 14> *
| 15>
| 16> %MaxCore 64000
| 17> %pal nprocs 18
| 18> end
| 19>
| 20> %scf
| 21>   MaxIter 150
| 22> end
| 23>
| 24>
| 25>                          ****END OF INPUT****

CARTESIAN COORDINATES (ANGSTROEM)
---------------------------------
  C      3.956430    0.501470   -0.379100
  H      3.168400    0.029200    0.207380
  N      3.803890    1.961570   -0.156750
  C      3.842320    0.148490   -1.854060
  H      4.923230    0.177980    0.009370
  H      4.206430    2.244410    0.745360
  H      2.808270    2.211320   -0.096100
  H      4.280760    2.501550   -0.891040
  H      4.629510    0.628000   -2.397480
  H      2.896650    0.481020   -2.228250
  H      3.920530   -0.911870   -1.974130

 Total Charge           Charge          ....    1
 Multiplicity           Mult            ....    1
 Number of Electrons    NEL             ....   26
 Basis Dimension        Dim             ....  124

ORBITAL ENERGIES
----------------

  NO   OCC          E(Eh)            E(eV)
   0   2.0000     -14.555825      -396.0841
   1   2.0000     -10.351243      -281.6716
   2   2.0000     -10.288978      -279.9773
   3   2.0000      -1.109533       -30.1919
   4   2.0000      -0.886133       -24.1129
   5   2.0000      -0.759331       -20.6625
   6   2.0000      -0.690366       -18.7858
   7   2.0000      -0.673979       -18.3399
   8   2.0000      -0.599316       -16.3082
   9   2.0000      -0.554453       -15.0874
  10   2.0000      -0.500648       -13.6233
  11   2.0000      -0.481888       -13.1128
  12   2.0000      -0.463134       -12.6025
  13   0.0000       0.085915         2.3379
  14   0.0000       0.119037         3.2392
  15   0.0000       0.127201         3.4613
  16   0.0000       0.146570         3.9884
  17   0.0000       0.167179         4.5492

MULLIKEN ATOMIC CHARGES
-----------------------
   0 C :    0.111094
   1 H :   -0.021076
   2 N :   -0.957889
   3 C :    0.418758
   4 H :   -0.000250
   5 H :    0.426770
   6 H :    0.471401
   7 H :    0.477470
   8 H :    0.014312
   9 H :    0.041101
  10 H :    0.018310
Sum of atomic charges:    1.0000000

LOEWDIN ATOMIC CHARGES
----------------------
   0 C :    0.053817
   1 H :    0.050907
   2 N :    0.348050
   3 C :    0.148075
   4 H :    0.051008
   5 H :    0.116877
   6 H :    0.120437
   7 H :    0.116168
   8 H :   -0.003255
   9 H :   -0.002546
  10 H :    0.000461

  Mayer bond orders larger than 0.100000
B(  0-C ,  1-H ) :   0.9513 B(  0-C ,  2-N ) :   0.7283 B(  0-C ,  3-C ) :   1.3050
B(  0-C ,  4-H ) :   0.9691 B(  0-C ,  8-H ) :   0.1431 B(  0-C ,  9-H ) :   0.1322
B(  0-C , 10-H ) :   0.1677 B(  1-H ,  2-N ) :   0.1107 B(  2-N ,  5-H ) :   0.7036
B(  2-N ,  6-H ) :   0.6420 B(  2-N ,  7-H ) :   0.6152 B(  3-C ,  8-H ) :   0.8654
B(  3-C ,  9-H ) :   0.8554 B(  3-C , 10-H ) :   0.8447

Dispersion correction           -0.001507994
FINAL SINGLE POINT ENERGY      -135.521268204727

DIPOLE MOMENT
-------------
                                X             Y             Z
Electronic contribution:     -0.03486       1.69636       1.46979
Nuclear contribution   :     -0.06214      -0.04120      -0.39947
                        -----------------------------------------
Total Dipole Moment    :     -0.09700       1.65516       1.07032
                        -----------------------------------------
Magnitude (a.u.)       :      1.97346
Magnitude (Debye)      :      5.01614

Rotational constants in cm-1:     1.011771     0.281435     0.249812
Rotational constants in MHz : 30332.138762  8437.210602  7489.166323

                             ****ORCA TERMINATED NORMALLY****
TOTAL RUN TIME: 0 days 0 hours 0 minutes 6 seconds 588 msec
