                         Program Version 5.0.0 -  RELEASE  -
|  1> !wB97X-D3 RIJCOSX def2-SVPD def2/J TightSCF CPCM(Water)
|  2> *xyz 0 1
|  3> C         -0.77455        2.78833       -0.54394
|  4> C          0.69721        3.22791       -0.52513
|  5> F          1.48929        2.37470        0.19919
|  6> H          0.71600        4.26403       -0.13077
|  7> H          1.03615        3.33092       -1.58367
|  8> H         -1.34746        3.48478       -1.11982
|  9> H         -1.15078        2.75876        0.45729
| 10> H         -0.85058        1.81526       -0.98241
| 11> *
| 12>
| 13> %MaxCore 64000
| 14> %pal nprocs 18
| 15> end
| 16>
| 17> %scf
| 18>   MaxIter 150
| 19> end
| 20>
| 21>
| 22>                          ****END OF INPUT****

CARTESIAN COORDINATES (ANGSTROEM)
---------------------------------
  C     -0.774550    2.788330   -0.543940
  C      0.697210    3.227910   -0.525130
  F      1.489290    2.374700    0.199190
  H      0.716000    4.264030   -0.130770
  H      1.036150    3.330920   -1.583670
  H     -1.347460    3.484780   -1.119820
  H     -1.150780    2.758760    0.457290
  H     -0.850580    1.815260   -0.982410

 Total Charge           Charge          ....    0
 Multiplicity           Mult            ....    1
 Number of Electrons    NEL             ....   26
 Basis Dimension        Dim             ....  103

ORBITAL ENERGIES
----------------

  NO   OCC          E(Eh)            E(eV)
   0   2.0000     -24.797326      -674.7695
   1   2.0000     -10.364768      -282.0397
   2   2.0000     -10.276028      -279.6249
   3   2.0000      -1.306341       -35.5473
   4   2.0000      -0.867546       -23.6071
   5   2.0000      -0.733394       -19.9567
   6   2.0000      -0.615184       -16.7400
   7   2.0000      -0.599559       -16.3148
   8   2.0000      -0.564747       -15.3676
   9   2.0000      -0.502573       -13.6757
  10   2.0000      -0.490306       -13.3419
  11   2.0000      -0.432773       -11.7764
  12   2.0000      -0.423207       -11.5160
  13   0.0000       0.100981         2.7478
  14   0.0000       0.129371         3.5204
  15   0.0000       0.154400         4.2014
  16   0.0000       0.166219         4.5231
  17   0.0000       0.197733         5.3806

MULLIKEN ATOMIC CHARGES
-----------------------
   0 C :    0.197056
   1 C :    0.316554
   2 F :   -0.482581
   3 H :   -0.005716
   4 H :    0.006932
   5 H :    0.013668
   6 H :   -0.022301
   7 H :   -0.023613
Sum of atomic charges:   -0.0000000

LOEWDIN ATOMIC CHARGES
----------------------
   0 C :    0.131101
   1 C :    0.068249
   2 F :   -0.245846
   3 H :    0.036318
   4 H :    0.041290
   5 H :   -0.005533
   6 H :   -0.012518
   7 H :   -0.013062

  Mayer bond orders larger than 0.100000
B(  0-C ,  1-C ) :   1.3322 B(  0-C ,  5-H ) :   0.8799 B(  0-C ,  6-H ) :   0.9063
B(  0-C ,  7-H ) :   0.9093 B(  1-C ,  2-F ) :   0.7178 B(  1-C ,  3-H ) :   0.9603
B(  1-C ,  4-H ) :   0.9614 B(  1-C ,  5-H ) :   0.1074 B(  1-C ,  6-H ) :   0.1230
B(  1-C ,  7-H ) :   0.1206

Dispersion correction           -0.000875231
FINAL SINGLE POINT ENERGY      -178.892480427144

DIPOLE MOMENT
-------------
                                X             Y             Z
Electronic contribution:      4.29877      -1.51556       1.88725
Nuclear contribution   :     -4.89513       2.05627      -2.36166
                        -----------------------------------------
Total Dipole Moment    :     -0.59637       0.54071      -0.47442
                        -----------------------------------------
Magnitude (a.u.)       :      0.93439
Magnitude (Debye)      :      2.37504

Rotational constants in cm-1:     1.247826     0.304622     0.269019
Rotational constants in MHz : 37408.889506  9132.346906  8064.979146

                             ****ORCA TERMINATED NORMALLY****
TOTAL RUN TIME: 0 days 0 hours 0 minutes 6 seconds 84 msec
