                         Program Version 5.0.0 -  RELEASE  -
|  1> !wB97X-D3 RIJCOSX def2-SVPD def2/J TightSCF CPCM(Water)
|  2> *xyz 0 1
|  3> C          3.95643        0.50147       -0.37910
|  4> H          3.16840        0.02920        0.20738
|  5> C          3.80389        1.96157       -0.15675
|  6> C          3.84232        0.14849       -1.85406
|  7> H          4.92323        0.17798        0.00937
|  8> H          4.20643        2.24441        0.74536
|  9> H          2.80827        2.21132       -0.09610
| 10> H          4.28076        2.50155       -0.89104
| 11> H          4.62951        0.62800       -2.39748
| 12> H          2.89665        0.48102       -2.22825
| 13> H          3.92053       -0.91187       -1.97413
| 14> *
| 15>
| 16> %MaxCore 64000
| 17> %pal nprocs 18
| 18> end
| 19>
| 20> %scf
| 21>   MaxIter 150
| 22> end
| 23>
| 24>
| 25>                          ****END OF INPUT****

CARTESIAN COORDINATES (ANGSTROEM)
---------------------------------
  C      3.956430    0.501470   -0.379100
  H      3.168400    0.029200    0.207380
  C      3.803890    1.961570   -0.156750
  C      3.842320    0.148490   -1.854060
  H      4.923230    0.177980    0.009370
  H      4.206430    2.244410    0.745360
  H      2.808270    2.211320   -0.096100
  H      4.280760    2.501550   -0.891040
  H      4.629510    0.628000   -2.397480
  H      2.896650    0.481020   -2.228250
  H      3.920530   -0.911870   -1.974130

 Total Charge           Charge          ....    0
 Multiplicity           Mult            ....    1
 Number of Electrons    NEL             ....   26
 Basis Dimension        Dim             ....  124

ORBITAL ENERGIES
----------------

  NO   OCC          E(Eh)            E(eV)
   0   2.0000     -10.271423      -279.4996
   1   2.0000     -10.263335      -279.2796
   2   2.0000     -10.245021      -278.7812
   3   2.0000      -0.899124       -24.4664
   4   2.0000      -0.793994       -21.6057
   5   2.0000      -0.685941       -18.6654
   6   2.0000      -0.567303       -15.4371
   7   2.0000      -0.543091       -14.7783
   8   2.0000      -0.496293       -13.5048
   9   2.0000      -0.483736       -13.1631
  10   2.0000      -0.427632       -11.6365
  11   2.0000      -0.424828       -11.5602
  12   2.0000      -0.414509       -11.2794
  13   0.0000       0.102308         2.7839
  14   0.0000       0.127585         3.4718
  15   0.0000       0.134856         3.6696
  16   0.0000       0.167921         4.5694
  17   0.0000       0.186021         5.0619

MULLIKEN ATOMIC CHARGES
-----------------------
   0 C :   -0.635863
   1 H :   -0.062430
   2 C :    0.819731
   3 C :    0.528366
   4 H :   -0.071354
   5 H :   -0.150340
   6 H :   -0.130678
   7 H :   -0.192633
   8 H :   -0.010296
   9 H :   -0.036027
  10 H :   -0.058476
Sum of atomic charges:    0.0000000

LOEWDIN ATOMIC CHARGES
----------------------
   0 C :   -0.121690
   1 H :    0.022377
   2 C :    0.106423
   3 C :    0.107021
   4 H :    0.022197
   5 H :   -0.032826
   6 H :   -0.026117
   7 H :   -0.029178
   8 H :   -0.014384
   9 H :   -0.013061
  10 H :   -0.020762

  Mayer bond orders larger than 0.100000
B(  0-C ,  1-H ) :   0.9585 B(  0-C ,  2-C ) :   1.2719 B(  0-C ,  3-C ) :   1.2433
B(  0-C ,  4-H ) :   0.9653 B(  0-C ,  5-H ) :   0.1926 B(  0-C ,  6-H ) :   0.2362
B(  0-C ,  7-H ) :   0.1872 B(  0-C ,  8-H ) :   0.1434 B(  0-C ,  9-H ) :   0.1691
B(  0-C , 10-H ) :   0.1736 B(  1-H ,  2-C ) :   0.1156 B(  2-C ,  5-H ) :   0.7473
B(  2-C ,  6-H ) :   0.7142 B(  2-C ,  7-H ) :   0.7765 B(  3-C ,  8-H ) :   0.8509
B(  3-C ,  9-H ) :   0.8551 B(  3-C , 10-H ) :   0.8469

Dispersion correction           -0.001455677
FINAL SINGLE POINT ENERGY      -119.013313097073

DIPOLE MOMENT
-------------
                                X             Y             Z
Electronic contribution:      0.07990      -0.28861       0.24392
Nuclear contribution   :     -0.08172       0.30475      -0.19303
                        -----------------------------------------
Total Dipole Moment    :     -0.00182       0.01614       0.05089
                        -----------------------------------------
Magnitude (a.u.)       :      0.05342
Magnitude (Debye)      :      0.13579

Rotational constants in cm-1:     1.020248     0.295755     0.261591
Rotational constants in MHz : 30586.266829  8866.511639  7842.297953

                             ****ORCA TERMINATED NORMALLY****
TOTAL RUN TIME: 0 days 0 hours 0 minutes 6 seconds 656 msec
