                         Program Version 5.0.0 -  RELEASE  -
|  1> !wB97X-D3 RIJCOSX def2-SVPD def2/J TightSCF CPCM(Water) xyzfile
|  2>
|  3> *xyzfile 0 1 D.xyz
|  4>
|  5> %MaxCore 64000
|  6>
|  7> %pal nprocs 18
|  8> end
|  9>
| 10> %scf
| 11>   MaxIter 150
| 12> end
| 13>
| 14>
| 15>                          ****END OF INPUT****

CARTESIAN COORDINATES (ANGSTROEM)
---------------------------------
  C      3.956426    0.501466   -0.379100
  H      3.168398    0.029201    0.207383
  C      3.803893    1.961572   -0.156747
  C      3.842322    0.148490   -1.854058
  H      4.923231    0.177982    0.009371
  H      4.620021    0.694502   -2.402150
  H      4.096015   -0.910930   -1.955103
  C      2.475619    0.412708   -2.485377
  H      2.174689    1.445076   -2.287971
  C      1.383931   -0.532740   -1.995203
  H      2.575613    0.318574   -3.571460
  H      1.264698   -0.412309   -0.915491
  H      1.705223   -1.566885   -2.164984
  C      0.031398   -0.317260   -2.677791
  C     -0.587292    1.060853   -2.436460
  H     -0.662815   -1.089530   -2.329985
  H      0.149465   -0.478040   -3.755648
  H      0.104376    1.828590   -2.793130
  C     -0.951213    1.334978   -0.972500
  H     -1.478832    1.161355   -3.062484
  H     -0.317007    0.741648   -0.311389
  H     -1.980916    1.012842   -0.788958
  C     -0.774550    2.788332   -0.543943
  H     -1.352609    3.459372   -1.192585
  H     -1.171014    2.902331    0.469968
  C      0.697208    3.227911   -0.525126
  F      1.489294    2.374703    0.199189
  H      0.715998    4.264030   -0.130774
  H      1.036148    3.330920   -1.583669
  H      4.206425    2.244406    0.745359
  H      2.808269    2.211323   -0.096097
  H      4.280757    2.501552   -0.891037

 Total Charge           Charge          ....    0
 Multiplicity           Mult            ....    1
 Number of Electrons    NEL             ....   90
 Basis Dimension        Dim             ....  391

ORBITAL ENERGIES
----------------

  NO   OCC          E(Eh)            E(eV)
   0   2.0000     -24.806585      -675.0215
   1   2.0000     -10.366817      -282.0954
   2   2.0000     -10.287509      -279.9374
   3   2.0000     -10.277376      -279.6616
   4   2.0000     -10.275319      -279.6057
   5   2.0000     -10.274943      -279.5954
   6   2.0000     -10.272421      -279.5268
   7   2.0000     -10.271708      -279.5074
   8   2.0000     -10.269677      -279.4521
   9   2.0000     -10.261735      -279.2360
  10   2.0000     -10.208605      -277.7903
  11   2.0000      -1.329173       -36.1686
  12   2.0000      -0.925696       -25.1895
  13   2.0000      -0.910430       -24.7741
  14   2.0000      -0.875397       -23.8208
  15   2.0000      -0.843978       -22.9658
  16   2.0000      -0.793837       -21.6014
  17   2.0000      -0.768910       -20.9231
  18   2.0000      -0.728192       -19.8151
  19   2.0000      -0.700027       -19.0487
  20   2.0000      -0.666881       -18.1468
  21   2.0000      -0.653966       -17.7953
  22   2.0000      -0.631066       -17.1722
  23   2.0000      -0.613210       -16.6863
  24   2.0000      -0.592385       -16.1196
  25   2.0000      -0.570080       -15.5127
  26   2.0000      -0.558402       -15.1949
  27   2.0000      -0.546459       -14.8699
  28   2.0000      -0.527572       -14.3560
  29   2.0000      -0.522052       -14.2058
  30   2.0000      -0.506954       -13.7949
  31   2.0000      -0.487600       -13.2683
  32   2.0000      -0.483849       -13.1662
  33   2.0000      -0.466508       -12.6943
  34   2.0000      -0.457677       -12.4540
  35   2.0000      -0.445734       -12.1290
  36   2.0000      -0.439937       -11.9713
  37   2.0000      -0.430084       -11.7032
  38   2.0000      -0.415021       -11.2933
  39   2.0000      -0.408027       -11.1030
  40   2.0000      -0.404016       -10.9938
  41   2.0000      -0.399748       -10.8777
  42   2.0000      -0.388960       -10.5841
  43   2.0000      -0.387624       -10.5478
  44   2.0000      -0.369068       -10.0429
  45   0.0000       0.098931         2.6921
  46   0.0000       0.105115         2.8603
  47   0.0000       0.110329         3.0022
  48   0.0000       0.112309         3.0561
  49   0.0000       0.127802         3.4777

MULLIKEN ATOMIC CHARGES
-----------------------
   0 C :   -0.128529
   1 H :    0.049087
   2 C :    2.758713
   3 C :    0.299885
   4 H :   -0.316140
   5 H :    0.004960
   6 H :   -0.048610
   7 C :    0.316450
   8 H :   -0.532778
   9 C :   -0.046491
  10 H :   -0.033726
  11 H :   -0.091970
  12 H :   -0.143143
  13 C :    0.512277
  14 C :    0.133580
  15 H :   -0.181930
  16 H :    0.065589
  17 H :   -0.125123
  18 C :    0.075388
  19 H :   -0.187308
  20 H :   -0.060947
  21 H :   -0.100121
  22 C :    0.104544
  23 H :   -0.055315
  24 H :    0.058291
  25 C :    0.575425
  26 F :   -0.591687
  27 H :   -0.158100
  28 H :    0.176566
  29 H :    0.107195
  30 H :   -2.314110
  31 H :   -0.121923
Sum of atomic charges:   -0.0000000

LOEWDIN ATOMIC CHARGES
----------------------
   0 C :   -0.058500
   1 H :    0.014050
   2 C :    0.130608
   3 C :   -0.039643
   4 H :    0.017794
   5 H :    0.023799
   6 H :    0.016620
   7 C :   -0.023191
   8 H :   -0.006438
   9 C :   -0.031918
  10 H :    0.028054
  11 H :   -0.000584
  12 H :    0.027199
  13 C :   -0.034045
  14 C :   -0.021824
  15 H :    0.023735
  16 H :    0.023660
  17 H :   -0.002330
  18 C :   -0.023348
  19 H :    0.023725
  20 H :   -0.000061
  21 H :    0.027427
  22 C :   -0.012011
  23 H :    0.041528
  24 H :    0.029299
  25 C :    0.162681
  26 F :   -0.194465
  27 H :    0.047390
  28 H :    0.037852
  29 H :   -0.026217
  30 H :   -0.175993
  31 H :   -0.024852

  Mayer bond orders larger than 0.100000
B(  0-C ,  1-H ) :   0.7953 B(  0-C ,  2-C ) :   0.6291 B(  0-C ,  3-C ) :   1.1371
B(  0-C ,  4-H ) :   1.0179 B(  0-C ,  5-H ) :   0.1082 B(  0-C ,  6-H ) :   0.1544
B(  0-C , 29-H ) :   0.1394 B(  0-C , 30-H ) :   0.8116 B(  0-C , 31-H ) :   0.3465
B(  1-H ,  2-C ) :   0.2934 B(  1-H ,  3-C ) :   0.1651 B(  1-H ,  4-H ) :  -0.1770
B(  1-H , 30-H ) :  -0.1682 B(  2-C ,  4-H ) :  -0.1796 B(  2-C , 26-F ) :  -0.3168
B(  2-C , 29-H ) :   0.7163 B(  2-C , 30-H ) :  -3.9528 B(  3-C ,  5-H ) :   0.7192
B(  3-C ,  6-H ) :   0.8654 B(  3-C ,  7-C ) :   1.2050 B(  4-H , 29-H ) :  -0.1394
B(  4-H , 30-H ) :   0.1607 B(  4-H , 31-H ) :   0.2504 B(  5-H ,  6-H ) :  -0.1276
B(  5-H ,  7-C ) :   0.2486 B(  5-H , 31-H ) :   0.1306 B(  6-H , 31-H ) :  -0.1506
B(  7-C ,  8-H ) :   0.8410 B(  7-C ,  9-C ) :   1.1743 B(  7-C , 10-H ) :   0.6868
B(  7-C , 11-H ) :   0.1027 B(  7-C , 12-H ) :   0.1509 B(  8-H ,  9-C ) :   0.1807
B(  8-H , 10-H ) :   0.1357 B(  8-H , 30-H ) :   0.1010 B(  9-C , 10-H ) :   0.1643
B(  9-C , 11-H ) :   0.8821 B(  9-C , 12-H ) :   0.9080 B(  9-C , 13-C ) :   1.1748
B(  9-C , 15-H ) :   0.2691 B(  9-C , 16-H ) :   0.1325 B( 11-H , 20-H ) :   0.1352
B( 13-C , 14-C ) :   1.1825 B( 13-C , 15-H ) :   0.7642 B( 13-C , 16-H ) :   0.6969
B( 13-C , 17-H ) :   0.1062 B( 14-C , 15-H ) :   0.1021 B( 14-C , 16-H ) :   0.2040
B( 14-C , 17-H ) :   0.8721 B( 14-C , 18-C ) :   1.1949 B( 14-C , 19-H ) :   0.8513
B( 14-C , 21-H ) :   0.2089 B( 15-H , 16-H ) :  -0.1203 B( 17-H , 18-C ) :   0.1049
B( 18-C , 19-H ) :   0.1830 B( 18-C , 20-H ) :   0.8399 B( 18-C , 21-H ) :   0.8647
B( 18-C , 22-C ) :   1.2131 B( 18-C , 24-H ) :   0.1948 B( 20-H , 22-C ) :   0.1158
B( 22-C , 23-H ) :   0.8665 B( 22-C , 24-H ) :   0.7260 B( 22-C , 25-C ) :   1.2718
B( 22-C , 27-H ) :   0.1065 B( 23-H , 25-C ) :   0.1515 B( 24-H , 25-C ) :   0.1157
B( 25-C , 26-F ) :   0.5501 B( 25-C , 27-H ) :   0.9850 B( 25-C , 28-H ) :   0.7699
B( 25-C , 30-H ) :   0.1952 B( 26-F , 30-H ) :   0.5075 B( 29-H , 30-H ) :   0.1228
B( 29-H , 31-H ) :  -0.2192 B( 30-H , 31-H ) :   0.8394

Dispersion correction           -0.014488145
FINAL SINGLE POINT ENERGY      -493.060372700068

DIPOLE MOMENT
-------------
                                X             Y             Z
Electronic contribution:     -2.17034       3.47097       4.14926
Nuclear contribution   :      1.09293      -2.80761      -4.51228
                        -----------------------------------------
Total Dipole Moment    :     -1.07741       0.66336      -0.36302
                        -----------------------------------------
Magnitude (a.u.)       :      1.31630
Magnitude (Debye)      :      3.34578

Rotational constants in cm-1:     0.040502     0.027818     0.018259
Rotational constants in MHz :  1214.218058   833.972871   547.398614

                             ****ORCA TERMINATED NORMALLY****
TOTAL RUN TIME: 0 days 0 hours 0 minutes 57 seconds 130 msec
