                         Program Version 5.0.0 -  RELEASE  -
|  1> !TPSS D3BJ RIJCOSX def2-SVPD def2/J TightSCF
|  2> *xyz -1 1
|  3> C         -5.57236       -5.80780       -0.81644
|  4> S         -6.90318       -4.61903       -0.52846
|  5> O         -8.11485       -5.25093       -0.95701
|  6> O         -6.53271       -3.42684       -1.31485
|  7> O         -6.86563       -4.29496        0.91412
|  8> C         -4.45780       -5.94187        0.22919
|  9> H         -5.17735       -5.54257       -1.79771
| 10> H         -6.07420       -6.76889       -0.92127
| 11> H         -3.75515       -6.68239       -0.09144
| 12> H         -4.88182       -6.23486        1.16689
| 13> H         -3.95908       -5.00189        0.34143
| 14> *
| 15> %MaxCore 64000
| 16>
| 17> %pal nprocs 4
| 18> end
| 19>
| 20> %scf
| 21>   MaxIter 150
| 22> end
| 23>
| 24>                          ****END OF INPUT****

CARTESIAN COORDINATES (ANGSTROEM)
---------------------------------
  C     -5.572360   -5.807800   -0.816440
  S     -6.903180   -4.619030   -0.528460
  O     -8.114850   -5.250930   -0.957010
  O     -6.532710   -3.426840   -1.314850
  O     -6.865630   -4.294960    0.914120
  C     -4.457800   -5.941870    0.229190
  H     -5.177350   -5.542570   -1.797710
  H     -6.074200   -6.768890   -0.921270
  H     -3.755150   -6.682390   -0.091440
  H     -4.881820   -6.234860    1.166890
  H     -3.959080   -5.001890    0.341430

 Total Charge           Charge          ....   -1
 Multiplicity           Mult            ....    1
 Number of Electrons    NEL             ....   58
 Basis Dimension        Dim             ....  176

ORBITAL ENERGIES
----------------

  NO   OCC          E(Eh)            E(eV)
   0   2.0000     -88.365512     -2404.5478
   1   2.0000     -18.683412      -508.4015
   2   2.0000     -18.670088      -508.0389
   3   2.0000     -18.669349      -508.0188
   4   2.0000      -9.863344      -268.3952
   5   2.0000      -9.863012      -268.3862
   6   2.0000      -7.725416      -210.2193
   7   2.0000      -5.711458      -155.4167
   8   2.0000      -5.711253      -155.4111
   9   2.0000      -5.710523      -155.3912
  10   2.0000      -0.850987       -23.1565
  11   2.0000      -0.718269       -19.5451
  12   2.0000      -0.695064       -18.9137
  13   2.0000      -0.570644       -15.5280
  14   2.0000      -0.455845       -12.4042
  15   2.0000      -0.331178        -9.0118
  16   2.0000      -0.278147        -7.5688
  17   2.0000      -0.267565        -7.2808
  18   2.0000      -0.234519        -6.3816
  19   2.0000      -0.216682        -5.8962
  20   2.0000      -0.213545        -5.8109
  21   2.0000      -0.187870        -5.1122
  22   2.0000      -0.183410        -4.9909
  23   2.0000      -0.104496        -2.8435
  24   2.0000      -0.102348        -2.7850
  25   2.0000      -0.074173        -2.0183
  26   2.0000      -0.063527        -1.7287
  27   2.0000      -0.056530        -1.5383
  28   2.0000      -0.019843        -0.5400
  29   0.0000       0.130769         3.5584
  30   0.0000       0.160252         4.3607
  31   0.0000       0.168796         4.5932
  32   0.0000       0.174010         4.7351
  33   0.0000       0.195223         5.3123

MULLIKEN ATOMIC CHARGES
-----------------------
   0 C :   -0.389250
   1 S :    1.226961
   2 O :   -0.749711
   3 O :   -0.805525
   4 O :   -0.816916
   5 C :    0.673729
   6 H :    0.006418
   7 H :    0.018951
   8 H :   -0.095437
   9 H :   -0.021799
  10 H :   -0.047422
Sum of atomic charges:   -1.0000000

LOEWDIN ATOMIC CHARGES
----------------------
   0 C :   -0.119159
   1 S :    0.851117
   2 O :   -0.563649
   3 O :   -0.589955
   4 O :   -0.581955
   5 C :    0.110560
   6 H :   -0.007826
   7 H :   -0.013538
   8 H :   -0.039153
   9 H :   -0.026005
  10 H :   -0.020437

  Mayer bond orders larger than 0.100000
B(  0-C ,  1-S ) :   0.8584 B(  0-C ,  2-O ) :   0.1011 B(  0-C ,  5-C ) :   1.3065
B(  0-C ,  6-H ) :   0.9764 B(  0-C ,  7-H ) :   0.9799 B(  0-C ,  8-H ) :   0.2049
B(  0-C ,  9-H ) :   0.1993 B(  0-C , 10-H ) :   0.1883 B(  1-S ,  2-O ) :   1.3653
B(  1-S ,  3-O ) :   1.3096 B(  1-S ,  4-O ) :   1.2978 B(  5-C ,  8-H ) :   0.7788
B(  5-C ,  9-H ) :   0.8228 B(  5-C , 10-H ) :   0.8375

Dispersion correction           -0.011938165
FINAL SINGLE POINT ENERGY      -702.847758269055

DIPOLE MOMENT
-------------
                                X             Y             Z
Electronic contribution:     -6.69280       4.32948      -0.91321
Nuclear contribution   :      8.13140      -5.68016       0.80206
                        -----------------------------------------
Total Dipole Moment    :      1.43860      -1.35068      -0.11115
                        -----------------------------------------
Magnitude (a.u.)       :      1.97643
Magnitude (Debye)      :      5.02368

Rotational constants in cm-1:     0.162101     0.080498     0.079099
Rotational constants in MHz :  4859.669771  2413.267251  2371.338602

                             ****ORCA TERMINATED NORMALLY****
TOTAL RUN TIME: 0 days 0 hours 0 minutes 15 seconds 539 msec
