                         Program Version 5.0.0 -  RELEASE  -
|  1> !TPSS D3BJ RIJCOSX def2-SVPD def2/J TightSCF
|  2> *xyz 1 1
|  3> C         -4.38262       -1.67089        1.21620
|  4> N         -5.76354       -1.91517        0.70501
|  5> C         -3.28173       -2.19127        0.29436
|  6> H         -5.84081       -2.11520       -0.30065
|  7> H         -6.40882       -1.14866        0.93612
|  8> H         -6.17478       -2.79061        1.05143
|  9> H         -4.32862       -2.13922        2.19810
| 10> H         -4.26158       -0.59740        1.35725
| 11> H         -3.36057       -1.71407       -0.66008
| 12> H         -3.38775       -3.24919        0.17403
| 13> H         -2.32559       -1.97514        0.72329
| 14> *
| 15> %MaxCore 64000
| 16>
| 17> %pal nprocs 4
| 18> end
| 19>
| 20> %scf
| 21>   MaxIter 150
| 22> end
| 23>
| 24>                          ****END OF INPUT****

CARTESIAN COORDINATES (ANGSTROEM)
---------------------------------
  C     -4.382620   -1.670890    1.216200
  N     -5.763540   -1.915170    0.705010
  C     -3.281730   -2.191270    0.294360
  H     -5.840810   -2.115200   -0.300650
  H     -6.408820   -1.148660    0.936120
  H     -6.174780   -2.790610    1.051430
  H     -4.328620   -2.139220    2.198100
  H     -4.261580   -0.597400    1.357250
  H     -3.360570   -1.714070   -0.660080
  H     -3.387750   -3.249190    0.174030
  H     -2.325590   -1.975140    0.723290

 Total Charge           Charge          ....    1
 Multiplicity           Mult            ....    1
 Number of Electrons    NEL             ....   26
 Basis Dimension        Dim             ....  124

ORBITAL ENERGIES
----------------

  NO   OCC          E(Eh)            E(eV)
   0   2.0000     -14.453747      -393.3065
   1   2.0000     -10.256196      -279.0853
   2   2.0000     -10.178994      -276.9845
   3   2.0000      -1.147008       -31.2117
   4   2.0000      -0.907490       -24.6941
   5   2.0000      -0.798147       -21.7187
   6   2.0000      -0.753139       -20.4939
   7   2.0000      -0.732530       -19.9332
   8   2.0000      -0.662336       -18.0231
   9   2.0000      -0.601966       -16.3803
  10   2.0000      -0.546796       -14.8791
  11   2.0000      -0.530763       -14.4428
  12   2.0000      -0.514617       -14.0034
  13   0.0000      -0.207846        -5.6558
  14   0.0000      -0.156214        -4.2508
  15   0.0000      -0.152213        -4.1419
  16   0.0000      -0.135584        -3.6894
  17   0.0000      -0.105614        -2.8739

MULLIKEN ATOMIC CHARGES
-----------------------
   0 C :    0.210878
   1 N :   -0.838851
   2 C :    0.501728
   3 H :    0.399303
   4 H :    0.405026
   5 H :    0.377588
   6 H :   -0.040323
   7 H :   -0.007307
   8 H :   -0.018572
   9 H :    0.013610
  10 H :   -0.003082
Sum of atomic charges:    1.0000000

LOEWDIN ATOMIC CHARGES
----------------------
   0 C :    0.073973
   1 N :    0.330402
   2 C :    0.182449
   3 H :    0.100996
   4 H :    0.107706
   5 H :    0.103692
   6 H :    0.047771
   7 H :    0.047080
   8 H :   -0.002860
   9 H :   -0.003082
  10 H :    0.011873

  Mayer bond orders larger than 0.100000
B(  0-C ,  1-N ) :   0.6821 B(  0-C ,  2-C ) :   1.3542 B(  0-C ,  6-H ) :   0.9219
B(  0-C ,  7-H ) :   0.9226 B(  0-C ,  8-H ) :   0.1650 B(  0-C ,  9-H ) :   0.1482
B(  0-C , 10-H ) :   0.1685 B(  1-N ,  3-H ) :   0.7018 B(  1-N ,  4-H ) :   0.7118
B(  1-N ,  5-H ) :   0.7683 B(  2-C ,  8-H ) :   0.8524 B(  2-C ,  9-H ) :   0.8377
B(  2-C , 10-H ) :   0.8542

Dispersion correction           -0.007377888
FINAL SINGLE POINT ENERGY      -135.469262933510

DIPOLE MOMENT
-------------
                                X             Y             Z
Electronic contribution:     -1.78751       0.24155       0.30771
Nuclear contribution   :      0.19437      -0.25358      -0.32106
                        -----------------------------------------
Total Dipole Moment    :     -1.59314      -0.01203      -0.01335
                        -----------------------------------------
Magnitude (a.u.)       :      1.59324
Magnitude (Debye)      :      4.04971

Rotational constants in cm-1:     1.030014     0.272489     0.242697
Rotational constants in MHz : 30879.030706  8169.007780  7275.865152

                             ****ORCA TERMINATED NORMALLY****
TOTAL RUN TIME: 0 days 0 hours 0 minutes 8 seconds 679 msec
