                         Program Version 5.0.0 -  RELEASE  -
|  1> !TPSS D3BJ RIJCOSX def2-SVPD def2/J TightSCF
|  2> *xyz 0 1
|  3> C         -5.57236       -5.80780       -0.81644
|  4> S         -6.90318       -4.61903       -0.52846
|  5> F         -8.11485       -5.25093       -0.95701
|  6> O         -6.53271       -3.42684       -1.31485
|  7> O         -6.86563       -4.29496        0.91412
|  8> C         -4.45780       -5.94187        0.22919
|  9> H         -5.17735       -5.54257       -1.79771
| 10> H         -6.07420       -6.76889       -0.92127
| 11> H         -3.75515       -6.68239       -0.09144
| 12> H         -4.88182       -6.23486        1.16689
| 13> H         -3.95908       -5.00189        0.34143
| 14> *
| 15> %MaxCore 64000
| 16>
| 17> %pal nprocs 4
| 18> end
| 19>
| 20> %scf
| 21>   MaxIter 150
| 22> end
| 23>
| 24>                          ****END OF INPUT****

CARTESIAN COORDINATES (ANGSTROEM)
---------------------------------
  C     -5.572360   -5.807800   -0.816440
  S     -6.903180   -4.619030   -0.528460
  F     -8.114850   -5.250930   -0.957010
  O     -6.532710   -3.426840   -1.314850
  O     -6.865630   -4.294960    0.914120
  C     -4.457800   -5.941870    0.229190
  H     -5.177350   -5.542570   -1.797710
  H     -6.074200   -6.768890   -0.921270
  H     -3.755150   -6.682390   -0.091440
  H     -4.881820   -6.234860    1.166890
  H     -3.959080   -5.001890    0.341430

 Total Charge           Charge          ....    0
 Multiplicity           Mult            ....    1
 Number of Electrons    NEL             ....   58
 Basis Dimension        Dim             ....  176

ORBITAL ENERGIES
----------------

  NO   OCC          E(Eh)            E(eV)
   0   2.0000     -88.622270     -2411.5346
   1   2.0000     -24.546601      -667.9470
   2   2.0000     -18.903017      -514.3773
   3   2.0000     -18.902877      -514.3734
   4   2.0000     -10.065405      -273.8936
   5   2.0000     -10.025873      -272.8179
   6   2.0000      -7.983343      -217.2378
   7   2.0000      -5.973759      -162.5542
   8   2.0000      -5.966908      -162.3678
   9   2.0000      -5.965275      -162.3234
  10   2.0000      -1.301769       -35.4229
  11   2.0000      -1.022238       -27.8165
  12   2.0000      -0.925095       -25.1731
  13   2.0000      -0.761202       -20.7134
  14   2.0000      -0.682289       -18.5660
  15   2.0000      -0.626737       -17.0544
  16   2.0000      -0.538883       -14.6638
  17   2.0000      -0.534354       -14.5405
  18   2.0000      -0.506450       -13.7812
  19   2.0000      -0.453400       -12.3376
  20   2.0000      -0.435367       -11.8469
  21   2.0000      -0.402391       -10.9496
  22   2.0000      -0.389735       -10.6052
  23   2.0000      -0.370081       -10.0704
  24   2.0000      -0.356844        -9.7102
  25   2.0000      -0.336835        -9.1657
  26   2.0000      -0.285173        -7.7600
  27   2.0000      -0.281766        -7.6673
  28   2.0000      -0.258100        -7.0233
  29   0.0000      -0.021646        -0.5890
  30   0.0000      -0.006500        -0.1769
  31   0.0000       0.018465         0.5025
  32   0.0000       0.026159         0.7118
  33   0.0000       0.030718         0.8359

MULLIKEN ATOMIC CHARGES
-----------------------
   0 C :   -0.404563
   1 S :    1.407694
   2 F :   -0.368097
   3 O :   -0.668244
   4 O :   -0.680903
   5 C :    0.675681
   6 H :    0.048459
   7 H :    0.064750
   8 H :   -0.057294
   9 H :    0.003395
  10 H :   -0.020877
Sum of atomic charges:   -0.0000000

LOEWDIN ATOMIC CHARGES
----------------------
   0 C :   -0.083434
   1 S :    1.116369
   2 F :   -0.250512
   3 O :   -0.470817
   4 O :   -0.468083
   5 C :    0.155655
   6 H :    0.015408
   7 H :    0.004857
   8 H :   -0.007537
   9 H :   -0.009134
  10 H :   -0.002772

  Mayer bond orders larger than 0.100000
B(  0-C ,  1-S ) :   0.9147 B(  0-C ,  5-C ) :   1.3725 B(  0-C ,  6-H ) :   0.9709
B(  0-C ,  7-H ) :   0.9387 B(  0-C ,  8-H ) :   0.1944 B(  0-C ,  9-H ) :   0.1943
B(  0-C , 10-H ) :   0.1777 B(  1-S ,  2-F ) :   0.7081 B(  1-S ,  3-O ) :   1.5113
B(  1-S ,  4-O ) :   1.4963 B(  5-C ,  8-H ) :   0.7728 B(  5-C ,  9-H ) :   0.8194
B(  5-C , 10-H ) :   0.8384

Dispersion correction           -0.011411662
FINAL SINGLE POINT ENERGY      -727.333136497068

DIPOLE MOMENT
-------------
                                X             Y             Z
Electronic contribution:     -9.36832       3.61147      -1.83705
Nuclear contribution   :      9.80704      -5.24335       1.35017
                        -----------------------------------------
Total Dipole Moment    :      0.43871      -1.63188      -0.48687
                        -----------------------------------------
Magnitude (a.u.)       :      1.75856
Magnitude (Debye)      :      4.46991

Rotational constants in cm-1:     0.156316     0.078308     0.076228
Rotational constants in MHz :  4686.224999  2347.601204  2285.245115

                             ****ORCA TERMINATED NORMALLY****
TOTAL RUN TIME: 0 days 0 hours 0 minutes 14 seconds 766 msec
