                         Program Version 5.0.0 -  RELEASE  -
|  1> !TPSS D3BJ RIJCOSX def2-SVPD def2/J TightSCF
|  2> *xyz 0 1
|  3> C         -4.38262       -1.67089        1.21620
|  4> C         -5.76354       -1.91517        0.70501
|  5> C         -3.28173       -2.19127        0.29436
|  6> H         -5.84081       -2.11520       -0.30065
|  7> H         -6.40882       -1.14866        0.93612
|  8> H         -6.17478       -2.79061        1.05143
|  9> H         -4.32862       -2.13922        2.19810
| 10> H         -4.26158       -0.59740        1.35725
| 11> H         -3.36057       -1.71407       -0.66008
| 12> H         -3.38775       -3.24919        0.17403
| 13> H         -2.32559       -1.97514        0.72329
| 14> *
| 15> %MaxCore 64000
| 16>
| 17> %pal nprocs 4
| 18> end
| 19>
| 20> %scf
| 21>   MaxIter 150
| 22> end
| 23>
| 24>                          ****END OF INPUT****

CARTESIAN COORDINATES (ANGSTROEM)
---------------------------------
  C     -4.382620   -1.670890    1.216200
  C     -5.763540   -1.915170    0.705010
  C     -3.281730   -2.191270    0.294360
  H     -5.840810   -2.115200   -0.300650
  H     -6.408820   -1.148660    0.936120
  H     -6.174780   -2.790610    1.051430
  H     -4.328620   -2.139220    2.198100
  H     -4.261580   -0.597400    1.357250
  H     -3.360570   -1.714070   -0.660080
  H     -3.387750   -3.249190    0.174030
  H     -2.325590   -1.975140    0.723290

 Total Charge           Charge          ....    0
 Multiplicity           Mult            ....    1
 Number of Electrons    NEL             ....   26
 Basis Dimension        Dim             ....  124

ORBITAL ENERGIES
----------------

  NO   OCC          E(Eh)            E(eV)
   0   2.0000      -9.989146      -271.8185
   1   2.0000      -9.982253      -271.6309
   2   2.0000      -9.964163      -271.1387
   3   2.0000      -0.724391       -19.7117
   4   2.0000      -0.633966       -17.2511
   5   2.0000      -0.538023       -14.6404
   6   2.0000      -0.420845       -11.4518
   7   2.0000      -0.400357       -10.8943
   8   2.0000      -0.370669       -10.0864
   9   2.0000      -0.347713        -9.4617
  10   2.0000      -0.304643        -8.2898
  11   2.0000      -0.297521        -8.0959
  12   2.0000      -0.287547        -7.8246
  13   0.0000       0.017064         0.4643
  14   0.0000       0.046465         1.2644
  15   0.0000       0.052223         1.4211
  16   0.0000       0.072625         1.9762
  17   0.0000       0.097199         2.6449

MULLIKEN ATOMIC CHARGES
-----------------------
   0 C :   -0.565370
   1 C :    0.872314
   2 C :    0.564955
   3 H :   -0.293817
   4 H :   -0.140598
   5 H :   -0.179167
   6 H :   -0.105826
   7 H :   -0.039980
   8 H :   -0.004532
   9 H :   -0.045202
  10 H :   -0.062777
Sum of atomic charges:   -0.0000000

LOEWDIN ATOMIC CHARGES
----------------------
   0 C :   -0.095935
   1 C :    0.126328
   2 C :    0.125568
   3 H :   -0.041814
   4 H :   -0.035769
   5 H :   -0.039376
   6 H :    0.014420
   7 H :    0.013682
   8 H :   -0.020404
   9 H :   -0.020429
  10 H :   -0.026271

  Mayer bond orders larger than 0.100000
B(  0-C ,  1-C ) :   1.2931 B(  0-C ,  2-C ) :   1.2815 B(  0-C ,  3-H ) :   0.1833
B(  0-C ,  4-H ) :   0.1922 B(  0-C ,  5-H ) :   0.2257 B(  0-C ,  6-H ) :   0.9455
B(  0-C ,  7-H ) :   0.9318 B(  0-C ,  8-H ) :   0.1532 B(  0-C ,  9-H ) :   0.1704
B(  0-C , 10-H ) :   0.2018 B(  1-C ,  3-H ) :   0.6847 B(  1-C ,  4-H ) :   0.7432
B(  1-C ,  5-H ) :   0.6371 B(  1-C ,  6-H ) :   0.1179 B(  2-C ,  8-H ) :   0.8446
B(  2-C ,  9-H ) :   0.8509 B(  2-C , 10-H ) :   0.8145 B(  3-H ,  5-H ) :   0.3229

Dispersion correction           -0.007403613
FINAL SINGLE POINT ENERGY      -119.069856606788

DIPOLE MOMENT
-------------
                                X             Y             Z
Electronic contribution:      0.18873       0.23975       0.33922
Nuclear contribution   :     -0.21528      -0.24783      -0.32864
                        -----------------------------------------
Total Dipole Moment    :     -0.02655      -0.00808       0.01058
                        -----------------------------------------
Magnitude (a.u.)       :      0.02970
Magnitude (Debye)      :      0.07549

Rotational constants in cm-1:     1.037566     0.286459     0.254172
Rotational constants in MHz : 31105.431429  8587.814531  7619.871198

                             ****ORCA TERMINATED NORMALLY****
TOTAL RUN TIME: 0 days 0 hours 0 minutes 8 seconds 826 msec
