                         Program Version 5.0.0 -  RELEASE  -
|  1> !TPSS D3BJ RIJCOSX def2-SVPD def2/J TightSCF
|  2> *xyz 0 1
|  3> C         -5.57236       -5.80780       -0.81644
|  4> S         -6.90318       -4.61903       -0.52846
|  5> O         -8.11485       -5.25093       -0.95701
|  6> F         -6.53271       -3.42684       -1.31485
|  7> O         -6.86563       -4.29496        0.91412
|  8> C         -4.45780       -5.94187        0.22919
|  9> H         -5.17735       -5.54257       -1.79771
| 10> H         -6.07420       -6.76889       -0.92127
| 11> H         -3.75515       -6.68239       -0.09144
| 12> H         -4.88182       -6.23486        1.16689
| 13> H         -3.95908       -5.00189        0.34143
| 14> *
| 15> %MaxCore 64000
| 16>
| 17> %pal nprocs 4
| 18> end
| 19>
| 20> %scf
| 21>   MaxIter 150
| 22> end
| 23>
| 24>                          ****END OF INPUT****

CARTESIAN COORDINATES (ANGSTROEM)
---------------------------------
  C     -5.572360   -5.807800   -0.816440
  S     -6.903180   -4.619030   -0.528460
  O     -8.114850   -5.250930   -0.957010
  F     -6.532710   -3.426840   -1.314850
  O     -6.865630   -4.294960    0.914120
  C     -4.457800   -5.941870    0.229190
  H     -5.177350   -5.542570   -1.797710
  H     -6.074200   -6.768890   -0.921270
  H     -3.755150   -6.682390   -0.091440
  H     -4.881820   -6.234860    1.166890
  H     -3.959080   -5.001890    0.341430

 Total Charge           Charge          ....    0
 Multiplicity           Mult            ....    1
 Number of Electrons    NEL             ....   58
 Basis Dimension        Dim             ....  176

ORBITAL ENERGIES
----------------

  NO   OCC          E(Eh)            E(eV)
   0   2.0000     -88.620048     -2411.4741
   1   2.0000     -24.525461      -667.3717
   2   2.0000     -18.916800      -514.7523
   3   2.0000     -18.902747      -514.3699
   4   2.0000     -10.064588      -273.8714
   5   2.0000     -10.025183      -272.7991
   6   2.0000      -7.981158      -217.1783
   7   2.0000      -5.971295      -162.4872
   8   2.0000      -5.964995      -162.3158
   9   2.0000      -5.963290      -162.2694
  10   2.0000      -1.265500       -34.4360
  11   2.0000      -1.038729       -28.2653
  12   2.0000      -0.940473       -25.5916
  13   2.0000      -0.760749       -20.7010
  14   2.0000      -0.669618       -18.2212
  15   2.0000      -0.619042       -16.8450
  16   2.0000      -0.527023       -14.3410
  17   2.0000      -0.509035       -13.8516
  18   2.0000      -0.500395       -13.6164
  19   2.0000      -0.451561       -12.2876
  20   2.0000      -0.435539       -11.8516
  21   2.0000      -0.410522       -11.1709
  22   2.0000      -0.392380       -10.6772
  23   2.0000      -0.367670       -10.0048
  24   2.0000      -0.362246        -9.8572
  25   2.0000      -0.343260        -9.3406
  26   2.0000      -0.298242        -8.1156
  27   2.0000      -0.285710        -7.7746
  28   2.0000      -0.270478        -7.3601
  29   0.0000      -0.021152        -0.5756
  30   0.0000      -0.003152        -0.0858
  31   0.0000       0.017788         0.4840
  32   0.0000       0.028323         0.7707
  33   0.0000       0.031555         0.8586

MULLIKEN ATOMIC CHARGES
-----------------------
   0 C :   -0.404933
   1 S :    1.408824
   2 O :   -0.628062
   3 F :   -0.404197
   4 O :   -0.689751
   5 C :    0.699593
   6 H :    0.045761
   7 H :    0.067165
   8 H :   -0.059069
   9 H :    0.003113
  10 H :   -0.038442
Sum of atomic charges:   -0.0000000

LOEWDIN ATOMIC CHARGES
----------------------
   0 C :   -0.078084
   1 S :    1.113466
   2 O :   -0.447991
   3 F :   -0.270675
   4 O :   -0.467182
   5 C :    0.148427
   6 H :    0.010086
   7 H :    0.017763
   8 H :   -0.009226
   9 H :   -0.007856
  10 H :   -0.008727

  Mayer bond orders larger than 0.100000
B(  0-C ,  1-S ) :   0.9247 B(  0-C ,  5-C ) :   1.3591 B(  0-C ,  6-H ) :   0.9472
B(  0-C ,  7-H ) :   0.9735 B(  0-C ,  8-H ) :   0.1968 B(  0-C ,  9-H ) :   0.1934
B(  0-C , 10-H ) :   0.1832 B(  1-S ,  2-O ) :   1.5651 B(  1-S ,  3-F ) :   0.6478
B(  1-S ,  4-O ) :   1.5012 B(  5-C ,  8-H ) :   0.7709 B(  5-C ,  9-H ) :   0.8226
B(  5-C , 10-H ) :   0.8350

Dispersion correction           -0.011392294
FINAL SINGLE POINT ENERGY      -727.351809752621

DIPOLE MOMENT
-------------
                                X             Y             Z
Electronic contribution:     -6.74004       6.66188      -2.45239
Nuclear contribution   :      8.15840      -7.14411       1.72305
                        -----------------------------------------
Total Dipole Moment    :      1.41836      -0.48223      -0.72933
                        -----------------------------------------
Magnitude (a.u.)       :      1.66620
Magnitude (Debye)      :      4.23514

Rotational constants in cm-1:     0.153926     0.078297     0.077402
Rotational constants in MHz :  4614.585804  2347.272644  2320.438903

                             ****ORCA TERMINATED NORMALLY****
TOTAL RUN TIME: 0 days 0 hours 0 minutes 14 seconds 352 msec
