                         Program Version 5.0.0 -  RELEASE  -
|  1> !TPSS D3BJ RIJCOSX def2-SVPD def2/J TightSCF
|  2> *xyz 0 1
|  3> C         -5.57236       -5.80780       -0.81644
|  4> S         -6.90318       -4.61903       -0.52846
|  5> O         -8.11485       -5.25093       -0.95701
|  6> O         -6.53271       -3.42684       -1.31485
|  7> F         -6.86563       -4.29496        0.91412
|  8> C         -4.45780       -5.94187        0.22919
|  9> H         -5.17735       -5.54257       -1.79771
| 10> H         -6.07420       -6.76889       -0.92127
| 11> H         -3.75515       -6.68239       -0.09144
| 12> H         -4.88182       -6.23486        1.16689
| 13> H         -3.95908       -5.00189        0.34143
| 14> *
| 15> %MaxCore 64000
| 16>
| 17> %pal nprocs 4
| 18> end
| 19>
| 20> %scf
| 21>   MaxIter 150
| 22> end
| 23>
| 24>                          ****END OF INPUT****

CARTESIAN COORDINATES (ANGSTROEM)
---------------------------------
  C     -5.572360   -5.807800   -0.816440
  S     -6.903180   -4.619030   -0.528460
  O     -8.114850   -5.250930   -0.957010
  O     -6.532710   -3.426840   -1.314850
  F     -6.865630   -4.294960    0.914120
  C     -4.457800   -5.941870    0.229190
  H     -5.177350   -5.542570   -1.797710
  H     -6.074200   -6.768890   -0.921270
  H     -3.755150   -6.682390   -0.091440
  H     -4.881820   -6.234860    1.166890
  H     -3.959080   -5.001890    0.341430

 Total Charge           Charge          ....    0
 Multiplicity           Mult            ....    1
 Number of Electrons    NEL             ....   58
 Basis Dimension        Dim             ....  176

ORBITAL ENERGIES
----------------

  NO   OCC          E(Eh)            E(eV)
   0   2.0000     -88.619662     -2411.4636
   1   2.0000     -24.524429      -667.3436
   2   2.0000     -18.916565      -514.7459
   3   2.0000     -18.902104      -514.3524
   4   2.0000     -10.063968      -273.8545
   5   2.0000     -10.031824      -272.9798
   6   2.0000      -7.980775      -217.1679
   7   2.0000      -5.970953      -162.4779
   8   2.0000      -5.964669      -162.3069
   9   2.0000      -5.962841      -162.2571
  10   2.0000      -1.262799       -34.3625
  11   2.0000      -1.039367       -28.2826
  12   2.0000      -0.941226       -25.6121
  13   2.0000      -0.763361       -20.7721
  14   2.0000      -0.666912       -18.1476
  15   2.0000      -0.623513       -16.9667
  16   2.0000      -0.531832       -14.4719
  17   2.0000      -0.508469       -13.8362
  18   2.0000      -0.492981       -13.4147
  19   2.0000      -0.455982       -12.4079
  20   2.0000      -0.429197       -11.6790
  21   2.0000      -0.410874       -11.1805
  22   2.0000      -0.401600       -10.9281
  23   2.0000      -0.375751       -10.2247
  24   2.0000      -0.362823        -9.8729
  25   2.0000      -0.344655        -9.3785
  26   2.0000      -0.298800        -8.1308
  27   2.0000      -0.284245        -7.7347
  28   2.0000      -0.270242        -7.3537
  29   0.0000      -0.028204        -0.7675
  30   0.0000       0.012157         0.3308
  31   0.0000       0.022137         0.6024
  32   0.0000       0.026811         0.7296
  33   0.0000       0.030775         0.8374

MULLIKEN ATOMIC CHARGES
-----------------------
   0 C :   -0.381823
   1 S :    1.393696
   2 O :   -0.624399
   3 O :   -0.677072
   4 F :   -0.415221
   5 C :    0.680063
   6 H :    0.053746
   7 H :    0.070087
   8 H :   -0.050784
   9 H :   -0.016447
  10 H :   -0.031845
Sum of atomic charges:   -0.0000000

LOEWDIN ATOMIC CHARGES
----------------------
   0 C :   -0.072021
   1 S :    1.112506
   2 O :   -0.447659
   3 O :   -0.472092
   4 F :   -0.268809
   5 C :    0.142594
   6 H :    0.023761
   7 H :    0.012429
   8 H :   -0.008716
   9 H :   -0.013768
  10 H :   -0.008225

  Mayer bond orders larger than 0.100000
B(  0-C ,  1-S ) :   0.9297 B(  0-C ,  5-C ) :   1.3357 B(  0-C ,  6-H ) :   0.9626
B(  0-C ,  7-H ) :   0.9687 B(  0-C ,  8-H ) :   0.2001 B(  0-C ,  9-H ) :   0.1833
B(  0-C , 10-H ) :   0.1716 B(  1-S ,  2-O ) :   1.5628 B(  1-S ,  3-O ) :   1.5080
B(  1-S ,  4-F ) :   0.6476 B(  5-C ,  8-H ) :   0.7731 B(  5-C ,  9-H ) :   0.8264
B(  5-C , 10-H ) :   0.8414

Dispersion correction           -0.011341550
FINAL SINGLE POINT ENERGY      -727.352053043859

DIPOLE MOMENT
-------------
                                X             Y             Z
Electronic contribution:     -7.27901       5.18499       1.26765
Nuclear contribution   :      8.50531      -6.23950      -0.59960
                        -----------------------------------------
Total Dipole Moment    :      1.22630      -1.05451       0.66804
                        -----------------------------------------
Magnitude (a.u.)       :      1.74988
Magnitude (Debye)      :      4.44785

Rotational constants in cm-1:     0.152799     0.080212     0.076962
Rotational constants in MHz :  4580.804531  2404.707790  2307.252710

                             ****ORCA TERMINATED NORMALLY****
TOTAL RUN TIME: 0 days 0 hours 0 minutes 14 seconds 446 msec
