                         Program Version 5.0.0 -  RELEASE  -
|  1> !TPSS D3BJ RIJCOSX def2-SVPD def2/J TightSCF xyzfile
|  2>
|  3> *xyzfile 0 1 D1.xyz
|  4>
|  5> %MaxCore 64000
|  6>
|  7> %pal nprocs 4
|  8> end
|  9>
| 10> %scf
| 11>   MaxIter 150
| 12> end
| 13>
| 14>
| 15>                          ****END OF INPUT****

CARTESIAN COORDINATES (ANGSTROEM)
---------------------------------
  C     -4.382623   -1.670889    1.216201
  C     -5.763539   -1.915170    0.705012
  C     -3.281728   -2.191272    0.294361
  C     -5.572364   -5.807798   -0.816445
  S     -6.903179   -4.619033   -0.528458
  H     -5.840812   -2.115205   -0.300646
  H     -6.408823   -1.148656    0.936124
  H     -6.174781   -2.790606    1.051433
  F     -8.114853   -5.250932   -0.957007
  O     -6.532715   -3.426838   -1.314848
  H     -4.328618   -2.139223    2.198103
  H     -4.261583   -0.597399    1.357248
  O     -6.865632   -4.294957    0.914118
  C     -3.474641   -3.605898   -0.259608
  H     -2.354548   -2.127602    0.871433
  H     -3.166611   -1.499693   -0.545037
  C     -3.827078   -4.661097    0.786174
  H     -2.560559   -3.889391   -0.788050
  H     -4.255932   -3.570040   -1.019300
  C     -4.457800   -5.941875    0.229195
  H     -5.177347   -5.542575   -1.797714
  H     -6.074202   -6.768894   -0.921272
  H     -4.530506   -4.253640    1.511979
  H     -2.933400   -4.932302    1.356825
  H     -3.681064   -6.562236   -0.229885
  H     -4.843942   -6.512728    1.075805

 Total Charge           Charge          ....    0
 Multiplicity           Mult            ....    1
 Number of Electrons    NEL             ....   98
 Basis Dimension        Dim             ....  356

ORBITAL ENERGIES
----------------

  NO   OCC          E(Eh)            E(eV)
   0   2.0000     -88.630279     -2411.7525
   1   2.0000     -24.550875      -668.0633
   2   2.0000     -18.911412      -514.6057
   3   2.0000     -18.910369      -514.5773
   4   2.0000     -10.065527      -273.8969
   5   2.0000     -10.030291      -272.9381
   6   2.0000      -9.998395      -272.0701
   7   2.0000      -9.987974      -271.7866
   8   2.0000      -9.979435      -271.5542
   9   2.0000      -9.965781      -271.1827
  10   2.0000      -9.912100      -269.7220
  11   2.0000      -7.990062      -217.4206
  12   2.0000      -5.980448      -162.7363
  13   2.0000      -5.973783      -162.5549
  14   2.0000      -5.972153      -162.5105
  15   2.0000      -1.305144       -35.5148
  16   2.0000      -1.034034       -28.1375
  17   2.0000      -0.937052       -25.4985
  18   2.0000      -0.772392       -21.0179
  19   2.0000      -0.732237       -19.9252
  20   2.0000      -0.693746       -18.8778
  21   2.0000      -0.668425       -18.1888
  22   2.0000      -0.634747       -17.2724
  23   2.0000      -0.591289       -16.0898
  24   2.0000      -0.559484       -15.2243
  25   2.0000      -0.541346       -14.7308
  26   2.0000      -0.530358       -14.4318
  27   2.0000      -0.506562       -13.7843
  28   2.0000      -0.491286       -13.3686
  29   2.0000      -0.452368       -12.3095
  30   2.0000      -0.451435       -12.2842
  31   2.0000      -0.426106       -11.5949
  32   2.0000      -0.422535       -11.4978
  33   2.0000      -0.401096       -10.9144
  34   2.0000      -0.394066       -10.7231
  35   2.0000      -0.373384       -10.1603
  36   2.0000      -0.372374       -10.1328
  37   2.0000      -0.349306        -9.5051
  38   2.0000      -0.341285        -9.2868
  39   2.0000      -0.337619        -9.1871
  40   2.0000      -0.307840        -8.3768
  41   2.0000      -0.301852        -8.2138
  42   2.0000      -0.297192        -8.0870
  43   2.0000      -0.295373        -8.0375
  44   2.0000      -0.286686        -7.8011
  45   2.0000      -0.274415        -7.4672
  46   2.0000      -0.260817        -7.0972
  47   2.0000      -0.253030        -6.8853
  48   2.0000      -0.231507        -6.2996
  49   0.0000      -0.023567        -0.6413
  50   0.0000      -0.010652        -0.2899
  51   0.0000       0.015109         0.4112
  52   0.0000       0.018993         0.5168
  53   0.0000       0.020021         0.5448

MULLIKEN ATOMIC CHARGES
-----------------------
   0 C :   -0.107934
   1 C :    1.715943
   2 C :    0.401912
   3 C :    0.124178
   4 S :    1.567631
   5 H :   -0.334087
   6 H :   -0.383116
   7 H :   -0.755036
   8 F :   -0.527630
   9 O :   -0.686043
  10 H :    0.154948
  11 H :   -0.376837
  12 O :   -0.761365
  13 C :    0.073317
  14 H :   -0.037905
  15 H :    0.081109
  16 C :   -0.027177
  17 H :   -0.306269
  18 H :   -0.021917
  19 C :    0.417064
  20 H :    0.175678
  21 H :   -0.217363
  22 H :    0.039147
  23 H :   -0.235278
  24 H :   -0.002914
  25 H :    0.029945
Sum of atomic charges:    0.0000000

LOEWDIN ATOMIC CHARGES
----------------------
   0 C :   -0.037086
   1 C :    0.148816
   2 C :   -0.015891
   3 C :   -0.032405
   4 S :    1.178469
   5 H :   -0.096145
   6 H :   -0.023261
   7 H :   -0.134946
   8 F :   -0.242242
   9 O :   -0.451414
  10 H :    0.010821
  11 H :    0.010333
  12 O :   -0.440525
  13 C :   -0.001628
  14 H :    0.010869
  15 H :    0.021235
  16 C :   -0.000257
  17 H :    0.018566
  18 H :   -0.018760
  19 C :   -0.005959
  20 H :    0.017761
  21 H :    0.005353
  22 H :   -0.005524
  23 H :    0.026409
  24 H :    0.030761
  25 H :    0.026649

  Mayer bond orders larger than 0.100000
B(  0-C ,  1-C ) :   1.0751 B(  0-C ,  2-C ) :   1.1535 B(  0-C ,  5-H ) :   0.3321
B(  0-C ,  7-H ) :   0.3925 B(  0-C , 10-H ) :   0.6827 B(  0-C , 11-H ) :   1.0594
B(  0-C , 14-H ) :   0.1737 B(  0-C , 15-H ) :   0.1552 B(  0-C , 16-C ) :   0.1021
B(  1-C ,  2-C ) :   0.1622 B(  1-C ,  6-H ) :   0.5989 B(  1-C ,  7-H ) :  -0.2687
B(  1-C , 10-H ) :   0.1947 B(  1-C , 17-H ) :   0.1157 B(  2-C , 10-H ) :   0.1211
B(  2-C , 13-C ) :   1.2726 B(  2-C , 14-H ) :   0.7762 B(  2-C , 15-H ) :   0.6664
B(  2-C , 17-H ) :   0.1091 B(  2-C , 18-H ) :   0.1128 B(  3-C ,  4-S ) :   0.9223
B(  3-C ,  8-F ) :   0.1195 B(  3-C , 19-C ) :   1.2562 B(  3-C , 20-H ) :   0.8582
B(  3-C , 21-H ) :   0.8798 B(  3-C , 24-H ) :   0.1281 B(  3-C , 25-H ) :   0.1183
B(  4-S ,  8-F ) :   0.5712 B(  4-S ,  9-O ) :   1.3710 B(  4-S , 12-O ) :   1.3617
B(  5-H ,  6-H ) :  -0.1104 B(  5-H ,  7-H ) :   0.9079 B(  5-H ,  9-O ) :   0.1632
B(  5-H , 11-H ) :   0.1535 B(  5-H , 18-H ) :   0.1574 B(  6-H , 11-H ) :  -0.1320
B(  6-H , 17-H ) :   0.1099 B(  6-H , 18-H ) :  -0.1393 B(  7-H , 10-H ) :  -0.1127
B(  7-H , 11-H ) :   0.1096 B(  7-H , 17-H ) :  -0.1244 B(  9-O , 12-O ) :   0.1920
B( 10-H , 11-H ) :  -0.2018 B( 10-H , 22-H ) :   0.1367 B( 11-H , 14-H ) :   0.1063
B( 13-C , 14-H ) :   0.1701 B( 13-C , 15-H ) :   0.2273 B( 13-C , 16-C ) :   1.1983
B( 13-C , 17-H ) :   0.8708 B( 13-C , 18-H ) :   0.8067 B( 13-C , 22-H ) :   0.1098
B( 13-C , 23-H ) :   0.1709 B( 16-C , 17-H ) :   0.1894 B( 16-C , 18-H ) :   0.1701
B( 16-C , 19-C ) :   1.2678 B( 16-C , 22-H ) :   0.8646 B( 16-C , 23-H ) :   0.8642
B( 16-C , 24-H ) :   0.1327 B( 16-C , 25-H ) :   0.2353 B( 19-C , 21-H ) :   0.2135
B( 19-C , 24-H ) :   0.7647 B( 19-C , 25-H ) :   0.6825

Dispersion correction           -0.038481753
FINAL SINGLE POINT ENERGY      -923.771735671069

DIPOLE MOMENT
-------------
                                X             Y             Z
Electronic contribution:    -18.92117      -8.60074      -6.69688
Nuclear contribution   :     19.08524       6.89775       6.14221
                        -----------------------------------------
Total Dipole Moment    :      0.16407      -1.70299      -0.55467
                        -----------------------------------------
Magnitude (a.u.)       :      1.79854
Magnitude (Debye)      :      4.57152

Rotational constants in cm-1:     0.049343     0.024787     0.019726
Rotational constants in MHz :  1479.262779   743.087234   591.370705

                             ****ORCA TERMINATED NORMALLY****
TOTAL RUN TIME: 0 days 0 hours 0 minutes 50 seconds 929 msec
