                         Program Version 5.0.0 -  RELEASE  -
|  1> !TPSS D3BJ RIJCOSX def2-SVPD def2/J TightSCF xyzfile
|  2>
|  3> *xyzfile 0 1 D2.xyz
|  4>
|  5> %MaxCore 64000
|  6>
|  7> %pal nprocs 4
|  8> end
|  9>
| 10> %scf
| 11>   MaxIter 150
| 12> end
| 13>
| 14>
| 15>                          ****END OF INPUT****

CARTESIAN COORDINATES (ANGSTROEM)
---------------------------------
  C     -4.382623   -1.670889    1.216201
  C     -5.763539   -1.915170    0.705012
  C     -3.281728   -2.191272    0.294361
  C     -5.572364   -5.807798   -0.816445
  S     -6.903179   -4.619033   -0.528458
  H     -5.840812   -2.115205   -0.300646
  H     -6.408823   -1.148656    0.936124
  H     -6.174781   -2.790606    1.051433
  O     -8.114853   -5.250932   -0.957007
  F     -6.532715   -3.426838   -1.314848
  H     -4.328618   -2.139223    2.198103
  H     -4.261583   -0.597399    1.357248
  O     -6.865632   -4.294957    0.914118
  C     -3.474641   -3.605898   -0.259608
  H     -2.354548   -2.127602    0.871433
  H     -3.166611   -1.499693   -0.545037
  C     -3.827078   -4.661097    0.786174
  H     -2.560559   -3.889391   -0.788050
  H     -4.255932   -3.570040   -1.019300
  C     -4.457800   -5.941875    0.229195
  H     -5.177347   -5.542575   -1.797714
  H     -6.074202   -6.768894   -0.921272
  H     -4.530506   -4.253640    1.511979
  H     -2.933400   -4.932302    1.356825
  H     -3.681064   -6.562236   -0.229885
  H     -4.843942   -6.512728    1.075805

 Total Charge           Charge          ....    0
 Multiplicity           Mult            ....    1
 Number of Electrons    NEL             ....   98
 Basis Dimension        Dim             ....  356

ORBITAL ENERGIES
----------------

  NO   OCC          E(Eh)            E(eV)
   0   2.0000     -88.625875     -2411.6327
   1   2.0000     -24.529284      -667.4757
   2   2.0000     -18.920556      -514.8545
   3   2.0000     -18.907239      -514.4921
   4   2.0000     -10.064022      -273.8560
   5   2.0000     -10.029944      -272.9287
   6   2.0000     -10.005148      -272.2539
   7   2.0000     -10.003533      -272.2100
   8   2.0000      -9.992594      -271.9123
   9   2.0000      -9.979948      -271.5682
  10   2.0000      -9.933229      -270.2969
  11   2.0000      -7.985730      -217.3028
  12   2.0000      -5.975873      -162.6118
  13   2.0000      -5.969728      -162.4446
  14   2.0000      -5.967880      -162.3943
  15   2.0000      -1.271946       -34.6114
  16   2.0000      -1.043579       -28.3972
  17   2.0000      -0.949206       -25.8292
  18   2.0000      -0.774553       -21.0767
  19   2.0000      -0.740746       -20.1567
  20   2.0000      -0.695712       -18.9313
  21   2.0000      -0.670655       -18.2494
  22   2.0000      -0.636698       -17.3254
  23   2.0000      -0.601411       -16.3652
  24   2.0000      -0.564510       -15.3611
  25   2.0000      -0.527809       -14.3624
  26   2.0000      -0.515765       -14.0347
  27   2.0000      -0.505287       -13.7495
  28   2.0000      -0.504753       -13.7350
  29   2.0000      -0.455549       -12.3961
  30   2.0000      -0.447546       -12.1783
  31   2.0000      -0.427316       -11.6278
  32   2.0000      -0.419304       -11.4098
  33   2.0000      -0.415213       -11.2985
  34   2.0000      -0.396946       -10.8014
  35   2.0000      -0.385569       -10.4919
  36   2.0000      -0.364054        -9.9064
  37   2.0000      -0.357456        -9.7269
  38   2.0000      -0.353228        -9.6118
  39   2.0000      -0.347982        -9.4691
  40   2.0000      -0.321877        -8.7587
  41   2.0000      -0.317053        -8.6275
  42   2.0000      -0.314708        -8.5637
  43   2.0000      -0.296993        -8.0816
  44   2.0000      -0.292535        -7.9603
  45   2.0000      -0.283437        -7.7127
  46   2.0000      -0.277717        -7.5571
  47   2.0000      -0.275412        -7.4943
  48   2.0000      -0.240098        -6.5334
  49   0.0000      -0.019470        -0.5298
  50   0.0000      -0.006062        -0.1649
  51   0.0000       0.007735         0.2105
  52   0.0000       0.018410         0.5010
  53   0.0000       0.021495         0.5849

MULLIKEN ATOMIC CHARGES
-----------------------
   0 C :   -0.104533
   1 C :    1.735272
   2 C :    0.389590
   3 C :    0.143709
   4 S :    1.456772
   5 H :   -0.360208
   6 H :   -0.386665
   7 H :   -0.741665
   8 O :   -0.718005
   9 F :   -0.422641
  10 H :    0.164501
  11 H :   -0.371285
  12 O :   -0.756856
  13 C :    0.050985
  14 H :   -0.033081
  15 H :    0.082117
  16 C :   -0.013586
  17 H :   -0.297538
  18 H :   -0.033648
  19 C :    0.433999
  20 H :    0.176982
  21 H :   -0.244216
  22 H :    0.023764
  23 H :   -0.201804
  24 H :   -0.001285
  25 H :    0.029324
Sum of atomic charges:    0.0000000

LOEWDIN ATOMIC CHARGES
----------------------
   0 C :   -0.033752
   1 C :    0.146839
   2 C :   -0.016379
   3 C :   -0.027060
   4 S :    1.151714
   5 H :   -0.080312
   6 H :   -0.021153
   7 H :   -0.138063
   8 O :   -0.431810
   9 F :   -0.272080
  10 H :    0.014674
  11 H :    0.012463
  12 O :   -0.434116
  13 C :   -0.005576
  14 H :    0.014146
  15 H :    0.020903
  16 C :   -0.002246
  17 H :    0.021347
  18 H :   -0.019646
  19 C :   -0.009870
  20 H :    0.012801
  21 H :    0.017763
  22 H :   -0.005917
  23 H :    0.027790
  24 H :    0.028617
  25 H :    0.028924

  Mayer bond orders larger than 0.100000
B(  0-C ,  1-C ) :   1.0708 B(  0-C ,  2-C ) :   1.1626 B(  0-C ,  5-H ) :   0.3387
B(  0-C ,  7-H ) :   0.3985 B(  0-C , 10-H ) :   0.6787 B(  0-C , 11-H ) :   1.0615
B(  0-C , 14-H ) :   0.1671 B(  0-C , 15-H ) :   0.1533 B(  0-C , 16-C ) :   0.1030
B(  1-C ,  2-C ) :   0.1581 B(  1-C ,  6-H ) :   0.6140 B(  1-C ,  7-H ) :  -0.2874
B(  1-C , 10-H ) :   0.1949 B(  1-C , 17-H ) :   0.1153 B(  2-C , 10-H ) :   0.1249
B(  2-C , 13-C ) :   1.2659 B(  2-C , 14-H ) :   0.7759 B(  2-C , 15-H ) :   0.6671
B(  2-C , 17-H ) :   0.1113 B(  2-C , 18-H ) :   0.1187 B(  3-C ,  4-S ) :   0.8918
B(  3-C ,  8-O ) :   0.1140 B(  3-C , 19-C ) :   1.2315 B(  3-C , 20-H ) :   0.8413
B(  3-C , 21-H ) :   0.9231 B(  3-C , 24-H ) :   0.1261 B(  3-C , 25-H ) :   0.1235
B(  4-S ,  8-O ) :   1.5519 B(  4-S ,  9-F ) :   0.5908 B(  4-S , 12-O ) :   1.4293
B(  5-H ,  6-H ) :  -0.1241 B(  5-H ,  7-H ) :   0.8970 B(  5-H ,  9-F ) :   0.1424
B(  5-H , 11-H ) :   0.1425 B(  5-H , 17-H ) :  -0.1023 B(  5-H , 18-H ) :   0.1508
B(  6-H ,  7-H ) :   0.1058 B(  6-H , 11-H ) :  -0.1315 B(  6-H , 17-H ) :   0.1124
B(  6-H , 18-H ) :  -0.1354 B(  7-H ,  9-F ) :   0.1016 B(  7-H , 10-H ) :  -0.1141
B(  7-H , 11-H ) :   0.1020 B(  7-H , 17-H ) :  -0.1324 B(  9-F , 12-O ) :   0.1131
B( 10-H , 11-H ) :  -0.1999 B( 10-H , 22-H ) :   0.1354 B( 11-H , 14-H ) :   0.1060
B( 13-C , 14-H ) :   0.1681 B( 13-C , 15-H ) :   0.2276 B( 13-C , 16-C ) :   1.1990
B( 13-C , 17-H ) :   0.9004 B( 13-C , 18-H ) :   0.8056 B( 13-C , 22-H ) :   0.1112
B( 13-C , 23-H ) :   0.1634 B( 16-C , 17-H ) :   0.1841 B( 16-C , 18-H ) :   0.1645
B( 16-C , 19-C ) :   1.2703 B( 16-C , 22-H ) :   0.8826 B( 16-C , 23-H ) :   0.8446
B( 16-C , 24-H ) :   0.1328 B( 16-C , 25-H ) :   0.2298 B( 19-C , 21-H ) :   0.1893
B( 19-C , 24-H ) :   0.7661 B( 19-C , 25-H ) :   0.6838

Dispersion correction           -0.038105237
FINAL SINGLE POINT ENERGY      -923.788762831961

DIPOLE MOMENT
-------------
                                X             Y             Z
Electronic contribution:    -15.99229      -5.36257      -7.18025
Nuclear contribution   :     17.25367       4.78608       6.55647
                        -----------------------------------------
Total Dipole Moment    :      1.26138      -0.57649      -0.62378
                        -----------------------------------------
Magnitude (a.u.)       :      1.52070
Magnitude (Debye)      :      3.86531

Rotational constants in cm-1:     0.048508     0.025517     0.020225
Rotational constants in MHz :  1454.219007   764.979652   606.316599

                             ****ORCA TERMINATED NORMALLY****
TOTAL RUN TIME: 0 days 0 hours 0 minutes 48 seconds 278 msec
