                         Program Version 5.0.0 -  RELEASE  -
|  1> !wB97X-D3 RIJCOSX def2-SVP def2/J TightSCF
|  2> *xyz -1 1
|  3> C          4.99986       -1.59613       -5.92488
|  4> C          3.76678       -2.26611       -6.51175
|  5> C          2.49670       -1.84416       -5.73570
|  6> H          1.62642       -2.21743       -6.30895
|  7> H          2.48182       -2.45607       -4.79341
|  8> O          2.45973       -0.50920       -5.50576
|  9> H          3.88619       -3.35708       -6.53360
| 10> H          3.68560       -1.92217       -7.54713
| 11> H          5.86637       -1.89999       -6.47418
| 12> H          5.10830       -1.88372       -4.89997
| 13> H          4.89230       -0.53341       -5.98765
| 14> *
| 15>
| 16> %MaxCore 64000
| 17>
| 18> %pal nprocs 18
| 19> end
| 20>
| 21> %scf
| 22>   MaxIter 150
| 23> end
| 24>
| 25>
| 26>                          ****END OF INPUT****

CARTESIAN COORDINATES (ANGSTROEM)
---------------------------------
  C      4.999860   -1.596130   -5.924880
  C      3.766780   -2.266110   -6.511750
  C      2.496700   -1.844160   -5.735700
  H      1.626420   -2.217430   -6.308950
  H      2.481820   -2.456070   -4.793410
  O      2.459730   -0.509200   -5.505760
  H      3.886190   -3.357080   -6.533600
  H      3.685600   -1.922170   -7.547130
  H      5.866370   -1.899990   -6.474180
  H      5.108300   -1.883720   -4.899970
  H      4.892300   -0.533410   -5.987650

 Total Charge           Charge          ....   -1
 Multiplicity           Mult            ....    1
 Number of Electrons    NEL             ....   34
 Basis Dimension        Dim             ....   91

ORBITAL ENERGIES
----------------

  NO   OCC          E(Eh)            E(eV)
   0   2.0000     -18.861216      -513.2398
   1   2.0000     -10.090867      -274.5865
   2   2.0000     -10.084146      -274.4035
   3   2.0000     -10.081058      -274.3195
   4   2.0000      -0.761123       -20.7112
   5   2.0000      -0.673721       -18.3329
   6   2.0000      -0.554669       -15.0933
   7   2.0000      -0.448636       -12.2080
   8   2.0000      -0.362875        -9.8743
   9   2.0000      -0.352038        -9.5794
  10   2.0000      -0.294347        -8.0096
  11   2.0000      -0.269818        -7.3421
  12   2.0000      -0.236749        -6.4423
  13   2.0000      -0.227121        -6.1803
  14   2.0000      -0.175513        -4.7760
  15   2.0000      -0.027553        -0.7498
  16   2.0000      -0.023991        -0.6528
  17   0.0000       0.316777         8.6199
  18   0.0000       0.354587         9.6488
  19   0.0000       0.363608         9.8943
  20   0.0000       0.384594        10.4653
  21   0.0000       0.395957        10.7745

MULLIKEN ATOMIC CHARGES
-----------------------
   0 C :    0.017836
   1 C :   -0.056478
   2 C :    0.281154
   3 H :   -0.154311
   4 H :   -0.170397
   5 O :   -0.699347
   6 H :   -0.084498
   7 H :   -0.049719
   8 H :   -0.058996
   9 H :   -0.026778
  10 H :    0.001532
Sum of atomic charges:   -1.0000000

LOEWDIN ATOMIC CHARGES
----------------------
   0 C :   -0.069465
   1 C :   -0.090921
   2 C :    0.010526
   3 H :   -0.076126
   4 H :   -0.084747
   5 O :   -0.650842
   6 H :   -0.026469
   7 H :   -0.009608
   8 H :   -0.016508
   9 H :    0.003479
  10 H :    0.010681

  Mayer bond orders larger than 0.100000
B(  0-C ,  1-C ) :   1.0803 B(  0-C ,  8-H ) :   0.9650 B(  0-C ,  9-H ) :   0.9688
B(  0-C , 10-H ) :   0.9522 B(  1-C ,  2-C ) :   0.9762 B(  1-C ,  6-H ) :   0.9273
B(  1-C ,  7-H ) :   0.9433 B(  2-C ,  3-H ) :   0.8895 B(  2-C ,  4-H ) :   0.8601
B(  2-C ,  5-O ) :   1.4914

Dispersion correction           -0.001912404
FINAL SINGLE POINT ENERGY      -193.516012440871

DIPOLE MOMENT
-------------
                                X             Y             Z
Electronic contribution:     -2.08480       2.26178       0.57445
Nuclear contribution   :      3.33375      -3.25054      -1.09297
                        -----------------------------------------
Total Dipole Moment    :      1.24896      -0.98876      -0.51852
                        -----------------------------------------
Magnitude (a.u.)       :      1.67523
Magnitude (Debye)      :      4.25810

Rotational constants in cm-1:     0.478390     0.193336     0.154822
Rotational constants in MHz : 14341.777399  5796.063993  4641.443060

                             ****ORCA TERMINATED NORMALLY****
TOTAL RUN TIME: 0 days 0 hours 0 minutes 6 seconds 170 msec
