                         Program Version 5.0.0 -  RELEASE  -
|  1> !wB97X-D3 RIJCOSX def2-SVP def2/J TightSCF
|  2> *xyz 1 1
|  3> C          4.99986       -1.59613       -5.92488
|  4> N          5.28156       -1.97413       -4.53576
|  5> C          3.76678       -2.26611       -6.51175
|  6> C          2.49670       -1.84416       -5.73570
|  7> C          4.79250       -1.36132       -3.45730
|  8> N          3.93990       -0.37492       -3.55736
|  9> N          5.25986       -1.75422       -2.23913
| 10> H          5.92282       -2.52145       -2.18672
| 11> H          4.65468       -1.64040       -1.44202
| 12> H          5.70914       -2.87560       -4.38702
| 13> H          3.33010       -0.31764       -4.36125
| 14> H          3.69849        0.11447       -2.70833
| 15> H          4.84333       -0.51793       -5.94302
| 16> H          5.90170       -1.82250       -6.49647
| 17> H          3.88619       -3.35708       -6.53360
| 18> H          3.68560       -1.92217       -7.54713
| 19> H          1.64155       -2.32499       -6.16281
| 20> H          2.37707       -0.78268       -5.79763
| 21> H          2.59306       -2.13299       -4.70994
| 22> *
| 23>
| 24> %MaxCore 64000
| 25>
| 26> %pal nprocs 18
| 27> end
| 28>
| 29> %scf
| 30>   MaxIter 150
| 31> end
| 32>
| 33>
| 34>                          ****END OF INPUT****

CARTESIAN COORDINATES (ANGSTROEM)
---------------------------------
  C      4.999860   -1.596130   -5.924880
  N      5.281560   -1.974130   -4.535760
  C      3.766780   -2.266110   -6.511750
  C      2.496700   -1.844160   -5.735700
  C      4.792500   -1.361320   -3.457300
  N      3.939900   -0.374920   -3.557360
  N      5.259860   -1.754220   -2.239130
  H      5.922820   -2.521450   -2.186720
  H      4.654680   -1.640400   -1.442020
  H      5.709140   -2.875600   -4.387020
  H      3.330100   -0.317640   -4.361250
  H      3.698490    0.114470   -2.708330
  H      4.843330   -0.517930   -5.943020
  H      5.901700   -1.822500   -6.496470
  H      3.886190   -3.357080   -6.533600
  H      3.685600   -1.922170   -7.547130
  H      1.641550   -2.324990   -6.162810
  H      2.377070   -0.782680   -5.797630
  H      2.593060   -2.132990   -4.709940

 Total Charge           Charge          ....    1
 Multiplicity           Mult            ....    1
 Number of Electrons    NEL             ....   56
 Basis Dimension        Dim             ....  158

ORBITAL ENERGIES
----------------

  NO   OCC          E(Eh)            E(eV)
   0   2.0000     -14.655618      -398.7996
   1   2.0000     -14.655604      -398.7993
   2   2.0000     -14.651131      -398.6775
   3   2.0000     -10.623408      -289.0776
   4   2.0000     -10.489815      -285.4424
   5   2.0000     -10.437405      -284.0162
   6   2.0000     -10.426763      -283.7267
   7   2.0000      -1.322431       -35.9852
   8   2.0000      -1.209474       -32.9115
   9   2.0000      -1.194536       -32.5050
  10   2.0000      -1.055714       -28.7274
  11   2.0000      -0.974813       -26.5260
  12   2.0000      -0.931391       -25.3444
  13   2.0000      -0.891843       -24.2683
  14   2.0000      -0.866238       -23.5715
  15   2.0000      -0.834437       -22.7062
  16   2.0000      -0.795512       -21.6470
  17   2.0000      -0.787657       -21.4332
  18   2.0000      -0.742224       -20.1969
  19   2.0000      -0.731696       -19.9105
  20   2.0000      -0.705603       -19.2004
  21   2.0000      -0.677340       -18.4314
  22   2.0000      -0.657172       -17.8826
  23   2.0000      -0.616156       -16.7665
  24   2.0000      -0.594041       -16.1647
  25   2.0000      -0.590005       -16.0549
  26   2.0000      -0.565626       -15.3915
  27   2.0000      -0.536398       -14.5961
  28   0.0000      -0.081006        -2.2043
  29   0.0000      -0.039540        -1.0759
  30   0.0000      -0.006063        -0.1650
  31   0.0000       0.006666         0.1814
  32   0.0000       0.014279         0.3885

MULLIKEN ATOMIC CHARGES
-----------------------
   0 C :    0.028574
   1 N :   -0.179304
   2 C :   -0.072029
   3 C :   -0.096216
   4 C :    0.086426
   5 N :   -0.029540
   6 N :   -0.095722
   7 H :    0.178908
   8 H :    0.180237
   9 H :    0.174629
  10 H :    0.153466
  11 H :    0.182859
  12 H :    0.066930
  13 H :    0.094003
  14 H :    0.068219
  15 H :    0.085112
  16 H :    0.088510
  17 H :    0.050307
  18 H :    0.034631
Sum of atomic charges:    1.0000000

LOEWDIN ATOMIC CHARGES
----------------------
   0 C :    0.042493
   1 N :    0.020807
   2 C :   -0.040882
   3 C :   -0.055679
   4 C :    0.154167
   5 N :    0.061902
   6 N :    0.018689
   7 H :    0.110707
   8 H :    0.105382
   9 H :    0.104256
  10 H :    0.096647
  11 H :    0.114658
  12 H :    0.036267
  13 H :    0.050971
  14 H :    0.038260
  15 H :    0.050283
  16 H :    0.050552
  17 H :    0.024816
  18 H :    0.015704

  Mayer bond orders larger than 0.100000
B(  0-C ,  1-N ) :   0.9152 B(  0-C ,  2-C ) :   1.0632 B(  0-C , 12-H ) :   0.9576
B(  0-C , 13-H ) :   0.9507 B(  1-N ,  4-C ) :   1.3679 B(  1-N ,  9-H ) :   0.9120
B(  2-C ,  3-C ) :   1.0664 B(  2-C , 14-H ) :   0.9539 B(  2-C , 15-H ) :   0.9506
B(  3-C , 16-H ) :   0.9592 B(  3-C , 17-H ) :   0.9542 B(  3-C , 18-H ) :   0.9656
B(  4-C ,  5-N ) :   1.4282 B(  4-C ,  6-N ) :   1.3573 B(  5-N , 10-H ) :   0.9098
B(  5-N , 11-H ) :   0.9222 B(  6-N ,  7-H ) :   0.9261 B(  6-N ,  8-H ) :   0.9311

Dispersion correction           -0.005549031
FINAL SINGLE POINT ENERGY      -323.392158357780

DIPOLE MOMENT
-------------
                                X             Y             Z
Electronic contribution:      3.86503       0.79160       4.93169
Nuclear contribution   :     -3.69451      -0.93313      -3.60402
                        -----------------------------------------
Total Dipole Moment    :      0.17051      -0.14153       1.32767
                        -----------------------------------------
Magnitude (a.u.)       :      1.34604
Magnitude (Debye)      :      3.42135

Rotational constants in cm-1:     0.152547     0.057272     0.048491
Rotational constants in MHz :  4573.230603  1716.968614  1453.721796

                             ****ORCA TERMINATED NORMALLY****
TOTAL RUN TIME: 0 days 0 hours 0 minutes 12 seconds 225 msec
