                         Program Version 5.0.0 -  RELEASE  -
|  1> !wB97X-D3 RIJCOSX def2-SVP def2/J TightSCF
|  2> *xyz 0 1
|  3> C          4.99986       -1.59613       -5.92488
|  4> C          3.76678       -2.26611       -6.51175
|  5> C          2.49670       -1.84416       -5.73570
|  6> H          1.62642       -2.21743       -6.30895
|  7> H          2.48182       -2.45607       -4.79341
|  8> F          2.45973       -0.50920       -5.50576
|  9> H          3.88619       -3.35708       -6.53360
| 10> H          3.68560       -1.92217       -7.54713
| 11> H          5.86637       -1.89999       -6.47418
| 12> H          5.10830       -1.88372       -4.89997
| 13> H          4.89230       -0.53341       -5.98765
| 14> *
| 15>
| 16> %MaxCore 64000
| 17>
| 18> %pal nprocs 18
| 19> end
| 20>
| 21> %scf
| 22>   MaxIter 150
| 23> end
| 24>
| 25>
| 26>                          ****END OF INPUT****

CARTESIAN COORDINATES (ANGSTROEM)
---------------------------------
  C      4.999860   -1.596130   -5.924880
  C      3.766780   -2.266110   -6.511750
  C      2.496700   -1.844160   -5.735700
  H      1.626420   -2.217430   -6.308950
  H      2.481820   -2.456070   -4.793410
  F      2.459730   -0.509200   -5.505760
  H      3.886190   -3.357080   -6.533600
  H      3.685600   -1.922170   -7.547130
  H      5.866370   -1.899990   -6.474180
  H      5.108300   -1.883720   -4.899970
  H      4.892300   -0.533410   -5.987650

 Total Charge           Charge          ....    0
 Multiplicity           Mult            ....    1
 Number of Electrons    NEL             ....   34
 Basis Dimension        Dim             ....   91

ORBITAL ENERGIES
----------------

  NO   OCC          E(Eh)            E(eV)
   0   2.0000     -24.775479      -674.1751
   1   2.0000     -10.362967      -281.9907
   2   2.0000     -10.290280      -280.0127
   3   2.0000     -10.271423      -279.4996
   4   2.0000      -1.296399       -35.2768
   5   2.0000      -0.896000       -24.3814
   6   2.0000      -0.792462       -21.5640
   7   2.0000      -0.695926       -18.9371
   8   2.0000      -0.608990       -16.5715
   9   2.0000      -0.595285       -16.1985
  10   2.0000      -0.573353       -15.6017
  11   2.0000      -0.533259       -14.5107
  12   2.0000      -0.490459       -13.3461
  13   2.0000      -0.465906       -12.6779
  14   2.0000      -0.447644       -12.1810
  15   2.0000      -0.415105       -11.2956
  16   2.0000      -0.411804       -11.2058
  17   0.0000       0.146270         3.9802
  18   0.0000       0.184239         5.0134
  19   0.0000       0.189801         5.1648
  20   0.0000       0.212886         5.7929
  21   0.0000       0.222340         6.0502

MULLIKEN ATOMIC CHARGES
-----------------------
   0 C :   -0.034359
   1 C :   -0.162941
   2 C :    0.241768
   3 H :    0.025116
   4 H :    0.020283
   5 F :   -0.256892
   6 H :    0.037306
   7 H :    0.036784
   8 H :    0.029179
   9 H :    0.022186
  10 H :    0.041570
Sum of atomic charges:   -0.0000000

LOEWDIN ATOMIC CHARGES
----------------------
   0 C :   -0.058223
   1 C :   -0.070489
   2 C :    0.105000
   3 H :    0.011162
   4 H :    0.010964
   5 F :   -0.120903
   6 H :    0.029508
   7 H :    0.023970
   8 H :    0.023261
   9 H :    0.020484
  10 H :    0.025266

  Mayer bond orders larger than 0.100000
B(  0-C ,  1-C ) :   1.0758 B(  0-C ,  8-H ) :   0.9754 B(  0-C ,  9-H ) :   0.9781
B(  0-C , 10-H ) :   0.9738 B(  1-C ,  2-C ) :   1.0559 B(  1-C ,  6-H ) :   0.9518
B(  1-C ,  7-H ) :   0.9571 B(  2-C ,  3-H ) :   0.9638 B(  2-C ,  4-H ) :   0.9555
B(  2-C ,  5-F ) :   0.9956

Dispersion correction           -0.001918220
FINAL SINGLE POINT ENERGY      -218.148430742300

DIPOLE MOMENT
-------------
                                X             Y             Z
Electronic contribution:     -4.42891       3.90120       1.43429
Nuclear contribution   :      4.50596      -4.50325      -1.58424
                        -----------------------------------------
Total Dipole Moment    :      0.07705      -0.60205      -0.14995
                        -----------------------------------------
Magnitude (a.u.)       :      0.62521
Magnitude (Debye)      :      1.58915

Rotational constants in cm-1:     0.464063     0.182606     0.146573
Rotational constants in MHz : 13912.251583  5474.398056  4394.141907

                             ****ORCA TERMINATED NORMALLY****
TOTAL RUN TIME: 0 days 0 hours 0 minutes 5 seconds 549 msec
