                         Program Version 5.0.0 -  RELEASE  -
|  1> !wB97X-D3 RIJCOSX def2-SVP def2/J TightSCF
|  2> *xyz 0 1
|  3> C          4.99986       -1.59613       -5.92488
|  4> C          5.28156       -1.97413       -4.53576
|  5> C          3.76678       -2.26611       -6.51175
|  6> C          2.49670       -1.84416       -5.73570
|  7> C          4.79250       -1.36132       -3.45730
|  8> N          3.93990       -0.37492       -3.55736
|  9> N          5.25986       -1.75422       -2.23913
| 10> H          5.92282       -2.52145       -2.18672
| 11> H          4.65468       -1.64040       -1.44202
| 12> H          5.70914       -2.87560       -4.38702
| 13> H          3.33010       -0.31764       -4.36125
| 14> H          3.69849        0.11447       -2.70833
| 15> H          4.84333       -0.51793       -5.94302
| 16> H          5.90170       -1.82250       -6.49647
| 17> H          3.88619       -3.35708       -6.53360
| 18> H          3.68560       -1.92217       -7.54713
| 19> H          1.64155       -2.32499       -6.16281
| 20> H          2.37707       -0.78268       -5.79763
| 21> H          2.59306       -2.13299       -4.70994
| 22> *
| 23>
| 24> %MaxCore 64000
| 25>
| 26> %pal nprocs 18
| 27> end
| 28>
| 29> %scf
| 30>   MaxIter 150
| 31> end
| 32>
| 33>
| 34>                          ****END OF INPUT****

CARTESIAN COORDINATES (ANGSTROEM)
---------------------------------
  C      4.999860   -1.596130   -5.924880
  C      5.281560   -1.974130   -4.535760
  C      3.766780   -2.266110   -6.511750
  C      2.496700   -1.844160   -5.735700
  C      4.792500   -1.361320   -3.457300
  N      3.939900   -0.374920   -3.557360
  N      5.259860   -1.754220   -2.239130
  H      5.922820   -2.521450   -2.186720
  H      4.654680   -1.640400   -1.442020
  H      5.709140   -2.875600   -4.387020
  H      3.330100   -0.317640   -4.361250
  H      3.698490    0.114470   -2.708330
  H      4.843330   -0.517930   -5.943020
  H      5.901700   -1.822500   -6.496470
  H      3.886190   -3.357080   -6.533600
  H      3.685600   -1.922170   -7.547130
  H      1.641550   -2.324990   -6.162810
  H      2.377070   -0.782680   -5.797630
  H      2.593060   -2.132990   -4.709940

 Total Charge           Charge          ....    0
 Multiplicity           Mult            ....    1
 Number of Electrons    NEL             ....   56
 Basis Dimension        Dim             ....  158

ORBITAL ENERGIES
----------------

  NO   OCC          E(Eh)            E(eV)
   0   2.0000     -14.428666      -392.6240
   1   2.0000     -14.423745      -392.4901
   2   2.0000     -10.325887      -280.9817
   3   2.0000     -10.268691      -279.4253
   4   2.0000     -10.268083      -279.4087
   5   2.0000     -10.255268      -279.0600
   6   2.0000     -10.202649      -277.6282
   7   2.0000      -1.063688       -28.9444
   8   2.0000      -0.969294       -26.3758
   9   2.0000      -0.894445       -24.3391
  10   2.0000      -0.826066       -22.4784
  11   2.0000      -0.761311       -20.7163
  12   2.0000      -0.704278       -19.1644
  13   2.0000      -0.659352       -17.9419
  14   2.0000      -0.640148       -17.4193
  15   2.0000      -0.602741       -16.4014
  16   2.0000      -0.573572       -15.6077
  17   2.0000      -0.544000       -14.8030
  18   2.0000      -0.532122       -14.4798
  19   2.0000      -0.512513       -13.9462
  20   2.0000      -0.481584       -13.1046
  21   2.0000      -0.465058       -12.6549
  22   2.0000      -0.446770       -12.1572
  23   2.0000      -0.424741       -11.5578
  24   2.0000      -0.407982       -11.1018
  25   2.0000      -0.403264       -10.9734
  26   2.0000      -0.349809        -9.5188
  27   2.0000      -0.239487        -6.5168
  28   0.0000       0.134890         3.6705
  29   0.0000       0.161307         4.3894
  30   0.0000       0.176785         4.8106
  31   0.0000       0.185677         5.0525
  32   0.0000       0.190024         5.1708

MULLIKEN ATOMIC CHARGES
-----------------------
   0 C :    0.029694
   1 C :   -0.215730
   2 C :   -0.024211
   3 C :   -0.061234
   4 C :   -0.024217
   5 N :   -0.072141
   6 N :   -0.129441
   7 H :    0.127011
   8 H :    0.104398
   9 H :   -0.075933
  10 H :    0.107513
  11 H :    0.114458
  12 H :   -0.006798
  13 H :    0.010791
  14 H :    0.017117
  15 H :    0.013494
  16 H :    0.027750
  17 H :    0.017395
  18 H :    0.040086
Sum of atomic charges:    0.0000000

LOEWDIN ATOMIC CHARGES
----------------------
   0 C :   -0.044663
   1 C :   -0.220858
   2 C :   -0.037865
   3 C :   -0.061544
   4 C :    0.024875
   5 N :   -0.009770
   6 N :   -0.048355
   7 H :    0.082653
   8 H :    0.056705
   9 H :   -0.012674
  10 H :    0.071223
  11 H :    0.069421
  12 H :    0.012570
  13 H :    0.024327
  14 H :    0.019293
  15 H :    0.014757
  16 H :    0.023070
  17 H :    0.014149
  18 H :    0.022687

  Mayer bond orders larger than 0.100000
B(  0-C ,  1-C ) :   1.0641 B(  0-C ,  2-C ) :   1.0672 B(  0-C , 12-H ) :   0.9449
B(  0-C , 13-H ) :   0.9276 B(  1-C ,  4-C ) :   1.6835 B(  1-C ,  9-H ) :   0.9589
B(  2-C ,  3-C ) :   1.0760 B(  2-C , 14-H ) :   0.9541 B(  2-C , 15-H ) :   0.9545
B(  3-C , 16-H ) :   0.9638 B(  3-C , 17-H ) :   0.9586 B(  3-C , 18-H ) :   0.9687
B(  4-C ,  5-N ) :   1.2616 B(  4-C ,  6-N ) :   1.2091 B(  5-N , 10-H ) :   0.9338
B(  5-N , 11-H ) :   0.9457 B(  6-N ,  7-H ) :   0.9444 B(  6-N ,  8-H ) :   0.9510

Dispersion correction           -0.005525180
FINAL SINGLE POINT ENERGY      -306.918685521577

DIPOLE MOMENT
-------------
                                X             Y             Z
Electronic contribution:      2.82111       1.08999       4.47709
Nuclear contribution   :     -3.49027      -1.01686      -3.60427
                        -----------------------------------------
Total Dipole Moment    :     -0.66916       0.07313       0.87281
                        -----------------------------------------
Magnitude (a.u.)       :      1.10224
Magnitude (Debye)      :      2.80166

Rotational constants in cm-1:     0.155200     0.057307     0.048781
Rotational constants in MHz :  4652.781345  1718.017305  1462.410307

                             ****ORCA TERMINATED NORMALLY****
TOTAL RUN TIME: 0 days 0 hours 0 minutes 12 seconds 73 msec
