                         Program Version 5.0.0 -  RELEASE  -
|  1> !wB97X-D3 RIJCOSX def2-SVP def2/J TightSCF
|  2> *xyz 0 1
|  3> C          4.99986       -1.59613       -5.92488
|  4> N          5.28156       -1.97413       -4.53576
|  5> C          3.76678       -2.26611       -6.51175
|  6> C          2.49670       -1.84416       -5.73570
|  7> C          4.79250       -1.36132       -3.45730
|  8> C          3.93990       -0.37492       -3.55736
|  9> N          5.25986       -1.75422       -2.23913
| 10> H          5.92282       -2.52145       -2.18672
| 11> H          4.65468       -1.64040       -1.44202
| 12> H          5.70914       -2.87560       -4.38702
| 13> H          3.33010       -0.31764       -4.36125
| 14> H          3.69849        0.11447       -2.70833
| 15> H          4.84333       -0.51793       -5.94302
| 16> H          5.90170       -1.82250       -6.49647
| 17> H          3.88619       -3.35708       -6.53360
| 18> H          3.68560       -1.92217       -7.54713
| 19> H          1.64155       -2.32499       -6.16281
| 20> H          2.37707       -0.78268       -5.79763
| 21> H          2.59306       -2.13299       -4.70994
| 22> *
| 23>
| 24> %MaxCore 64000
| 25>
| 26> %pal nprocs 18
| 27> end
| 28>
| 29> %scf
| 30>   MaxIter 150
| 31> end
| 32>
| 33>
| 34>                          ****END OF INPUT****

CARTESIAN COORDINATES (ANGSTROEM)
---------------------------------
  C      4.999860   -1.596130   -5.924880
  N      5.281560   -1.974130   -4.535760
  C      3.766780   -2.266110   -6.511750
  C      2.496700   -1.844160   -5.735700
  C      4.792500   -1.361320   -3.457300
  C      3.939900   -0.374920   -3.557360
  N      5.259860   -1.754220   -2.239130
  H      5.922820   -2.521450   -2.186720
  H      4.654680   -1.640400   -1.442020
  H      5.709140   -2.875600   -4.387020
  H      3.330100   -0.317640   -4.361250
  H      3.698490    0.114470   -2.708330
  H      4.843330   -0.517930   -5.943020
  H      5.901700   -1.822500   -6.496470
  H      3.886190   -3.357080   -6.533600
  H      3.685600   -1.922170   -7.547130
  H      1.641550   -2.324990   -6.162810
  H      2.377070   -0.782680   -5.797630
  H      2.593060   -2.132990   -4.709940

 Total Charge           Charge          ....    0
 Multiplicity           Mult            ....    1
 Number of Electrons    NEL             ....   56
 Basis Dimension        Dim             ....  158

ORBITAL ENERGIES
----------------

  NO   OCC          E(Eh)            E(eV)
   0   2.0000     -14.430394      -392.6710
   1   2.0000     -14.425413      -392.5355
   2   2.0000     -10.327881      -281.0359
   3   2.0000     -10.314556      -280.6733
   4   2.0000     -10.283026      -279.8154
   5   2.0000     -10.263768      -279.2913
   6   2.0000     -10.191522      -277.3254
   7   2.0000      -1.065873       -29.0039
   8   2.0000      -0.980681       -26.6857
   9   2.0000      -0.882739       -24.0205
  10   2.0000      -0.825734       -22.4694
  11   2.0000      -0.783353       -21.3161
  12   2.0000      -0.707750       -19.2589
  13   2.0000      -0.659890       -17.9565
  14   2.0000      -0.634437       -17.2639
  15   2.0000      -0.608469       -16.5573
  16   2.0000      -0.563289       -15.3279
  17   2.0000      -0.555548       -15.1172
  18   2.0000      -0.527655       -14.3582
  19   2.0000      -0.497280       -13.5317
  20   2.0000      -0.485833       -13.2202
  21   2.0000      -0.468182       -12.7399
  22   2.0000      -0.466494       -12.6939
  23   2.0000      -0.435505       -11.8507
  24   2.0000      -0.431117       -11.7313
  25   2.0000      -0.417985       -11.3739
  26   2.0000      -0.336212        -9.1488
  27   2.0000      -0.250720        -6.8224
  28   0.0000       0.133580         3.6349
  29   0.0000       0.160557         4.3690
  30   0.0000       0.171507         4.6669
  31   0.0000       0.179838         4.8936
  32   0.0000       0.199705         5.4342

MULLIKEN ATOMIC CHARGES
-----------------------
   0 C :    0.095289
   1 N :   -0.221969
   2 C :   -0.071238
   3 C :   -0.033636
   4 C :    0.040683
   5 C :   -0.116249
   6 N :   -0.151467
   7 H :    0.107112
   8 H :    0.133560
   9 H :    0.107610
  10 H :   -0.058566
  11 H :   -0.048107
  12 H :    0.039088
  13 H :    0.025967
  14 H :    0.019364
  15 H :    0.024722
  16 H :    0.019208
  17 H :    0.042394
  18 H :    0.046234
Sum of atomic charges:    0.0000000

LOEWDIN ATOMIC CHARGES
----------------------
   0 C :    0.041376
   1 N :   -0.040985
   2 C :   -0.051333
   3 C :   -0.053673
   4 C :    0.045247
   5 C :   -0.246395
   6 N :   -0.045828
   7 H :    0.064145
   8 H :    0.077207
   9 H :    0.061883
  10 H :   -0.007247
  11 H :   -0.005798
  12 H :    0.030437
  13 H :    0.020459
  14 H :    0.017250
  15 H :    0.023298
  16 H :    0.018692
  17 H :    0.024189
  18 H :    0.027077

  Mayer bond orders larger than 0.100000
B(  0-C ,  1-N ) :   0.9813 B(  0-C ,  2-C ) :   1.0737 B(  0-C , 12-H ) :   0.9400
B(  0-C , 13-H ) :   0.9600 B(  1-N ,  4-C ) :   1.1613 B(  1-N ,  9-H ) :   0.9353
B(  2-C ,  3-C ) :   1.0833 B(  2-C , 14-H ) :   0.9544 B(  2-C , 15-H ) :   0.9513
B(  3-C , 16-H ) :   0.9647 B(  3-C , 17-H ) :   0.9668 B(  3-C , 18-H ) :   0.9686
B(  4-C ,  5-C ) :   1.7607 B(  4-C ,  6-N ) :   1.1904 B(  5-C , 10-H ) :   0.9448
B(  5-C , 11-H ) :   0.9462 B(  6-N ,  7-H ) :   0.9559 B(  6-N ,  8-H ) :   0.9515

Dispersion correction           -0.005494292
FINAL SINGLE POINT ENERGY      -306.906682604624

DIPOLE MOMENT
-------------
                                X             Y             Z
Electronic contribution:      4.10361      -0.44629       3.44521
Nuclear contribution   :     -3.78417      -0.66655      -3.38995
                        -----------------------------------------
Total Dipole Moment    :      0.31945      -1.11284       0.05526
                        -----------------------------------------
Magnitude (a.u.)       :      1.15910
Magnitude (Debye)      :      2.94620

Rotational constants in cm-1:     0.157710     0.057795     0.049101
Rotational constants in MHz :  4728.033540  1732.635996  1472.015132

                             ****ORCA TERMINATED NORMALLY****
TOTAL RUN TIME: 0 days 0 hours 0 minutes 10 seconds 760 msec
