                         Program Version 5.0.0 -  RELEASE  -
|  1> !wB97X-D3 RIJCOSX def2-SVP def2/J TightSCF
|  2> *xyz 0 1
|  3> C          4.99986       -1.59613       -5.92488
|  4> N          5.28156       -1.97413       -4.53576
|  5> C          3.76678       -2.26611       -6.51175
|  6> C          2.49670       -1.84416       -5.73570
|  7> C          4.79250       -1.36132       -3.45730
|  8> N          3.93990       -0.37492       -3.55736
|  9> C          5.25986       -1.75422       -2.23913
| 10> H          5.92282       -2.52145       -2.18672
| 11> H          4.65468       -1.64040       -1.44202
| 12> H          5.70914       -2.87560       -4.38702
| 13> H          3.33010       -0.31764       -4.36125
| 14> H          3.69849        0.11447       -2.70833
| 15> H          4.84333       -0.51793       -5.94302
| 16> H          5.90170       -1.82250       -6.49647
| 17> H          3.88619       -3.35708       -6.53360
| 18> H          3.68560       -1.92217       -7.54713
| 19> H          1.64155       -2.32499       -6.16281
| 20> H          2.37707       -0.78268       -5.79763
| 21> H          2.59306       -2.13299       -4.70994
| 22> *
| 23>
| 24> %MaxCore 64000
| 25>
| 26> %pal nprocs 18
| 27> end
| 28>
| 29> %scf
| 30>   MaxIter 150
| 31> end
| 32>
| 33>
| 34>                          ****END OF INPUT****

CARTESIAN COORDINATES (ANGSTROEM)
---------------------------------
  C      4.999860   -1.596130   -5.924880
  N      5.281560   -1.974130   -4.535760
  C      3.766780   -2.266110   -6.511750
  C      2.496700   -1.844160   -5.735700
  C      4.792500   -1.361320   -3.457300
  N      3.939900   -0.374920   -3.557360
  C      5.259860   -1.754220   -2.239130
  H      5.922820   -2.521450   -2.186720
  H      4.654680   -1.640400   -1.442020
  H      5.709140   -2.875600   -4.387020
  H      3.330100   -0.317640   -4.361250
  H      3.698490    0.114470   -2.708330
  H      4.843330   -0.517930   -5.943020
  H      5.901700   -1.822500   -6.496470
  H      3.886190   -3.357080   -6.533600
  H      3.685600   -1.922170   -7.547130
  H      1.641550   -2.324990   -6.162810
  H      2.377070   -0.782680   -5.797630
  H      2.593060   -2.132990   -4.709940

 Total Charge           Charge          ....    0
 Multiplicity           Mult            ....    1
 Number of Electrons    NEL             ....   56
 Basis Dimension        Dim             ....  158

ORBITAL ENERGIES
----------------

  NO   OCC          E(Eh)            E(eV)
   0   2.0000     -14.429901      -392.6576
   1   2.0000     -14.429235      -392.6395
   2   2.0000     -10.331609      -281.1374
   3   2.0000     -10.324362      -280.9402
   4   2.0000     -10.295785      -280.1625
   5   2.0000     -10.288153      -279.9549
   6   2.0000     -10.189743      -277.2770
   7   2.0000      -1.075631       -29.2694
   8   2.0000      -0.990060       -26.9409
   9   2.0000      -0.904300       -24.6073
  10   2.0000      -0.822323       -22.3766
  11   2.0000      -0.778308       -21.1788
  12   2.0000      -0.704867       -19.1804
  13   2.0000      -0.700366       -19.0579
  14   2.0000      -0.644021       -17.5247
  15   2.0000      -0.599671       -16.3179
  16   2.0000      -0.575878       -15.6704
  17   2.0000      -0.560235       -15.2448
  18   2.0000      -0.550854       -14.9895
  19   2.0000      -0.502540       -13.6748
  20   2.0000      -0.489356       -13.3160
  21   2.0000      -0.476951       -12.9785
  22   2.0000      -0.468194       -12.7402
  23   2.0000      -0.446403       -12.1472
  24   2.0000      -0.441803       -12.0221
  25   2.0000      -0.435156       -11.8412
  26   2.0000      -0.341429        -9.2908
  27   2.0000      -0.237356        -6.4588
  28   0.0000       0.132726         3.6117
  29   0.0000       0.155867         4.2414
  30   0.0000       0.169224         4.6048
  31   0.0000       0.173311         4.7160
  32   0.0000       0.187291         5.0965

MULLIKEN ATOMIC CHARGES
-----------------------
   0 C :    0.062300
   1 N :   -0.206700
   2 C :   -0.055108
   3 C :   -0.071468
   4 C :   -0.030605
   5 N :   -0.078210
   6 C :   -0.137896
   7 H :   -0.051195
   8 H :   -0.038167
   9 H :    0.133945
  10 H :    0.090367
  11 H :    0.136129
  12 H :    0.025954
  13 H :    0.036068
  14 H :    0.032777
  15 H :    0.029813
  16 H :    0.038735
  17 H :    0.027846
  18 H :    0.055412
Sum of atomic charges:    0.0000000

LOEWDIN ATOMIC CHARGES
----------------------
   0 C :    0.029297
   1 N :   -0.035372
   2 C :   -0.051520
   3 C :   -0.059690
   4 C :    0.038001
   5 N :   -0.007528
   6 C :   -0.284223
   7 H :   -0.012092
   8 H :   -0.013575
   9 H :    0.081765
  10 H :    0.057823
  11 H :    0.088186
  12 H :    0.021527
  13 H :    0.024965
  14 H :    0.023570
  15 H :    0.024987
  16 H :    0.028134
  17 H :    0.018097
  18 H :    0.027648

  Mayer bond orders larger than 0.100000
B(  0-C ,  1-N ) :   1.0012 B(  0-C ,  2-C ) :   1.0554 B(  0-C , 12-H ) :   0.9553
B(  0-C , 13-H ) :   0.9586 B(  1-N ,  4-C ) :   1.1716 B(  1-N ,  9-H ) :   0.9323
B(  2-C ,  3-C ) :   1.0738 B(  2-C , 14-H ) :   0.9535 B(  2-C , 15-H ) :   0.9522
B(  3-C , 16-H ) :   0.9644 B(  3-C , 17-H ) :   0.9617 B(  3-C , 18-H ) :   0.9678
B(  4-C ,  5-N ) :   1.2521 B(  4-C ,  6-C ) :   1.7144 B(  5-N , 10-H ) :   0.9442
B(  5-N , 11-H ) :   0.9412 B(  6-C ,  7-H ) :   0.9517 B(  6-C ,  8-H ) :   0.9558

Dispersion correction           -0.005596481
FINAL SINGLE POINT ENERGY      -306.906624922764

DIPOLE MOMENT
-------------
                                X             Y             Z
Electronic contribution:      2.70819       0.95264       1.94959
Nuclear contribution   :     -3.49502      -0.96869      -3.10119
                        -----------------------------------------
Total Dipole Moment    :     -0.78684      -0.01606      -1.15159
                        -----------------------------------------
Magnitude (a.u.)       :      1.39483
Magnitude (Debye)      :      3.54537

Rotational constants in cm-1:     0.153385     0.059790     0.050215
Rotational constants in MHz :  4598.376479  1792.462869  1505.410199

                             ****ORCA TERMINATED NORMALLY****
TOTAL RUN TIME: 0 days 0 hours 0 minutes 11 seconds 244 msec
