                         Program Version 5.0.0 -  RELEASE  -
|  1> !wB97X-D3 RIJCOSX def2-SVPD def2/J TightSCF CPCM(Water)
|  2> * xyz -1 1
|  3> C         -7.35500        1.67300        1.69600
|  4> C         -8.58000        2.23900        0.91700
|  5> C         -9.05400        3.62500        1.44000
|  6> C         -7.97200        4.66700        1.33200
|  7> O         -7.89100        5.32200        0.26000
|  8> O         -7.19600        4.83900        2.31300
|  9> H         -8.35300        2.32300       -0.15800
| 10> H         -9.42800        1.54200        1.03400
| 11> H         -9.91600        3.96200        0.83900
| 12> H         -9.38500        3.56000        2.49000
| 13> H         -7.08111        0.72248        1.28808
| 14> H         -7.61121        1.55759        2.72844
| 15> H         -6.53146        2.35024        1.60643
| 16> *
| 17> %MaxCore 64000
| 18> %scf
| 19>   Convergence VeryTight
| 20>   MaxIter 400
| 21> end
| 22> %pal nprocs 4
| 23> end
| 24>
| 25>                          ****END OF INPUT****

CARTESIAN COORDINATES (ANGSTROEM)
---------------------------------
  C     -7.355000    1.673000    1.696000
  C     -8.580000    2.239000    0.917000
  C     -9.054000    3.625000    1.440000
  C     -7.972000    4.667000    1.332000
  O     -7.891000    5.322000    0.260000
  O     -7.196000    4.839000    2.313000
  H     -8.353000    2.323000   -0.158000
  H     -9.428000    1.542000    1.034000
  H     -9.916000    3.962000    0.839000
  H     -9.385000    3.560000    2.490000
  H     -7.081110    0.722480    1.288080
  H     -7.611210    1.557590    2.728440
  H     -6.531460    2.350240    1.606430

 Total Charge           Charge          ....   -1
 Multiplicity           Mult            ....    1
 Number of Electrons    NEL             ....   48
 Basis Dimension        Dim             ....  182

ORBITAL ENERGIES
----------------

  NO   OCC          E(Eh)            E(eV)
   0   2.0000     -19.176459      -521.8180
   1   2.0000     -19.175471      -521.7911
   2   2.0000     -10.364544      -282.0336
   3   2.0000     -10.286252      -279.9031
   4   2.0000     -10.272738      -279.5354
   5   2.0000     -10.264314      -279.3062
   6   2.0000      -1.121728       -30.5238
   7   2.0000      -1.023258       -27.8443
   8   2.0000      -0.883785       -24.0490
   9   2.0000      -0.794281       -21.6135
  10   2.0000      -0.694596       -18.9009
  11   2.0000      -0.591153       -16.0861
  12   2.0000      -0.548360       -14.9216
  13   2.0000      -0.542509       -14.7624
  14   2.0000      -0.516517       -14.0551
  15   2.0000      -0.503737       -13.7074
  16   2.0000      -0.479426       -13.0458
  17   2.0000      -0.468977       -12.7615
  18   2.0000      -0.435259       -11.8440
  19   2.0000      -0.420802       -11.4506
  20   2.0000      -0.415781       -11.3140
  21   2.0000      -0.340396        -9.2626
  22   2.0000      -0.330775        -9.0008
  23   2.0000      -0.319113        -8.6835
  24   0.0000       0.094377         2.5681
  25   0.0000       0.115801         3.1511
  26   0.0000       0.122422         3.3313
  27   0.0000       0.130592         3.5536
  28   0.0000       0.149685         4.0731

MULLIKEN ATOMIC CHARGES
-----------------------
   0 C :    0.636156
   1 C :   -0.417100
   2 C :    0.013087
   3 C :    0.379721
   4 O :   -0.713692
   5 O :   -0.712734
   6 H :   -0.048669
   7 H :   -0.044243
   8 H :    0.027311
   9 H :    0.018947
  10 H :   -0.060868
  11 H :   -0.001467
  12 H :   -0.076449
Sum of atomic charges:   -1.0000000

LOEWDIN ATOMIC CHARGES
----------------------
   0 C :    0.120998
   1 C :   -0.053576
   2 C :   -0.008016
   3 C :   -0.332105
   4 O :   -0.369165
   5 O :   -0.368266
   6 H :    0.020726
   7 H :    0.018736
   8 H :    0.021454
   9 H :    0.024933
  10 H :   -0.023673
  11 H :   -0.016893
  12 H :   -0.035152

  Mayer bond orders larger than 0.100000
B(  0-C ,  1-C ) :   1.2470 B(  0-C , 10-H ) :   0.8303 B(  0-C , 11-H ) :   0.8045
B(  0-C , 12-H ) :   0.8431 B(  1-C ,  2-C ) :   1.1981 B(  1-C ,  6-H ) :   0.9857
B(  1-C ,  7-H ) :   0.9678 B(  1-C ,  8-H ) :   0.1136 B(  1-C ,  9-H ) :   0.1151
B(  1-C , 10-H ) :   0.1672 B(  1-C , 11-H ) :   0.1903 B(  1-C , 12-H ) :   0.1984
B(  2-C ,  3-C ) :   1.0263 B(  2-C ,  6-H ) :   0.1168 B(  2-C ,  8-H ) :   0.8880
B(  2-C ,  9-H ) :   0.9130 B(  3-C ,  4-O ) :   1.4870 B(  3-C ,  5-O ) :   1.5060
B(  3-C ,  8-H ) :   0.1189 B(  4-O ,  5-O ) :   0.1221

Dispersion correction           -0.003428746
FINAL SINGLE POINT ENERGY      -306.969782994356

DIPOLE MOMENT
-------------
                                X             Y             Z
Electronic contribution:      0.76649       6.30670      -0.35774
Nuclear contribution   :     -2.20580      -9.46044       0.49139
                        -----------------------------------------
Total Dipole Moment    :     -1.43931      -3.15374       0.13365
                        -----------------------------------------
Magnitude (a.u.)       :      3.46923
Magnitude (Debye)      :      8.81808

Rotational constants in cm-1:     0.196988     0.084901     0.072342
Rotational constants in MHz :  5905.565522  2545.272550  2168.753631

                             ****ORCA TERMINATED NORMALLY****
TOTAL RUN TIME: 0 days 0 hours 0 minutes 39 seconds 683 msec
