                         Program Version 5.0.0 -  RELEASE  -
|  1> !wB97X-D3 RIJCOSX def2-SVPD def2/J TightSCF CPCM(Water)
|  2> * xyz 1 1
|  3> C         -4.59200        8.36400        0.37100
|  4> H         -4.42564        7.55693       -0.31154
|  5> H         -3.85268        8.33554        1.14398
|  6> H         -4.52419        9.29426       -0.15332
|  7> C         -6.01000        8.22600        1.00300
|  8> C         -7.13600        8.26100       -0.06800
|  9> N         -8.43900        8.07000        0.57500
| 10> C         -9.09500        9.01200        1.21400
| 11> N         -8.69500       10.25200        1.36600
| 12> N        -10.23900        8.63800        1.72700
| 13> H         -6.08000        7.29700        1.59000
| 14> H         -6.17500        9.05900        1.70400
| 15> H         -7.11400        9.18600       -0.66400
| 16> H         -6.95400        7.44200       -0.78200
| 17> H         -8.87200        7.13500        0.50700
| 18> H         -7.80900       10.58900        0.97300
| 19> H         -9.27300       10.92700        1.88900
| 20> H        -10.59900        7.67600        1.63600
| 21> H        -10.80200        9.33100        2.24000
| 22> *
| 23> %MaxCore 64000
| 24> %scf
| 25>   Convergence VeryTight
| 26>   MaxIter 400
| 27> end
| 28> %pal nprocs 4
| 29> end
| 30>
| 31>                          ****END OF INPUT****

CARTESIAN COORDINATES (ANGSTROEM)
---------------------------------
  C     -4.592000    8.364000    0.371000
  H     -4.425640    7.556930   -0.311540
  H     -3.852680    8.335540    1.143980
  H     -4.524190    9.294260   -0.153320
  C     -6.010000    8.226000    1.003000
  C     -7.136000    8.261000   -0.068000
  N     -8.439000    8.070000    0.575000
  C     -9.095000    9.012000    1.214000
  N     -8.695000   10.252000    1.366000
  N    -10.239000    8.638000    1.727000
  H     -6.080000    7.297000    1.590000
  H     -6.175000    9.059000    1.704000
  H     -7.114000    9.186000   -0.664000
  H     -6.954000    7.442000   -0.782000
  H     -8.872000    7.135000    0.507000
  H     -7.809000   10.589000    0.973000
  H     -9.273000   10.927000    1.889000
  H    -10.599000    7.676000    1.636000
  H    -10.802000    9.331000    2.240000

 Total Charge           Charge          ....    1
 Multiplicity           Mult            ....    1
 Number of Electrons    NEL             ....   56
 Basis Dimension        Dim             ....  236

ORBITAL ENERGIES
----------------

  NO   OCC          E(Eh)            E(eV)
   0   2.0000     -14.488181      -394.2434
   1   2.0000     -14.487756      -394.2319
   2   2.0000     -14.478637      -393.9837
   3   2.0000     -10.448667      -284.3227
   4   2.0000     -10.340195      -281.3710
   5   2.0000     -10.295730      -280.1610
   6   2.0000     -10.274817      -279.5920
   7   2.0000      -1.159264       -31.5452
   8   2.0000      -1.040675       -28.3182
   9   2.0000      -1.021856       -27.8061
  10   2.0000      -0.893951       -24.3256
  11   2.0000      -0.815884       -22.2013
  12   2.0000      -0.757692       -20.6178
  13   2.0000      -0.719201       -19.5705
  14   2.0000      -0.708783       -19.2870
  15   2.0000      -0.674053       -18.3419
  16   2.0000      -0.620277       -16.8786
  17   2.0000      -0.603111       -16.4115
  18   2.0000      -0.585204       -15.9242
  19   2.0000      -0.571914       -15.5626
  20   2.0000      -0.561475       -15.2785
  21   2.0000      -0.521350       -14.1867
  22   2.0000      -0.489659       -13.3243
  23   2.0000      -0.464766       -12.6469
  24   2.0000      -0.448410       -12.2019
  25   2.0000      -0.433578       -11.7982
  26   2.0000      -0.396143       -10.7796
  27   2.0000      -0.368446       -10.0259
  28   0.0000       0.085181         2.3179
  29   0.0000       0.094697         2.5768
  30   0.0000       0.106125         2.8878
  31   0.0000       0.120528         3.2797
  32   0.0000       0.127286         3.4636

MULLIKEN ATOMIC CHARGES
-----------------------
   0 C :    0.667421
   1 H :   -0.002932
   2 H :   -0.047785
   3 H :   -0.027458
   4 C :   -0.330331
   5 C :    0.468718
   6 N :   -0.624752
   7 C :    1.468807
   8 N :   -0.205424
   9 N :   -0.236466
  10 H :   -0.040431
  11 H :   -0.024915
  12 H :    0.058883
  13 H :   -0.154892
  14 H :   -0.084539
  15 H :    0.056335
  16 H :   -0.027442
  17 H :    0.027543
  18 H :    0.059661
Sum of atomic charges:    1.0000000

LOEWDIN ATOMIC CHARGES
----------------------
   0 C :    0.125577
   1 H :   -0.017362
   2 H :   -0.017509
   3 H :   -0.015998
   4 C :   -0.055052
   5 C :    0.072173
   6 N :    0.031675
   7 C :   -0.074219
   8 N :    0.271911
   9 N :    0.236530
  10 H :    0.026246
  11 H :    0.010064
  12 H :    0.037803
  13 H :    0.042898
  14 H :    0.087591
  15 H :    0.043081
  16 H :    0.069353
  17 H :    0.064665
  18 H :    0.060572

  Mayer bond orders larger than 0.100000
B(  0-C ,  1-H ) :   0.8331 B(  0-C ,  2-H ) :   0.7931 B(  0-C ,  3-H ) :   0.8520
B(  0-C ,  4-C ) :   1.2306 B(  1-H ,  4-C ) :   0.1505 B(  2-H ,  4-C ) :   0.2155
B(  3-H ,  4-C ) :   0.1677 B(  4-C ,  5-C ) :   1.1355 B(  4-C , 10-H ) :   0.9831
B(  4-C , 11-H ) :   0.9314 B(  5-C ,  6-N ) :   0.8600 B(  5-C , 10-H ) :   0.1411
B(  5-C , 11-H ) :   0.1165 B(  5-C , 12-H ) :   0.8940 B(  5-C , 13-H ) :   0.9516
B(  5-C , 14-H ) :  -0.1436 B(  6-N ,  7-C ) :   0.8473 B(  6-N ,  8-N ) :   0.2579
B(  6-N ,  9-N ) :   0.3000 B(  6-N , 12-H ) :   0.1163 B(  6-N , 13-H ) :   0.1103
B(  6-N , 14-H ) :   1.3425 B(  7-C ,  8-N ) :   0.8475 B(  7-C ,  9-N ) :   0.7656
B(  7-C , 14-H ) :  -0.2504 B(  7-C , 15-H ) :  -0.1348 B(  7-C , 16-H ) :  -0.1932
B(  7-C , 17-H ) :  -0.1755 B(  7-C , 18-H ) :  -0.1147 B(  8-N ,  9-N ) :   0.1732
B(  8-N , 15-H ) :   1.0799 B(  8-N , 16-H ) :   1.3122 B(  9-N , 17-H ) :   1.1832
B(  9-N , 18-H ) :   1.1791 B( 15-H , 16-H ) :  -0.1925 B( 17-H , 18-H ) :  -0.1657

Dispersion correction           -0.005047190
FINAL SINGLE POINT ENERGY      -323.509834410206

DIPOLE MOMENT
-------------
                                X             Y             Z
Electronic contribution:     -8.55773       1.04723       1.45551
Nuclear contribution   :      6.21837      -0.55504      -0.90943
                        -----------------------------------------
Total Dipole Moment    :     -2.33936       0.49219       0.54609
                        -----------------------------------------
Magnitude (a.u.)       :      2.45215
Magnitude (Debye)      :      6.23288

Rotational constants in cm-1:     0.208151     0.042113     0.038318
Rotational constants in MHz :  6240.200938  1262.527422  1148.747432

                             ****ORCA TERMINATED NORMALLY****
TOTAL RUN TIME: 0 days 0 hours 1 minutes 11 seconds 899 msec
