                         Program Version 5.0.0 -  RELEASE  -
|  1> !wB97X-D3 RIJCOSX def2-SVPD def2/J TightSCF CPCM(Water)
|  2> * xyz 0 1
|  3> C         -7.35500        1.67300        1.69600
|  4> C         -8.58000        2.23900        0.91700
|  5> C         -9.05400        3.62500        1.44000
|  6> C         -7.97200        4.66700        1.33200
|  7> F         -7.89100        5.32200        0.26000
|  8> O         -7.19600        4.83900        2.31300
|  9> H         -8.35300        2.32300       -0.15800
| 10> H         -9.42800        1.54200        1.03400
| 11> H         -9.91600        3.96200        0.83900
| 12> H         -9.38500        3.56000        2.49000
| 13> H         -7.08111        0.72248        1.28808
| 14> H         -7.61121        1.55759        2.72844
| 15> H         -6.53146        2.35024        1.60643
| 16> *
| 17> %MaxCore 64000
| 18> %scf
| 19>   Convergence VeryTight
| 20>   MaxIter 400
| 21> end
| 22> %pal nprocs 4
| 23> end
| 24>
| 25>                          ****END OF INPUT****

CARTESIAN COORDINATES (ANGSTROEM)
---------------------------------
  C     -7.355000    1.673000    1.696000
  C     -8.580000    2.239000    0.917000
  C     -9.054000    3.625000    1.440000
  C     -7.972000    4.667000    1.332000
  F     -7.891000    5.322000    0.260000
  O     -7.196000    4.839000    2.313000
  H     -8.353000    2.323000   -0.158000
  H     -9.428000    1.542000    1.034000
  H     -9.916000    3.962000    0.839000
  H     -9.385000    3.560000    2.490000
  H     -7.081110    0.722480    1.288080
  H     -7.611210    1.557590    2.728440
  H     -6.531460    2.350240    1.606430

 Total Charge           Charge          ....    0
 Multiplicity           Mult            ....    1
 Number of Electrons    NEL             ....   48
 Basis Dimension        Dim             ....  182

ORBITAL ENERGIES
----------------

  NO   OCC          E(Eh)            E(eV)
   0   2.0000     -24.874614      -676.8727
   1   2.0000     -19.261716      -524.1379
   2   2.0000     -10.479591      -285.1642
   3   2.0000     -10.312957      -280.6298
   4   2.0000     -10.304015      -280.3865
   5   2.0000     -10.273516      -279.5566
   6   2.0000      -1.423247       -38.7285
   7   2.0000      -1.146179       -31.1891
   8   2.0000      -0.914756       -24.8918
   9   2.0000      -0.831008       -22.6129
  10   2.0000      -0.765586       -20.8327
  11   2.0000      -0.714651       -19.4466
  12   2.0000      -0.657395       -17.8886
  13   2.0000      -0.639752       -17.4085
  14   2.0000      -0.608294       -16.5525
  15   2.0000      -0.556891       -15.1538
  16   2.0000      -0.547890       -14.9088
  17   2.0000      -0.513728       -13.9792
  18   2.0000      -0.494780       -13.4636
  19   2.0000      -0.467699       -12.7267
  20   2.0000      -0.451675       -12.2907
  21   2.0000      -0.439725       -11.9655
  22   2.0000      -0.433757       -11.8031
  23   2.0000      -0.395604       -10.7649
  24   0.0000       0.046538         1.2664
  25   0.0000       0.090973         2.4755
  26   0.0000       0.120080         3.2675
  27   0.0000       0.125101         3.4042
  28   0.0000       0.133300         3.6273

MULLIKEN ATOMIC CHARGES
-----------------------
   0 C :    0.605194
   1 C :   -0.439786
   2 C :   -0.123247
   3 C :    0.816183
   4 F :   -0.395784
   5 O :   -0.549731
   6 H :   -0.021820
   7 H :   -0.006987
   8 H :    0.118864
   9 H :    0.085696
  10 H :   -0.041479
  11 H :    0.013535
  12 H :   -0.060637
Sum of atomic charges:    0.0000000

LOEWDIN ATOMIC CHARGES
----------------------
   0 C :    0.130300
   1 C :   -0.037859
   2 C :    0.038573
   3 C :   -0.005392
   4 F :   -0.034476
   5 O :   -0.188002
   6 H :    0.030349
   7 H :    0.030873
   8 H :    0.044299
   9 H :    0.049962
  10 H :   -0.017289
  11 H :   -0.011507
  12 H :   -0.029830

  Mayer bond orders larger than 0.100000
B(  0-C ,  1-C ) :   1.2562 B(  0-C , 10-H ) :   0.8361 B(  0-C , 11-H ) :   0.8155
B(  0-C , 12-H ) :   0.8501 B(  1-C ,  2-C ) :   1.1952 B(  1-C ,  6-H ) :   0.9878
B(  1-C ,  7-H ) :   0.9751 B(  1-C ,  8-H ) :   0.1073 B(  1-C ,  9-H ) :   0.1139
B(  1-C , 10-H ) :   0.1642 B(  1-C , 11-H ) :   0.1850 B(  1-C , 12-H ) :   0.1845
B(  2-C ,  3-C ) :   1.0715 B(  2-C ,  6-H ) :   0.1093 B(  2-C ,  8-H ) :   0.8843
B(  2-C ,  9-H ) :   0.9268 B(  3-C ,  4-F ) :   0.6975 B(  3-C ,  5-O ) :   1.7734

Dispersion correction           -0.003346122
FINAL SINGLE POINT ENERGY      -331.403499071338

DIPOLE MOMENT
-------------
                                X             Y             Z
Electronic contribution:      1.12068      10.37987      -2.45492
Nuclear contribution   :     -2.31932     -11.25330       1.69888
                        -----------------------------------------
Total Dipole Moment    :     -1.19864      -0.87342      -0.75604
                        -----------------------------------------
Magnitude (a.u.)       :      1.66469
Magnitude (Debye)      :      4.23131

Rotational constants in cm-1:     0.191738     0.081057     0.069499
Rotational constants in MHz :  5748.155472  2430.013617  2083.540854

                             ****ORCA TERMINATED NORMALLY****
TOTAL RUN TIME: 0 days 0 hours 0 minutes 38 seconds 790 msec
