                         Program Version 5.0.0 -  RELEASE  -
|  1> !wB97X-D3 RIJCOSX def2-SVPD def2/J TightSCF CPCM(Water)
|  2> * xyz 0 1
|  3> C         -4.59200        8.36400        0.37100
|  4> H         -4.42564        7.55693       -0.31154
|  5> H         -3.85268        8.33554        1.14398
|  6> H         -4.52419        9.29426       -0.15332
|  7> C         -6.01000        8.22600        1.00300
|  8> C         -7.13600        8.26100       -0.06800
|  9> C         -8.43900        8.07000        0.57500
| 10> C         -9.09500        9.01200        1.21400
| 11> N         -8.69500       10.25200        1.36600
| 12> N        -10.23900        8.63800        1.72700
| 13> H         -6.08000        7.29700        1.59000
| 14> H         -6.17500        9.05900        1.70400
| 15> H         -7.11400        9.18600       -0.66400
| 16> H         -6.95400        7.44200       -0.78200
| 17> H         -8.87200        7.13500        0.50700
| 18> H         -7.80900       10.58900        0.97300
| 19> H         -9.27300       10.92700        1.88900
| 20> H        -10.59900        7.67600        1.63600
| 21> H        -10.80200        9.33100        2.24000
| 22> *
| 23> %MaxCore 64000
| 24> %scf
| 25>   Convergence VeryTight
| 26>   MaxIter 400
| 27> end
| 28> %pal nprocs 4
| 29> end
| 30>
| 31>                          ****END OF INPUT****

CARTESIAN COORDINATES (ANGSTROEM)
---------------------------------
  C     -4.592000    8.364000    0.371000
  H     -4.425640    7.556930   -0.311540
  H     -3.852680    8.335540    1.143980
  H     -4.524190    9.294260   -0.153320
  C     -6.010000    8.226000    1.003000
  C     -7.136000    8.261000   -0.068000
  C     -8.439000    8.070000    0.575000
  C     -9.095000    9.012000    1.214000
  N     -8.695000   10.252000    1.366000
  N    -10.239000    8.638000    1.727000
  H     -6.080000    7.297000    1.590000
  H     -6.175000    9.059000    1.704000
  H     -7.114000    9.186000   -0.664000
  H     -6.954000    7.442000   -0.782000
  H     -8.872000    7.135000    0.507000
  H     -7.809000   10.589000    0.973000
  H     -9.273000   10.927000    1.889000
  H    -10.599000    7.676000    1.636000
  H    -10.802000    9.331000    2.240000

 Total Charge           Charge          ....    0
 Multiplicity           Mult            ....    1
 Number of Electrons    NEL             ....   56
 Basis Dimension        Dim             ....  236

ORBITAL ENERGIES
----------------

  NO   OCC          E(Eh)            E(eV)
   0   2.0000     -14.437017      -392.8512
   1   2.0000     -14.425690      -392.5430
   2   2.0000     -10.331123      -281.1241
   3   2.0000     -10.274155      -279.5740
   4   2.0000     -10.268006      -279.4067
   5   2.0000     -10.262526      -279.2575
   6   2.0000     -10.209010      -277.8013
   7   2.0000      -1.074658       -29.2429
   8   2.0000      -0.970200       -26.4005
   9   2.0000      -0.891034       -24.2463
  10   2.0000      -0.830842       -22.6084
  11   2.0000      -0.759042       -20.6546
  12   2.0000      -0.695768       -18.9328
  13   2.0000      -0.678124       -18.4527
  14   2.0000      -0.639892       -17.4124
  15   2.0000      -0.601887       -16.3782
  16   2.0000      -0.563051       -15.3214
  17   2.0000      -0.547681       -14.9032
  18   2.0000      -0.515792       -14.0354
  19   2.0000      -0.511237       -13.9115
  20   2.0000      -0.505275       -13.7492
  21   2.0000      -0.476030       -12.9534
  22   2.0000      -0.451466       -12.2850
  23   2.0000      -0.425501       -11.5785
  24   2.0000      -0.411873       -11.2076
  25   2.0000      -0.405195       -11.0259
  26   2.0000      -0.354847        -9.6559
  27   2.0000      -0.244019        -6.6401
  28   0.0000       0.096128         2.6158
  29   0.0000       0.111425         3.0320
  30   0.0000       0.125718         3.4210
  31   0.0000       0.128975         3.5096
  32   0.0000       0.140518         3.8237

MULLIKEN ATOMIC CHARGES
-----------------------
   0 C :    0.708833
   1 H :   -0.027801
   2 H :   -0.060983
   3 H :   -0.030747
   4 C :   -0.345932
   5 C :   -0.027566
   6 C :   -0.425880
   7 C :    1.070217
   8 N :   -0.191468
   9 N :   -0.164901
  10 H :   -0.097137
  11 H :   -0.034419
  12 H :    0.031863
  13 H :    0.088309
  14 H :   -0.374097
  15 H :    0.049136
  16 H :   -0.157784
  17 H :    0.019053
  18 H :   -0.028697
Sum of atomic charges:    0.0000000

LOEWDIN ATOMIC CHARGES
----------------------
   0 C :    0.108334
   1 H :   -0.023971
   2 H :   -0.026775
   3 H :   -0.022446
   4 C :   -0.074544
   5 C :   -0.079418
   6 C :   -0.072095
   7 C :   -0.274017
   8 N :    0.200295
   9 N :    0.149703
  10 H :    0.016483
  11 H :    0.004649
  12 H :    0.014478
  13 H :    0.018172
  14 H :   -0.044691
  15 H :    0.018512
  16 H :    0.031803
  17 H :    0.034256
  18 H :    0.021273

  Mayer bond orders larger than 0.100000
B(  0-C ,  1-H ) :   0.8134 B(  0-C ,  2-H ) :   0.7759 B(  0-C ,  3-H ) :   0.8524
B(  0-C ,  4-C ) :   1.2160 B(  1-H ,  4-C ) :   0.1620 B(  2-H ,  4-C ) :   0.2280
B(  3-H ,  4-C ) :   0.1542 B(  4-C ,  5-C ) :   1.1579 B(  4-C , 10-H ) :   1.0103
B(  4-C , 11-H ) :   0.9311 B(  5-C ,  6-C ) :   1.2914 B(  5-C , 10-H ) :   0.1258
B(  5-C , 11-H ) :   0.1238 B(  5-C , 12-H ) :   0.8842 B(  5-C , 13-H ) :   0.7845
B(  5-C , 14-H ) :   0.2873 B(  6-C ,  7-C ) :   1.4858 B(  6-C ,  8-N ) :   0.1914
B(  6-C ,  9-N ) :   0.4412 B(  6-C , 12-H ) :   0.1502 B(  6-C , 13-H ) :   0.1929
B(  6-C , 14-H ) :   1.1067 B(  6-C , 15-H ) :  -0.1329 B(  7-C ,  8-N ) :   0.9009
B(  7-C ,  9-N ) :   0.7173 B(  7-C , 16-H ) :  -0.2337 B(  7-C , 17-H ) :  -0.1353
B(  8-N ,  9-N ) :   0.1146 B(  8-N , 15-H ) :   1.0555 B(  8-N , 16-H ) :   1.4332
B(  9-N , 14-H ) :   0.1656 B(  9-N , 17-H ) :   1.1707 B(  9-N , 18-H ) :   1.1697
B( 12-H , 13-H ) :   0.1014 B( 13-H , 14-H ) :  -0.1102 B( 15-H , 16-H ) :  -0.1948
B( 17-H , 18-H ) :  -0.1622

Dispersion correction           -0.005042448
FINAL SINGLE POINT ENERGY      -306.953254120495

DIPOLE MOMENT
-------------
                                X             Y             Z
Electronic contribution:     -6.87741       1.65357       1.67271
Nuclear contribution   :      6.06986      -0.69351      -0.97966
                        -----------------------------------------
Total Dipole Moment    :     -0.80755       0.96006       0.69305
                        -----------------------------------------
Magnitude (a.u.)       :      1.43324
Magnitude (Debye)      :      3.64300

Rotational constants in cm-1:     0.212109     0.042169     0.038482
Rotational constants in MHz :  6358.861795  1264.203668  1153.663320

                             ****ORCA TERMINATED NORMALLY****
TOTAL RUN TIME: 0 days 0 hours 1 minutes 15 seconds 135 msec
