                         Program Version 5.0.0 -  RELEASE  -
|  1> !wB97X-D3 RIJCOSX def2-SVPD def2/J TightSCF CPCM(Water)
|  2> * xyz 0 1
|  3> C         -7.35500        1.67300        1.69600
|  4> C         -8.58000        2.23900        0.91700
|  5> C         -9.05400        3.62500        1.44000
|  6> C         -7.97200        4.66700        1.33200
|  7> O         -7.89100        5.32200        0.26000
|  8> F         -7.19600        4.83900        2.31300
|  9> H         -8.35300        2.32300       -0.15800
| 10> H         -9.42800        1.54200        1.03400
| 11> H         -9.91600        3.96200        0.83900
| 12> H         -9.38500        3.56000        2.49000
| 13> H         -7.08111        0.72248        1.28808
| 14> H         -7.61121        1.55759        2.72844
| 15> H         -6.53146        2.35024        1.60643
| 16> *
| 17> %MaxCore 64000
| 18> %scf
| 19>   Convergence VeryTight
| 20>   MaxIter 400
| 21> end
| 22> %pal nprocs 4
| 23> end
| 24>
| 25>                          ****END OF INPUT****

CARTESIAN COORDINATES (ANGSTROEM)
---------------------------------
  C     -7.355000    1.673000    1.696000
  C     -8.580000    2.239000    0.917000
  C     -9.054000    3.625000    1.440000
  C     -7.972000    4.667000    1.332000
  O     -7.891000    5.322000    0.260000
  F     -7.196000    4.839000    2.313000
  H     -8.353000    2.323000   -0.158000
  H     -9.428000    1.542000    1.034000
  H     -9.916000    3.962000    0.839000
  H     -9.385000    3.560000    2.490000
  H     -7.081110    0.722480    1.288080
  H     -7.611210    1.557590    2.728440
  H     -6.531460    2.350240    1.606430

 Total Charge           Charge          ....    0
 Multiplicity           Mult            ....    1
 Number of Electrons    NEL             ....   48
 Basis Dimension        Dim             ....  182

ORBITAL ENERGIES
----------------

  NO   OCC          E(Eh)            E(eV)
   0   2.0000     -24.874444      -676.8680
   1   2.0000     -19.262538      -524.1603
   2   2.0000     -10.480007      -285.1755
   3   2.0000     -10.313212      -280.6368
   4   2.0000     -10.304259      -280.3932
   5   2.0000     -10.275920      -279.6220
   6   2.0000      -1.421591       -38.6835
   7   2.0000      -1.148879       -31.2626
   8   2.0000      -0.915604       -24.9148
   9   2.0000      -0.830456       -22.5978
  10   2.0000      -0.767718       -20.8907
  11   2.0000      -0.714790       -19.4504
  12   2.0000      -0.657298       -17.8860
  13   2.0000      -0.635670       -17.2975
  14   2.0000      -0.614653       -16.7256
  15   2.0000      -0.553752       -15.0684
  16   2.0000      -0.546827       -14.8799
  17   2.0000      -0.509498       -13.8642
  18   2.0000      -0.504927       -13.7397
  19   2.0000      -0.478016       -13.0075
  20   2.0000      -0.442596       -12.0437
  21   2.0000      -0.439367       -11.9558
  22   2.0000      -0.435802       -11.8588
  23   2.0000      -0.398359       -10.8399
  24   0.0000       0.046137         1.2555
  25   0.0000       0.091571         2.4918
  26   0.0000       0.119203         3.2437
  27   0.0000       0.125279         3.4090
  28   0.0000       0.133713         3.6385

MULLIKEN ATOMIC CHARGES
-----------------------
   0 C :    0.582352
   1 C :   -0.415012
   2 C :   -0.133420
   3 C :    0.815815
   4 O :   -0.549198
   5 F :   -0.399257
   6 H :   -0.022472
   7 H :   -0.005531
   8 H :    0.100735
   9 H :    0.109591
  10 H :   -0.037655
  11 H :    0.019496
  12 H :   -0.065444
Sum of atomic charges:    0.0000000

LOEWDIN ATOMIC CHARGES
----------------------
   0 C :    0.131415
   1 C :   -0.038587
   2 C :    0.037191
   3 C :   -0.009228
   4 O :   -0.185025
   5 F :   -0.038895
   6 H :    0.030415
   7 H :    0.030868
   8 H :    0.047213
   9 H :    0.046877
  10 H :   -0.016221
  11 H :   -0.011218
  12 H :   -0.024805

  Mayer bond orders larger than 0.100000
B(  0-C ,  1-C ) :   1.2607 B(  0-C , 10-H ) :   0.8374 B(  0-C , 11-H ) :   0.8141
B(  0-C , 12-H ) :   0.8526 B(  1-C ,  2-C ) :   1.2014 B(  1-C ,  6-H ) :   0.9939
B(  1-C ,  7-H ) :   0.9723 B(  1-C ,  8-H ) :   0.1083 B(  1-C ,  9-H ) :   0.1081
B(  1-C , 10-H ) :   0.1652 B(  1-C , 11-H ) :   0.1773 B(  1-C , 12-H ) :   0.1792
B(  2-C ,  3-C ) :   1.0680 B(  2-C ,  6-H ) :   0.1094 B(  2-C ,  8-H ) :   0.9001
B(  2-C ,  9-H ) :   0.9122 B(  3-C ,  4-O ) :   1.7721 B(  3-C ,  5-F ) :   0.7011
B(  3-C ,  8-H ) :   0.1004

Dispersion correction           -0.003346253
FINAL SINGLE POINT ENERGY      -331.403914602089

DIPOLE MOMENT
-------------
                                X             Y             Z
Electronic contribution:      2.45364       9.43592       1.49977
Nuclear contribution   :     -3.10437     -10.70771      -0.62014
                        -----------------------------------------
Total Dipole Moment    :     -0.65073      -1.27180       0.87963
                        -----------------------------------------
Magnitude (a.u.)       :      1.67770
Magnitude (Debye)      :      4.26437

Rotational constants in cm-1:     0.186705     0.083371     0.069942
Rotational constants in MHz :  5597.288907  2499.411769  2096.795362

                             ****ORCA TERMINATED NORMALLY****
TOTAL RUN TIME: 0 days 0 hours 0 minutes 38 seconds 736 msec
