                         Program Version 5.0.0 -  RELEASE  -
|  1> !wB97X-D3 RIJCOSX def2-SVPD def2/J TightSCF CPCM(Water)
|  2> * xyz 0 1
|  3> C         -4.59200        8.36400        0.37100
|  4> H         -4.42564        7.55693       -0.31154
|  5> H         -3.85268        8.33554        1.14398
|  6> H         -4.52419        9.29426       -0.15332
|  7> C         -6.01000        8.22600        1.00300
|  8> C         -7.13600        8.26100       -0.06800
|  9> N         -8.43900        8.07000        0.57500
| 10> C         -9.09500        9.01200        1.21400
| 11> C         -8.69500       10.25200        1.36600
| 12> N        -10.23900        8.63800        1.72700
| 13> H         -6.08000        7.29700        1.59000
| 14> H         -6.17500        9.05900        1.70400
| 15> H         -7.11400        9.18600       -0.66400
| 16> H         -6.95400        7.44200       -0.78200
| 17> H         -8.87200        7.13500        0.50700
| 18> H         -7.80900       10.58900        0.97300
| 19> H         -9.27300       10.92700        1.88900
| 20> H        -10.59900        7.67600        1.63600
| 21> H        -10.80200        9.33100        2.24000
| 22> *
| 23> %MaxCore 64000
| 24> %scf
| 25>   Convergence VeryTight
| 26>   MaxIter 400
| 27> end
| 28> %pal nprocs 4
| 29> end
| 30>
| 31>                          ****END OF INPUT****

CARTESIAN COORDINATES (ANGSTROEM)
---------------------------------
  C     -4.592000    8.364000    0.371000
  H     -4.425640    7.556930   -0.311540
  H     -3.852680    8.335540    1.143980
  H     -4.524190    9.294260   -0.153320
  C     -6.010000    8.226000    1.003000
  C     -7.136000    8.261000   -0.068000
  N     -8.439000    8.070000    0.575000
  C     -9.095000    9.012000    1.214000
  C     -8.695000   10.252000    1.366000
  N    -10.239000    8.638000    1.727000
  H     -6.080000    7.297000    1.590000
  H     -6.175000    9.059000    1.704000
  H     -7.114000    9.186000   -0.664000
  H     -6.954000    7.442000   -0.782000
  H     -8.872000    7.135000    0.507000
  H     -7.809000   10.589000    0.973000
  H     -9.273000   10.927000    1.889000
  H    -10.599000    7.676000    1.636000
  H    -10.802000    9.331000    2.240000

 Total Charge           Charge          ....    0
 Multiplicity           Mult            ....    1
 Number of Electrons    NEL             ....   56
 Basis Dimension        Dim             ....  236

ORBITAL ENERGIES
----------------

  NO   OCC          E(Eh)            E(eV)
   0   2.0000     -14.437381      -392.8611
   1   2.0000     -14.429587      -392.6490
   2   2.0000     -10.338464      -281.3239
   3   2.0000     -10.319491      -280.8076
   4   2.0000     -10.282342      -279.7967
   5   2.0000     -10.268754      -279.4270
   6   2.0000     -10.210225      -277.8343
   7   2.0000      -1.084356       -29.5068
   8   2.0000      -0.985441       -26.8152
   9   2.0000      -0.876634       -23.8544
  10   2.0000      -0.826682       -22.4952
  11   2.0000      -0.788875       -21.4664
  12   2.0000      -0.702667       -19.1205
  13   2.0000      -0.663553       -18.0562
  14   2.0000      -0.649286       -17.6680
  15   2.0000      -0.615902       -16.7595
  16   2.0000      -0.554317       -15.0837
  17   2.0000      -0.543375       -14.7860
  18   2.0000      -0.531089       -14.4517
  19   2.0000      -0.510674       -13.8962
  20   2.0000      -0.494161       -13.4468
  21   2.0000      -0.478379       -13.0173
  22   2.0000      -0.469227       -12.7683
  23   2.0000      -0.443332       -12.0637
  24   2.0000      -0.436869       -11.8878
  25   2.0000      -0.420781       -11.4500
  26   2.0000      -0.335044        -9.1170
  27   2.0000      -0.263705        -7.1758
  28   0.0000       0.097175         2.6443
  29   0.0000       0.108975         2.9654
  30   0.0000       0.120109         3.2683
  31   0.0000       0.126724         3.4483
  32   0.0000       0.140851         3.8328

MULLIKEN ATOMIC CHARGES
-----------------------
   0 C :    0.693280
   1 H :   -0.023474
   2 H :   -0.051744
   3 H :   -0.025634
   4 C :   -0.314357
   5 C :    0.516832
   6 N :   -0.599106
   7 C :    0.801074
   8 C :    0.050781
   9 N :   -0.079869
  10 H :   -0.094329
  11 H :   -0.077548
  12 H :    0.061517
  13 H :   -0.182364
  14 H :   -0.208925
  15 H :   -0.004564
  16 H :   -0.429612
  17 H :   -0.063914
  18 H :    0.031955
Sum of atomic charges:    0.0000000

LOEWDIN ATOMIC CHARGES
----------------------
   0 C :    0.117528
   1 H :   -0.021124
   2 H :   -0.021318
   3 H :   -0.018981
   4 C :   -0.060966
   5 C :    0.055021
   6 N :   -0.025892
   7 C :   -0.290961
   8 C :    0.111872
   9 N :    0.160831
  10 H :    0.020166
  11 H :   -0.000083
  12 H :    0.025307
  13 H :    0.031338
  14 H :    0.057376
  15 H :   -0.108802
  16 H :   -0.092971
  17 H :    0.028971
  18 H :    0.032687

  Mayer bond orders larger than 0.100000
B(  0-C ,  1-H ) :   0.8255 B(  0-C ,  2-H ) :   0.7778 B(  0-C ,  3-H ) :   0.8537
B(  0-C ,  4-C ) :   1.2250 B(  1-H ,  4-C ) :   0.1584 B(  2-H ,  4-C ) :   0.2261
B(  3-H ,  4-C ) :   0.1694 B(  4-C ,  5-C ) :   1.1203 B(  4-C , 10-H ) :   0.9924
B(  4-C , 11-H ) :   0.9492 B(  5-C ,  6-N ) :   0.8617 B(  5-C , 10-H ) :   0.1329
B(  5-C , 11-H ) :   0.1219 B(  5-C , 12-H ) :   0.8768 B(  5-C , 13-H ) :   0.9590
B(  5-C , 14-H ) :  -0.1605 B(  6-N ,  7-C ) :   0.7813 B(  6-N ,  8-C ) :   0.3436
B(  6-N ,  9-N ) :   0.2193 B(  6-N , 14-H ) :   1.4882 B(  7-C ,  8-C ) :   1.5823
B(  7-C ,  9-N ) :   0.9217 B(  7-C , 14-H ) :  -0.3518 B(  7-C , 15-H ) :   0.2171
B(  7-C , 16-H ) :   0.1235 B(  8-C ,  9-N ) :   0.2511 B(  8-C , 15-H ) :   0.6332
B(  8-C , 16-H ) :   1.0303 B(  9-N , 17-H ) :   1.1784 B(  9-N , 18-H ) :   1.1485
B( 17-H , 18-H ) :  -0.1633

Dispersion correction           -0.005031344
FINAL SINGLE POINT ENERGY      -306.951306551191

DIPOLE MOMENT
-------------
                                X             Y             Z
Electronic contribution:     -6.45684      -1.25588       0.63850
Nuclear contribution   :      6.01378      -0.21553      -0.80638
                        -----------------------------------------
Total Dipole Moment    :     -0.44305      -1.47141      -0.16788
                        -----------------------------------------
Magnitude (a.u.)       :      1.54581
Magnitude (Debye)      :      3.92914

Rotational constants in cm-1:     0.218667     0.042468     0.038938
Rotational constants in MHz :  6555.461162  1273.146687  1167.318844

                             ****ORCA TERMINATED NORMALLY****
TOTAL RUN TIME: 0 days 0 hours 1 minutes 15 seconds 93 msec
