                         Program Version 5.0.0 -  RELEASE  -
|  1> !wB97X-D3 RIJCOSX def2-SVPD def2/J TightSCF CPCM(Water)
|  2> * xyz 0 1
|  3> C         -4.59200        8.36400        0.37100
|  4> H         -4.42564        7.55693       -0.31154
|  5> H         -3.85268        8.33554        1.14398
|  6> H         -4.52419        9.29426       -0.15332
|  7> C         -6.01000        8.22600        1.00300
|  8> C         -7.13600        8.26100       -0.06800
|  9> N         -8.43900        8.07000        0.57500
| 10> C         -9.09500        9.01200        1.21400
| 11> N         -8.69500       10.25200        1.36600
| 12> C        -10.23900        8.63800        1.72700
| 13> H         -6.08000        7.29700        1.59000
| 14> H         -6.17500        9.05900        1.70400
| 15> H         -7.11400        9.18600       -0.66400
| 16> H         -6.95400        7.44200       -0.78200
| 17> H         -8.87200        7.13500        0.50700
| 18> H         -7.80900       10.58900        0.97300
| 19> H         -9.27300       10.92700        1.88900
| 20> H        -10.59900        7.67600        1.63600
| 21> H        -10.80200        9.33100        2.24000
| 22> *
| 23> %MaxCore 64000
| 24> %scf
| 25>   Convergence VeryTight
| 26>   MaxIter 400
| 27> end
| 28> %pal nprocs 4
| 29> end
| 30>
| 31>                          ****END OF INPUT****

CARTESIAN COORDINATES (ANGSTROEM)
---------------------------------
  C     -4.592000    8.364000    0.371000
  H     -4.425640    7.556930   -0.311540
  H     -3.852680    8.335540    1.143980
  H     -4.524190    9.294260   -0.153320
  C     -6.010000    8.226000    1.003000
  C     -7.136000    8.261000   -0.068000
  N     -8.439000    8.070000    0.575000
  C     -9.095000    9.012000    1.214000
  N     -8.695000   10.252000    1.366000
  C    -10.239000    8.638000    1.727000
  H     -6.080000    7.297000    1.590000
  H     -6.175000    9.059000    1.704000
  H     -7.114000    9.186000   -0.664000
  H     -6.954000    7.442000   -0.782000
  H     -8.872000    7.135000    0.507000
  H     -7.809000   10.589000    0.973000
  H     -9.273000   10.927000    1.889000
  H    -10.599000    7.676000    1.636000
  H    -10.802000    9.331000    2.240000

 Total Charge           Charge          ....    0
 Multiplicity           Mult            ....    1
 Number of Electrons    NEL             ....   56
 Basis Dimension        Dim             ....  236

ORBITAL ENERGIES
----------------

  NO   OCC          E(Eh)            E(eV)
   0   2.0000     -14.438286      -392.8857
   1   2.0000     -14.434977      -392.7957
   2   2.0000     -10.339258      -281.3455
   3   2.0000     -10.319854      -280.8175
   4   2.0000     -10.284422      -279.8533
   5   2.0000     -10.269387      -279.4442
   6   2.0000     -10.201939      -277.6089
   7   2.0000      -1.080716       -29.4078
   8   2.0000      -0.990832       -26.9619
   9   2.0000      -0.887267       -24.1438
  10   2.0000      -0.830967       -22.6118
  11   2.0000      -0.764962       -20.8157
  12   2.0000      -0.707840       -19.2613
  13   2.0000      -0.690936       -18.8013
  14   2.0000      -0.639946       -17.4138
  15   2.0000      -0.595272       -16.1982
  16   2.0000      -0.575447       -15.6587
  17   2.0000      -0.549599       -14.9554
  18   2.0000      -0.531639       -14.4666
  19   2.0000      -0.506595       -13.7851
  20   2.0000      -0.488420       -13.2906
  21   2.0000      -0.476595       -12.9688
  22   2.0000      -0.469361       -12.7720
  23   2.0000      -0.440755       -11.9936
  24   2.0000      -0.437984       -11.9182
  25   2.0000      -0.422699       -11.5022
  26   2.0000      -0.346286        -9.4229
  27   2.0000      -0.252533        -6.8718
  28   0.0000       0.093350         2.5402
  29   0.0000       0.108436         2.9507
  30   0.0000       0.123670         3.3652
  31   0.0000       0.130657         3.5554
  32   0.0000       0.137226         3.7341

MULLIKEN ATOMIC CHARGES
-----------------------
   0 C :    0.683316
   1 H :   -0.012808
   2 H :   -0.052459
   3 H :   -0.034266
   4 C :   -0.315168
   5 C :    0.491650
   6 N :   -0.450214
   7 C :    0.683023
   8 N :    0.041543
   9 C :    0.113160
  10 H :   -0.079778
  11 H :   -0.049128
  12 H :    0.021451
  13 H :   -0.201774
  14 H :   -0.179811
  15 H :   -0.047936
  16 H :   -0.072547
  17 H :   -0.251962
  18 H :   -0.286291
Sum of atomic charges:    0.0000000

LOEWDIN ATOMIC CHARGES
----------------------
   0 C :    0.117606
   1 H :   -0.020374
   2 H :   -0.021058
   3 H :   -0.018859
   4 C :   -0.063129
   5 C :    0.050736
   6 N :   -0.029071
   7 C :   -0.289094
   8 N :    0.195312
   9 C :    0.079464
  10 H :    0.020929
  11 H :    0.005217
  12 H :    0.025246
  13 H :    0.031146
  14 H :    0.062623
  15 H :    0.011858
  16 H :    0.041606
  17 H :   -0.097041
  18 H :   -0.103116

  Mayer bond orders larger than 0.100000
B(  0-C ,  1-H ) :   0.8287 B(  0-C ,  2-H ) :   0.7812 B(  0-C ,  3-H ) :   0.8574
B(  0-C ,  4-C ) :   1.2218 B(  1-H ,  4-C ) :   0.1529 B(  2-H ,  4-C ) :   0.2241
B(  3-H ,  4-C ) :   0.1645 B(  4-C ,  5-C ) :   1.1369 B(  4-C , 10-H ) :   0.9821
B(  4-C , 11-H ) :   0.9359 B(  5-C ,  6-N ) :   0.8895 B(  5-C , 10-H ) :   0.1523
B(  5-C , 11-H ) :   0.1277 B(  5-C , 12-H ) :   0.8896 B(  5-C , 13-H ) :   0.9442
B(  5-C , 14-H ) :  -0.1681 B(  6-N ,  7-C ) :   0.9850 B(  6-N ,  8-N ) :   0.1542
B(  6-N ,  9-C ) :   0.2645 B(  6-N , 12-H ) :   0.1278 B(  6-N , 13-H ) :   0.1153
B(  6-N , 14-H ) :   1.3211 B(  7-C ,  8-N ) :   1.0147 B(  7-C ,  9-C ) :   1.3893
B(  7-C , 14-H ) :  -0.2519 B(  7-C , 16-H ) :  -0.1283 B(  7-C , 18-H ) :   0.1852
B(  8-N ,  9-C ) :   0.2025 B(  8-N , 15-H ) :   1.0838 B(  8-N , 16-H ) :   1.2537
B(  9-C , 17-H ) :   0.9545 B(  9-C , 18-H ) :   0.8017 B( 15-H , 16-H ) :  -0.1761

Dispersion correction           -0.005073751
FINAL SINGLE POINT ENERGY      -306.942058208600

DIPOLE MOMENT
-------------
                                X             Y             Z
Electronic contribution:     -4.28483       0.93590       0.09129
Nuclear contribution   :      5.67556      -0.56908      -0.72731
                        -----------------------------------------
Total Dipole Moment    :      1.39074       0.36682      -0.63601
                        -----------------------------------------
Magnitude (a.u.)       :      1.57265
Magnitude (Debye)      :      3.99735

Rotational constants in cm-1:     0.209855     0.043593     0.039539
Rotational constants in MHz :  6291.306960  1306.879247  1185.360093

                             ****ORCA TERMINATED NORMALLY****
TOTAL RUN TIME: 0 days 0 hours 1 minutes 14 seconds 882 msec
