                         Program Version 5.0.0 -  RELEASE  -
|  1> !PBE D3BJ RIJCOSX def2-TZVP def2/J TightSCF
|  2> *xyz -1 1
|  3> C          0.84888        2.66797       -4.30235
|  4> C          2.09343        1.86104       -4.65684
|  5> H          2.44481        2.04157       -5.67499
|  6> H          2.90175        2.13786       -3.98034
|  7> S          1.87964        0.07859       -4.46297
|  8> O          3.20757       -0.46611       -4.42026
|  9> O          1.07506       -0.05616       -3.26876
| 10> O          1.13166       -0.31996       -5.67903
| 11> H          0.05064        2.40112       -4.96303
| 12> H          1.06043        3.71210       -4.40203
| 13> H          0.56237        2.45684       -3.29327
| 14> *
| 15>
| 16> %MaxCore 64000
| 17>
| 18> %pal nprocs 4
| 19> end
| 20>
| 21> %scf
| 22>   MaxIter 150
| 23> end
| 24>
| 25>
| 26>                          ****END OF INPUT****

CARTESIAN COORDINATES (ANGSTROEM)
---------------------------------
  C      0.848880    2.667970   -4.302350
  C      2.093430    1.861040   -4.656840
  H      2.444810    2.041570   -5.674990
  H      2.901750    2.137860   -3.980340
  S      1.879640    0.078590   -4.462970
  O      3.207570   -0.466110   -4.420260
  O      1.075060   -0.056160   -3.268760
  O      1.131660   -0.319960   -5.679030
  H      0.050640    2.401120   -4.963030
  H      1.060430    3.712100   -4.402030
  H      0.562370    2.456840   -3.293270

 Total Charge           Charge          ....   -1
 Multiplicity           Mult            ....    1
 Number of Electrons    NEL             ....   58
 Basis Dimension        Dim             ....  222

ORBITAL ENERGIES
----------------

  NO   OCC          E(Eh)            E(eV)
   0   2.0000     -88.000808     -2394.6237
   1   2.0000     -18.522522      -504.0235
   2   2.0000     -18.519608      -503.9442
   3   2.0000     -18.506756      -503.5944
   4   2.0000      -9.730766      -264.7876
   5   2.0000      -9.726038      -264.6589
   6   2.0000      -7.595851      -206.6936
   7   2.0000      -5.616880      -152.8431
   8   2.0000      -5.615685      -152.8105
   9   2.0000      -5.615405      -152.8029
  10   2.0000      -0.826103       -22.4794
  11   2.0000      -0.702866       -19.1260
  12   2.0000      -0.677868       -18.4457
  13   2.0000      -0.550715       -14.9857
  14   2.0000      -0.430920       -11.7259
  15   2.0000      -0.314297        -8.5525
  16   2.0000      -0.259746        -7.0680
  17   2.0000      -0.254449        -6.9239
  18   2.0000      -0.216656        -5.8955
  19   2.0000      -0.200987        -5.4691
  20   2.0000      -0.196195        -5.3388
  21   2.0000      -0.176386        -4.7997
  22   2.0000      -0.161012        -4.3814
  23   2.0000      -0.096566        -2.6277
  24   2.0000      -0.095206        -2.5907
  25   2.0000      -0.064822        -1.7639
  26   2.0000      -0.059138        -1.6092
  27   2.0000      -0.046470        -1.2645
  28   2.0000      -0.011676        -0.3177
  29   0.0000       0.158957         4.3254
  30   0.0000       0.200642         5.4597
  31   0.0000       0.214003         5.8233
  32   0.0000       0.219674         5.9776
  33   0.0000       0.245324         6.6756

MULLIKEN ATOMIC CHARGES
-----------------------
   0 C :   -0.319035
   1 C :   -0.228362
   2 H :    0.069722
   3 H :    0.063379
   4 S :    0.657537
   5 O :   -0.481406
   6 O :   -0.493597
   7 O :   -0.535346
   8 H :    0.097636
   9 H :    0.058309
  10 H :    0.111163
Sum of atomic charges:   -1.0000000

LOEWDIN ATOMIC CHARGES
----------------------
   0 C :   -0.354144
   1 C :   -0.443052
   2 H :    0.115024
   3 H :    0.114060
   4 S :    0.341748
   5 O :   -0.343963
   6 O :   -0.350807
   7 O :   -0.403908
   8 H :    0.112890
   9 H :    0.097783
  10 H :    0.114369

  Mayer bond orders larger than 0.100000
B(  0-C ,  1-C ) :   0.9833 B(  0-C ,  8-H ) :   0.9689 B(  0-C ,  9-H ) :   0.9510
B(  0-C , 10-H ) :   0.9667 B(  1-C ,  2-H ) :   0.9515 B(  1-C ,  3-H ) :   0.9418
B(  1-C ,  4-S ) :   0.8598 B(  4-S ,  5-O ) :   1.8752 B(  4-S ,  6-O ) :   1.8005
B(  4-S ,  7-O ) :   1.7972

Dispersion correction           -0.009699650
FINAL SINGLE POINT ENERGY      -702.807471973179

DIPOLE MOMENT
-------------
                                X             Y             Z
Electronic contribution:      1.61401      -7.89389       0.05805
Nuclear contribution   :     -1.55288       9.51857       0.00420
                        -----------------------------------------
Total Dipole Moment    :      0.06113       1.62469       0.06225
                        -----------------------------------------
Magnitude (a.u.)       :      1.62703
Magnitude (Debye)      :      4.13557

Rotational constants in cm-1:     0.163401     0.083833     0.082462
Rotational constants in MHz :  4898.624208  2513.264548  2472.149188

                             ****ORCA TERMINATED NORMALLY****
TOTAL RUN TIME: 0 days 0 hours 0 minutes 11 seconds 414 msec
