                         Program Version 5.0.0 -  RELEASE  -
|  1> !PBE D3BJ RIJCOSX def2-TZVP def2/J TightSCF
|  2> *xyz 1 1
|  3> C         -0.46129        2.23469       -4.98962
|  4> C          0.84888        2.66797       -4.30235
|  5> C         -0.42384        2.39877       -6.47432
|  6> N         -0.95947        3.49265       -7.00740
|  7> N          0.14558        1.48689       -7.20399
|  8> H          0.56537        0.69681       -6.72386
|  9> H          0.22068        1.58177       -8.20752
| 10> H         -1.40624        4.18151       -6.40326
| 11> H         -0.93421        3.68160       -7.99947
| 12> H         -1.28888        2.82674       -4.59500
| 13> H         -0.65170        1.18634       -4.75655
| 14> H          1.66208        2.08894       -4.68750
| 15> H          0.76716        2.51042       -3.24717
| 16> H          1.02677        3.70527       -4.49537
| 17> *
| 18>
| 19> %MaxCore 64000
| 20>
| 21> %pal nprocs 4
| 22> end
| 23>
| 24> %scf
| 25>   MaxIter 150
| 26> end
| 27>
| 28>
| 29>                          ****END OF INPUT****

CARTESIAN COORDINATES (ANGSTROEM)
---------------------------------
  C     -0.461290    2.234690   -4.989620
  C      0.848880    2.667970   -4.302350
  C     -0.423840    2.398770   -6.474320
  N     -0.959470    3.492650   -7.007400
  N      0.145580    1.486890   -7.203990
  H      0.565370    0.696810   -6.723860
  H      0.220680    1.581770   -8.207520
  H     -1.406240    4.181510   -6.403260
  H     -0.934210    3.681600   -7.999470
  H     -1.288880    2.826740   -4.595000
  H     -0.651700    1.186340   -4.756550
  H      1.662080    2.088940   -4.687500
  H      0.767160    2.510420   -3.247170
  H      1.026770    3.705270   -4.495370

 Total Charge           Charge          ....    1
 Multiplicity           Mult            ....    1
 Number of Electrons    NEL             ....   40
 Basis Dimension        Dim             ....  209

ORBITAL ENERGIES
----------------

  NO   OCC          E(Eh)            E(eV)
   0   2.0000     -14.230363      -387.2279
   1   2.0000     -14.227118      -387.1396
   2   2.0000     -10.193320      -277.3743
   3   2.0000     -10.079601      -274.2799
   4   2.0000     -10.035116      -273.0694
   5   2.0000      -1.121160       -30.5083
   6   2.0000      -1.032625       -28.0992
   7   2.0000      -0.897382       -24.4190
   8   2.0000      -0.799310       -21.7503
   9   2.0000      -0.757394       -20.6097
  10   2.0000      -0.724992       -19.7280
  11   2.0000      -0.697051       -18.9677
  12   2.0000      -0.652851       -17.7650
  13   2.0000      -0.601203       -16.3596
  14   2.0000      -0.575763       -15.6673
  15   2.0000      -0.568288       -15.4639
  16   2.0000      -0.503030       -13.6882
  17   2.0000      -0.492564       -13.4033
  18   2.0000      -0.485524       -13.2118
  19   2.0000      -0.454001       -12.3540
  20   0.0000      -0.241314        -6.5665
  21   0.0000      -0.183441        -4.9917
  22   0.0000      -0.137592        -3.7441
  23   0.0000      -0.136362        -3.7106
  24   0.0000      -0.110741        -3.0134

MULLIKEN ATOMIC CHARGES
-----------------------
   0 C :   -0.262037
   1 C :   -0.326481
   2 C :    0.280645
   3 N :   -0.304859
   4 N :   -0.268033
   5 H :    0.289174
   6 H :    0.271938
   7 H :    0.289018
   8 H :    0.270599
   9 H :    0.147016
  10 H :    0.164844
  11 H :    0.133744
  12 H :    0.173943
  13 H :    0.140489
Sum of atomic charges:    1.0000000

LOEWDIN ATOMIC CHARGES
----------------------
   0 C :   -0.224771
   1 C :   -0.261275
   2 C :   -0.315007
   3 N :    0.117576
   4 N :    0.140002
   5 H :    0.213534
   6 H :    0.199876
   7 H :    0.209374
   8 H :    0.193735
   9 H :    0.162865
  10 H :    0.166538
  11 H :    0.126706
  12 H :    0.140902
  13 H :    0.129944

  Mayer bond orders larger than 0.100000
B(  0-C ,  1-C ) :   0.9872 B(  0-C ,  2-C ) :   1.0058 B(  0-C ,  9-H ) :   0.9451
B(  0-C , 10-H ) :   0.9371 B(  1-C , 11-H ) :   0.9625 B(  1-C , 12-H ) :   0.9547
B(  1-C , 13-H ) :   0.9575 B(  2-C ,  3-N ) :   1.4604 B(  2-C ,  4-N ) :   1.4947
B(  3-N ,  7-H ) :   0.8837 B(  3-N ,  8-H ) :   0.8891 B(  4-N ,  5-H ) :   0.8821
B(  4-N ,  6-H ) :   0.8865

Dispersion correction           -0.010109811
FINAL SINGLE POINT ENERGY      -228.829082775418

DIPOLE MOMENT
-------------
                                X             Y             Z
Electronic contribution:     -1.55232      -0.25999      -3.89313
Nuclear contribution   :      1.33202       0.27544       2.83701
                        -----------------------------------------
Total Dipole Moment    :     -0.22030       0.01545      -1.05613
                        -----------------------------------------
Magnitude (a.u.)       :      1.07897
Magnitude (Debye)      :      2.74252

Rotational constants in cm-1:     0.258570     0.126296     0.098869
Rotational constants in MHz :  7751.748523  3786.267300  2964.011691

                             ****ORCA TERMINATED NORMALLY****
TOTAL RUN TIME: 0 days 0 hours 0 minutes 11 seconds 83 msec
