                         Program Version 5.0.0 -  RELEASE  -
|  1> !PBE D3BJ RIJCOSX def2-TZVP def2/J TightSCF xyzfile
|  2>
|  3> *xyzfile 0 1 B.xyz
|  4>
|  5> %MaxCore 64000
|  6>
|  7> %pal nprocs 18
|  8> end
|  9>
| 10> %scf
| 11>   MaxIter 150
| 12> end
| 13>
| 14>
| 15>                          ****END OF INPUT****

CARTESIAN COORDINATES (ANGSTROEM)
---------------------------------
  C     -0.461293    2.234686   -4.989619
  C      0.848883    2.667967   -4.302351
  C      2.093434    1.861037   -4.656845
  H      2.444814    2.041567   -5.674990
  H      2.901748    2.137864   -3.980338
  S      1.879644    0.078594   -4.462965
  C     -0.423841    2.398772   -6.474317
  N     -0.959467    3.492647   -7.007401
  N      0.145585    1.486891   -7.203987
  H      0.565371    0.696807   -6.723858
  H      0.220682    1.581768   -8.207520
  H     -1.406243    4.181507   -6.403261
  H     -0.934215    3.681601   -7.999468
  O      3.207574   -0.466111   -4.420259
  O      1.075064   -0.056160   -3.268758
  O      1.131661   -0.319960   -5.679031
  H      0.668432    2.559427   -3.232850
  H      1.034074    3.729426   -4.497081
  H     -1.288884    2.826737   -4.594997
  H     -0.651696    1.186343   -4.756552

 Total Charge           Charge          ....    0
 Multiplicity           Mult            ....    1
 Number of Electrons    NEL             ....   88
 Basis Dimension        Dim             ....  376

ORBITAL ENERGIES
----------------

  NO   OCC          E(Eh)            E(eV)
   0   2.0000     -88.158494     -2398.9146
   1   2.0000     -18.685661      -508.4627
   2   2.0000     -18.670903      -508.0611
   3   2.0000     -18.668857      -508.0054
   4   2.0000     -14.089480      -383.3942
   5   2.0000     -14.056967      -382.5095
   6   2.0000     -10.042487      -273.2700
   7   2.0000      -9.929268      -270.1891
   8   2.0000      -9.908788      -269.6318
   9   2.0000      -9.883301      -268.9383
  10   2.0000      -7.753709      -210.9891
  11   2.0000      -5.774988      -157.1454
  12   2.0000      -5.773938      -157.1168
  13   2.0000      -5.772553      -157.0791
  14   2.0000      -0.984364       -26.7859
  15   2.0000      -0.970974       -26.4215
  16   2.0000      -0.883766       -24.0485
  17   2.0000      -0.851511       -23.1708
  18   2.0000      -0.850050       -23.1310
  19   2.0000      -0.758740       -20.6464
  20   2.0000      -0.684948       -18.6384
  21   2.0000      -0.630665       -17.1613
  22   2.0000      -0.587796       -15.9947
  23   2.0000      -0.577241       -15.7075
  24   2.0000      -0.545638       -14.8476
  25   2.0000      -0.507928       -13.8214
  26   2.0000      -0.463150       -12.6030
  27   2.0000      -0.461499       -12.5580
  28   2.0000      -0.431515       -11.7421
  29   2.0000      -0.422044       -11.4844
  30   2.0000      -0.395678       -10.7669
  31   2.0000      -0.383854       -10.4452
  32   2.0000      -0.360082        -9.7983
  33   2.0000      -0.351627        -9.5683
  34   2.0000      -0.343914        -9.3584
  35   2.0000      -0.329257        -8.9595
  36   2.0000      -0.314312        -8.5529
  37   2.0000      -0.305094        -8.3020
  38   2.0000      -0.254680        -6.9302
  39   2.0000      -0.248990        -6.7754
  40   2.0000      -0.223654        -6.0859
  41   2.0000      -0.212146        -5.7728
  42   2.0000      -0.208941        -5.6856
  43   2.0000      -0.172140        -4.6842
  44   0.0000      -0.092962        -2.5296
  45   0.0000      -0.056977        -1.5504
  46   0.0000      -0.017848        -0.4857
  47   0.0000       0.003696         0.1006
  48   0.0000       0.030073         0.8183

MULLIKEN ATOMIC CHARGES
-----------------------
   0 C :   -0.263413
   1 C :   -0.132772
   2 C :   -0.322865
   3 H :    0.105273
   4 H :    0.130282
   5 S :    0.708385
   6 C :    0.223883
   7 N :   -0.333178
   8 N :   -0.260018
   9 H :    0.285253
  10 H :    0.221251
  11 H :    0.262365
  12 H :    0.242146
  13 O :   -0.430752
  14 O :   -0.444065
  15 O :   -0.516665
  16 H :    0.131613
  17 H :    0.085267
  18 H :    0.109434
  19 H :    0.198578
Sum of atomic charges:    0.0000000

LOEWDIN ATOMIC CHARGES
----------------------
   0 C :   -0.215363
   1 C :   -0.277469
   2 C :   -0.402788
   3 H :    0.123542
   4 H :    0.140748
   5 S :    0.376903
   6 C :   -0.326609
   7 N :    0.073066
   8 N :    0.140203
   9 H :    0.146180
  10 H :    0.177293
  11 H :    0.193760
  12 H :    0.178127
  13 O :   -0.288034
  14 O :   -0.306022
  15 O :   -0.347189
  16 H :    0.157106
  17 H :    0.134330
  18 H :    0.149001
  19 H :    0.173214

  Mayer bond orders larger than 0.100000
B(  0-C ,  1-C ) :   0.9646 B(  0-C ,  6-C ) :   1.0071 B(  0-C , 18-H ) :   0.9423
B(  0-C , 19-H ) :   0.9186 B(  1-C ,  2-C ) :   1.0151 B(  1-C , 16-H ) :   0.9275
B(  1-C , 17-H ) :   0.9281 B(  2-C ,  3-H ) :   0.9388 B(  2-C ,  4-H ) :   0.9425
B(  2-C ,  5-S ) :   0.8842 B(  5-S , 13-O ) :   1.9543 B(  5-S , 14-O ) :   1.8104
B(  5-S , 15-O ) :   1.5054 B(  6-C ,  7-N ) :   1.3676 B(  6-C ,  8-N ) :   1.6032
B(  7-N , 11-H ) :   0.8936 B(  7-N , 12-H ) :   0.8990 B(  8-N ,  9-H ) :   0.7323
B(  8-N , 10-H ) :   0.9009 B(  9-H , 15-O ) :   0.2383

Dispersion correction           -0.022855477
FINAL SINGLE POINT ENERGY      -891.327809166572

DIPOLE MOMENT
-------------
                                X             Y             Z
Electronic contribution:      3.17937      -7.84311       1.14965
Nuclear contribution   :     -5.91573      12.15027      -4.18945
                        -----------------------------------------
Total Dipole Moment    :     -2.73636       4.30716      -3.03980
                        -----------------------------------------
Magnitude (a.u.)       :      5.93967
Magnitude (Debye)      :     15.09745

Rotational constants in cm-1:     0.082044     0.024757     0.022371
Rotational constants in MHz :  2459.631375   742.181961   670.660570

                             ****ORCA TERMINATED NORMALLY****
TOTAL RUN TIME: 0 days 0 hours 0 minutes 14 seconds 521 msec
