                         Program Version 5.0.0 -  RELEASE  -
|  1> !PBE D3BJ RIJCOSX def2-TZVP def2/J TightSCF
|  2> *xyz 0 1
|  3> C          0.84888        2.66797       -4.30235
|  4> C          2.09343        1.86104       -4.65684
|  5> H          2.44481        2.04157       -5.67499
|  6> H          2.90175        2.13786       -3.98034
|  7> S          1.87964        0.07859       -4.46297
|  8> F          3.20757       -0.46611       -4.42026
|  9> O          1.07506       -0.05616       -3.26876
| 10> O          1.13166       -0.31996       -5.67903
| 11> H          0.05064        2.40112       -4.96303
| 12> H          1.06043        3.71210       -4.40203
| 13> H          0.56237        2.45684       -3.29327
| 14> *
| 15>
| 16> %MaxCore 64000
| 17>
| 18> %pal nprocs 4
| 19> end
| 20>
| 21> %scf
| 22>   MaxIter 150
| 23> end
| 24>
| 25>
| 26>                          ****END OF INPUT****

CARTESIAN COORDINATES (ANGSTROEM)
---------------------------------
  C      0.848880    2.667970   -4.302350
  C      2.093430    1.861040   -4.656840
  H      2.444810    2.041570   -5.674990
  H      2.901750    2.137860   -3.980340
  S      1.879640    0.078590   -4.462970
  F      3.207570   -0.466110   -4.420260
  O      1.075060   -0.056160   -3.268760
  O      1.131660   -0.319960   -5.679030
  H      0.050640    2.401120   -4.963030
  H      1.060430    3.712100   -4.402030
  H      0.562370    2.456840   -3.293270

 Total Charge           Charge          ....    0
 Multiplicity           Mult            ....    1
 Number of Electrons    NEL             ....   58
 Basis Dimension        Dim             ....  222

ORBITAL ENERGIES
----------------

  NO   OCC          E(Eh)            E(eV)
   0   2.0000     -88.265875     -2401.8366
   1   2.0000     -24.375479      -663.2905
   2   2.0000     -18.758574      -510.4468
   3   2.0000     -18.746631      -510.1218
   4   2.0000      -9.935628      -270.3622
   5   2.0000      -9.893059      -269.2038
   6   2.0000      -7.861559      -213.9239
   7   2.0000      -5.885816      -160.1612
   8   2.0000      -5.879370      -159.9858
   9   2.0000      -5.879145      -159.9797
  10   2.0000      -1.281189       -34.8629
  11   2.0000      -1.011437       -27.5226
  12   2.0000      -0.915832       -24.9211
  13   2.0000      -0.743410       -20.2292
  14   2.0000      -0.668265       -18.1844
  15   2.0000      -0.607971       -16.5437
  16   2.0000      -0.524941       -14.2844
  17   2.0000      -0.522767       -14.2252
  18   2.0000      -0.495316       -13.4782
  19   2.0000      -0.439910       -11.9706
  20   2.0000      -0.428329       -11.6554
  21   2.0000      -0.390625       -10.6294
  22   2.0000      -0.380393       -10.3510
  23   2.0000      -0.359854        -9.7921
  24   2.0000      -0.340903        -9.2764
  25   2.0000      -0.333869        -9.0850
  26   2.0000      -0.287419        -7.8211
  27   2.0000      -0.274002        -7.4560
  28   2.0000      -0.257225        -6.9994
  29   0.0000      -0.012319        -0.3352
  30   0.0000       0.009442         0.2569
  31   0.0000       0.031198         0.8490
  32   0.0000       0.038694         1.0529
  33   0.0000       0.050081         1.3628

MULLIKEN ATOMIC CHARGES
-----------------------
   0 C :   -0.345869
   1 C :   -0.239381
   2 H :    0.139601
   3 H :    0.122429
   4 S :    0.711079
   5 F :   -0.050358
   6 O :   -0.355157
   7 O :   -0.391510
   8 H :    0.140062
   9 H :    0.125585
  10 H :    0.143518
Sum of atomic charges:   -0.0000000

LOEWDIN ATOMIC CHARGES
----------------------
   0 C :   -0.310638
   1 C :   -0.407793
   2 H :    0.137858
   3 H :    0.133181
   4 S :    0.460232
   5 F :    0.123264
   6 O :   -0.235164
   7 O :   -0.281870
   8 H :    0.127880
   9 H :    0.125716
  10 H :    0.127333

  Mayer bond orders larger than 0.100000
B(  0-C ,  1-C ) :   1.0050 B(  0-C ,  8-H ) :   0.9652 B(  0-C ,  9-H ) :   0.9489
B(  0-C , 10-H ) :   0.9618 B(  1-C ,  2-H ) :   0.9303 B(  1-C ,  3-H ) :   0.9255
B(  1-C ,  4-S ) :   0.9066 B(  4-S ,  5-F ) :   1.1831 B(  4-S ,  6-O ) :   1.9454
B(  4-S ,  7-O ) :   1.9294

Dispersion correction           -0.009290058
FINAL SINGLE POINT ENERGY      -727.314013537465

DIPOLE MOMENT
-------------
                                X             Y             Z
Electronic contribution:      4.11725      -9.42583       0.10262
Nuclear contribution   :     -3.08754      10.54185      -0.04092
                        -----------------------------------------
Total Dipole Moment    :      1.02971       1.11602       0.06171
                        -----------------------------------------
Magnitude (a.u.)       :      1.51974
Magnitude (Debye)      :      3.86288

Rotational constants in cm-1:     0.158925     0.081210     0.079022
Rotational constants in MHz :  4764.450166  2434.603461  2369.014434

                             ****ORCA TERMINATED NORMALLY****
TOTAL RUN TIME: 0 days 0 hours 0 minutes 14 seconds 77 msec
