                         Program Version 5.0.0 -  RELEASE  -
|  1> !PBE D3BJ RIJCOSX def2-TZVP def2/J TightSCF
|  2> *xyz 0 1
|  3> C         -0.46129        2.23469       -4.98962
|  4> C          0.84888        2.66797       -4.30235
|  5> C         -0.42384        2.39877       -6.47432
|  6> C         -0.95947        3.49265       -7.00740
|  7> N          0.14558        1.48689       -7.20399
|  8> H          0.56537        0.69681       -6.72386
|  9> H          0.22068        1.58177       -8.20752
| 10> H         -1.40624        4.18151       -6.40326
| 11> H         -0.93421        3.68160       -7.99947
| 12> H         -1.28888        2.82674       -4.59500
| 13> H         -0.65170        1.18634       -4.75655
| 14> H          1.66208        2.08894       -4.68750
| 15> H          0.76716        2.51042       -3.24717
| 16> H          1.02677        3.70527       -4.49537
| 17> *
| 18>
| 19> %MaxCore 64000
| 20>
| 21> %pal nprocs 4
| 22> end
| 23>
| 24> %scf
| 25>   MaxIter 150
| 26> end
| 27>
| 28>
| 29>                          ****END OF INPUT****

CARTESIAN COORDINATES (ANGSTROEM)
---------------------------------
  C     -0.461290    2.234690   -4.989620
  C      0.848880    2.667970   -4.302350
  C     -0.423840    2.398770   -6.474320
  C     -0.959470    3.492650   -7.007400
  N      0.145580    1.486890   -7.203990
  H      0.565370    0.696810   -6.723860
  H      0.220680    1.581770   -8.207520
  H     -1.406240    4.181510   -6.403260
  H     -0.934210    3.681600   -7.999470
  H     -1.288880    2.826740   -4.595000
  H     -0.651700    1.186340   -4.756550
  H      1.662080    2.088940   -4.687500
  H      0.767160    2.510420   -3.247170
  H      1.026770    3.705270   -4.495370

 Total Charge           Charge          ....    0
 Multiplicity           Mult            ....    1
 Number of Electrons    NEL             ....   40
 Basis Dimension        Dim             ....  209

ORBITAL ENERGIES
----------------

  NO   OCC          E(Eh)            E(eV)
   0   2.0000     -13.986506      -380.5922
   1   2.0000      -9.895177      -269.2614
   2   2.0000      -9.879665      -268.8394
   3   2.0000      -9.864330      -268.4221
   4   2.0000      -9.809795      -266.9381
   5   2.0000      -0.855424       -23.2773
   6   2.0000      -0.705715       -19.2035
   7   2.0000      -0.643130       -17.5005
   8   2.0000      -0.572398       -15.5757
   9   2.0000      -0.514270       -13.9940
  10   2.0000      -0.478810       -13.0291
  11   2.0000      -0.428683       -11.6651
  12   2.0000      -0.389961       -10.6114
  13   2.0000      -0.372088       -10.1250
  14   2.0000      -0.345425        -9.3995
  15   2.0000      -0.335579        -9.1316
  16   2.0000      -0.308988        -8.4080
  17   2.0000      -0.291772        -7.9395
  18   2.0000      -0.288516        -7.8509
  19   2.0000      -0.155371        -4.2279
  20   0.0000       0.002149         0.0585
  21   0.0000       0.019993         0.5440
  22   0.0000       0.046690         1.2705
  23   0.0000       0.056869         1.5475
  24   0.0000       0.068423         1.8619

MULLIKEN ATOMIC CHARGES
-----------------------
   0 C :   -0.221069
   1 C :   -0.319440
   2 C :    0.206847
   3 C :   -0.420752
   4 N :   -0.382829
   5 H :    0.216186
   6 H :    0.218126
   7 H :    0.093650
   8 H :    0.080577
   9 H :    0.109630
  10 H :    0.085709
  11 H :    0.099244
  12 H :    0.114068
  13 H :    0.120054
Sum of atomic charges:   -0.0000000

LOEWDIN ATOMIC CHARGES
----------------------
   0 C :   -0.243333
   1 C :   -0.296883
   2 C :   -0.386895
   3 C :   -0.281192
   4 N :    0.027061
   5 H :    0.172328
   6 H :    0.173308
   7 H :    0.106708
   8 H :    0.094470
   9 H :    0.149449
  10 H :    0.135072
  11 H :    0.113813
  12 H :    0.115690
  13 H :    0.120404

  Mayer bond orders larger than 0.100000
B(  0-C ,  1-C ) :   0.9892 B(  0-C ,  2-C ) :   0.9866 B(  0-C ,  9-H ) :   0.9649
B(  0-C , 10-H ) :   0.9488 B(  1-C , 11-H ) :   0.9699 B(  1-C , 12-H ) :   0.9649
B(  1-C , 13-H ) :   0.9719 B(  2-C ,  3-C ) :   1.7428 B(  2-C ,  4-N ) :   1.2295
B(  3-C ,  7-H ) :   0.9794 B(  3-C ,  8-H ) :   0.9744 B(  4-N ,  5-H ) :   0.9169
B(  4-N ,  6-H ) :   0.9108

Dispersion correction           -0.010483371
FINAL SINGLE POINT ENERGY      -212.359885476458

DIPOLE MOMENT
-------------
                                X             Y             Z
Electronic contribution:     -0.70477      -1.20297      -2.62134
Nuclear contribution   :      1.14741       0.51394       2.60761
                        -----------------------------------------
Total Dipole Moment    :      0.44264      -0.68903      -0.01374
                        -----------------------------------------
Magnitude (a.u.)       :      0.81907
Magnitude (Debye)      :      2.08191

Rotational constants in cm-1:     0.269157     0.129188     0.102123
Rotational constants in MHz :  8069.118715  3872.945231  3061.580645

                             ****ORCA TERMINATED NORMALLY****
TOTAL RUN TIME: 0 days 0 hours 0 minutes 11 seconds 48 msec
