                         Program Version 5.0.0 -  RELEASE  -
|  1> !PBE D3BJ RIJCOSX def2-TZVP def2/J TightSCF
|  2> *xyz 0 1
|  3> C          0.84888        2.66797       -4.30235
|  4> C          2.09343        1.86104       -4.65684
|  5> H          2.44481        2.04157       -5.67499
|  6> H          2.90175        2.13786       -3.98034
|  7> S          1.87964        0.07859       -4.46297
|  8> O          3.20757       -0.46611       -4.42026
|  9> F          1.07506       -0.05616       -3.26876
| 10> O          1.13166       -0.31996       -5.67903
| 11> H          0.05064        2.40112       -4.96303
| 12> H          1.06043        3.71210       -4.40203
| 13> H          0.56237        2.45684       -3.29327
| 14> *
| 15>
| 16> %MaxCore 64000
| 17>
| 18> %pal nprocs 4
| 19> end
| 20>
| 21> %scf
| 22>   MaxIter 150
| 23> end
| 24>
| 25>
| 26>                          ****END OF INPUT****

CARTESIAN COORDINATES (ANGSTROEM)
---------------------------------
  C      0.848880    2.667970   -4.302350
  C      2.093430    1.861040   -4.656840
  H      2.444810    2.041570   -5.674990
  H      2.901750    2.137860   -3.980340
  S      1.879640    0.078590   -4.462970
  O      3.207570   -0.466110   -4.420260
  F      1.075060   -0.056160   -3.268760
  O      1.131660   -0.319960   -5.679030
  H      0.050640    2.401120   -4.963030
  H      1.060430    3.712100   -4.402030
  H      0.562370    2.456840   -3.293270

 Total Charge           Charge          ....    0
 Multiplicity           Mult            ....    1
 Number of Electrons    NEL             ....   58
 Basis Dimension        Dim             ....  222

ORBITAL ENERGIES
----------------

  NO   OCC          E(Eh)            E(eV)
   0   2.0000     -88.265309     -2401.8212
   1   2.0000     -24.370116      -663.1446
   2   2.0000     -18.762042      -510.5411
   3   2.0000     -18.746866      -510.1282
   4   2.0000      -9.935575      -270.3608
   5   2.0000      -9.899283      -269.3732
   6   2.0000      -7.861011      -213.9090
   7   2.0000      -5.885454      -160.1513
   8   2.0000      -5.878741      -159.9687
   9   2.0000      -5.878542      -159.9633
  10   2.0000      -1.272864       -34.6364
  11   2.0000      -1.015434       -27.6314
  12   2.0000      -0.918877       -25.0039
  13   2.0000      -0.748437       -20.3660
  14   2.0000      -0.662065       -18.0157
  15   2.0000      -0.610964       -16.6252
  16   2.0000      -0.532296       -14.4845
  17   2.0000      -0.516391       -14.0517
  18   2.0000      -0.486922       -13.2498
  19   2.0000      -0.442117       -12.0306
  20   2.0000      -0.421891       -11.4802
  21   2.0000      -0.399582       -10.8732
  22   2.0000      -0.388124       -10.5614
  23   2.0000      -0.364894        -9.9293
  24   2.0000      -0.349479        -9.5098
  25   2.0000      -0.334706        -9.1078
  26   2.0000      -0.289352        -7.8737
  27   2.0000      -0.274489        -7.4692
  28   2.0000      -0.260330        -7.0839
  29   0.0000      -0.018515        -0.5038
  30   0.0000       0.017507         0.4764
  31   0.0000       0.025051         0.6817
  32   0.0000       0.043169         1.1747
  33   0.0000       0.051014         1.3882

MULLIKEN ATOMIC CHARGES
-----------------------
   0 C :   -0.357644
   1 C :   -0.239919
   2 H :    0.154015
   3 H :    0.135481
   4 S :    0.711492
   5 O :   -0.340445
   6 F :   -0.062498
   7 O :   -0.394240
   8 H :    0.142268
   9 H :    0.128800
  10 H :    0.122690
Sum of atomic charges:   -0.0000000

LOEWDIN ATOMIC CHARGES
----------------------
   0 C :   -0.325723
   1 C :   -0.399628
   2 H :    0.148093
   3 H :    0.137689
   4 S :    0.463110
   5 O :   -0.226279
   6 F :    0.114279
   7 O :   -0.282619
   8 H :    0.125879
   9 H :    0.126178
  10 H :    0.119023

  Mayer bond orders larger than 0.100000
B(  0-C ,  1-C ) :   0.9892 B(  0-C ,  8-H ) :   0.9635 B(  0-C ,  9-H ) :   0.9532
B(  0-C , 10-H ) :   0.9656 B(  1-C ,  2-H ) :   0.9362 B(  1-C ,  3-H ) :   0.9309
B(  1-C ,  4-S ) :   0.9009 B(  4-S ,  5-O ) :   1.9964 B(  4-S ,  6-F ) :   1.1567
B(  4-S ,  7-O ) :   1.9247

Dispersion correction           -0.009228771
FINAL SINGLE POINT ENERGY      -727.318250959420

DIPOLE MOMENT
-------------
                                X             Y             Z
Electronic contribution:      0.57773      -8.71836       1.99795
Nuclear contribution   :     -0.86540      10.11467      -1.24082
                        -----------------------------------------
Total Dipole Moment    :     -0.28767       1.39631       0.75713
                        -----------------------------------------
Magnitude (a.u.)       :      1.61421
Magnitude (Debye)      :      4.10301

Rotational constants in cm-1:     0.154065     0.083345     0.080357
Rotational constants in MHz :  4618.752213  2498.631937  2409.037217

                             ****ORCA TERMINATED NORMALLY****
TOTAL RUN TIME: 0 days 0 hours 0 minutes 11 seconds 535 msec
