                         Program Version 5.0.0 -  RELEASE  -
|  1> !PBE D3BJ RIJCOSX def2-TZVP def2/J TightSCF
|  2> *xyz 0 1
|  3> C         -0.46129        2.23469       -4.98962
|  4> C          0.84888        2.66797       -4.30235
|  5> C         -0.42384        2.39877       -6.47432
|  6> N         -0.95947        3.49265       -7.00740
|  7> C          0.14558        1.48689       -7.20399
|  8> H          0.56537        0.69681       -6.72386
|  9> H          0.22068        1.58177       -8.20752
| 10> H         -1.40624        4.18151       -6.40326
| 11> H         -0.93421        3.68160       -7.99947
| 12> H         -1.28888        2.82674       -4.59500
| 13> H         -0.65170        1.18634       -4.75655
| 14> H          1.66208        2.08894       -4.68750
| 15> H          0.76716        2.51042       -3.24717
| 16> H          1.02677        3.70527       -4.49537
| 17> *
| 18>
| 19> %MaxCore 64000
| 20>
| 21> %pal nprocs 4
| 22> end
| 23>
| 24> %scf
| 25>   MaxIter 150
| 26> end
| 27>
| 28>
| 29>                          ****END OF INPUT****

CARTESIAN COORDINATES (ANGSTROEM)
---------------------------------
  C     -0.461290    2.234690   -4.989620
  C      0.848880    2.667970   -4.302350
  C     -0.423840    2.398770   -6.474320
  N     -0.959470    3.492650   -7.007400
  C      0.145580    1.486890   -7.203990
  H      0.565370    0.696810   -6.723860
  H      0.220680    1.581770   -8.207520
  H     -1.406240    4.181510   -6.403260
  H     -0.934210    3.681600   -7.999470
  H     -1.288880    2.826740   -4.595000
  H     -0.651700    1.186340   -4.756550
  H      1.662080    2.088940   -4.687500
  H      0.767160    2.510420   -3.247170
  H      1.026770    3.705270   -4.495370

 Total Charge           Charge          ....    0
 Multiplicity           Mult            ....    1
 Number of Electrons    NEL             ....   40
 Basis Dimension        Dim             ....  209

ORBITAL ENERGIES
----------------

  NO   OCC          E(Eh)            E(eV)
   0   2.0000     -13.983379      -380.5071
   1   2.0000      -9.893233      -269.2086
   2   2.0000      -9.879524      -268.8355
   3   2.0000      -9.862916      -268.3836
   4   2.0000      -9.808035      -266.8902
   5   2.0000      -0.843446       -22.9513
   6   2.0000      -0.707222       -19.2445
   7   2.0000      -0.646593       -17.5947
   8   2.0000      -0.573138       -15.5959
   9   2.0000      -0.509095       -13.8532
  10   2.0000      -0.469457       -12.7746
  11   2.0000      -0.430763       -11.7216
  12   2.0000      -0.391272       -10.6470
  13   2.0000      -0.367137        -9.9903
  14   2.0000      -0.346056        -9.4167
  15   2.0000      -0.336965        -9.1693
  16   2.0000      -0.306636        -8.3440
  17   2.0000      -0.294288        -8.0080
  18   2.0000      -0.284622        -7.7450
  19   2.0000      -0.158411        -4.3106
  20   0.0000       0.004247         0.1156
  21   0.0000       0.020650         0.5619
  22   0.0000       0.047398         1.2898
  23   0.0000       0.054675         1.4878
  24   0.0000       0.071500         1.9456

MULLIKEN ATOMIC CHARGES
-----------------------
   0 C :   -0.214694
   1 C :   -0.321045
   2 C :    0.231155
   3 N :   -0.418917
   4 C :   -0.408553
   5 H :    0.096741
   6 H :    0.078867
   7 H :    0.215126
   8 H :    0.215881
   9 H :    0.076692
  10 H :    0.113303
  11 H :    0.118670
  12 H :    0.111509
  13 H :    0.105265
Sum of atomic charges:   -0.0000000

LOEWDIN ATOMIC CHARGES
----------------------
   0 C :   -0.241635
   1 C :   -0.294790
   2 C :   -0.378102
   3 N :    0.004831
   4 C :   -0.269598
   5 H :    0.111670
   6 H :    0.099348
   7 H :    0.167359
   8 H :    0.166882
   9 H :    0.134041
  10 H :    0.148957
  11 H :    0.119750
  12 H :    0.114740
  13 H :    0.116547

  Mayer bond orders larger than 0.100000
B(  0-C ,  1-C ) :   0.9941 B(  0-C ,  2-C ) :   0.9700 B(  0-C ,  9-H ) :   0.9521
B(  0-C , 10-H ) :   0.9663 B(  1-C , 11-H ) :   0.9713 B(  1-C , 12-H ) :   0.9644
B(  1-C , 13-H ) :   0.9710 B(  2-C ,  3-N ) :   1.1859 B(  2-C ,  4-C ) :   1.7738
B(  3-N ,  7-H ) :   0.9183 B(  3-N ,  8-H ) :   0.9136 B(  4-C ,  5-H ) :   0.9798
B(  4-C ,  6-H ) :   0.9730

Dispersion correction           -0.010489846
FINAL SINGLE POINT ENERGY      -212.359636410424

DIPOLE MOMENT
-------------
                                X             Y             Z
Electronic contribution:     -1.72563       0.62262      -2.43650
Nuclear contribution   :      1.40335       0.04939       2.56207
                        -----------------------------------------
Total Dipole Moment    :     -0.32228       0.67201       0.12558
                        -----------------------------------------
Magnitude (a.u.)       :      0.75580
Magnitude (Debye)      :      1.92109

Rotational constants in cm-1:     0.271383     0.128194     0.101873
Rotational constants in MHz :  8135.853259  3843.152748  3054.074278

                             ****ORCA TERMINATED NORMALLY****
TOTAL RUN TIME: 0 days 0 hours 0 minutes 11 seconds 540 msec
