                         Program Version 5.0.0 -  RELEASE  -
|  1> !PBE D3BJ RIJCOSX def2-TZVP def2/J TightSCF
|  2> *xyz 0 1
|  3> C          0.84888        2.66797       -4.30235
|  4> C          2.09343        1.86104       -4.65684
|  5> H          2.44481        2.04157       -5.67499
|  6> H          2.90175        2.13786       -3.98034
|  7> S          1.87964        0.07859       -4.46297
|  8> O          3.20757       -0.46611       -4.42026
|  9> O          1.07506       -0.05616       -3.26876
| 10> F          1.13166       -0.31996       -5.67903
| 11> H          0.05064        2.40112       -4.96303
| 12> H          1.06043        3.71210       -4.40203
| 13> H          0.56237        2.45684       -3.29327
| 14> *
| 15>
| 16> %MaxCore 64000
| 17>
| 18> %pal nprocs 4
| 19> end
| 20>
| 21> %scf
| 22>   MaxIter 150
| 23> end
| 24>
| 25>
| 26>                          ****END OF INPUT****

CARTESIAN COORDINATES (ANGSTROEM)
---------------------------------
  C      0.848880    2.667970   -4.302350
  C      2.093430    1.861040   -4.656840
  H      2.444810    2.041570   -5.674990
  H      2.901750    2.137860   -3.980340
  S      1.879640    0.078590   -4.462970
  O      3.207570   -0.466110   -4.420260
  O      1.075060   -0.056160   -3.268760
  F      1.131660   -0.319960   -5.679030
  H      0.050640    2.401120   -4.963030
  H      1.060430    3.712100   -4.402030
  H      0.562370    2.456840   -3.293270

 Total Charge           Charge          ....    0
 Multiplicity           Mult            ....    1
 Number of Electrons    NEL             ....   58
 Basis Dimension        Dim             ....  222

ORBITAL ENERGIES
----------------

  NO   OCC          E(Eh)            E(eV)
   0   2.0000     -88.263379     -2401.7686
   1   2.0000     -24.352102      -662.6544
   2   2.0000     -18.761921      -510.5378
   3   2.0000     -18.758897      -510.4555
   4   2.0000      -9.934846      -270.3409
   5   2.0000      -9.893926      -269.2274
   6   2.0000      -7.859227      -213.8604
   7   2.0000      -5.883637      -160.1019
   8   2.0000      -5.877173      -159.9260
   9   2.0000      -5.876648      -159.9117
  10   2.0000      -1.243626       -33.8408
  11   2.0000      -1.023713       -27.8566
  12   2.0000      -0.937325       -25.5059
  13   2.0000      -0.744681       -20.2638
  14   2.0000      -0.651802       -17.7364
  15   2.0000      -0.603233       -16.4148
  16   2.0000      -0.514823       -14.0090
  17   2.0000      -0.495898       -13.4941
  18   2.0000      -0.487487       -13.2652
  19   2.0000      -0.440777       -11.9942
  20   2.0000      -0.423999       -11.5376
  21   2.0000      -0.402928       -10.9642
  22   2.0000      -0.382803       -10.4166
  23   2.0000      -0.357194        -9.7197
  24   2.0000      -0.353955        -9.6316
  25   2.0000      -0.334494        -9.1020
  26   2.0000      -0.293657        -7.9908
  27   2.0000      -0.287434        -7.8215
  28   2.0000      -0.274131        -7.4595
  29   0.0000      -0.013786        -0.3751
  30   0.0000       0.016468         0.4481
  31   0.0000       0.025692         0.6991
  32   0.0000       0.046104         1.2546
  33   0.0000       0.055250         1.5034

MULLIKEN ATOMIC CHARGES
-----------------------
   0 C :   -0.341482
   1 C :   -0.255279
   2 H :    0.133821
   3 H :    0.149513
   4 S :    0.718776
   5 O :   -0.348620
   6 O :   -0.364002
   7 F :   -0.088057
   8 H :    0.120549
   9 H :    0.124609
  10 H :    0.150173
Sum of atomic charges:    0.0000000

LOEWDIN ATOMIC CHARGES
----------------------
   0 C :   -0.322345
   1 C :   -0.403617
   2 H :    0.134957
   3 H :    0.148129
   4 S :    0.470081
   5 O :   -0.229677
   6 O :   -0.237591
   7 F :    0.067004
   8 H :    0.121087
   9 H :    0.124448
  10 H :    0.127525

  Mayer bond orders larger than 0.100000
B(  0-C ,  1-C ) :   0.9913 B(  0-C ,  8-H ) :   0.9664 B(  0-C ,  9-H ) :   0.9506
B(  0-C , 10-H ) :   0.9611 B(  1-C ,  2-H ) :   0.9365 B(  1-C ,  3-H ) :   0.9348
B(  1-C ,  4-S ) :   0.9000 B(  4-S ,  5-O ) :   1.9930 B(  4-S ,  6-O ) :   1.9412
B(  4-S ,  7-F ) :   1.1317

Dispersion correction           -0.009255166
FINAL SINGLE POINT ENERGY      -727.333360290530

DIPOLE MOMENT
-------------
                                X             Y             Z
Electronic contribution:      0.65969      -9.18588      -2.01076
Nuclear contribution   :     -0.92438      10.38956       1.27076
                        -----------------------------------------
Total Dipole Moment    :     -0.26468       1.20368      -0.74000
                        -----------------------------------------
Magnitude (a.u.)       :      1.43754
Magnitude (Debye)      :      3.65393

Rotational constants in cm-1:     0.154243     0.082247     0.080562
Rotational constants in MHz :  4624.087322  2465.703680  2415.175852

                             ****ORCA TERMINATED NORMALLY****
TOTAL RUN TIME: 0 days 0 hours 0 minutes 11 seconds 266 msec
