                         Program Version 5.0.0 -  RELEASE  -
|  1> !PBE D3BJ RIJCOSX def2-TZVP def2/J TightSCF xyzfile
|  2>
|  3> *xyzfile 0 1 D1.xyz
|  4>
|  5> %MaxCore 64000
|  6>
|  7> %pal nprocs 18
|  8> end
|  9>
| 10> %scf
| 11>   MaxIter 150
| 12> end
| 13>
| 14>
| 15>                          ****END OF INPUT****

CARTESIAN COORDINATES (ANGSTROEM)
---------------------------------
  C     -0.461293    2.234686   -4.989619
  C      0.848883    2.667967   -4.302351
  C      2.093434    1.861037   -4.656845
  H      2.444814    2.041567   -5.674990
  H      2.901748    2.137864   -3.980338
  S      1.879644    0.078594   -4.462965
  C     -0.423841    2.398772   -6.474317
  C     -0.959467    3.492647   -7.007401
  N      0.145585    1.486891   -7.203987
  H      0.565371    0.696807   -6.723858
  H      0.220682    1.581768   -8.207520
  H     -1.406243    4.181507   -6.403261
  H     -0.934215    3.681601   -7.999468
  F      3.207574   -0.466111   -4.420259
  O      1.075064   -0.056160   -3.268758
  O      1.131661   -0.319960   -5.679031
  H      0.668432    2.559427   -3.232850
  H      1.034074    3.729426   -4.497081
  H     -1.288884    2.826737   -4.594997
  H     -0.651696    1.186343   -4.756552

 Total Charge           Charge          ....    0
 Multiplicity           Mult            ....    1
 Number of Electrons    NEL             ....   88
 Basis Dimension        Dim             ....  376

ORBITAL ENERGIES
----------------

  NO   OCC          E(Eh)            E(eV)
   0   2.0000     -88.285850     -2402.3801
   1   2.0000     -24.391256      -663.7198
   2   2.0000     -18.776089      -510.9234
   3   2.0000     -18.773744      -510.8596
   4   2.0000     -13.958787      -379.8379
   5   2.0000      -9.942130      -270.5391
   6   2.0000      -9.907292      -269.5911
   7   2.0000      -9.888018      -269.0667
   8   2.0000      -9.880912      -268.8733
   9   2.0000      -9.802929      -266.7513
  10   2.0000      -7.881666      -214.4710
  11   2.0000      -5.905806      -160.7051
  12   2.0000      -5.899677      -160.5384
  13   2.0000      -5.899159      -160.5243
  14   2.0000      -1.296989       -35.2929
  15   2.0000      -1.033863       -28.1329
  16   2.0000      -0.943509       -25.6742
  17   2.0000      -0.839589       -22.8464
  18   2.0000      -0.758619       -20.6431
  19   2.0000      -0.698337       -19.0027
  20   2.0000      -0.668055       -18.1787
  21   2.0000      -0.625506       -17.0209
  22   2.0000      -0.581212       -15.8156
  23   2.0000      -0.542233       -14.7549
  24   2.0000      -0.534426       -14.5425
  25   2.0000      -0.519977       -14.1493
  26   2.0000      -0.500802       -13.6275
  27   2.0000      -0.471691       -12.8354
  28   2.0000      -0.449148       -12.2220
  29   2.0000      -0.438118       -11.9218
  30   2.0000      -0.420196       -11.4341
  31   2.0000      -0.406453       -11.0601
  32   2.0000      -0.398761       -10.8508
  33   2.0000      -0.364899        -9.9294
  34   2.0000      -0.351182        -9.5561
  35   2.0000      -0.347747        -9.4627
  36   2.0000      -0.332950        -9.0600
  37   2.0000      -0.321027        -8.7356
  38   2.0000      -0.304906        -8.2969
  39   2.0000      -0.299498        -8.1498
  40   2.0000      -0.285430        -7.7669
  41   2.0000      -0.283005        -7.7010
  42   2.0000      -0.276447        -7.5225
  43   2.0000      -0.146065        -3.9746
  44   0.0000      -0.030266        -0.8236
  45   0.0000       0.000109         0.0030
  46   0.0000       0.016880         0.4593
  47   0.0000       0.020118         0.5474
  48   0.0000       0.027052         0.7361

MULLIKEN ATOMIC CHARGES
-----------------------
   0 C :   -0.278970
   1 C :   -0.135444
   2 C :   -0.307074
   3 H :    0.156396
   4 H :    0.140105
   5 S :    0.731816
   6 C :    0.179511
   7 C :   -0.431647
   8 N :   -0.390193
   9 H :    0.243208
  10 H :    0.201429
  11 H :    0.086623
  12 H :    0.079410
  13 F :   -0.045934
  14 O :   -0.334380
  15 O :   -0.393911
  16 H :    0.115455
  17 H :    0.114790
  18 H :    0.115512
  19 H :    0.153297
Sum of atomic charges:   -0.0000000

LOEWDIN ATOMIC CHARGES
----------------------
   0 C :   -0.219839
   1 C :   -0.268440
   2 C :   -0.379096
   3 H :    0.143293
   4 H :    0.139239
   5 S :    0.484701
   6 C :   -0.389093
   7 C :   -0.292795
   8 N :    0.028476
   9 H :    0.133842
  10 H :    0.166481
  11 H :    0.103595
  12 H :    0.093794
  13 F :    0.130151
  14 O :   -0.217699
  15 O :   -0.256084
  16 H :    0.147118
  17 H :    0.151324
  18 H :    0.154504
  19 H :    0.146527

  Mayer bond orders larger than 0.100000
B(  0-C ,  1-C ) :   0.9847 B(  0-C ,  6-C ) :   0.9605 B(  0-C , 18-H ) :   0.9532
B(  0-C , 19-H ) :   0.9642 B(  1-C ,  2-C ) :   1.0215 B(  1-C , 16-H ) :   0.9388
B(  1-C , 17-H ) :   0.9226 B(  2-C ,  3-H ) :   0.9151 B(  2-C ,  4-H ) :   0.9239
B(  2-C ,  5-S ) :   0.9271 B(  5-S , 13-F ) :   1.1973 B(  5-S , 14-O ) :   1.9577
B(  5-S , 15-O ) :   1.7789 B(  6-C ,  7-C ) :   1.7220 B(  6-C ,  8-N ) :   1.2699
B(  7-C ,  8-N ) :   0.1020 B(  7-C , 11-H ) :   0.9766 B(  7-C , 12-H ) :   0.9759
B(  8-N ,  9-H ) :   0.8368 B(  8-N , 10-H ) :   0.9156 B(  9-H , 15-O ) :   0.1295

Dispersion correction           -0.022824120
FINAL SINGLE POINT ENERGY      -899.213068533486

DIPOLE MOMENT
-------------
                                X             Y             Z
Electronic contribution:     10.13024     -14.03465       5.44006
Nuclear contribution   :     -8.53047      14.15581      -5.17613
                        -----------------------------------------
Total Dipole Moment    :      1.59977       0.12116       0.26393
                        -----------------------------------------
Magnitude (a.u.)       :      1.62592
Magnitude (Debye)      :      4.13275

Rotational constants in cm-1:     0.081196     0.024861     0.022477
Rotational constants in MHz :  2434.181666   745.320670   673.846846

                             ****ORCA TERMINATED NORMALLY****
TOTAL RUN TIME: 0 days 0 hours 0 minutes 12 seconds 69 msec
