                         Program Version 5.0.0 -  RELEASE  -
|  1> !PBE D3BJ RIJCOSX def2-TZVP def2/J TightSCF xyzfile
|  2>
|  3> *xyzfile 0 1 D4.xyz
|  4>
|  5> %MaxCore 64000
|  6>
|  7> %pal nprocs 18
|  8> end
|  9>
| 10> %scf
| 11>   MaxIter 150
| 12> end
| 13>
| 14>
| 15>                          ****END OF INPUT****

CARTESIAN COORDINATES (ANGSTROEM)
---------------------------------
  C     -0.461293    2.234686   -4.989619
  C      0.848883    2.667967   -4.302351
  C      2.093434    1.861037   -4.656845
  H      2.444814    2.041567   -5.674990
  H      2.901748    2.137864   -3.980338
  S      1.879644    0.078594   -4.462965
  C     -0.423841    2.398772   -6.474317
  N     -0.959467    3.492647   -7.007401
  C      0.145585    1.486891   -7.203987
  H      0.565371    0.696807   -6.723858
  H      0.220682    1.581768   -8.207520
  H     -1.406243    4.181507   -6.403261
  H     -0.934215    3.681601   -7.999468
  O      3.207574   -0.466111   -4.420259
  F      1.075064   -0.056160   -3.268758
  O      1.131661   -0.319960   -5.679031
  H      0.668432    2.559427   -3.232850
  H      1.034074    3.729426   -4.497081
  H     -1.288884    2.826737   -4.594997
  H     -0.651696    1.186343   -4.756552

 Total Charge           Charge          ....    0
 Multiplicity           Mult            ....    1
 Number of Electrons    NEL             ....   88
 Basis Dimension        Dim             ....  376

ORBITAL ENERGIES
----------------

  NO   OCC          E(Eh)            E(eV)
   0   2.0000     -88.266221     -2401.8460
   1   2.0000     -24.370589      -663.1574
   2   2.0000     -18.761755      -510.5333
   3   2.0000     -18.749737      -510.2063
   4   2.0000     -13.981602      -380.4587
   5   2.0000      -9.930407      -270.2201
   6   2.0000      -9.909766      -269.6584
   7   2.0000      -9.891194      -269.1531
   8   2.0000      -9.890558      -269.1358
   9   2.0000      -9.790758      -266.4201
  10   2.0000      -7.862131      -213.9395
  11   2.0000      -5.886657      -160.1841
  12   2.0000      -5.879906      -160.0004
  13   2.0000      -5.879493      -159.9891
  14   2.0000      -1.273593       -34.6562
  15   2.0000      -1.017791       -27.6955
  16   2.0000      -0.925666       -25.1887
  17   2.0000      -0.842898       -22.9364
  18   2.0000      -0.757560       -20.6143
  19   2.0000      -0.694865       -18.9082
  20   2.0000      -0.653732       -17.7889
  21   2.0000      -0.635175       -17.2840
  22   2.0000      -0.575937       -15.6720
  23   2.0000      -0.533637       -14.5210
  24   2.0000      -0.520864       -14.1734
  25   2.0000      -0.509475       -13.8635
  26   2.0000      -0.494480       -13.4555
  27   2.0000      -0.464286       -12.6339
  28   2.0000      -0.443544       -12.0694
  29   2.0000      -0.427923       -11.6444
  30   2.0000      -0.423709       -11.5297
  31   2.0000      -0.408810       -11.1243
  32   2.0000      -0.392826       -10.6893
  33   2.0000      -0.364103        -9.9078
  34   2.0000      -0.355849        -9.6831
  35   2.0000      -0.344169        -9.3653
  36   2.0000      -0.330813        -9.0019
  37   2.0000      -0.326614        -8.8876
  38   2.0000      -0.299406        -8.1473
  39   2.0000      -0.289064        -7.8658
  40   2.0000      -0.282390        -7.6842
  41   2.0000      -0.272819        -7.4238
  42   2.0000      -0.246628        -6.7111
  43   2.0000      -0.155018        -4.2182
  44   0.0000      -0.016277        -0.4429
  45   0.0000       0.002623         0.0714
  46   0.0000       0.015902         0.4327
  47   0.0000       0.022671         0.6169
  48   0.0000       0.028093         0.7645

MULLIKEN ATOMIC CHARGES
-----------------------
   0 C :   -0.270189
   1 C :   -0.168002
   2 C :   -0.285111
   3 H :    0.171249
   4 H :    0.142546
   5 S :    0.709440
   6 C :    0.205400
   7 N :   -0.421934
   8 C :   -0.460224
   9 H :    0.183300
  10 H :    0.071812
  11 H :    0.207886
  12 H :    0.217162
  13 O :   -0.344844
  14 F :   -0.056342
  15 O :   -0.358226
  16 H :    0.111996
  17 H :    0.106560
  18 H :    0.091709
  19 H :    0.145811
Sum of atomic charges:   -0.0000000

LOEWDIN ATOMIC CHARGES
----------------------
   0 C :   -0.226435
   1 C :   -0.283100
   2 C :   -0.368591
   3 H :    0.154042
   4 H :    0.141231
   5 S :    0.476660
   6 C :   -0.387562
   7 N :   -0.001679
   8 C :   -0.256603
   9 H :    0.091933
  10 H :    0.097062
  11 H :    0.163292
  12 H :    0.166598
  13 O :   -0.223595
  14 F :    0.117499
  15 O :   -0.235654
  16 H :    0.139403
  17 H :    0.146400
  18 H :    0.139732
  19 H :    0.149368

  Mayer bond orders larger than 0.100000
B(  0-C ,  1-C ) :   0.9630 B(  0-C ,  6-C ) :   0.9550 B(  0-C , 18-H ) :   0.9462
B(  0-C , 19-H ) :   0.9833 B(  1-C ,  2-C ) :   1.0112 B(  1-C , 16-H ) :   0.9534
B(  1-C , 17-H ) :   0.9242 B(  2-C ,  3-H ) :   0.9213 B(  2-C ,  4-H ) :   0.9333
B(  2-C ,  5-S ) :   0.9191 B(  5-S , 13-O ) :   2.0112 B(  5-S , 14-F ) :   1.1523
B(  5-S , 15-O ) :   1.8211 B(  6-C ,  7-N ) :   1.1610 B(  6-C ,  8-C ) :   1.7556
B(  7-N , 11-H ) :   0.9183 B(  7-N , 12-H ) :   0.9151 B(  8-C ,  9-H ) :   0.9383
B(  8-C , 10-H ) :   0.9734 B(  9-H , 15-O ) :   0.1033

Dispersion correction           -0.022828563
FINAL SINGLE POINT ENERGY      -899.196740520859

DIPOLE MOMENT
-------------
                                X             Y             Z
Electronic contribution:      5.53896     -11.74795       7.25929
Nuclear contribution   :     -6.09390      13.51614      -6.45360
                        -----------------------------------------
Total Dipole Moment    :     -0.55494       1.76819       0.80569
                        -----------------------------------------
Magnitude (a.u.)       :      2.02079
Magnitude (Debye)      :      5.13643

Rotational constants in cm-1:     0.081469     0.024519     0.022336
Rotational constants in MHz :  2442.393231   735.066768   669.628729

                             ****ORCA TERMINATED NORMALLY****
TOTAL RUN TIME: 0 days 0 hours 0 minutes 11 seconds 455 msec
