                         Program Version 5.0.0 -  RELEASE  -
|  1> !PBE D3BJ RIJCOSX def2-TZVP def2/J TightSCF xyzfile
|  2>
|  3> *xyzfile 0 1 D5.xyz
|  4>
|  5> %MaxCore 64000
|  6>
|  7> %pal nprocs 18
|  8> end
|  9>
| 10> %scf
| 11>   MaxIter 150
| 12> end
| 13>
| 14>
| 15>                          ****END OF INPUT****

CARTESIAN COORDINATES (ANGSTROEM)
---------------------------------
  C     -0.461293    2.234686   -4.989619
  C      0.848883    2.667967   -4.302351
  C      2.093434    1.861037   -4.656845
  H      2.444814    2.041567   -5.674990
  H      2.901748    2.137864   -3.980338
  S      1.879644    0.078594   -4.462965
  C     -0.423841    2.398772   -6.474317
  C     -0.959467    3.492647   -7.007401
  N      0.145585    1.486891   -7.203987
  H      0.565371    0.696807   -6.723858
  H      0.220682    1.581768   -8.207520
  H     -1.406243    4.181507   -6.403261
  H     -0.934215    3.681601   -7.999468
  O      3.207574   -0.466111   -4.420259
  O      1.075064   -0.056160   -3.268758
  F      1.131661   -0.319960   -5.679031
  H      0.668432    2.559427   -3.232850
  H      1.034074    3.729426   -4.497081
  H     -1.288884    2.826737   -4.594997
  H     -0.651696    1.186343   -4.756552

 Total Charge           Charge          ....    0
 Multiplicity           Mult            ....    1
 Number of Electrons    NEL             ....   88
 Basis Dimension        Dim             ....  376

ORBITAL ENERGIES
----------------

  NO   OCC          E(Eh)            E(eV)
   0   2.0000     -88.275730     -2402.1047
   1   2.0000     -24.378048      -663.3604
   2   2.0000     -18.773925      -510.8645
   3   2.0000     -18.770587      -510.7736
   4   2.0000     -13.987889      -380.6298
   5   2.0000      -9.938928      -270.4520
   6   2.0000      -9.907666      -269.6013
   7   2.0000      -9.904776      -269.5227
   8   2.0000      -9.894210      -269.2351
   9   2.0000      -9.819089      -267.1910
  10   2.0000      -7.872077      -214.2101
  11   2.0000      -5.896860      -160.4617
  12   2.0000      -5.889674      -160.2662
  13   2.0000      -5.889254      -160.2547
  14   2.0000      -1.273079       -34.6422
  15   2.0000      -1.037079       -28.2204
  16   2.0000      -0.949025       -25.8243
  17   2.0000      -0.864682       -23.5292
  18   2.0000      -0.760826       -20.7031
  19   2.0000      -0.699300       -19.0289
  20   2.0000      -0.677943       -18.4478
  21   2.0000      -0.631624       -17.1874
  22   2.0000      -0.592796       -16.1308
  23   2.0000      -0.543233       -14.7821
  24   2.0000      -0.523847       -14.2546
  25   2.0000      -0.515755       -14.0344
  26   2.0000      -0.499387       -13.5890
  27   2.0000      -0.481087       -13.0910
  28   2.0000      -0.449507       -12.2317
  29   2.0000      -0.438034       -11.9195
  30   2.0000      -0.422721       -11.5028
  31   2.0000      -0.415903       -11.3173
  32   2.0000      -0.399994       -10.8844
  33   2.0000      -0.374982       -10.2038
  34   2.0000      -0.358987        -9.7685
  35   2.0000      -0.350220        -9.5300
  36   2.0000      -0.341962        -9.3053
  37   2.0000      -0.333456        -9.0738
  38   2.0000      -0.307101        -8.3566
  39   2.0000      -0.305645        -8.3170
  40   2.0000      -0.298322        -8.1178
  41   2.0000      -0.291411        -7.9297
  42   2.0000      -0.284144        -7.7320
  43   2.0000      -0.164560        -4.4779
  44   0.0000      -0.027118        -0.7379
  45   0.0000       0.005464         0.1487
  46   0.0000       0.008288         0.2255
  47   0.0000       0.014229         0.3872
  48   0.0000       0.027139         0.7385

MULLIKEN ATOMIC CHARGES
-----------------------
   0 C :   -0.302678
   1 C :   -0.113456
   2 C :   -0.326901
   3 H :    0.153936
   4 H :    0.160587
   5 S :    0.718461
   6 C :    0.190740
   7 C :   -0.417708
   8 N :   -0.395908
   9 H :    0.224468
  10 H :    0.214605
  11 H :    0.093611
  12 H :    0.085140
  13 O :   -0.345507
  14 O :   -0.344819
  15 F :   -0.089863
  16 H :    0.120955
  17 H :    0.110815
  18 H :    0.122969
  19 H :    0.140553
Sum of atomic charges:   -0.0000000

LOEWDIN ATOMIC CHARGES
----------------------
   0 C :   -0.223236
   1 C :   -0.274972
   2 C :   -0.375173
   3 H :    0.140061
   4 H :    0.152496
   5 S :    0.479658
   6 C :   -0.389852
   7 C :   -0.276035
   8 N :    0.021572
   9 H :    0.138322
  10 H :    0.172007
  11 H :    0.106734
  12 H :    0.095746
  13 O :   -0.220761
  14 O :   -0.224140
  15 F :    0.083379
  16 H :    0.148157
  17 H :    0.148836
  18 H :    0.157136
  19 H :    0.140066

  Mayer bond orders larger than 0.100000
B(  0-C ,  1-C ) :   0.9737 B(  0-C ,  6-C ) :   0.9518 B(  0-C , 18-H ) :   0.9534
B(  0-C , 19-H ) :   0.9718 B(  1-C ,  2-C ) :   1.0044 B(  1-C , 16-H ) :   0.9391
B(  1-C , 17-H ) :   0.9212 B(  2-C ,  3-H ) :   0.9236 B(  2-C ,  4-H ) :   0.9312
B(  2-C ,  5-S ) :   0.9110 B(  5-S , 13-O ) :   2.0126 B(  5-S , 14-O ) :   1.9398
B(  5-S , 15-F ) :   1.0504 B(  6-C ,  7-C ) :   1.7407 B(  6-C ,  8-N ) :   1.2340
B(  7-C , 11-H ) :   0.9762 B(  7-C , 12-H ) :   0.9760 B(  8-N ,  9-H ) :   0.8829
B(  8-N , 10-H ) :   0.9108

Dispersion correction           -0.022589234
FINAL SINGLE POINT ENERGY      -899.219467165438

DIPOLE MOMENT
-------------
                                X             Y             Z
Electronic contribution:      6.45814     -13.54705       3.17957
Nuclear contribution   :     -6.26130      13.99605      -3.80018
                        -----------------------------------------
Total Dipole Moment    :      0.19684       0.44900      -0.62061
                        -----------------------------------------
Magnitude (a.u.)       :      0.79088
Magnitude (Debye)      :      2.01027

Rotational constants in cm-1:     0.079895     0.025630     0.022948
Rotational constants in MHz :  2395.188639   768.373696   687.955250

                             ****ORCA TERMINATED NORMALLY****
TOTAL RUN TIME: 0 days 0 hours 0 minutes 11 seconds 581 msec
