                         Program Version 5.0.0 -  RELEASE  -
|  1> !PBE D3BJ RIJCOSX def2-TZVP def2/J TightSCF xyzfile
|  2>
|  3> *xyzfile 0 1 D6.xyz
|  4>
|  5> %MaxCore 64000
|  6>
|  7> %pal nprocs 18
|  8> end
|  9>
| 10> %scf
| 11>   MaxIter 150
| 12> end
| 13>
| 14>
| 15>                          ****END OF INPUT****

CARTESIAN COORDINATES (ANGSTROEM)
---------------------------------
  C     -0.461293    2.234686   -4.989619
  C      0.848883    2.667967   -4.302351
  C      2.093434    1.861037   -4.656845
  H      2.444814    2.041567   -5.674990
  H      2.901748    2.137864   -3.980338
  S      1.879644    0.078594   -4.462965
  C     -0.423841    2.398772   -6.474317
  N     -0.959467    3.492647   -7.007401
  C      0.145585    1.486891   -7.203987
  H      0.565371    0.696807   -6.723858
  H      0.220682    1.581768   -8.207520
  H     -1.406243    4.181507   -6.403261
  H     -0.934215    3.681601   -7.999468
  O      3.207574   -0.466111   -4.420259
  O      1.075064   -0.056160   -3.268758
  F      1.131661   -0.319960   -5.679031
  H      0.668432    2.559427   -3.232850
  H      1.034074    3.729426   -4.497081
  H     -1.288884    2.826737   -4.594997
  H     -0.651696    1.186343   -4.756552

 Total Charge           Charge          ....    0
 Multiplicity           Mult            ....    1
 Number of Electrons    NEL             ....   88
 Basis Dimension        Dim             ....  376

ORBITAL ENERGIES
----------------

  NO   OCC          E(Eh)            E(eV)
   0   2.0000     -88.262109     -2401.7341
   1   2.0000     -24.352381      -662.6620
   2   2.0000     -18.760343      -510.4949
   3   2.0000     -18.757988      -510.4308
   4   2.0000     -13.993415      -380.7802
   5   2.0000      -9.928295      -270.1626
   6   2.0000      -9.906021      -269.5565
   7   2.0000      -9.904680      -269.5200
   8   2.0000      -9.894697      -269.2484
   9   2.0000      -9.811833      -266.9936
  10   2.0000      -7.858153      -213.8312
  11   2.0000      -5.882648      -160.0750
  12   2.0000      -5.876017      -159.8945
  13   2.0000      -5.875494      -159.8803
  14   2.0000      -1.248849       -33.9829
  15   2.0000      -1.023290       -27.8451
  16   2.0000      -0.936341       -25.4791
  17   2.0000      -0.854387       -23.2491
  18   2.0000      -0.755778       -20.5658
  19   2.0000      -0.699092       -19.0233
  20   2.0000      -0.653697       -17.7880
  21   2.0000      -0.643445       -17.5090
  22   2.0000      -0.574918       -15.6443
  23   2.0000      -0.539783       -14.6883
  24   2.0000      -0.501466       -13.6456
  25   2.0000      -0.498278       -13.5588
  26   2.0000      -0.490590       -13.3496
  27   2.0000      -0.478819       -13.0293
  28   2.0000      -0.446614       -12.1530
  29   2.0000      -0.434982       -11.8365
  30   2.0000      -0.418322       -11.3831
  31   2.0000      -0.404322       -11.0022
  32   2.0000      -0.396796       -10.7974
  33   2.0000      -0.363796        -9.8994
  34   2.0000      -0.355563        -9.6754
  35   2.0000      -0.347878        -9.4663
  36   2.0000      -0.334765        -9.1094
  37   2.0000      -0.325947        -8.8695
  38   2.0000      -0.302011        -8.2181
  39   2.0000      -0.297029        -8.0826
  40   2.0000      -0.290610        -7.9079
  41   2.0000      -0.282550        -7.6886
  42   2.0000      -0.273066        -7.4305
  43   2.0000      -0.170041        -4.6270
  44   0.0000      -0.012151        -0.3307
  45   0.0000      -0.000866        -0.0236
  46   0.0000       0.007900         0.2150
  47   0.0000       0.023348         0.6353
  48   0.0000       0.029278         0.7967

MULLIKEN ATOMIC CHARGES
-----------------------
   0 C :   -0.296227
   1 C :   -0.112917
   2 C :   -0.319319
   3 H :    0.161167
   4 H :    0.153233
   5 S :    0.716130
   6 C :    0.224817
   7 N :   -0.413855
   8 C :   -0.457865
   9 H :    0.128800
  10 H :    0.081378
  11 H :    0.215218
  12 H :    0.219100
  13 O :   -0.354986
  14 O :   -0.358066
  15 F :   -0.062535
  16 H :    0.123266
  17 H :    0.100647
  18 H :    0.096696
  19 H :    0.155316
Sum of atomic charges:   -0.0000000

LOEWDIN ATOMIC CHARGES
----------------------
   0 C :   -0.222685
   1 C :   -0.276112
   2 C :   -0.372789
   3 H :    0.142457
   4 H :    0.149992
   5 S :    0.482050
   6 C :   -0.380597
   7 N :    0.007843
   8 C :   -0.276365
   9 H :    0.090060
  10 H :    0.099464
  11 H :    0.167375
  12 H :    0.168032
  13 O :   -0.227227
  14 O :   -0.233966
  15 F :    0.095819
  16 H :    0.148247
  17 H :    0.144427
  18 H :    0.142413
  19 H :    0.151562

  Mayer bond orders larger than 0.100000
B(  0-C ,  1-C ) :   0.9752 B(  0-C ,  6-C ) :   0.9504 B(  0-C , 18-H ) :   0.9475
B(  0-C , 19-H ) :   0.9813 B(  1-C ,  2-C ) :   1.0055 B(  1-C , 16-H ) :   0.9410
B(  1-C , 17-H ) :   0.9217 B(  2-C ,  3-H ) :   0.9257 B(  2-C ,  4-H ) :   0.9325
B(  2-C ,  5-S ) :   0.9087 B(  5-S , 13-O ) :   2.0051 B(  5-S , 14-O ) :   1.9249
B(  5-S , 15-F ) :   1.0969 B(  6-C ,  7-N ) :   1.1819 B(  6-C ,  8-C ) :   1.7323
B(  7-N , 11-H ) :   0.9163 B(  7-N , 12-H ) :   0.9144 B(  8-C ,  9-H ) :   0.9785
B(  8-C , 10-H ) :   0.9702

Dispersion correction           -0.022716284
FINAL SINGLE POINT ENERGY      -899.211714424348

DIPOLE MOMENT
-------------
                                X             Y             Z
Electronic contribution:      5.53809     -12.02751       3.19271
Nuclear contribution   :     -6.15577      13.80449      -3.81895
                        -----------------------------------------
Total Dipole Moment    :     -0.61768       1.77698      -0.62625
                        -----------------------------------------
Magnitude (a.u.)       :      1.98277
Magnitude (Debye)      :      5.03980

Rotational constants in cm-1:     0.081431     0.024887     0.022470
Rotational constants in MHz :  2441.231544   746.086417   673.646914

                             ****ORCA TERMINATED NORMALLY****
TOTAL RUN TIME: 0 days 0 hours 0 minutes 11 seconds 473 msec
