                         Program Version 5.0.0 -  RELEASE  -
|  1> !wB97X-D3 RIJCOSX def2-SVP def2/J TightSCF
|  2> *xyz -1 1
|  3> C         -0.10608        1.76991       -4.08984
|  4> C         -0.25875        1.00432       -5.40983
|  5> C          0.39596       -0.37070       -5.33994
|  6> H          0.23915        1.56939       -6.20125
|  7> H         -1.30936        0.88869       -5.68245
|  8> O         -0.32633       -1.39040       -5.49128
|  9> O          1.61941       -0.40073       -5.03683
| 10> H         -0.57627        2.72718       -4.17630
| 11> H          0.93321        1.90140       -3.87192
| 12> H         -0.56868        1.21534       -3.30031
| 13> *
| 14> %MaxCore 64000
| 15>
| 16> %pal nprocs 4
| 17> end
| 18>
| 19> %scf
| 20>   MaxIter 150
| 21> end
| 22>
| 23>
| 24>                          ****END OF INPUT****

CARTESIAN COORDINATES (ANGSTROEM)
---------------------------------
  C     -0.106080    1.769910   -4.089840
  C     -0.258750    1.004320   -5.409830
  C      0.395960   -0.370700   -5.339940
  H      0.239150    1.569390   -6.201250
  H     -1.309360    0.888690   -5.682450
  O     -0.326330   -1.390400   -5.491280
  O      1.619410   -0.400730   -5.036830
  H     -0.576270    2.727180   -4.176300
  H      0.933210    1.901400   -3.871920
  H     -0.568680    1.215340   -3.300310

 Total Charge           Charge          ....   -1
 Multiplicity           Mult            ....    1
 Number of Electrons    NEL             ....   40
 Basis Dimension        Dim             ....   95

ORBITAL ENERGIES
----------------

  NO   OCC          E(Eh)            E(eV)
   0   2.0000     -18.937792      -515.3235
   1   2.0000     -18.937003      -515.3020
   2   2.0000     -10.142513      -275.9918
   3   2.0000     -10.119643      -275.3695
   4   2.0000     -10.099564      -274.8231
   5   2.0000      -0.889933       -24.2163
   6   2.0000      -0.791994       -21.5513
   7   2.0000      -0.703681       -19.1481
   8   2.0000      -0.567852       -15.4521
   9   2.0000      -0.405984       -11.0474
  10   2.0000      -0.382948       -10.4205
  11   2.0000      -0.338848        -9.2205
  12   2.0000      -0.310773        -8.4566
  13   2.0000      -0.294001        -8.0002
  14   2.0000      -0.283205        -7.7064
  15   2.0000      -0.247575        -6.7369
  16   2.0000      -0.233935        -6.3657
  17   2.0000      -0.104818        -2.8522
  18   2.0000      -0.103885        -2.8269
  19   2.0000      -0.087489        -2.3807
  20   0.0000       0.300612         8.1801
  21   0.0000       0.352067         9.5802
  22   0.0000       0.362108         9.8535
  23   0.0000       0.367559        10.0018
  24   0.0000       0.374744        10.1973

MULLIKEN ATOMIC CHARGES
-----------------------
   0 C :   -0.020483
   1 C :   -0.030294
   2 C :    0.049823
   3 H :   -0.025017
   4 H :   -0.036285
   5 O :   -0.450055
   6 O :   -0.464777
   7 H :   -0.035330
   8 H :    0.010941
   9 H :    0.001477
Sum of atomic charges:   -1.0000000

LOEWDIN ATOMIC CHARGES
----------------------
   0 C :   -0.062630
   1 C :   -0.093502
   2 C :   -0.041628
   3 H :    0.005193
   4 H :   -0.002417
   5 O :   -0.407256
   6 O :   -0.417088
   7 H :   -0.006339
   8 H :    0.013715
   9 H :    0.011952

  Mayer bond orders larger than 0.100000
B(  0-C ,  1-C ) :   1.0836 B(  0-C ,  7-H ) :   0.9708 B(  0-C ,  8-H ) :   0.9668
B(  0-C ,  9-H ) :   0.9764 B(  1-C ,  2-C ) :   0.9208 B(  1-C ,  3-H ) :   0.9424
B(  1-C ,  4-H ) :   0.9450 B(  2-C ,  5-O ) :   1.8663 B(  2-C ,  6-O ) :   1.8169
B(  5-O ,  6-O ) :   0.1083

Dispersion correction           -0.001961723
FINAL SINGLE POINT ENERGY      -267.542973051397

DIPOLE MOMENT
-------------
                                X             Y             Z
Electronic contribution:      1.79466      -5.44770      -1.70188
Nuclear contribution   :     -2.46071       7.20791       1.95694
                        -----------------------------------------
Total Dipole Moment    :     -0.66606       1.76021       0.25505
                        -----------------------------------------
Magnitude (a.u.)       :      1.89922
Magnitude (Debye)      :      4.82743

Rotational constants in cm-1:     0.309435     0.135317     0.107436
Rotational constants in MHz :  9276.637721  4056.700783  3220.846587

                             ****ORCA TERMINATED NORMALLY****
TOTAL RUN TIME: 0 days 0 hours 0 minutes 15 seconds 641 msec
