                         Program Version 5.0.0 -  RELEASE  -
|  1> !wB97X-D3 RIJCOSX def2-SVP def2/J TightSCF
|  2> *xyz 1 1
|  3> C          0.81607       -2.10149       -2.18655
|  4> H          1.69623       -2.36869       -1.60046
|  5> N          1.10055       -2.46749       -3.59927
|  6> C          0.51624       -0.61363       -2.03937
|  7> H         -0.02007       -2.71285       -1.84084
|  8> H          1.70061       -1.75723       -4.07838
|  9> H          0.29386       -2.35977       -4.25632
| 10> H          1.50132       -3.42848       -3.69491
| 11> H         -0.34841       -0.36504       -2.61858
| 12> H          1.35358       -0.04503       -2.38643
| 13> H          0.33317       -0.38682       -1.00984
| 14> *
| 15> %MaxCore 64000
| 16>
| 17> %pal nprocs 4
| 18> end
| 19>
| 20> %scf
| 21>   MaxIter 150
| 22> end
| 23>
| 24>
| 25>                          ****END OF INPUT****

CARTESIAN COORDINATES (ANGSTROEM)
---------------------------------
  C      0.816070   -2.101490   -2.186550
  H      1.696230   -2.368690   -1.600460
  N      1.100550   -2.467490   -3.599270
  C      0.516240   -0.613630   -2.039370
  H     -0.020070   -2.712850   -1.840840
  H      1.700610   -1.757230   -4.078380
  H      0.293860   -2.359770   -4.256320
  H      1.501320   -3.428480   -3.694910
  H     -0.348410   -0.365040   -2.618580
  H      1.353580   -0.045030   -2.386430
  H      0.333170   -0.386820   -1.009840

 Total Charge           Charge          ....    1
 Multiplicity           Mult            ....    1
 Number of Electrons    NEL             ....   26
 Basis Dimension        Dim             ....   82

ORBITAL ENERGIES
----------------

  NO   OCC          E(Eh)            E(eV)
   0   2.0000     -14.779251      -402.1639
   1   2.0000     -10.543620      -286.9065
   2   2.0000     -10.464889      -284.7641
   3   2.0000      -1.321612       -35.9629
   4   2.0000      -1.076212       -29.2852
   5   2.0000      -0.958021       -26.0691
   6   2.0000      -0.894677       -24.3454
   7   2.0000      -0.878019       -23.8921
   8   2.0000      -0.803980       -21.8774
   9   2.0000      -0.738106       -20.0849
  10   2.0000      -0.680105       -18.5066
  11   2.0000      -0.664881       -18.0923
  12   2.0000      -0.645795       -17.5730
  13   0.0000      -0.097214        -2.6453
  14   0.0000      -0.040237        -1.0949
  15   0.0000      -0.034170        -0.9298
  16   0.0000      -0.003755        -0.1022
  17   0.0000       0.039515         1.0753

MULLIKEN ATOMIC CHARGES
-----------------------
   0 C :   -0.046958
   1 H :    0.118088
   2 N :   -0.055897
   3 C :   -0.080923
   4 H :    0.121483
   5 H :    0.219094
   6 H :    0.222210
   7 H :    0.243734
   8 H :    0.073737
   9 H :    0.073152
  10 H :    0.112280
Sum of atomic charges:    1.0000000

LOEWDIN ATOMIC CHARGES
----------------------
   0 C :    0.049027
   1 H :    0.057300
   2 N :    0.268145
   3 C :   -0.044301
   4 H :    0.058038
   5 H :    0.152360
   6 H :    0.154061
   7 H :    0.158943
   8 H :    0.040503
   9 H :    0.040141
  10 H :    0.065783

  Mayer bond orders larger than 0.100000
B(  0-C ,  1-H ) :   0.9537 B(  0-C ,  2-N ) :   0.8991 B(  0-C ,  3-C ) :   1.0833
B(  0-C ,  4-H ) :   0.9531 B(  2-N ,  5-H ) :   0.9270 B(  2-N ,  6-H ) :   0.9261
B(  2-N ,  7-H ) :   0.9211 B(  3-C ,  8-H ) :   0.9736 B(  3-C ,  9-H ) :   0.9697
B(  3-C , 10-H ) :   0.9599

Dispersion correction           -0.001532289
FINAL SINGLE POINT ENERGY      -135.397543410306

DIPOLE MOMENT
-------------
                                X             Y             Z
Electronic contribution:      0.43456      -1.46595      -1.12641
Nuclear contribution   :     -0.07506       0.54337      -0.16191
                        -----------------------------------------
Total Dipole Moment    :      0.35950      -0.92259      -1.28832
                        -----------------------------------------
Magnitude (a.u.)       :      1.62486
Magnitude (Debye)      :      4.13008

Rotational constants in cm-1:     0.999557     0.280801     0.246932
Rotational constants in MHz : 29965.963633  8418.199581  7402.841054

                             ****ORCA TERMINATED NORMALLY****
TOTAL RUN TIME: 0 days 0 hours 0 minutes 11 seconds 999 msec
