                         Program Version 5.0.0 -  RELEASE  -
|  1> !wB97X-D3 RIJCOSX def2-SVP def2/J TightSCF
|  2> *xyz 0 1
|  3> C         -0.10608        1.76991       -4.08984
|  4> C         -0.25875        1.00432       -5.40983
|  5> C          0.39596       -0.37070       -5.33994
|  6> H          0.23915        1.56939       -6.20125
|  7> H         -1.30936        0.88869       -5.68245
|  8> F         -0.32633       -1.39040       -5.49128
|  9> O          1.61941       -0.40073       -5.03683
| 10> H         -0.57627        2.72718       -4.17630
| 11> H          0.93321        1.90140       -3.87192
| 12> H         -0.56868        1.21534       -3.30031
| 13> *
| 14> %MaxCore 64000
| 15>
| 16> %pal nprocs 4
| 17> end
| 18>
| 19> %scf
| 20>   MaxIter 150
| 21> end
| 22>
| 23>
| 24>                          ****END OF INPUT****

CARTESIAN COORDINATES (ANGSTROEM)
---------------------------------
  C     -0.106080    1.769910   -4.089840
  C     -0.258750    1.004320   -5.409830
  C      0.395960   -0.370700   -5.339940
  H      0.239150    1.569390   -6.201250
  H     -1.309360    0.888690   -5.682450
  F     -0.326330   -1.390400   -5.491280
  O      1.619410   -0.400730   -5.036830
  H     -0.576270    2.727180   -4.176300
  H      0.933210    1.901400   -3.871920
  H     -0.568680    1.215340   -3.300310

 Total Charge           Charge          ....    0
 Multiplicity           Mult            ....    1
 Number of Electrons    NEL             ....   40
 Basis Dimension        Dim             ....   95

ORBITAL ENERGIES
----------------

  NO   OCC          E(Eh)            E(eV)
   0   2.0000     -24.857896      -676.4177
   1   2.0000     -19.239425      -523.5314
   2   2.0000     -10.462850      -284.7086
   3   2.0000     -10.319010      -280.7945
   4   2.0000     -10.294587      -280.1300
   5   2.0000      -1.411933       -38.4206
   6   2.0000      -1.129355       -30.7313
   7   2.0000      -0.909991       -24.7621
   8   2.0000      -0.792191       -21.5566
   9   2.0000      -0.739294       -20.1172
  10   2.0000      -0.649007       -17.6604
  11   2.0000      -0.634095       -17.2546
  12   2.0000      -0.604959       -16.4618
  13   2.0000      -0.564601       -15.3636
  14   2.0000      -0.529415       -14.4061
  15   2.0000      -0.494731       -13.4623
  16   2.0000      -0.472008       -12.8440
  17   2.0000      -0.468555       -12.7500
  18   2.0000      -0.435399       -11.8478
  19   2.0000      -0.382839       -10.4176
  20   0.0000       0.061812         1.6820
  21   0.0000       0.147765         4.0209
  22   0.0000       0.192228         5.2308
  23   0.0000       0.195311         5.3147
  24   0.0000       0.215772         5.8715

MULLIKEN ATOMIC CHARGES
-----------------------
   0 C :   -0.037879
   1 C :   -0.119534
   2 C :    0.261097
   3 H :    0.077466
   4 H :    0.044631
   5 F :   -0.084595
   6 O :   -0.280858
   7 H :    0.041346
   8 H :    0.060053
   9 H :    0.038273
Sum of atomic charges:    0.0000000

LOEWDIN ATOMIC CHARGES
----------------------
   0 C :   -0.039005
   1 C :   -0.075581
   2 C :    0.117332
   3 H :    0.052363
   4 H :    0.029508
   5 F :    0.036775
   6 O :   -0.211139
   7 H :    0.029045
   8 H :    0.033746
   9 H :    0.026955

  Mayer bond orders larger than 0.100000
B(  0-C ,  1-C ) :   1.0766 B(  0-C ,  7-H ) :   0.9741 B(  0-C ,  8-H ) :   0.9723
B(  0-C ,  9-H ) :   0.9796 B(  1-C ,  2-C ) :   0.9903 B(  1-C ,  3-H ) :   0.9373
B(  1-C ,  4-H ) :   0.9459 B(  2-C ,  5-F ) :   1.1923 B(  2-C ,  6-O ) :   2.0566

Dispersion correction           -0.001915525
FINAL SINGLE POINT ENERGY      -292.096019801917

DIPOLE MOMENT
-------------
                                X             Y             Z
Electronic contribution:      0.88091      -8.22128      -2.57269
Nuclear contribution   :     -1.80992       8.85192       2.42184
                        -----------------------------------------
Total Dipole Moment    :     -0.92901       0.63064      -0.15085
                        -----------------------------------------
Magnitude (a.u.)       :      1.13293
Magnitude (Debye)      :      2.87968

Rotational constants in cm-1:     0.298360     0.128849     0.102271
Rotational constants in MHz :  8944.606599  3862.796179  3066.020510

                             ****ORCA TERMINATED NORMALLY****
TOTAL RUN TIME: 0 days 0 hours 0 minutes 14 seconds 830 msec
