                         Program Version 5.0.0 -  RELEASE  -
|  1> !wB97X-D3 RIJCOSX def2-SVP def2/J TightSCF
|  2> *xyz 0 1
|  3> C          0.81607       -2.10149       -2.18655
|  4> H          1.69623       -2.36869       -1.60046
|  5> C          1.10055       -2.46749       -3.59927
|  6> C          0.51624       -0.61363       -2.03937
|  7> H         -0.02007       -2.71285       -1.84084
|  8> H          1.70061       -1.75723       -4.07838
|  9> H          0.29386       -2.35977       -4.25632
| 10> H          1.50132       -3.42848       -3.69491
| 11> H         -0.34841       -0.36504       -2.61858
| 12> H          1.35358       -0.04503       -2.38643
| 13> H          0.33317       -0.38682       -1.00984
| 14> *
| 15> %MaxCore 64000
| 16>
| 17> %pal nprocs 4
| 18> end
| 19>
| 20> %scf
| 21>   MaxIter 150
| 22> end
| 23>
| 24>
| 25>                          ****END OF INPUT****

CARTESIAN COORDINATES (ANGSTROEM)
---------------------------------
  C      0.816070   -2.101490   -2.186550
  H      1.696230   -2.368690   -1.600460
  C      1.100550   -2.467490   -3.599270
  C      0.516240   -0.613630   -2.039370
  H     -0.020070   -2.712850   -1.840840
  H      1.700610   -1.757230   -4.078380
  H      0.293860   -2.359770   -4.256320
  H      1.501320   -3.428480   -3.694910
  H     -0.348410   -0.365040   -2.618580
  H      1.353580   -0.045030   -2.386430
  H      0.333170   -0.386820   -1.009840

 Total Charge           Charge          ....    0
 Multiplicity           Mult            ....    1
 Number of Electrons    NEL             ....   26
 Basis Dimension        Dim             ....   82

ORBITAL ENERGIES
----------------

  NO   OCC          E(Eh)            E(eV)
   0   2.0000     -10.276090      -279.6266
   1   2.0000     -10.267945      -279.4050
   2   2.0000     -10.255159      -279.0571
   3   2.0000      -0.899344       -24.4724
   4   2.0000      -0.794441       -21.6178
   5   2.0000      -0.692770       -18.8512
   6   2.0000      -0.560822       -15.2607
   7   2.0000      -0.545519       -14.8443
   8   2.0000      -0.509795       -13.8722
   9   2.0000      -0.471424       -12.8281
  10   2.0000      -0.434666       -11.8279
  11   2.0000      -0.430127       -11.7043
  12   2.0000      -0.412504       -11.2248
  13   0.0000       0.150469         4.0945
  14   0.0000       0.199154         5.4192
  15   0.0000       0.201298         5.4776
  16   0.0000       0.202144         5.5006
  17   0.0000       0.234378         6.3777

MULLIKEN ATOMIC CHARGES
-----------------------
   0 C :   -0.107653
   1 H :    0.025388
   2 C :    0.003298
   3 C :   -0.037809
   4 H :    0.027357
   5 H :   -0.005757
   6 H :   -0.000891
   7 H :    0.021469
   8 H :    0.023591
   9 H :    0.024321
  10 H :    0.026685
Sum of atomic charges:   -0.0000000

LOEWDIN ATOMIC CHARGES
----------------------
   0 C :   -0.045817
   1 H :    0.021774
   2 C :   -0.060400
   3 C :   -0.055188
   4 H :    0.021777
   5 H :    0.017222
   6 H :    0.017785
   7 H :    0.019135
   8 H :    0.020798
   9 H :    0.020891
  10 H :    0.022022

  Mayer bond orders larger than 0.100000
B(  0-C ,  1-H ) :   0.9613 B(  0-C ,  2-C ) :   1.0883 B(  0-C ,  3-C ) :   1.0856
B(  0-C ,  4-H ) :   0.9602 B(  2-C ,  5-H ) :   0.9691 B(  2-C ,  6-H ) :   0.9675
B(  2-C ,  7-H ) :   0.9736 B(  3-C ,  8-H ) :   0.9794 B(  3-C ,  9-H ) :   0.9767
B(  3-C , 10-H ) :   0.9751

Dispersion correction           -0.001479541
FINAL SINGLE POINT ENERGY      -119.009389476062

DIPOLE MOMENT
-------------
                                X             Y             Z
Electronic contribution:     -0.01894      -0.29619       0.45715
Nuclear contribution   :      0.01737       0.30387      -0.47422
                        -----------------------------------------
Total Dipole Moment    :     -0.00157       0.00769      -0.01706
                        -----------------------------------------
Magnitude (a.u.)       :      0.01878
Magnitude (Debye)      :      0.04774

Rotational constants in cm-1:     1.006891     0.295208     0.258491
Rotational constants in MHz : 30185.831813  8850.104914  7749.351732

                             ****ORCA TERMINATED NORMALLY****
TOTAL RUN TIME: 0 days 0 hours 0 minutes 10 seconds 715 msec
