                         Program Version 5.0.0 -  RELEASE  -
|  1> !wB97X-D3 RIJCOSX def2-SVP def2/J TightSCF
|  2> *xyz 0 1
|  3> C         -0.10608        1.76991       -4.08984
|  4> C         -0.25875        1.00432       -5.40983
|  5> C          0.39596       -0.37070       -5.33994
|  6> H          0.23915        1.56939       -6.20125
|  7> H         -1.30936        0.88869       -5.68245
|  8> O         -0.32633       -1.39040       -5.49128
|  9> F          1.61941       -0.40073       -5.03683
| 10> H         -0.57627        2.72718       -4.17630
| 11> H          0.93321        1.90140       -3.87192
| 12> H         -0.56868        1.21534       -3.30031
| 13> *
| 14> %MaxCore 64000
| 15>
| 16> %pal nprocs 4
| 17> end
| 18>
| 19> %scf
| 20>   MaxIter 150
| 21> end
| 22>
| 23>
| 24>                          ****END OF INPUT****

CARTESIAN COORDINATES (ANGSTROEM)
---------------------------------
  C     -0.106080    1.769910   -4.089840
  C     -0.258750    1.004320   -5.409830
  C      0.395960   -0.370700   -5.339940
  H      0.239150    1.569390   -6.201250
  H     -1.309360    0.888690   -5.682450
  O     -0.326330   -1.390400   -5.491280
  F      1.619410   -0.400730   -5.036830
  H     -0.576270    2.727180   -4.176300
  H      0.933210    1.901400   -3.871920
  H     -0.568680    1.215340   -3.300310

 Total Charge           Charge          ....    0
 Multiplicity           Mult            ....    1
 Number of Electrons    NEL             ....   40
 Basis Dimension        Dim             ....   95

ORBITAL ENERGIES
----------------

  NO   OCC          E(Eh)            E(eV)
   0   2.0000     -24.857148      -676.3974
   1   2.0000     -19.239811      -523.5419
   2   2.0000     -10.461916      -284.6832
   3   2.0000     -10.318488      -280.7803
   4   2.0000     -10.299582      -280.2659
   5   2.0000      -1.410835       -38.3908
   6   2.0000      -1.128965       -30.7207
   7   2.0000      -0.914732       -24.8911
   8   2.0000      -0.789433       -21.4816
   9   2.0000      -0.742888       -20.2150
  10   2.0000      -0.650689       -17.7061
  11   2.0000      -0.637891       -17.3579
  12   2.0000      -0.597708       -16.2645
  13   2.0000      -0.564284       -15.3549
  14   2.0000      -0.531694       -14.4681
  15   2.0000      -0.497841       -13.5469
  16   2.0000      -0.477764       -13.0006
  17   2.0000      -0.472296       -12.8518
  18   2.0000      -0.439714       -11.9652
  19   2.0000      -0.379539       -10.3278
  20   0.0000       0.065920         1.7938
  21   0.0000       0.143445         3.9033
  22   0.0000       0.189335         5.1521
  23   0.0000       0.196852         5.3566
  24   0.0000       0.218523         5.9463

MULLIKEN ATOMIC CHARGES
-----------------------
   0 C :   -0.059176
   1 C :   -0.112335
   2 C :    0.258381
   3 H :    0.060934
   4 H :    0.070947
   5 O :   -0.268469
   6 F :   -0.092783
   7 H :    0.047782
   8 H :    0.045210
   9 H :    0.049508
Sum of atomic charges:    0.0000000

LOEWDIN ATOMIC CHARGES
----------------------
   0 C :   -0.047794
   1 C :   -0.071709
   2 C :    0.115727
   3 H :    0.041567
   4 H :    0.046301
   5 O :   -0.204216
   6 F :    0.031932
   7 H :    0.031800
   8 H :    0.026705
   9 H :    0.029689

  Mayer bond orders larger than 0.100000
B(  0-C ,  1-C ) :   1.0623 B(  0-C ,  7-H ) :   0.9737 B(  0-C ,  8-H ) :   0.9753
B(  0-C ,  9-H ) :   0.9785 B(  1-C ,  2-C ) :   0.9992 B(  1-C ,  3-H ) :   0.9366
B(  1-C ,  4-H ) :   0.9545 B(  2-C ,  5-O ) :   2.0859 B(  2-C ,  6-F ) :   1.1728

Dispersion correction           -0.001926137
FINAL SINGLE POINT ENERGY      -292.097197258524

DIPOLE MOMENT
-------------
                                X             Y             Z
Electronic contribution:      4.08821      -6.57001      -1.81304
Nuclear contribution   :     -3.93139       7.77287       1.92635
                        -----------------------------------------
Total Dipole Moment    :      0.15683       1.20286       0.11331
                        -----------------------------------------
Magnitude (a.u.)       :      1.21832
Magnitude (Debye)      :      3.09673

Rotational constants in cm-1:     0.286068     0.133630     0.103472
Rotational constants in MHz :  8576.109806  4006.118234  3102.010802

                             ****ORCA TERMINATED NORMALLY****
TOTAL RUN TIME: 0 days 0 hours 0 minutes 14 seconds 121 msec
