                         Program Version 5.0.0 -  RELEASE  -
|  1> !M062X D3Zero RIJCOSX def2-TZVPD def2/J TightSCF
|  2> *xyz -1 1
|  3> C         -0.77455        2.78833       -0.54394
|  4> C          0.69721        3.22791       -0.52513
|  5> O          1.48929        2.37470        0.19919
|  6> H          0.71600        4.26403       -0.13077
|  7> H          1.03615        3.33092       -1.58367
|  8> H         -1.34746        3.48478       -1.11982
|  9> H         -1.15078        2.75876        0.45729
| 10> H         -0.85058        1.81526       -0.98241
| 11> *
| 12>
| 13> %MaxCore 64000
| 14> %pal nprocs 4
| 15> end
| 16>
| 17> %scf
| 18>   MaxIter 150
| 19> end
| 20>
| 21>
| 22>                          ****END OF INPUT****

CARTESIAN COORDINATES (ANGSTROEM)
---------------------------------
  C     -0.774550    2.788330   -0.543940
  C      0.697210    3.227910   -0.525130
  O      1.489290    2.374700    0.199190
  H      0.716000    4.264030   -0.130770
  H      1.036150    3.330920   -1.583670
  H     -1.347460    3.484780   -1.119820
  H     -1.150780    2.758760    0.457290
  H     -0.850580    1.815260   -0.982410

 Total Charge           Charge          ....   -1
 Multiplicity           Mult            ....    1
 Number of Electrons    NEL             ....   26
 Basis Dimension        Dim             ....  159

ORBITAL ENERGIES
----------------

  NO   OCC          E(Eh)            E(eV)
   0   2.0000     -19.288252      -524.8600
   1   2.0000     -10.346047      -281.5303
   2   2.0000     -10.321595      -280.8649
   3   2.0000      -0.791771       -21.5452
   4   2.0000      -0.619577       -16.8595
   5   2.0000      -0.455030       -12.3820
   6   2.0000      -0.317266        -8.6332
   7   2.0000      -0.294095        -8.0027
   8   2.0000      -0.235212        -6.4005
   9   2.0000      -0.218322        -5.9409
  10   2.0000      -0.177259        -4.8235
  11   2.0000      -0.034686        -0.9439
  12   2.0000      -0.033340        -0.9072
  13   0.0000       0.168174         4.5762
  14   0.0000       0.187305         5.0968
  15   0.0000       0.218741         5.9523
  16   0.0000       0.219027         5.9600
  17   0.0000       0.240392         6.5414

MULLIKEN ATOMIC CHARGES
-----------------------
   0 C :   -0.996746
   1 C :   -0.270427
   2 O :   -0.977186
   3 H :    0.216493
   4 H :    0.219043
   5 H :    0.308858
   6 H :    0.249758
   7 H :    0.250208
Sum of atomic charges:   -1.0000000

LOEWDIN ATOMIC CHARGES
----------------------
   0 C :   -0.175755
   1 C :   -0.623765
   2 O :   -0.434941
   3 H :    0.059427
   4 H :    0.062847
   5 H :    0.029599
   6 H :    0.041460
   7 H :    0.041128

  Mayer bond orders larger than 0.100000
B(  0-C ,  1-C ) :   0.7009 B(  0-C ,  2-O ) :   0.3608 B(  0-C ,  5-H ) :   0.9763
B(  0-C ,  6-H ) :   1.0088 B(  0-C ,  7-H ) :   1.0074 B(  1-C ,  2-O ) :   0.7895
B(  1-C ,  3-H ) :   1.0501 B(  1-C ,  4-H ) :   1.0444

Dispersion correction           -0.000014828
FINAL SINGLE POINT ENERGY      -154.409471186900

DIPOLE MOMENT
-------------
                                X             Y             Z
Electronic contribution:      2.36553      -0.98877       1.14093
Nuclear contribution   :     -3.69910       1.55962      -1.78699
                        -----------------------------------------
Total Dipole Moment    :     -1.33356       0.57085      -0.64606
                        -----------------------------------------
Magnitude (a.u.)       :      1.58797
Magnitude (Debye)      :      4.03631

Rotational constants in cm-1:     1.268893     0.327436     0.287754
Rotational constants in MHz : 38040.440181  9816.269339  8626.646564

                             ****ORCA TERMINATED NORMALLY****
TOTAL RUN TIME: 0 days 0 hours 0 minutes 18 seconds 828 msec
