                         Program Version 5.0.0 -  RELEASE  -
|  1> !M062X D3Zero RIJCOSX def2-TZVPD def2/J TightSCF
|  2> *xyz 1 1
|  3> C          3.95643        0.50147       -0.37910
|  4> H          3.16840        0.02920        0.20738
|  5> N          3.80389        1.96157       -0.15675
|  6> C          3.84232        0.14849       -1.85406
|  7> H          4.92323        0.17798        0.00937
|  8> H          4.20643        2.24441        0.74536
|  9> H          2.80827        2.21132       -0.09610
| 10> H          4.28076        2.50155       -0.89104
| 11> H          4.62951        0.62800       -2.39748
| 12> H          2.89665        0.48102       -2.22825
| 13> H          3.92053       -0.91187       -1.97413
| 14> *
| 15>
| 16> %MaxCore 64000
| 17> %pal nprocs 4
| 18> end
| 19>
| 20> %scf
| 21>   MaxIter 150
| 22> end
| 23>
| 24>
| 25>                          ****END OF INPUT****

CARTESIAN COORDINATES (ANGSTROEM)
---------------------------------
  C      3.956430    0.501470   -0.379100
  H      3.168400    0.029200    0.207380
  N      3.803890    1.961570   -0.156750
  C      3.842320    0.148490   -1.854060
  H      4.923230    0.177980    0.009370
  H      4.206430    2.244410    0.745360
  H      2.808270    2.211320   -0.096100
  H      4.280760    2.501550   -0.891040
  H      4.629510    0.628000   -2.397480
  H      2.896650    0.481020   -2.228250
  H      3.920530   -0.911870   -1.974130

 Total Charge           Charge          ....    1
 Multiplicity           Mult            ....    1
 Number of Electrons    NEL             ....   26
 Basis Dimension        Dim             ....  183

ORBITAL ENERGIES
----------------

  NO   OCC          E(Eh)            E(eV)
   0   2.0000     -15.081417      -410.3862
   1   2.0000     -10.790181      -293.6157
   2   2.0000     -10.709073      -291.4087
   3   2.0000      -1.326123       -36.0856
   4   2.0000      -1.062960       -28.9246
   5   2.0000      -0.931272       -25.3412
   6   2.0000      -0.878747       -23.9119
   7   2.0000      -0.860153       -23.4060
   8   2.0000      -0.767040       -20.8722
   9   2.0000      -0.712347       -19.3839
  10   2.0000      -0.647063       -17.6075
  11   2.0000      -0.631606       -17.1869
  12   2.0000      -0.615002       -16.7350
  13   0.0000      -0.177337        -4.8256
  14   0.0000      -0.121619        -3.3094
  15   0.0000      -0.120664        -3.2834
  16   0.0000      -0.114513        -3.1161
  17   0.0000      -0.082813        -2.2535

MULLIKEN ATOMIC CHARGES
-----------------------
   0 C :   -0.274019
   1 H :    0.332834
   2 N :   -0.483162
   3 C :   -1.197786
   4 H :    0.329204
   5 H :    0.402346
   6 H :    0.404228
   7 H :    0.385819
   8 H :    0.389238
   9 H :    0.381050
  10 H :    0.330246
Sum of atomic charges:    1.0000000

LOEWDIN ATOMIC CHARGES
----------------------
   0 C :   -0.202735
   1 H :    0.136761
   2 N :    0.174450
   3 C :   -0.057373
   4 H :    0.137299
   5 H :    0.182142
   6 H :    0.185219
   7 H :    0.182120
   8 H :    0.084250
   9 H :    0.084532
  10 H :    0.093335

  Mayer bond orders larger than 0.100000
B(  0-C ,  1-H ) :   0.9239 B(  0-C ,  2-N ) :   0.8289 B(  0-C ,  3-C ) :   0.5233
B(  0-C ,  4-H ) :   0.9177 B(  2-N ,  5-H ) :   0.8402 B(  2-N ,  6-H ) :   0.8369
B(  2-N ,  7-H ) :   0.8427 B(  3-C ,  8-H ) :   0.8954 B(  3-C ,  9-H ) :   0.9294
B(  3-C , 10-H ) :   0.9777

Dispersion correction           -0.000053630
FINAL SINGLE POINT ENERGY      -135.508216020153

DIPOLE MOMENT
-------------
                                X             Y             Z
Electronic contribution:     -0.01103       1.31692       1.23990
Nuclear contribution   :     -0.06214      -0.04120      -0.39947
                        -----------------------------------------
Total Dipole Moment    :     -0.07317       1.27572       0.84043
                        -----------------------------------------
Magnitude (a.u.)       :      1.52942
Magnitude (Debye)      :      3.88749

Rotational constants in cm-1:     1.011771     0.281435     0.249812
Rotational constants in MHz : 30332.138762  8437.210602  7489.166323

                             ****ORCA TERMINATED NORMALLY****
TOTAL RUN TIME: 0 days 0 hours 0 minutes 21 seconds 360 msec
