                         Program Version 5.0.0 -  RELEASE  -
|  1> !M062X D3Zero RIJCOSX def2-TZVPD def2/J TightSCF xyzfile
|  2>
|  3> *xyzfile 0 1 B.xyz
|  4>
|  5> %MaxCore 64000
|  6>
|  7> %pal nprocs 4
|  8> end
|  9>
| 10> %scf
| 11>   MaxIter 150
| 12> end
| 13>
| 14>
| 15>                          ****END OF INPUT****

CARTESIAN COORDINATES (ANGSTROEM)
---------------------------------
  C      3.956426    0.501466   -0.379100
  H      3.168398    0.029201    0.207383
  N      3.803893    1.961572   -0.156747
  C      3.842322    0.148490   -1.854058
  H      4.923231    0.177982    0.009371
  H      4.620021    0.694502   -2.402150
  H      4.096015   -0.910930   -1.955103
  C      2.475619    0.412708   -2.485377
  H      2.174689    1.445076   -2.287971
  C      1.383931   -0.532740   -1.995203
  H      2.575613    0.318574   -3.571460
  H      1.264698   -0.412309   -0.915491
  H      1.705223   -1.566885   -2.164984
  C      0.031398   -0.317260   -2.677791
  C     -0.587292    1.060853   -2.436460
  H     -0.662815   -1.089530   -2.329985
  H      0.149465   -0.478040   -3.755648
  H      0.104376    1.828590   -2.793130
  C     -0.951213    1.334978   -0.972500
  H     -1.478832    1.161355   -3.062484
  H     -0.317007    0.741648   -0.311389
  H     -1.980916    1.012842   -0.788958
  C     -0.774550    2.788332   -0.543943
  H     -1.352609    3.459372   -1.192585
  H     -1.171014    2.902331    0.469968
  C      0.697208    3.227911   -0.525126
  O      1.489294    2.374703    0.199189
  H      0.715998    4.264030   -0.130774
  H      1.036148    3.330920   -1.583669
  H      4.206425    2.244406    0.745359
  H      2.808269    2.211323   -0.096097
  H      4.280757    2.501552   -0.891037

 Total Charge           Charge          ....    0
 Multiplicity           Mult            ....    1
 Number of Electrons    NEL             ....   90
 Basis Dimension        Dim             ....  599

ORBITAL ENERGIES
----------------

  NO   OCC          E(Eh)            E(eV)
   0   2.0000     -19.496285      -530.5209
   1   2.0000     -14.825659      -403.4267
   2   2.0000     -10.603554      -288.5374
   3   2.0000     -10.557882      -287.2946
   4   2.0000     -10.532190      -286.5955
   5   2.0000     -10.519532      -286.2510
   6   2.0000     -10.517681      -286.2006
   7   2.0000     -10.513817      -286.0955
   8   2.0000     -10.501326      -285.7556
   9   2.0000     -10.488025      -285.3937
  10   2.0000     -10.480918      -285.2003
  11   2.0000      -1.098543       -29.8929
  12   2.0000      -1.009102       -27.4591
  13   2.0000      -0.917318       -24.9615
  14   2.0000      -0.876827       -23.8597
  15   2.0000      -0.836893       -22.7730
  16   2.0000      -0.790655       -21.5148
  17   2.0000      -0.750336       -20.4177
  18   2.0000      -0.707927       -19.2637
  19   2.0000      -0.678418       -18.4607
  20   2.0000      -0.648644       -17.6505
  21   2.0000      -0.642721       -17.4893
  22   2.0000      -0.627233       -17.0679
  23   2.0000      -0.589536       -16.0421
  24   2.0000      -0.561610       -15.2822
  25   2.0000      -0.537748       -14.6329
  26   2.0000      -0.535964       -14.5843
  27   2.0000      -0.506345       -13.7783
  28   2.0000      -0.489224       -13.3125
  29   2.0000      -0.485365       -13.2075
  30   2.0000      -0.466873       -12.7043
  31   2.0000      -0.455989       -12.4081
  32   2.0000      -0.444858       -12.1052
  33   2.0000      -0.427972       -11.6457
  34   2.0000      -0.418330       -11.3834
  35   2.0000      -0.406342       -11.0571
  36   2.0000      -0.400813       -10.9067
  37   2.0000      -0.386092       -10.5061
  38   2.0000      -0.374264       -10.1842
  39   2.0000      -0.370831       -10.0908
  40   2.0000      -0.348992        -9.4965
  41   2.0000      -0.342289        -9.3141
  42   2.0000      -0.338472        -9.2103
  43   2.0000      -0.249989        -6.8026
  44   2.0000      -0.244789        -6.6611
  45   0.0000      -0.010153        -0.2763
  46   0.0000       0.015035         0.4091
  47   0.0000       0.019333         0.5261
  48   0.0000       0.032292         0.8787
  49   0.0000       0.045102         1.2273

MULLIKEN ATOMIC CHARGES
-----------------------
   0 C :   -0.545549
   1 H :    0.303406
   2 N :   -0.423456
   3 C :   -0.898426
   4 H :    0.337900
   5 H :    0.310888
   6 H :    0.366100
   7 C :    0.125413
   8 H :   -0.162255
   9 C :   -0.345588
  10 H :    0.414395
  11 H :    0.091868
  12 H :    0.386692
  13 C :   -1.049563
  14 C :   -0.552257
  15 H :    0.383290
  16 H :    0.361086
  17 H :    0.258281
  18 C :   -0.335183
  19 H :    0.378873
  20 H :    0.101623
  21 H :    0.366819
  22 C :   -0.974825
  23 H :    0.370330
  24 H :    0.401372
  25 C :   -0.300408
  26 O :   -1.019587
  27 H :    0.271061
  28 H :    0.240568
  29 H :    0.385027
  30 H :    0.376525
  31 H :    0.375578
Sum of atomic charges:    0.0000000

LOEWDIN ATOMIC CHARGES
----------------------
   0 C :   -0.173828
   1 H :    0.128764
   2 N :    0.132004
   3 C :   -0.197683
   4 H :    0.119212
   5 H :    0.113347
   6 H :    0.118589
   7 C :   -0.208752
   8 H :    0.093323
   9 C :   -0.216712
  10 H :    0.121549
  11 H :    0.099322
  12 H :    0.115546
  13 C :   -0.215116
  14 C :   -0.214197
  15 H :    0.113221
  16 H :    0.109142
  17 H :    0.093110
  18 C :   -0.220085
  19 H :    0.110294
  20 H :    0.092507
  21 H :    0.108460
  22 C :   -0.209465
  23 H :    0.109713
  24 H :    0.106708
  25 C :   -0.419701
  26 O :   -0.287930
  27 H :    0.098643
  28 H :    0.090640
  29 H :    0.163579
  30 H :   -0.037894
  31 H :    0.163690

  Mayer bond orders larger than 0.100000
B(  0-C ,  1-H ) :   0.9669 B(  0-C ,  2-N ) :   0.8469 B(  0-C ,  3-C ) :   0.6412
B(  0-C ,  4-H ) :   0.9300 B(  2-N , 26-O ) :  -0.2043 B(  2-N , 29-H ) :   0.8831
B(  2-N , 30-H ) :   0.5961 B(  2-N , 31-H ) :   0.8651 B(  3-C ,  5-H ) :   1.0081
B(  3-C ,  6-H ) :   0.9577 B(  3-C ,  7-C ) :   0.5261 B(  3-C ,  9-C ) :   0.2019
B(  3-C , 10-H ) :  -0.1010 B(  7-C ,  8-H ) :   1.0672 B(  7-C ,  9-C ) :   0.2818
B(  7-C , 10-H ) :   0.8493 B(  7-C , 11-H ) :  -0.1338 B(  7-C , 13-C ) :   0.2200
B(  9-C , 11-H ) :   1.1532 B(  9-C , 12-H ) :   0.8588 B(  9-C , 13-C ) :   0.6019
B( 13-C , 14-C ) :   0.6446 B( 13-C , 15-H ) :   0.9450 B( 13-C , 16-H ) :   0.9726
B( 13-C , 18-C ) :   0.1558 B( 14-C , 17-H ) :   1.0193 B( 14-C , 18-C ) :   0.3908
B( 14-C , 19-H ) :   0.9061 B( 14-C , 20-H ) :  -0.1343 B( 14-C , 22-C ) :   0.2055
B( 17-H , 18-C ) :  -0.1067 B( 18-C , 20-H ) :   1.0406 B( 18-C , 21-H ) :   0.9107
B( 18-C , 22-C ) :   0.7341 B( 22-C , 23-H ) :   0.9753 B( 22-C , 24-H ) :   0.9119
B( 22-C , 25-C ) :   0.8180 B( 22-C , 26-O ) :   0.1515 B( 25-C , 26-O ) :   0.5918
B( 25-C , 27-H ) :   1.0232 B( 25-C , 28-H ) :   0.9967 B( 26-O , 30-H ) :   0.2196

Dispersion correction           -0.001689203
FINAL SINGLE POINT ENERGY      -485.486640042787

DIPOLE MOMENT
-------------
                                X             Y             Z
Electronic contribution:      2.10304       0.90597       2.54537
Nuclear contribution   :      0.61785      -1.47632      -2.91844
                        -----------------------------------------
Total Dipole Moment    :      2.72089      -0.57036      -0.37307
                        -----------------------------------------
Magnitude (a.u.)       :      2.80495
Magnitude (Debye)      :      7.12961

Rotational constants in cm-1:     0.040993     0.027400     0.018162
Rotational constants in MHz :  1228.944366   821.418004   544.476857

                             ****ORCA TERMINATED NORMALLY****
TOTAL RUN TIME: 0 days 0 hours 4 minutes 50 seconds 530 msec
