                         Program Version 5.0.0 -  RELEASE  -
|  1> !M062X D3Zero RIJCOSX def2-TZVPD def2/J TightSCF
|  2> *xyz 0 1
|  3> C         -0.77455        2.78833       -0.54394
|  4> C          0.69721        3.22791       -0.52513
|  5> F          1.48929        2.37470        0.19919
|  6> H          0.71600        4.26403       -0.13077
|  7> H          1.03615        3.33092       -1.58367
|  8> H         -1.34746        3.48478       -1.11982
|  9> H         -1.15078        2.75876        0.45729
| 10> H         -0.85058        1.81526       -0.98241
| 11> *
| 12>
| 13> %MaxCore 64000
| 14> %pal nprocs 4
| 15> end
| 16>
| 17> %scf
| 18>   MaxIter 150
| 19> end
| 20>
| 21>
| 22>                          ****END OF INPUT****

CARTESIAN COORDINATES (ANGSTROEM)
---------------------------------
  C     -0.774550    2.788330   -0.543940
  C      0.697210    3.227910   -0.525130
  F      1.489290    2.374700    0.199190
  H      0.716000    4.264030   -0.130770
  H      1.036150    3.330920   -1.583670
  H     -1.347460    3.484780   -1.119820
  H     -1.150780    2.758760    0.457290
  H     -0.850580    1.815260   -0.982410

 Total Charge           Charge          ....    0
 Multiplicity           Mult            ....    1
 Number of Electrons    NEL             ....   26
 Basis Dimension        Dim             ....  159

ORBITAL ENERGIES
----------------

  NO   OCC          E(Eh)            E(eV)
   0   2.0000     -25.233102      -686.6276
   1   2.0000     -10.615348      -288.8583
   2   2.0000     -10.528625      -286.4984
   3   2.0000      -1.342510       -36.5316
   4   2.0000      -0.863674       -23.5018
   5   2.0000      -0.722881       -19.6706
   6   2.0000      -0.590577       -16.0704
   7   2.0000      -0.581525       -15.8241
   8   2.0000      -0.546058       -14.8590
   9   2.0000      -0.482803       -13.1377
  10   2.0000      -0.468304       -12.7432
  11   2.0000      -0.406730       -11.0677
  12   2.0000      -0.399906       -10.8820
  13   0.0000       0.019513         0.5310
  14   0.0000       0.043004         1.1702
  15   0.0000       0.065107         1.7717
  16   0.0000       0.066006         1.7961
  17   0.0000       0.094387         2.5684

MULLIKEN ATOMIC CHARGES
-----------------------
   0 C :   -0.992875
   1 C :   -0.099041
   2 F :   -0.312643
   3 H :    0.249581
   4 H :    0.250139
   5 H :    0.318387
   6 H :    0.293211
   7 H :    0.293242
Sum of atomic charges:   -0.0000000

LOEWDIN ATOMIC CHARGES
----------------------
   0 C :   -0.087204
   1 C :   -0.283912
   2 F :   -0.057195
   3 H :    0.112215
   4 H :    0.116349
   5 H :    0.067712
   6 H :    0.066175
   7 H :    0.065860

  Mayer bond orders larger than 0.100000
B(  0-C ,  1-C ) :   0.6939 B(  0-C ,  2-F ) :   0.1176 B(  0-C ,  5-H ) :   0.9495
B(  0-C ,  6-H ) :   0.9581 B(  0-C ,  7-H ) :   0.9562 B(  1-C ,  2-F ) :   0.6900
B(  1-C ,  3-H ) :   0.9835 B(  1-C ,  4-H ) :   0.9800

Dispersion correction           -0.000018827
FINAL SINGLE POINT ENERGY      -179.052242489227

DIPOLE MOMENT
-------------
                                X             Y             Z
Electronic contribution:      4.40460      -1.64224       1.99126
Nuclear contribution   :     -4.89513       2.05627      -2.36166
                        -----------------------------------------
Total Dipole Moment    :     -0.49054       0.41403      -0.37040
                        -----------------------------------------
Magnitude (a.u.)       :      0.74111
Magnitude (Debye)      :      1.88376

Rotational constants in cm-1:     1.247826     0.304622     0.269019
Rotational constants in MHz : 37408.889506  9132.346906  8064.979146

                             ****ORCA TERMINATED NORMALLY****
TOTAL RUN TIME: 0 days 0 hours 0 minutes 15 seconds 451 msec
