                         Program Version 5.0.0 -  RELEASE  -
|  1> !M062X D3Zero RIJCOSX def2-TZVPD def2/J TightSCF
|  2> *xyz 0 1
|  3> C          3.95643        0.50147       -0.37910
|  4> H          3.16840        0.02920        0.20738
|  5> C          3.80389        1.96157       -0.15675
|  6> C          3.84232        0.14849       -1.85406
|  7> H          4.92323        0.17798        0.00937
|  8> H          4.20643        2.24441        0.74536
|  9> H          2.80827        2.21132       -0.09610
| 10> H          4.28076        2.50155       -0.89104
| 11> H          4.62951        0.62800       -2.39748
| 12> H          2.89665        0.48102       -2.22825
| 13> H          3.92053       -0.91187       -1.97413
| 14> *
| 15>
| 16> %MaxCore 64000
| 17> %pal nprocs 4
| 18> end
| 19>
| 20> %scf
| 21>   MaxIter 150
| 22> end
| 23>
| 24>
| 25>                          ****END OF INPUT****

CARTESIAN COORDINATES (ANGSTROEM)
---------------------------------
  C      3.956430    0.501470   -0.379100
  H      3.168400    0.029200    0.207380
  C      3.803890    1.961570   -0.156750
  C      3.842320    0.148490   -1.854060
  H      4.923230    0.177980    0.009370
  H      4.206430    2.244410    0.745360
  H      2.808270    2.211320   -0.096100
  H      4.280760    2.501550   -0.891040
  H      4.629510    0.628000   -2.397480
  H      2.896650    0.481020   -2.228250
  H      3.920530   -0.911870   -1.974130

 Total Charge           Charge          ....    0
 Multiplicity           Mult            ....    1
 Number of Electrons    NEL             ....   26
 Basis Dimension        Dim             ....  183

ORBITAL ENERGIES
----------------

  NO   OCC          E(Eh)            E(eV)
   0   2.0000     -10.518610      -286.2259
   1   2.0000     -10.509981      -285.9911
   2   2.0000     -10.491779      -285.4958
   3   2.0000      -0.891208       -24.2510
   4   2.0000      -0.782408       -21.2904
   5   2.0000      -0.668694       -18.1961
   6   2.0000      -0.539870       -14.6906
   7   2.0000      -0.514244       -13.9933
   8   2.0000      -0.467016       -12.7081
   9   2.0000      -0.455948       -12.4070
  10   2.0000      -0.396204       -10.7813
  11   2.0000      -0.394318       -10.7299
  12   2.0000      -0.385562       -10.4917
  13   0.0000       0.024458         0.6655
  14   0.0000       0.044000         1.1973
  15   0.0000       0.046739         1.2718
  16   0.0000       0.073307         1.9948
  17   0.0000       0.094892         2.5821

MULLIKEN ATOMIC CHARGES
-----------------------
   0 C :   -0.129679
   1 H :    0.276429
   2 C :   -1.263558
   3 C :   -1.173618
   4 H :    0.302521
   5 H :    0.341623
   6 H :    0.350407
   7 H :    0.341382
   8 H :    0.323769
   9 H :    0.326725
  10 H :    0.304001
Sum of atomic charges:   -0.0000000

LOEWDIN ATOMIC CHARGES
----------------------
   0 C :   -0.322382
   1 H :    0.105244
   2 C :   -0.131382
   3 C :   -0.121080
   4 H :    0.104901
   5 H :    0.052027
   6 H :    0.057506
   7 H :    0.056169
   8 H :    0.067789
   9 H :    0.069460
  10 H :    0.061747

  Mayer bond orders larger than 0.100000
B(  0-C ,  1-H ) :   0.9644 B(  0-C ,  2-C ) :   0.4683 B(  0-C ,  3-C ) :   0.5195
B(  0-C ,  4-H ) :   0.9519 B(  2-C ,  3-C ) :   0.1183 B(  2-C ,  5-H ) :   0.9677
B(  2-C ,  6-H ) :   0.9729 B(  2-C ,  7-H ) :   0.9157 B(  3-C ,  8-H ) :   0.9770
B(  3-C ,  9-H ) :   0.9640 B(  3-C , 10-H ) :   0.9923

Dispersion correction           -0.000052251
FINAL SINGLE POINT ENERGY      -119.098794123037

DIPOLE MOMENT
-------------
                                X             Y             Z
Electronic contribution:      0.08111      -0.29831       0.23193
Nuclear contribution   :     -0.08172       0.30475      -0.19303
                        -----------------------------------------
Total Dipole Moment    :     -0.00060       0.00644       0.03890
                        -----------------------------------------
Magnitude (a.u.)       :      0.03943
Magnitude (Debye)      :      0.10023

Rotational constants in cm-1:     1.020248     0.295755     0.261591
Rotational constants in MHz : 30586.266829  8866.511639  7842.297953

                             ****ORCA TERMINATED NORMALLY****
TOTAL RUN TIME: 0 days 0 hours 0 minutes 20 seconds 411 msec
