                         Program Version 5.0.0 -  RELEASE  -
|  1> !M062X D3Zero RIJCOSX def2-TZVPD def2/J TightSCF xyzfile
|  2>
|  3> *xyzfile 0 1 D.xyz
|  4>
|  5> %MaxCore 64000
|  6>
|  7> %pal nprocs 4
|  8> end
|  9>
| 10> %scf
| 11>   MaxIter 150
| 12> end
| 13>
| 14>
| 15>                          ****END OF INPUT****

CARTESIAN COORDINATES (ANGSTROEM)
---------------------------------
  C      3.956426    0.501466   -0.379100
  H      3.168398    0.029201    0.207383
  C      3.803893    1.961572   -0.156747
  C      3.842322    0.148490   -1.854058
  H      4.923231    0.177982    0.009371
  H      4.620021    0.694502   -2.402150
  H      4.096015   -0.910930   -1.955103
  C      2.475619    0.412708   -2.485377
  H      2.174689    1.445076   -2.287971
  C      1.383931   -0.532740   -1.995203
  H      2.575613    0.318574   -3.571460
  H      1.264698   -0.412309   -0.915491
  H      1.705223   -1.566885   -2.164984
  C      0.031398   -0.317260   -2.677791
  C     -0.587292    1.060853   -2.436460
  H     -0.662815   -1.089530   -2.329985
  H      0.149465   -0.478040   -3.755648
  H      0.104376    1.828590   -2.793130
  C     -0.951213    1.334978   -0.972500
  H     -1.478832    1.161355   -3.062484
  H     -0.317007    0.741648   -0.311389
  H     -1.980916    1.012842   -0.788958
  C     -0.774550    2.788332   -0.543943
  H     -1.352609    3.459372   -1.192585
  H     -1.171014    2.902331    0.469968
  C      0.697208    3.227911   -0.525126
  F      1.489294    2.374703    0.199189
  H      0.715998    4.264030   -0.130774
  H      1.036148    3.330920   -1.583669
  H      4.206425    2.244406    0.745359
  H      2.808269    2.211323   -0.096097
  H      4.280757    2.501552   -0.891037

 Total Charge           Charge          ....    0
 Multiplicity           Mult            ....    1
 Number of Electrons    NEL             ....   90
 Basis Dimension        Dim             ....  599

ORBITAL ENERGIES
----------------

  NO   OCC          E(Eh)            E(eV)
   0   2.0000     -25.254622      -687.2132
   1   2.0000     -10.624294      -289.1017
   2   2.0000     -10.545317      -286.9527
   3   2.0000     -10.531922      -286.5882
   4   2.0000     -10.528524      -286.4957
   5   2.0000     -10.525346      -286.4092
   6   2.0000     -10.519481      -286.2496
   7   2.0000     -10.517495      -286.1956
   8   2.0000     -10.511255      -286.0258
   9   2.0000     -10.500217      -285.7254
  10   2.0000     -10.446907      -284.2748
  11   2.0000      -1.378123       -37.5006
  12   2.0000      -0.921241       -25.0682
  13   2.0000      -0.901333       -24.5265
  14   2.0000      -0.866263       -23.5722
  15   2.0000      -0.834031       -22.6951
  16   2.0000      -0.783334       -21.3156
  17   2.0000      -0.755636       -20.5619
  18   2.0000      -0.711168       -19.3519
  19   2.0000      -0.685921       -18.6649
  20   2.0000      -0.647210       -17.6115
  21   2.0000      -0.636756       -17.3270
  22   2.0000      -0.611491       -16.6395
  23   2.0000      -0.602849       -16.4044
  24   2.0000      -0.577101       -15.7037
  25   2.0000      -0.541751       -14.7418
  26   2.0000      -0.531621       -14.4661
  27   2.0000      -0.518962       -14.1217
  28   2.0000      -0.499264       -13.5857
  29   2.0000      -0.497237       -13.5305
  30   2.0000      -0.478016       -13.0075
  31   2.0000      -0.459502       -12.5037
  32   2.0000      -0.453477       -12.3397
  33   2.0000      -0.437104       -11.8942
  34   2.0000      -0.429910       -11.6984
  35   2.0000      -0.421361       -11.4658
  36   2.0000      -0.410347       -11.1661
  37   2.0000      -0.403853       -10.9894
  38   2.0000      -0.384397       -10.4600
  39   2.0000      -0.378974       -10.3124
  40   2.0000      -0.371910       -10.1202
  41   2.0000      -0.370159       -10.0725
  42   2.0000      -0.355100        -9.6628
  43   2.0000      -0.354061        -9.6345
  44   2.0000      -0.336657        -9.1609
  45   0.0000       0.014799         0.4027
  46   0.0000       0.022266         0.6059
  47   0.0000       0.027164         0.7392
  48   0.0000       0.031729         0.8634
  49   0.0000       0.042802         1.1647

MULLIKEN ATOMIC CHARGES
-----------------------
   0 C :   -0.233682
   1 H :    0.242307
   2 C :   -0.903890
   3 C :   -1.029860
   4 H :    0.346579
   5 H :    0.383108
   6 H :    0.332288
   7 C :   -0.019139
   8 H :   -0.151958
   9 C :   -0.242129
  10 H :    0.391972
  11 H :    0.045379
  12 H :    0.402675
  13 C :   -1.097612
  14 C :   -0.528386
  15 H :    0.379717
  16 H :    0.379056
  17 H :    0.288289
  18 C :   -0.443677
  19 H :    0.371491
  20 H :    0.215799
  21 H :    0.371185
  22 C :   -0.917154
  23 H :    0.366073
  24 H :    0.402852
  25 C :   -0.255509
  26 F :   -0.463058
  27 H :    0.304719
  28 H :    0.272280
  29 H :    0.450721
  30 H :   -0.003947
  31 H :    0.343510
Sum of atomic charges:   -0.0000000

LOEWDIN ATOMIC CHARGES
----------------------
   0 C :   -0.256220
   1 H :    0.106763
   2 C :   -0.111713
   3 C :   -0.221585
   4 H :    0.107340
   5 H :    0.113351
   6 H :    0.108237
   7 C :   -0.210926
   8 H :    0.090070
   9 C :   -0.216006
  10 H :    0.119017
  11 H :    0.097599
  12 H :    0.118852
  13 C :   -0.214502
  14 C :   -0.212542
  15 H :    0.113428
  16 H :    0.112227
  17 H :    0.094123
  18 C :   -0.210047
  19 H :    0.112954
  20 H :    0.100319
  21 H :    0.116030
  22 C :   -0.183060
  23 H :    0.123331
  24 H :    0.112841
  25 C :   -0.200217
  26 F :   -0.051316
  27 H :    0.127367
  28 H :    0.122214
  29 H :    0.061400
  30 H :   -0.035028
  31 H :    0.065698

  Mayer bond orders larger than 0.100000
B(  0-C ,  1-H ) :   0.9950 B(  0-C ,  2-C ) :   0.2683 B(  0-C ,  3-C ) :   0.6876
B(  0-C ,  4-H ) :   0.9162 B(  0-C , 30-H ) :  -0.1227 B(  2-C ,  3-C ) :   0.1326
B(  2-C , 26-F ) :   0.2176 B(  2-C , 29-H ) :   0.9454 B(  2-C , 30-H ) :   0.8012
B(  2-C , 31-H ) :   1.1861 B(  3-C ,  5-H ) :   0.9336 B(  3-C ,  6-H ) :   0.9638
B(  3-C ,  7-C ) :   0.7220 B(  3-C ,  9-C ) :   0.1855 B(  7-C ,  8-H ) :   1.1673
B(  7-C ,  9-C ) :   0.2377 B(  7-C , 10-H ) :   0.8509 B(  7-C , 11-H ) :  -0.1566
B(  7-C , 13-C ) :   0.2109 B(  8-H ,  9-C ) :  -0.1926 B(  9-C , 11-H ) :   1.1925
B(  9-C , 12-H ) :   0.8415 B(  9-C , 13-C ) :   0.5821 B( 13-C , 14-C ) :   0.6828
B( 13-C , 15-H ) :   0.9487 B( 13-C , 16-H ) :   0.9630 B( 13-C , 18-C ) :   0.1732
B( 14-C , 17-H ) :   1.0001 B( 14-C , 18-C ) :   0.3657 B( 14-C , 19-H ) :   0.9150
B( 14-C , 20-H ) :  -0.1169 B( 14-C , 22-C ) :   0.1831 B( 17-H , 18-C ) :  -0.1208
B( 18-C , 20-H ) :   1.0238 B( 18-C , 21-H ) :   0.9122 B( 18-C , 22-C ) :   0.6931
B( 22-C , 23-H ) :   0.9552 B( 22-C , 24-H ) :   0.9210 B( 22-C , 25-C ) :   0.7511
B( 22-C , 26-F ) :   0.1475 B( 25-C , 26-F ) :   0.5579 B( 25-C , 27-H ) :   0.9512
B( 25-C , 28-H ) :   1.0094 B( 26-F , 30-H ) :  -0.2134

Dispersion correction           -0.001653482
FINAL SINGLE POINT ENERGY      -493.449811133397

DIPOLE MOMENT
-------------
                                X             Y             Z
Electronic contribution:     -1.96001       3.28502       4.27524
Nuclear contribution   :      1.09293      -2.80761      -4.51228
                        -----------------------------------------
Total Dipole Moment    :     -0.86708       0.47740      -0.23704
                        -----------------------------------------
Magnitude (a.u.)       :      1.01781
Magnitude (Debye)      :      2.58706

Rotational constants in cm-1:     0.040502     0.027818     0.018259
Rotational constants in MHz :  1214.218058   833.972871   547.398614

                             ****ORCA TERMINATED NORMALLY****
TOTAL RUN TIME: 0 days 0 hours 4 minutes 52 seconds 61 msec
