                         Program Version 5.0.0 -  RELEASE  -
|  1> !BLYP D3BJ RIJCOSX def2-SVPD def2/J TightSCF
|  2> *xyz -1 1
|  3> C         -1.36646        2.47911       -4.31393
|  4> C         -2.35773        2.30686       -3.13675
|  5> O         -3.44376        2.84652       -3.25274
|  6> O         -1.97092        1.58304       -2.15123
|  7> H         -1.80853        3.10058       -5.06443
|  8> H         -1.13980        1.52081       -4.73248
|  9> H         -0.46612        2.93495       -3.95827
| 10> *
| 11> %MaxCore 64000
| 12>
| 13> %pal nprocs 4
| 14> end
| 15>
| 16> %scf
| 17>   MaxIter 150
| 18> end
| 19>
| 20>
| 21>                          ****END OF INPUT****

CARTESIAN COORDINATES (ANGSTROEM)
---------------------------------
  C     -1.366460    2.479110   -4.313930
  C     -2.357730    2.306860   -3.136750
  O     -3.443760    2.846520   -3.252740
  O     -1.970920    1.583040   -2.151230
  H     -1.808530    3.100580   -5.064430
  H     -1.139800    1.520810   -4.732480
  H     -0.466120    2.934950   -3.958270

 Total Charge           Charge          ....   -1
 Multiplicity           Mult            ....    1
 Number of Electrons    NEL             ....   32
 Basis Dimension        Dim             ....  110

ORBITAL ENERGIES
----------------

  NO   OCC          E(Eh)            E(eV)
   0   2.0000     -18.534597      -504.3520
   1   2.0000     -18.523975      -504.0630
   2   2.0000      -9.802331      -266.7350
   3   2.0000      -9.734106      -264.8785
   4   2.0000      -0.722216       -19.6525
   5   2.0000      -0.626625       -17.0513
   6   2.0000      -0.458978       -12.4894
   7   2.0000      -0.238494        -6.4897
   8   2.0000      -0.206569        -5.6210
   9   2.0000      -0.191525        -5.2117
  10   2.0000      -0.168087        -4.5739
  11   2.0000      -0.132469        -3.6047
  12   2.0000      -0.121906        -3.3172
  13   2.0000      -0.007490        -0.2038
  14   2.0000       0.004917         0.1338
  15   2.0000       0.022601         0.6150
  16   0.0000       0.155715         4.2372
  17   0.0000       0.200108         5.4452
  18   0.0000       0.201824         5.4919
  19   0.0000       0.223656         6.0860
  20   0.0000       0.243609         6.6289

MULLIKEN ATOMIC CHARGES
-----------------------
   0 C :    0.847813
   1 C :   -0.176009
   2 O :   -0.465589
   3 O :   -0.616001
   4 H :   -0.216182
   5 H :   -0.187217
   6 H :   -0.186815
Sum of atomic charges:   -1.0000000

LOEWDIN ATOMIC CHARGES
----------------------
   0 C :    0.159081
   1 C :   -0.360525
   2 O :   -0.293314
   3 O :   -0.344945
   4 H :   -0.057769
   5 H :   -0.050701
   6 H :   -0.051828

  Mayer bond orders larger than 0.100000
B(  0-C ,  1-C ) :   1.2163 B(  0-C ,  4-H ) :   0.8082 B(  0-C ,  5-H ) :   0.7541
B(  0-C ,  6-H ) :   0.7495 B(  1-C ,  2-O ) :   1.6278 B(  1-C ,  3-O ) :   1.5222
B(  1-C ,  4-H ) :   0.3093 B(  1-C ,  5-H ) :   0.2151 B(  1-C ,  6-H ) :   0.2193

Dispersion correction           -0.007706422
FINAL SINGLE POINT ENERGY      -228.324009758063

DIPOLE MOMENT
-------------
                                X             Y             Z
Electronic contribution:     -2.48761      -0.34639       2.76945
Nuclear contribution   :      3.20990       0.60513      -3.84153
                        -----------------------------------------
Total Dipole Moment    :      0.72229       0.25874      -1.07207
                        -----------------------------------------
Magnitude (a.u.)       :      1.31833
Magnitude (Debye)      :      3.35093

Rotational constants in cm-1:     0.394521     0.330294     0.185888
Rotational constants in MHz : 11827.441786  9901.964904  5572.768963

                             ****ORCA TERMINATED NORMALLY****
TOTAL RUN TIME: 0 days 0 hours 0 minutes 3 seconds 390 msec
