                         Program Version 5.0.0 -  RELEASE  -
|  1> !BLYP D3BJ RIJCOSX def2-SVPD def2/J TightSCF
|  2> *xyz 1 1
|  3> C          0.64866        1.00359       -3.64560
|  4> N          0.28128        0.67645       -2.24018
|  5> H          0.39079       -0.31925       -2.02649
|  6> H         -0.69269        0.99010       -2.13812
|  7> H          0.85421        1.21221       -1.57528
|  8> H          0.03905        0.43387       -4.31545
|  9> H          1.67860        0.76457       -3.80989
| 10> H          0.49232        2.04741       -3.82138
| 11> *
| 12> %MaxCore 64000
| 13>
| 14> %pal nprocs 4
| 15> end
| 16>
| 17> %scf
| 18>   MaxIter 150
| 19> end
| 20>
| 21>
| 22>                          ****END OF INPUT****

CARTESIAN COORDINATES (ANGSTROEM)
---------------------------------
  C      0.648660    1.003590   -3.645600
  N      0.281280    0.676450   -2.240180
  H      0.390790   -0.319250   -2.026490
  H     -0.692690    0.990100   -2.138120
  H      0.854210    1.212210   -1.575280
  H      0.039050    0.433870   -4.315450
  H      1.678600    0.764570   -3.809890
  H      0.492320    2.047410   -3.821380

 Total Charge           Charge          ....    1
 Multiplicity           Mult            ....    1
 Number of Electrons    NEL             ....   18
 Basis Dimension        Dim             ....   88

ORBITAL ENERGIES
----------------

  NO   OCC          E(Eh)            E(eV)
   0   2.0000     -14.372658      -391.0999
   1   2.0000     -10.182358      -277.0761
   2   2.0000      -1.133390       -30.8411
   3   2.0000      -0.863017       -23.4839
   4   2.0000      -0.762246       -20.7418
   5   2.0000      -0.753070       -20.4921
   6   2.0000      -0.663963       -18.0673
   7   2.0000      -0.581003       -15.8099
   8   2.0000      -0.578849       -15.7513
   9   0.0000      -0.232165        -6.3175
  10   0.0000      -0.167631        -4.5615
  11   0.0000      -0.164532        -4.4771
  12   0.0000      -0.153853        -4.1866
  13   0.0000      -0.112123        -3.0510

MULLIKEN ATOMIC CHARGES
-----------------------
   0 C :    1.316858
   1 N :   -0.640205
   2 H :    0.293701
   3 H :    0.336506
   4 H :    0.308891
   5 H :   -0.199867
   6 H :   -0.224082
   7 H :   -0.191801
Sum of atomic charges:    1.0000000

LOEWDIN ATOMIC CHARGES
----------------------
   0 C :    0.289169
   1 N :    0.330895
   2 H :    0.105498
   3 H :    0.103954
   4 H :    0.106228
   5 H :    0.021994
   6 H :    0.019812
   7 H :    0.022450

  Mayer bond orders larger than 0.100000
B(  0-C ,  1-N ) :   0.8736 B(  0-C ,  5-H ) :   0.8115 B(  0-C ,  6-H ) :   0.8291
B(  0-C ,  7-H ) :   0.8049 B(  1-N ,  2-H ) :   0.8281 B(  1-N ,  3-H ) :   0.7795
B(  1-N ,  4-H ) :   0.8156 B(  1-N ,  5-H ) :   0.1172 B(  1-N ,  6-H ) :   0.1034
B(  1-N ,  7-H ) :   0.1200

Dispersion correction           -0.006813339
FINAL SINGLE POINT ENERGY       -96.098052206682

DIPOLE MOMENT
-------------
                                X             Y             Z
Electronic contribution:     -0.25871      -0.27485       1.04640
Nuclear contribution   :      0.04246       0.12404      -0.26487
                        -----------------------------------------
Total Dipole Moment    :     -0.21625      -0.15081       0.78153
                        -----------------------------------------
Magnitude (a.u.)       :      0.82480
Magnitude (Debye)      :      2.09649

Rotational constants in cm-1:     2.856727     0.687609     0.685111
Rotational constants in MHz : 85642.512409 20614.005719 20539.101620

                             ****ORCA TERMINATED NORMALLY****
TOTAL RUN TIME: 0 days 0 hours 0 minutes 2 seconds 684 msec
