                         Program Version 5.0.0 -  RELEASE  -
|  1> !BLYP D3BJ RIJCOSX def2-SVPD def2/J TightSCF xyzfile
|  2>
|  3> *xyzfile 0 1 B.xyz
|  4>
|  5> %MaxCore 64000
|  6>
|  7> %pal nprocs 4
|  8> end
|  9>
| 10> %scf
| 11>   MaxIter 150
| 12> end
| 13>
| 14>
| 15>                          ****END OF INPUT****

CARTESIAN COORDINATES (ANGSTROEM)
---------------------------------
  C      0.648656    1.003595   -3.645601
  N      0.281280    0.676454   -2.240179
  C      0.132968    2.385869   -4.024618
  C     -1.366462    2.479106   -4.313932
  C     -2.357732    2.306858   -3.136753
  H     -1.636802    1.727095   -5.063993
  H     -1.582347    3.445605   -4.768687
  H      0.390790   -0.319253   -2.026495
  H     -0.692686    0.990104   -2.138123
  H      0.854206    1.212214   -1.575279
  O     -3.443763    2.846518   -3.252744
  O     -1.970922    1.583042   -2.151229
  H      0.190993    0.239655   -4.275752
  H      1.731572    0.931729   -3.750751
  H      0.414839    3.102847   -3.245165
  H      0.683167    2.687560   -4.919721

 Total Charge           Charge          ....    0
 Multiplicity           Mult            ....    1
 Number of Electrons    NEL             ....   56
 Basis Dimension        Dim             ....  218

ORBITAL ENERGIES
----------------

  NO   OCC          E(Eh)            E(eV)
   0   2.0000     -18.722156      -509.4558
   1   2.0000     -18.702293      -508.9153
   2   2.0000     -14.132242      -384.5579
   3   2.0000     -10.009926      -272.3839
   4   2.0000      -9.981351      -271.6064
   5   2.0000      -9.950921      -270.7783
   6   2.0000      -9.913204      -269.7520
   7   2.0000      -0.925215       -25.1764
   8   2.0000      -0.899759       -24.4837
   9   2.0000      -0.821385       -22.3510
  10   2.0000      -0.728555       -19.8250
  11   2.0000      -0.640500       -17.4289
  12   2.0000      -0.571072       -15.5396
  13   2.0000      -0.546460       -14.8699
  14   2.0000      -0.537525       -14.6268
  15   2.0000      -0.471723       -12.8362
  16   2.0000      -0.427986       -11.6461
  17   2.0000      -0.424411       -11.5488
  18   2.0000      -0.389089       -10.5877
  19   2.0000      -0.369337       -10.0502
  20   2.0000      -0.341885        -9.3032
  21   2.0000      -0.337285        -9.1780
  22   2.0000      -0.329210        -8.9583
  23   2.0000      -0.308567        -8.3965
  24   2.0000      -0.291101        -7.9213
  25   2.0000      -0.194812        -5.3011
  26   2.0000      -0.188388        -5.1263
  27   2.0000      -0.156612        -4.2616
  28   0.0000      -0.054084        -1.4717
  29   0.0000      -0.012527        -0.3409
  30   0.0000      -0.008174        -0.2224
  31   0.0000       0.017411         0.4738
  32   0.0000       0.027859         0.7581

MULLIKEN ATOMIC CHARGES
-----------------------
   0 C :    0.971287
   1 N :   -0.090213
   2 C :    0.399550
   3 C :    0.308635
   4 C :    0.228047
   5 H :    0.001926
   6 H :   -0.148041
   7 H :    0.201656
   8 H :   -0.322597
   9 H :    0.355321
  10 O :   -0.422845
  11 O :   -0.518490
  12 H :   -0.158478
  13 H :   -0.396467
  14 H :   -0.197168
  15 H :   -0.212124
Sum of atomic charges:   -0.0000000

LOEWDIN ATOMIC CHARGES
----------------------
   0 C :    0.086748
   1 N :    0.327741
   2 C :   -0.009499
   3 C :    0.049984
   4 C :   -0.229014
   5 H :    0.025381
   6 H :    0.017716
   7 H :    0.080445
   8 H :   -0.162490
   9 H :    0.086809
  10 O :   -0.182991
  11 O :   -0.200452
  12 H :    0.038363
  13 H :    0.023013
  14 H :    0.028008
  15 H :    0.020239

  Mayer bond orders larger than 0.100000
B(  0-C ,  1-N ) :   0.8671 B(  0-C ,  2-C ) :   1.1527 B(  0-C , 12-H ) :   0.7536
B(  0-C , 13-H ) :   0.6901 B(  0-C , 15-H ) :   0.1443 B(  1-N ,  7-H ) :   0.8646
B(  1-N ,  8-H ) :   1.2152 B(  1-N ,  9-H ) :   0.8064 B(  1-N , 12-H ) :   0.1302
B(  1-N , 13-H ) :   0.1908 B(  2-C ,  3-C ) :   1.1885 B(  2-C ,  5-H ) :   0.1632
B(  2-C ,  6-H ) :   0.1747 B(  2-C , 13-H ) :   0.1638 B(  2-C , 14-H ) :   0.7928
B(  2-C , 15-H ) :   0.7197 B(  3-C ,  4-C ) :   1.0251 B(  3-C ,  5-H ) :   0.7333
B(  3-C ,  6-H ) :   0.8451 B(  3-C , 10-O ) :   0.1087 B(  3-C , 14-H ) :   0.1294
B(  3-C , 15-H ) :   0.1351 B(  4-C ,  5-H ) :   0.1023 B(  4-C ,  6-H ) :   0.1591
B(  4-C , 10-O ) :   1.6794 B(  4-C , 11-O ) :   1.3540 B(  8-H , 11-O ) :   0.4209
B( 10-O , 11-O ) :   0.1597 B( 12-H , 13-H ) :  -0.1553

Dispersion correction           -0.027863059
FINAL SINGLE POINT ENERGY      -362.695510495345

DIPOLE MOMENT
-------------
                                X             Y             Z
Electronic contribution:     -5.89602       0.96278       2.55048
Nuclear contribution   :      9.92875      -2.62114      -2.63866
                        -----------------------------------------
Total Dipole Moment    :      4.03274      -1.65836      -0.08818
                        -----------------------------------------
Magnitude (a.u.)       :      4.36130
Magnitude (Debye)      :     11.08553

Rotational constants in cm-1:     0.159108     0.062474     0.047603
Rotational constants in MHz :  4769.938632  1872.932224  1427.103830

                             ****ORCA TERMINATED NORMALLY****
TOTAL RUN TIME: 0 days 0 hours 0 minutes 15 seconds 623 msec
