                         Program Version 5.0.0 -  RELEASE  -
|  1> !BLYP D3BJ RIJCOSX def2-SVPD def2/J TightSCF
|  2> *xyz 0 1
|  3> C         -1.36646        2.47911       -4.31393
|  4> C         -2.35773        2.30686       -3.13675
|  5> F         -3.44376        2.84652       -3.25274
|  6> O         -1.97092        1.58304       -2.15123
|  7> H         -1.80853        3.10058       -5.06443
|  8> H         -1.13980        1.52081       -4.73248
|  9> H         -0.46612        2.93495       -3.95827
| 10> *
| 11> %MaxCore 64000
| 12>
| 13> %pal nprocs 4
| 14> end
| 15>
| 16> %scf
| 17>   MaxIter 150
| 18> end
| 19>
| 20>
| 21>                          ****END OF INPUT****

CARTESIAN COORDINATES (ANGSTROEM)
---------------------------------
  C     -1.366460    2.479110   -4.313930
  C     -2.357730    2.306860   -3.136750
  F     -3.443760    2.846520   -3.252740
  O     -1.970920    1.583040   -2.151230
  H     -1.808530    3.100580   -5.064430
  H     -1.139800    1.520810   -4.732480
  H     -0.466120    2.934950   -3.958270

 Total Charge           Charge          ....    0
 Multiplicity           Mult            ....    1
 Number of Electrons    NEL             ....   32
 Basis Dimension        Dim             ....  110

ORBITAL ENERGIES
----------------

  NO   OCC          E(Eh)            E(eV)
   0   2.0000     -24.391296      -663.7209
   1   2.0000     -18.797193      -511.4976
   2   2.0000     -10.105560      -274.9863
   3   2.0000      -9.950630      -270.7704
   4   2.0000      -1.228452       -33.4279
   5   2.0000      -0.917978       -24.9794
   6   2.0000      -0.688985       -18.7482
   7   2.0000      -0.605228       -16.4691
   8   2.0000      -0.505963       -13.7680
   9   2.0000      -0.495305       -13.4779
  10   2.0000      -0.441612       -12.0169
  11   2.0000      -0.396025       -10.7764
  12   2.0000      -0.383533       -10.4365
  13   2.0000      -0.345726        -9.4077
  14   2.0000      -0.304791        -8.2938
  15   2.0000      -0.240989        -6.5576
  16   0.0000      -0.070927        -1.9300
  17   0.0000      -0.007610        -0.2071
  18   0.0000       0.040142         1.0923
  19   0.0000       0.064895         1.7659
  20   0.0000       0.068985         1.8772

MULLIKEN ATOMIC CHARGES
-----------------------
   0 C :    0.799481
   1 C :    0.241428
   2 F :   -0.227206
   3 O :   -0.410308
   4 H :   -0.181829
   5 H :   -0.109487
   6 H :   -0.112079
Sum of atomic charges:    0.0000000

LOEWDIN ATOMIC CHARGES
----------------------
   0 C :    0.231283
   1 C :   -0.069532
   2 F :    0.008064
   3 O :   -0.135133
   4 H :   -0.024095
   5 H :   -0.004994
   6 H :   -0.005593

  Mayer bond orders larger than 0.100000
B(  0-C ,  1-C ) :   1.2357 B(  0-C ,  4-H ) :   0.8207 B(  0-C ,  5-H ) :   0.7446
B(  0-C ,  6-H ) :   0.7386 B(  1-C ,  2-F ) :   0.9453 B(  1-C ,  3-O ) :   1.8465
B(  1-C ,  4-H ) :   0.2020 B(  1-C ,  5-H ) :   0.1842 B(  1-C ,  6-H ) :   0.1910
B(  2-F ,  3-O ) :   0.1108

Dispersion correction           -0.007092246
FINAL SINGLE POINT ENERGY      -252.850990074261

DIPOLE MOMENT
-------------
                                X             Y             Z
Electronic contribution:     -4.31889       0.50123       2.73095
Nuclear contribution   :      4.40923       0.04336      -3.80230
                        -----------------------------------------
Total Dipole Moment    :      0.09034       0.54459      -1.07136
                        -----------------------------------------
Magnitude (a.u.)       :      1.20521
Magnitude (Debye)      :      3.06341

Rotational constants in cm-1:     0.364425     0.322930     0.176742
Rotational constants in MHz : 10925.196996  9681.206479  5298.597717

                             ****ORCA TERMINATED NORMALLY****
TOTAL RUN TIME: 0 days 0 hours 0 minutes 3 seconds 356 msec
