                         Program Version 5.0.0 -  RELEASE  -
|  1> !BLYP D3BJ RIJCOSX def2-SVPD def2/J TightSCF
|  2> *xyz 0 1
|  3> C          0.64866        1.00359       -3.64560
|  4> C          0.28128        0.67645       -2.24018
|  5> H          0.39079       -0.31925       -2.02649
|  6> H         -0.69269        0.99010       -2.13812
|  7> H          0.85421        1.21221       -1.57528
|  8> H          0.03905        0.43387       -4.31545
|  9> H          1.67860        0.76457       -3.80989
| 10> H          0.49232        2.04741       -3.82138
| 11> *
| 12> %MaxCore 64000
| 13>
| 14> %pal nprocs 4
| 15> end
| 16>
| 17> %scf
| 18>   MaxIter 150
| 19> end
| 20>
| 21>
| 22>                          ****END OF INPUT****

CARTESIAN COORDINATES (ANGSTROEM)
---------------------------------
  C      0.648660    1.003590   -3.645600
  C      0.281280    0.676450   -2.240180
  H      0.390790   -0.319250   -2.026490
  H     -0.692690    0.990100   -2.138120
  H      0.854210    1.212210   -1.575280
  H      0.039050    0.433870   -4.315450
  H      1.678600    0.764570   -3.809890
  H      0.492320    2.047410   -3.821380

 Total Charge           Charge          ....    0
 Multiplicity           Mult            ....    1
 Number of Electrons    NEL             ....   18
 Basis Dimension        Dim             ....   88

ORBITAL ENERGIES
----------------

  NO   OCC          E(Eh)            E(eV)
   0   2.0000      -9.901191      -269.4251
   1   2.0000      -9.889092      -269.0959
   2   2.0000      -0.685700       -18.6588
   3   2.0000      -0.547192       -14.8898
   4   2.0000      -0.400442       -10.8966
   5   2.0000      -0.394769       -10.7422
   6   2.0000      -0.321176        -8.7397
   7   2.0000      -0.302455        -8.2302
   8   2.0000      -0.297567        -8.0972
   9   0.0000       0.009784         0.2662
  10   0.0000       0.042723         1.1625
  11   0.0000       0.079736         2.1697
  12   0.0000       0.081028         2.2049
  13   0.0000       0.100767         2.7420

MULLIKEN ATOMIC CHARGES
-----------------------
   0 C :    0.604635
   1 C :    0.977599
   2 H :   -0.355716
   3 H :   -0.290166
   4 H :   -0.315888
   5 H :   -0.204729
   6 H :   -0.219541
   7 H :   -0.196193
Sum of atomic charges:    0.0000000

LOEWDIN ATOMIC CHARGES
----------------------
   0 C :    0.088732
   1 C :    0.096412
   2 H :   -0.039232
   3 H :   -0.039019
   4 H :   -0.038800
   5 H :   -0.022046
   6 H :   -0.024983
   7 H :   -0.021064

  Mayer bond orders larger than 0.100000
B(  0-C ,  1-C ) :   1.4301 B(  0-C ,  2-H ) :   0.2151 B(  0-C ,  3-H ) :   0.2701
B(  0-C ,  4-H ) :   0.2206 B(  0-C ,  5-H ) :   0.7652 B(  0-C ,  6-H ) :   0.7977
B(  0-C ,  7-H ) :   0.7582 B(  1-C ,  2-H ) :   0.6439 B(  1-C ,  3-H ) :   0.6404
B(  1-C ,  4-H ) :   0.6374 B(  1-C ,  5-H ) :   0.2049 B(  1-C ,  6-H ) :   0.1948
B(  1-C ,  7-H ) :   0.2124

Dispersion correction           -0.006858480
FINAL SINGLE POINT ENERGY       -79.698417725512

DIPOLE MOMENT
-------------
                                X             Y             Z
Electronic contribution:      0.01321      -0.06417       0.04485
Nuclear contribution   :     -0.02064       0.06655      -0.02194
                        -----------------------------------------
Total Dipole Moment    :     -0.00743       0.00238       0.02291
                        -----------------------------------------
Magnitude (a.u.)       :      0.02420
Magnitude (Debye)      :      0.06152

Rotational constants in cm-1:     2.856742     0.718110     0.715385
Rotational constants in MHz : 85642.970161 21528.388214 21446.695095

                             ****ORCA TERMINATED NORMALLY****
TOTAL RUN TIME: 0 days 0 hours 0 minutes 2 seconds 641 msec
