                         Program Version 5.0.0 -  RELEASE  -
|  1> !BLYP D3BJ RIJCOSX def2-SVPD def2/J TightSCF
|  2> *xyz 0 1
|  3> C         -1.36646        2.47911       -4.31393
|  4> C         -2.35773        2.30686       -3.13675
|  5> O         -3.44376        2.84652       -3.25274
|  6> F         -1.97092        1.58304       -2.15123
|  7> H         -1.80853        3.10058       -5.06443
|  8> H         -1.13980        1.52081       -4.73248
|  9> H         -0.46612        2.93495       -3.95827
| 10> *
| 11> %MaxCore 64000
| 12>
| 13> %pal nprocs 4
| 14> end
| 15>
| 16> %scf
| 17>   MaxIter 150
| 18> end
| 19>
| 20>
| 21>                          ****END OF INPUT****

CARTESIAN COORDINATES (ANGSTROEM)
---------------------------------
  C     -1.366460    2.479110   -4.313930
  C     -2.357730    2.306860   -3.136750
  O     -3.443760    2.846520   -3.252740
  F     -1.970920    1.583040   -2.151230
  H     -1.808530    3.100580   -5.064430
  H     -1.139800    1.520810   -4.732480
  H     -0.466120    2.934950   -3.958270

 Total Charge           Charge          ....    0
 Multiplicity           Mult            ....    1
 Number of Electrons    NEL             ....   32
 Basis Dimension        Dim             ....  110

ORBITAL ENERGIES
----------------

  NO   OCC          E(Eh)            E(eV)
   0   2.0000     -24.369047      -663.1155
   1   2.0000     -18.806229      -511.7435
   2   2.0000     -10.100237      -274.8414
   3   2.0000      -9.950205      -270.7588
   4   2.0000      -1.181141       -32.1405
   5   2.0000      -0.956802       -26.0359
   6   2.0000      -0.685916       -18.6647
   7   2.0000      -0.581711       -15.8292
   8   2.0000      -0.480229       -13.0677
   9   2.0000      -0.475753       -12.9459
  10   2.0000      -0.440709       -11.9923
  11   2.0000      -0.393344       -10.7034
  12   2.0000      -0.385638       -10.4937
  13   2.0000      -0.353221        -9.6116
  14   2.0000      -0.327826        -8.9206
  15   2.0000      -0.251786        -6.8515
  16   0.0000      -0.062440        -1.6991
  17   0.0000      -0.007084        -0.1928
  18   0.0000       0.041271         1.1230
  19   0.0000       0.064805         1.7634
  20   0.0000       0.071063         1.9337

MULLIKEN ATOMIC CHARGES
-----------------------
   0 C :    0.818592
   1 C :    0.241565
   2 O :   -0.299553
   3 F :   -0.331632
   4 H :   -0.195263
   5 H :   -0.115657
   6 H :   -0.118052
Sum of atomic charges:   -0.0000000

LOEWDIN ATOMIC CHARGES
----------------------
   0 C :    0.232448
   1 C :   -0.067098
   2 O :   -0.096297
   3 F :   -0.034331
   4 H :   -0.010158
   5 H :   -0.011646
   6 H :   -0.012918

  Mayer bond orders larger than 0.100000
B(  0-C ,  1-C ) :   1.2058 B(  0-C ,  4-H ) :   0.8149 B(  0-C ,  5-H ) :   0.7478
B(  0-C ,  6-H ) :   0.7444 B(  1-C ,  2-O ) :   1.9586 B(  1-C ,  3-F ) :   0.8038
B(  1-C ,  4-H ) :   0.2677 B(  1-C ,  5-H ) :   0.1683 B(  1-C ,  6-H ) :   0.1716
B(  2-O ,  3-F ) :   0.1152

Dispersion correction           -0.007097770
FINAL SINGLE POINT ENERGY      -252.867944522603

DIPOLE MOMENT
-------------
                                X             Y             Z
Electronic contribution:     -1.93476      -1.53676       4.50151
Nuclear contribution   :      2.88734       1.34891      -4.94049
                        -----------------------------------------
Total Dipole Moment    :      0.95258      -0.18784      -0.43898
                        -----------------------------------------
Magnitude (a.u.)       :      1.06555
Magnitude (Debye)      :      2.70842

Rotational constants in cm-1:     0.375207     0.313199     0.176202
Rotational constants in MHz : 11248.433436  9389.476975  5282.390844

                             ****ORCA TERMINATED NORMALLY****
TOTAL RUN TIME: 0 days 0 hours 0 minutes 3 seconds 306 msec
