                         Program Version 5.0.0 -  RELEASE  -
|  1> !BLYP D3BJ RIJCOSX def2-SVPD def2/J TightSCF xyzfile
|  2>
|  3> *xyzfile 0 1 D2.xyz
|  4>
|  5> %MaxCore 64000
|  6>
|  7> %pal nprocs 4
|  8> end
|  9>
| 10> %scf
| 11>   MaxIter 150
| 12> end
| 13>
| 14>
| 15>                          ****END OF INPUT****

CARTESIAN COORDINATES (ANGSTROEM)
---------------------------------
  C      0.648656    1.003595   -3.645601
  C      0.281280    0.676454   -2.240179
  C      0.132968    2.385869   -4.024618
  C     -1.366462    2.479106   -4.313932
  C     -2.357732    2.306858   -3.136753
  H     -1.636802    1.727095   -5.063993
  H     -1.582347    3.445605   -4.768687
  H      0.390790   -0.319253   -2.026495
  H     -0.692686    0.990104   -2.138123
  H      0.854206    1.212214   -1.575279
  O     -3.443763    2.846518   -3.252744
  F     -1.970922    1.583042   -2.151229
  H      0.190993    0.239655   -4.275752
  H      1.731572    0.931729   -3.750751
  H      0.414839    3.102847   -3.245165
  H      0.683167    2.687560   -4.919721

 Total Charge           Charge          ....    0
 Multiplicity           Mult            ....    1
 Number of Electrons    NEL             ....   56
 Basis Dimension        Dim             ....  218

ORBITAL ENERGIES
----------------

  NO   OCC          E(Eh)            E(eV)
   0   2.0000     -24.377271      -663.3393
   1   2.0000     -18.811710      -511.8926
   2   2.0000     -10.102986      -274.9162
   3   2.0000      -9.956626      -270.9336
   4   2.0000      -9.933554      -270.3057
   5   2.0000      -9.916051      -269.8295
   6   2.0000      -9.866259      -268.4745
   7   2.0000      -1.200235       -32.6601
   8   2.0000      -0.962122       -26.1807
   9   2.0000      -0.737414       -20.0661
  10   2.0000      -0.682247       -18.5649
  11   2.0000      -0.609770       -16.5927
  12   2.0000      -0.600884       -16.3509
  13   2.0000      -0.518002       -14.0955
  14   2.0000      -0.497137       -13.5278
  15   2.0000      -0.489899       -13.3308
  16   2.0000      -0.447007       -12.1637
  17   2.0000      -0.416594       -11.3361
  18   2.0000      -0.399476       -10.8703
  19   2.0000      -0.398079       -10.8323
  20   2.0000      -0.371600       -10.1118
  21   2.0000      -0.345607        -9.4044
  22   2.0000      -0.337404        -9.1812
  23   2.0000      -0.322629        -8.7792
  24   2.0000      -0.293989        -7.9999
  25   2.0000      -0.289234        -7.8705
  26   2.0000      -0.278326        -7.5736
  27   2.0000      -0.246832        -6.7166
  28   0.0000      -0.070707        -1.9240
  29   0.0000      -0.005762        -0.1568
  30   0.0000       0.019991         0.5440
  31   0.0000       0.025921         0.7053
  32   0.0000       0.027911         0.7595

MULLIKEN ATOMIC CHARGES
-----------------------
   0 C :    0.054904
   1 C :    2.795297
   2 C :    0.435455
   3 C :    0.244192
   4 C :    0.484733
   5 H :    0.075106
   6 H :   -0.143115
   7 H :   -0.226912
   8 H :   -1.906416
   9 H :   -0.130812
  10 O :   -0.282080
  11 F :   -0.454302
  12 H :   -0.129055
  13 H :   -0.387934
  14 H :   -0.154625
  15 H :   -0.274436
Sum of atomic charges:    0.0000000

LOEWDIN ATOMIC CHARGES
----------------------
   0 C :   -0.048052
   1 C :    0.154714
   2 C :   -0.023255
   3 C :    0.077002
   4 C :    0.001136
   5 H :    0.040284
   6 H :    0.028499
   7 H :   -0.029795
   8 H :   -0.155239
   9 H :   -0.024101
  10 O :   -0.077677
  11 F :   -0.023240
  12 H :    0.020007
  13 H :    0.015476
  14 H :    0.028108
  15 H :    0.016133

  Mayer bond orders larger than 0.100000
B(  0-C ,  1-C ) :   0.8193 B(  0-C ,  2-C ) :   1.1726 B(  0-C ,  3-C ) :   0.1054
B(  0-C ,  7-H ) :   0.2874 B(  0-C ,  8-H ) :   0.7196 B(  0-C ,  9-H ) :   0.3510
B(  0-C , 12-H ) :   0.7515 B(  0-C , 13-H ) :   0.7958 B(  0-C , 14-H ) :   0.1256
B(  0-C , 15-H ) :   0.1336 B(  1-C ,  2-C ) :   0.1416 B(  1-C ,  7-H ) :   0.2677
B(  1-C ,  8-H ) :  -2.9295 B(  1-C , 11-F ) :  -0.2501 B(  1-C , 12-H ) :   0.1541
B(  2-C ,  3-C ) :   1.1905 B(  2-C ,  5-H ) :   0.1761 B(  2-C ,  6-H ) :   0.1737
B(  2-C , 12-H ) :   0.1298 B(  2-C , 13-H ) :   0.1628 B(  2-C , 14-H ) :   0.7490
B(  2-C , 15-H ) :   0.7349 B(  3-C ,  4-C ) :   1.0567 B(  3-C ,  5-H ) :   0.7169
B(  3-C ,  6-H ) :   0.8247 B(  3-C , 10-O ) :   0.1006 B(  3-C , 14-H ) :   0.1540
B(  3-C , 15-H ) :   0.1522 B(  4-C ,  6-H ) :   0.1591 B(  4-C , 10-O ) :   1.9421
B(  4-C , 11-F ) :   0.7274 B(  5-H , 13-H ) :  -0.1117 B(  7-H ,  8-H ) :   0.2843
B(  7-H ,  9-H ) :  -0.1782 B(  8-H ,  9-H ) :   0.6215 B(  8-H , 11-F ) :   0.4843
B(  8-H , 13-H ) :   0.1551 B( 10-O , 11-F ) :   0.1510 B( 12-H , 13-H ) :  -0.1616
B( 14-H , 15-H ) :  -0.1026

Dispersion correction           -0.026856557
FINAL SINGLE POINT ENERGY      -370.604822558390

DIPOLE MOMENT
-------------
                                X             Y             Z
Electronic contribution:    -10.30432       2.34011       3.31552
Nuclear contribution   :     11.08738      -2.45618      -3.73478
                        -----------------------------------------
Total Dipole Moment    :      0.78307      -0.11608      -0.41926
                        -----------------------------------------
Magnitude (a.u.)       :      0.89580
Magnitude (Debye)      :      2.27693

Rotational constants in cm-1:     0.156244     0.063730     0.048063
Rotational constants in MHz :  4684.071402  1910.571278  1440.877811

                             ****ORCA TERMINATED NORMALLY****
TOTAL RUN TIME: 0 days 0 hours 0 minutes 16 seconds 742 msec
