                         Program Version 5.0.0 -  RELEASE  -
|  1> !wB97X-D3 RIJCOSX def2-SVP def2/J TightSCF
|  2> *xyz -1 1
|  3> C         -0.87096        0.24804       -2.66280
|  4> C         -0.47749        0.60819       -4.10105
|  5> H          0.20677        1.45830       -4.11875
|  6> H         -1.36844        0.92942       -4.64785
|  7> C          0.18467       -0.50664       -4.91676
|  8> O         -0.15869       -1.70109       -4.65798
|  9> O          1.05594       -0.17441       -5.74037
| 10> C          0.10016       -0.67355       -1.91581
| 11> H         -1.00105        1.18104       -2.10407
| 12> H         -1.84465       -0.24659       -2.66328
| 13> H          0.22336       -1.58297       -2.46597
| 14> H         -0.29270       -0.89423       -0.94532
| 15> H          1.04759       -0.18666       -1.81480
| 16> *
| 17>
| 18> %MaxCore 64000
| 19>
| 20> %pal nprocs 18
| 21> end
| 22>
| 23> %scf
| 24>   MaxIter 150
| 25> end
| 26>
| 27>
| 28>                          ****END OF INPUT****

CARTESIAN COORDINATES (ANGSTROEM)
---------------------------------
  C     -0.870960    0.248040   -2.662800
  C     -0.477490    0.608190   -4.101050
  H      0.206770    1.458300   -4.118750
  H     -1.368440    0.929420   -4.647850
  C      0.184670   -0.506640   -4.916760
  O     -0.158690   -1.701090   -4.657980
  O      1.055940   -0.174410   -5.740370
  C      0.100160   -0.673550   -1.915810
  H     -1.001050    1.181040   -2.104070
  H     -1.844650   -0.246590   -2.663280
  H      0.223360   -1.582970   -2.465970
  H     -0.292700   -0.894230   -0.945320
  H      1.047590   -0.186660   -1.814800

 Total Charge           Charge          ....   -1
 Multiplicity           Mult            ....    1
 Number of Electrons    NEL             ....   48
 Basis Dimension        Dim             ....  119

ORBITAL ENERGIES
----------------

  NO   OCC          E(Eh)            E(eV)
   0   2.0000     -18.946371      -515.5570
   1   2.0000     -18.943944      -515.4909
   2   2.0000     -10.150593      -276.2117
   3   2.0000     -10.131329      -275.6875
   4   2.0000     -10.116441      -275.2824
   5   2.0000     -10.102375      -274.8996
   6   2.0000      -0.899516       -24.4771
   7   2.0000      -0.802199       -21.8289
   8   2.0000      -0.732069       -19.9206
   9   2.0000      -0.636872       -17.3302
  10   2.0000      -0.538621       -14.6566
  11   2.0000      -0.410129       -11.1602
  12   2.0000      -0.392994       -10.6939
  13   2.0000      -0.376757       -10.2521
  14   2.0000      -0.341245        -9.2857
  15   2.0000      -0.306492        -8.3401
  16   2.0000      -0.294116        -8.0033
  17   2.0000      -0.285562        -7.7705
  18   2.0000      -0.273219        -7.4347
  19   2.0000      -0.252323        -6.8661
  20   2.0000      -0.237309        -6.4575
  21   2.0000      -0.112012        -3.0480
  22   2.0000      -0.110491        -3.0066
  23   2.0000      -0.096032        -2.6132
  24   0.0000       0.285952         7.7812
  25   0.0000       0.328392         8.9360
  26   0.0000       0.334072         9.0906
  27   0.0000       0.355444         9.6721
  28   0.0000       0.357871         9.7382

MULLIKEN ATOMIC CHARGES
-----------------------
   0 C :   -0.048530
   1 C :   -0.025500
   2 H :   -0.026963
   3 H :   -0.016680
   4 C :    0.060213
   5 O :   -0.461554
   6 O :   -0.426694
   7 C :   -0.006124
   8 H :   -0.037874
   9 H :   -0.011195
  10 H :    0.050001
  11 H :   -0.036832
  12 H :   -0.012269
Sum of atomic charges:   -1.0000000

LOEWDIN ATOMIC CHARGES
----------------------
   0 C :   -0.045247
   1 C :   -0.097562
   2 H :    0.003497
   3 H :    0.013318
   4 C :   -0.036875
   5 O :   -0.416907
   6 O :   -0.383955
   7 C :   -0.068271
   8 H :   -0.003994
   9 H :    0.008752
  10 H :    0.024361
  11 H :   -0.003496
  12 H :    0.006379

  Mayer bond orders larger than 0.100000
B(  0-C ,  1-C ) :   1.0479 B(  0-C ,  7-C ) :   1.0963 B(  0-C ,  8-H ) :   0.9532
B(  0-C ,  9-H ) :   0.9468 B(  1-C ,  2-H ) :   0.9443 B(  1-C ,  3-H ) :   0.9381
B(  1-C ,  4-C ) :   0.9184 B(  4-C ,  5-O ) :   1.7843 B(  4-C ,  6-O ) :   1.8881
B(  5-O ,  6-O ) :   0.1057 B(  7-C , 10-H ) :   0.9467 B(  7-C , 11-H ) :   0.9657
B(  7-C , 12-H ) :   0.9735

Dispersion correction           -0.003258802
FINAL SINGLE POINT ENERGY      -306.820954822712

DIPOLE MOMENT
-------------
                                X             Y             Z
Electronic contribution:      1.88683      -2.10445      -6.87991
Nuclear contribution   :     -2.71698       3.10699       8.64748
                        -----------------------------------------
Total Dipole Moment    :     -0.83016       1.00254       1.76756
                        -----------------------------------------
Magnitude (a.u.)       :      2.19511
Magnitude (Debye)      :      5.57954

Rotational constants in cm-1:     0.212307     0.084237     0.072775
Rotational constants in MHz :  6364.813744  2525.362351  2181.751235

                             ****ORCA TERMINATED NORMALLY****
TOTAL RUN TIME: 0 days 0 hours 0 minutes 6 seconds 118 msec
