                         Program Version 5.0.0 -  RELEASE  -
|  1> !wB97X-D3 RIJCOSX def2-SVP def2/J TightSCF
|  2> *xyz 1 1
|  3> C          2.48645       -2.67712       -2.56345
|  4> C          3.03764       -2.36672       -3.92351
|  5> N          2.28036       -2.45441       -4.96769
|  6> N          4.32174       -2.01793       -4.01664
|  7> H          4.87994       -1.91167       -3.17382
|  8> H          4.71015       -1.67088       -4.88356
|  9> H          1.27042       -2.41265       -4.86614
| 10> H          2.58183       -2.05528       -5.84688
| 11> C          2.49799       -1.46946       -1.61030
| 12> C          1.58284       -0.32199       -2.04262
| 13> H          2.19308       -1.83391       -0.62542
| 14> H          3.52336       -1.10398       -1.49039
| 15> H          1.47259       -3.05153       -2.69437
| 16> H          3.08320       -3.49064       -2.14147
| 17> H          1.88480        0.03130       -3.00642
| 18> H          1.65140        0.47571       -1.33278
| 19> H          0.57235       -0.67052       -2.09099
| 20> *
| 21>
| 22> %MaxCore 64000
| 23>
| 24> %pal nprocs 18
| 25> end
| 26>
| 27> %scf
| 28>   MaxIter 150
| 29> end
| 30>
| 31>
| 32>                          ****END OF INPUT****

CARTESIAN COORDINATES (ANGSTROEM)
---------------------------------
  C      2.486450   -2.677120   -2.563450
  C      3.037640   -2.366720   -3.923510
  N      2.280360   -2.454410   -4.967690
  N      4.321740   -2.017930   -4.016640
  H      4.879940   -1.911670   -3.173820
  H      4.710150   -1.670880   -4.883560
  H      1.270420   -2.412650   -4.866140
  H      2.581830   -2.055280   -5.846880
  C      2.497990   -1.469460   -1.610300
  C      1.582840   -0.321990   -2.042620
  H      2.193080   -1.833910   -0.625420
  H      3.523360   -1.103980   -1.490390
  H      1.472590   -3.051530   -2.694370
  H      3.083200   -3.490640   -2.141470
  H      1.884800    0.031300   -3.006420
  H      1.651400    0.475710   -1.332780
  H      0.572350   -0.670520   -2.090990

 Total Charge           Charge          ....    1
 Multiplicity           Mult            ....    1
 Number of Electrons    NEL             ....   48
 Basis Dimension        Dim             ....  139

ORBITAL ENERGIES
----------------

  NO   OCC          E(Eh)            E(eV)
   0   2.0000     -14.684129      -399.5755
   1   2.0000     -14.678719      -399.4283
   2   2.0000     -10.613744      -288.8147
   3   2.0000     -10.482764      -285.2505
   4   2.0000     -10.452479      -284.4264
   5   2.0000     -10.418111      -283.4912
   6   2.0000      -1.316518       -35.8243
   7   2.0000      -1.216150       -33.0931
   8   2.0000      -1.084982       -29.5239
   9   2.0000      -0.997968       -27.1561
  10   2.0000      -0.941620       -25.6228
  11   2.0000      -0.886566       -24.1247
  12   2.0000      -0.874552       -23.7978
  13   2.0000      -0.837105       -22.7788
  14   2.0000      -0.798926       -21.7399
  15   2.0000      -0.757536       -20.6136
  16   2.0000      -0.727559       -19.7979
  17   2.0000      -0.691782       -18.8244
  18   2.0000      -0.673472       -18.3261
  19   2.0000      -0.660635       -17.9768
  20   2.0000      -0.599363       -16.3095
  21   2.0000      -0.595476       -16.2037
  22   2.0000      -0.591614       -16.0986
  23   2.0000      -0.584055       -15.8930
  24   0.0000      -0.123954        -3.3730
  25   0.0000      -0.053648        -1.4598
  26   0.0000      -0.010615        -0.2889
  27   0.0000      -0.010351        -0.2817
  28   0.0000       0.018896         0.5142

MULLIKEN ATOMIC CHARGES
-----------------------
   0 C :   -0.000080
   1 C :   -0.054782
   2 N :    0.016372
   3 N :   -0.037053
   4 H :    0.194120
   5 H :    0.183397
   6 H :    0.196966
   7 H :    0.178279
   8 C :   -0.127017
   9 C :   -0.025818
  10 H :    0.090141
  11 H :    0.048037
  12 H :    0.064791
  13 H :    0.113867
  14 H :    0.024819
  15 H :    0.082635
  16 H :    0.051326
Sum of atomic charges:    1.0000000

LOEWDIN ATOMIC CHARGES
----------------------
   0 C :   -0.034270
   1 C :    0.159416
   2 N :    0.102501
   3 N :    0.079605
   4 H :    0.120848
   5 H :    0.111882
   6 H :    0.125504
   7 H :    0.113683
   8 C :   -0.028597
   9 C :   -0.049183
  10 H :    0.052094
  11 H :    0.027492
  12 H :    0.050387
  13 H :    0.070564
  14 H :    0.016943
  15 H :    0.048493
  16 H :    0.032637

  Mayer bond orders larger than 0.100000
B(  0-C ,  1-C ) :   1.0065 B(  0-C ,  8-C ) :   1.0504 B(  0-C , 12-H ) :   0.9306
B(  0-C , 13-H ) :   0.9217 B(  1-C ,  2-N ) :   1.5237 B(  1-C ,  3-N ) :   1.4921
B(  2-N ,  6-H ) :   0.9178 B(  2-N ,  7-H ) :   0.9306 B(  3-N ,  4-H ) :   0.9209
B(  3-N ,  5-H ) :   0.9306 B(  8-C ,  9-C ) :   1.0658 B(  8-C , 10-H ) :   0.9480
B(  8-C , 11-H ) :   0.9562 B(  9-C , 14-H ) :   0.9713 B(  9-C , 15-H ) :   0.9669
B(  9-C , 16-H ) :   0.9747

Dispersion correction           -0.004659375
FINAL SINGLE POINT ENERGY      -268.082678233853

DIPOLE MOMENT
-------------
                                X             Y             Z
Electronic contribution:      2.39030      -2.80066      -4.33864
Nuclear contribution   :     -1.82438       2.64851       2.98450
                        -----------------------------------------
Total Dipole Moment    :      0.56592      -0.15215      -1.35414
                        -----------------------------------------
Magnitude (a.u.)       :      1.47550
Magnitude (Debye)      :      3.75043

Rotational constants in cm-1:     0.176712     0.077069     0.069669
Rotational constants in MHz :  5297.698588  2310.466480  2088.633881

                             ****ORCA TERMINATED NORMALLY****
TOTAL RUN TIME: 0 days 0 hours 0 minutes 9 seconds 589 msec
