                         Program Version 5.0.0 -  RELEASE  -
|  1> !wB97X-D3 RIJCOSX def2-SVP def2/J TightSCF xyzfile
|  2>
|  3> *xyzfile 0 1 B.xyz
|  4>
|  5> %MaxCore 64000
|  6>
|  7> %pal nprocs 18
|  8> end
|  9>
| 10> %scf
| 11>   MaxIter 150
| 12> end
| 13>
| 14>
| 15>                          ****END OF INPUT****

CARTESIAN COORDINATES (ANGSTROEM)
---------------------------------
  C      2.486452   -2.677121   -2.563447
  C     -0.870963    0.248043   -2.662804
  C     -0.477492    0.608191   -4.101052
  H      0.206773    1.458299   -4.118748
  H     -1.368442    0.929419   -4.647855
  C      0.184673   -0.506640   -4.916760
  C      3.037640   -2.366715   -3.923509
  N      2.280360   -2.454408   -4.967692
  N      4.321736   -2.017932   -4.016641
  H      4.879940   -1.911668   -3.173823
  H      4.710148   -1.670882   -4.883561
  H      1.270423   -2.412650   -4.866143
  H      2.581829   -2.055282   -5.846878
  O     -0.158685   -1.701088   -4.657981
  O      1.055938   -0.174410   -5.740373
  C      2.497991   -1.469464   -1.610303
  C      1.582841   -0.321986   -2.042619
  H      2.193083   -1.833912   -0.625420
  H      3.523356   -1.103982   -1.490392
  C      0.100160   -0.673551   -1.915815
  H      1.822311   -0.040361   -3.072834
  H      1.813180    0.557019   -1.433266
  H     -0.063284   -1.679120   -2.301112
  H     -0.168820   -0.691680   -0.853831
  H     -1.001048    1.181040   -2.104071
  H     -1.844645   -0.246592   -2.663281
  H      1.472592   -3.051527   -2.694366
  H      3.083201   -3.490638   -2.141472

 Total Charge           Charge          ....    0
 Multiplicity           Mult            ....    1
 Number of Electrons    NEL             ....   94
 Basis Dimension        Dim             ....  248

ORBITAL ENERGIES
----------------

  NO   OCC          E(Eh)            E(eV)
   0   2.0000     -19.136735      -520.7370
   1   2.0000     -19.128641      -520.5168
   2   2.0000     -14.519902      -395.1066
   3   2.0000     -14.480289      -394.0287
   4   2.0000     -10.440677      -284.1053
   5   2.0000     -10.333752      -281.1957
   6   2.0000     -10.327085      -281.0143
   7   2.0000     -10.316482      -280.7257
   8   2.0000     -10.284477      -279.8548
   9   2.0000     -10.264554      -279.3127
  10   2.0000     -10.258834      -279.1571
  11   2.0000     -10.242930      -278.7243
  12   2.0000      -1.142270       -31.0828
  13   2.0000      -1.090133       -29.6640
  14   2.0000      -1.039369       -28.2827
  15   2.0000      -0.990575       -26.9549
  16   2.0000      -0.942409       -25.6443
  17   2.0000      -0.885381       -24.0924
  18   2.0000      -0.839700       -22.8494
  19   2.0000      -0.782714       -21.2987
  20   2.0000      -0.763753       -20.7828
  21   2.0000      -0.720008       -19.5924
  22   2.0000      -0.710931       -19.3454
  23   2.0000      -0.681148       -18.5350
  24   2.0000      -0.656915       -17.8756
  25   2.0000      -0.623848       -16.9758
  26   2.0000      -0.601819       -16.3763
  27   2.0000      -0.579132       -15.7590
  28   2.0000      -0.554606       -15.0916
  29   2.0000      -0.549546       -14.9539
  30   2.0000      -0.538559       -14.6549
  31   2.0000      -0.519104       -14.1255
  32   2.0000      -0.506960       -13.7951
  33   2.0000      -0.502763       -13.6809
  34   2.0000      -0.481271       -13.0960
  35   2.0000      -0.471091       -12.8190
  36   2.0000      -0.456640       -12.4258
  37   2.0000      -0.449187       -12.2230
  38   2.0000      -0.441776       -12.0213
  39   2.0000      -0.425027       -11.5656
  40   2.0000      -0.413792       -11.2598
  41   2.0000      -0.403039       -10.9673
  42   2.0000      -0.393373       -10.7042
  43   2.0000      -0.383503       -10.4357
  44   2.0000      -0.302424        -8.2294
  45   2.0000      -0.292478        -7.9587
  46   2.0000      -0.279945        -7.6177
  47   0.0000       0.044940         1.2229
  48   0.0000       0.090908         2.4737
  49   0.0000       0.133769         3.6400
  50   0.0000       0.154979         4.2172
  51   0.0000       0.162910         4.4330

MULLIKEN ATOMIC CHARGES
-----------------------
   0 C :    0.029121
   1 C :    0.018786
   2 C :   -0.038008
   3 H :    0.015322
   4 H :    0.034812
   5 C :    0.108259
   6 C :   -0.085478
   7 N :    0.068811
   8 N :   -0.071749
   9 H :    0.159904
  10 H :    0.162852
  11 H :    0.153082
  12 H :    0.147757
  13 O :   -0.451385
  14 O :   -0.412000
  15 C :   -0.052977
  16 C :   -0.039884
  17 H :    0.040364
  18 H :    0.009583
  19 C :   -0.059472
  20 H :    0.042740
  21 H :    0.023027
  22 H :    0.032548
  23 H :    0.004554
  24 H :    0.005446
  25 H :    0.021751
  26 H :    0.070612
  27 H :    0.061622
Sum of atomic charges:   -0.0000000

LOEWDIN ATOMIC CHARGES
----------------------
   0 C :   -0.035860
   1 C :   -0.034657
   2 C :   -0.082682
   3 H :    0.020456
   4 H :    0.037555
   5 C :    0.003435
   6 C :    0.135367
   7 N :    0.131500
   8 N :    0.034546
   9 H :    0.098894
  10 H :    0.098396
  11 H :    0.043374
  12 H :    0.091877
  13 O :   -0.350209
  14 O :   -0.348871
  15 C :   -0.028145
  16 C :   -0.042067
  17 H :    0.032957
  18 H :    0.014266
  19 C :   -0.046439
  20 H :    0.024755
  21 H :    0.025604
  22 H :    0.018133
  23 H :    0.016366
  24 H :    0.016305
  25 H :    0.026782
  26 H :    0.052300
  27 H :    0.046063

  Mayer bond orders larger than 0.100000
B(  0-C ,  6-C ) :   1.0100 B(  0-C , 15-C ) :   1.0595 B(  0-C , 26-H ) :   0.9213
B(  0-C , 27-H ) :   0.9306 B(  1-C ,  2-C ) :   1.0554 B(  1-C , 19-C ) :   1.0897
B(  1-C , 24-H ) :   0.9511 B(  1-C , 25-H ) :   0.9407 B(  2-C ,  3-H ) :   0.9492
B(  2-C ,  4-H ) :   0.9306 B(  2-C ,  5-C ) :   0.9512 B(  5-C , 13-O ) :   1.5948
B(  5-C , 14-O ) :   1.8410 B(  6-C ,  7-N ) :   1.6786 B(  6-C ,  8-N ) :   1.3762
B(  7-N , 11-H ) :   0.7855 B(  7-N , 12-H ) :   0.9170 B(  8-N ,  9-H ) :   0.9339
B(  8-N , 10-H ) :   0.9398 B( 11-H , 13-O ) :   0.2613 B( 15-C , 16-C ) :   1.0656
B( 15-C , 17-H ) :   0.9451 B( 15-C , 18-H ) :   0.9526 B( 16-C , 19-C ) :   1.0502
B( 16-C , 20-H ) :   0.9380 B( 16-C , 21-H ) :   0.9402 B( 19-C , 22-H ) :   0.9409
B( 19-C , 23-H ) :   0.9431

Dispersion correction           -0.013688326
FINAL SINGLE POINT ENERGY      -573.896531298301

DIPOLE MOMENT
-------------
                                X             Y             Z
Electronic contribution:      1.86513      -2.99063      -8.92316
Nuclear contribution   :      1.39386       1.90489      10.36520
                        -----------------------------------------
Total Dipole Moment    :      3.25899      -1.08574       1.44204
                        -----------------------------------------
Magnitude (a.u.)       :      3.72549
Magnitude (Debye)      :      9.46946

Rotational constants in cm-1:     0.041165     0.025922     0.019001
Rotational constants in MHz :  1234.086888   777.109255   569.639629

                             ****ORCA TERMINATED NORMALLY****
TOTAL RUN TIME: 0 days 0 hours 0 minutes 26 seconds 792 msec
