                         Program Version 5.0.0 -  RELEASE  -
|  1> !wB97X-D3 RIJCOSX def2-SVP def2/J TightSCF
|  2> *xyz 0 1
|  3> C         -0.87096        0.24804       -2.66280
|  4> C         -0.47749        0.60819       -4.10105
|  5> H          0.20677        1.45830       -4.11875
|  6> H         -1.36844        0.92942       -4.64785
|  7> C          0.18467       -0.50664       -4.91676
|  8> F         -0.15869       -1.70109       -4.65798
|  9> O          1.05594       -0.17441       -5.74037
| 10> C          0.10016       -0.67355       -1.91581
| 11> H         -1.00105        1.18104       -2.10407
| 12> H         -1.84465       -0.24659       -2.66328
| 13> H          0.22336       -1.58297       -2.46597
| 14> H         -0.29270       -0.89423       -0.94532
| 15> H          1.04759       -0.18666       -1.81480
| 16> *
| 17>
| 18> %MaxCore 64000
| 19>
| 20> %pal nprocs 18
| 21> end
| 22>
| 23> %scf
| 24>   MaxIter 150
| 25> end
| 26>
| 27>
| 28>                          ****END OF INPUT****

CARTESIAN COORDINATES (ANGSTROEM)
---------------------------------
  C     -0.870960    0.248040   -2.662800
  C     -0.477490    0.608190   -4.101050
  H      0.206770    1.458300   -4.118750
  H     -1.368440    0.929420   -4.647850
  C      0.184670   -0.506640   -4.916760
  F     -0.158690   -1.701090   -4.657980
  O      1.055940   -0.174410   -5.740370
  C      0.100160   -0.673550   -1.915810
  H     -1.001050    1.181040   -2.104070
  H     -1.844650   -0.246590   -2.663280
  H      0.223360   -1.582970   -2.465970
  H     -0.292700   -0.894230   -0.945320
  H      1.047590   -0.186660   -1.814800

 Total Charge           Charge          ....    0
 Multiplicity           Mult            ....    1
 Number of Electrons    NEL             ....   48
 Basis Dimension        Dim             ....  119

ORBITAL ENERGIES
----------------

  NO   OCC          E(Eh)            E(eV)
   0   2.0000     -24.855765      -676.3598
   1   2.0000     -19.242359      -523.6112
   2   2.0000     -10.463127      -284.7162
   3   2.0000     -10.316196      -280.7180
   4   2.0000     -10.304095      -280.3887
   5   2.0000     -10.283148      -279.8187
   6   2.0000      -1.406286       -38.2670
   7   2.0000      -1.139267       -31.0010
   8   2.0000      -0.924409       -25.1544
   9   2.0000      -0.835711       -22.7408
  10   2.0000      -0.758659       -20.6442
  11   2.0000      -0.720739       -19.6123
  12   2.0000      -0.646861       -17.6020
  13   2.0000      -0.638513       -17.3748
  14   2.0000      -0.587605       -15.9896
  15   2.0000      -0.574973       -15.6458
  16   2.0000      -0.548900       -14.9363
  17   2.0000      -0.515148       -14.0179
  18   2.0000      -0.501369       -13.6429
  19   2.0000      -0.471036       -12.8175
  20   2.0000      -0.457346       -12.4450
  21   2.0000      -0.447881       -12.1874
  22   2.0000      -0.429862       -11.6971
  23   2.0000      -0.382548       -10.4097
  24   0.0000       0.066693         1.8148
  25   0.0000       0.133154         3.6233
  26   0.0000       0.178962         4.8698
  27   0.0000       0.185455         5.0465
  28   0.0000       0.201982         5.4962

MULLIKEN ATOMIC CHARGES
-----------------------
   0 C :   -0.107421
   1 C :   -0.090186
   2 H :    0.072008
   3 H :    0.074579
   4 C :    0.255447
   5 F :   -0.098956
   6 O :   -0.250876
   7 C :   -0.046608
   8 H :    0.040990
   9 H :    0.036864
  10 H :    0.042546
  11 H :    0.037022
  12 H :    0.034591
Sum of atomic charges:    0.0000000

LOEWDIN ATOMIC CHARGES
----------------------
   0 C :   -0.046986
   1 C :   -0.074878
   2 H :    0.049126
   3 H :    0.052588
   4 C :    0.115059
   5 F :    0.026486
   6 O :   -0.187427
   7 C :   -0.061702
   8 H :    0.031425
   9 H :    0.025272
  10 H :    0.018630
  11 H :    0.028706
  12 H :    0.023701

  Mayer bond orders larger than 0.100000
B(  0-C ,  1-C ) :   1.0349 B(  0-C ,  7-C ) :   1.0909 B(  0-C ,  8-H ) :   0.9555
B(  0-C ,  9-H ) :   0.9548 B(  1-C ,  2-H ) :   0.9508 B(  1-C ,  3-H ) :   0.9321
B(  1-C ,  4-C ) :   0.9942 B(  4-C ,  5-F ) :   1.1546 B(  4-C ,  6-O ) :   2.1033
B(  7-C , 10-H ) :   0.9674 B(  7-C , 11-H ) :   0.9713 B(  7-C , 12-H ) :   0.9773

Dispersion correction           -0.003208104
FINAL SINGLE POINT ENERGY      -331.373327487457

DIPOLE MOMENT
-------------
                                X             Y             Z
Electronic contribution:      1.78212      -4.34659      -8.55037
Nuclear contribution   :     -2.55684       4.59749       9.38828
                        -----------------------------------------
Total Dipole Moment    :     -0.77472       0.25090       0.83791
                        -----------------------------------------
Magnitude (a.u.)       :      1.16843
Magnitude (Debye)      :      2.96991

Rotational constants in cm-1:     0.200184     0.083263     0.071070
Rotational constants in MHz :  6001.373539  2496.169674  2130.635527

                             ****ORCA TERMINATED NORMALLY****
TOTAL RUN TIME: 0 days 0 hours 0 minutes 8 seconds 235 msec
