                         Program Version 5.0.0 -  RELEASE  -
|  1> !wB97X-D3 RIJCOSX def2-SVP def2/J TightSCF
|  2> *xyz 0 1
|  3> C          2.48645       -2.67712       -2.56345
|  4> C          3.03764       -2.36672       -3.92351
|  5> C          2.28036       -2.45441       -4.96769
|  6> N          4.32174       -2.01793       -4.01664
|  7> H          4.87994       -1.91167       -3.17382
|  8> H          4.71015       -1.67088       -4.88356
|  9> H          1.27042       -2.41265       -4.86614
| 10> H          2.58183       -2.05528       -5.84688
| 11> C          2.49799       -1.46946       -1.61030
| 12> C          1.58284       -0.32199       -2.04262
| 13> H          2.19308       -1.83391       -0.62542
| 14> H          3.52336       -1.10398       -1.49039
| 15> H          1.47259       -3.05153       -2.69437
| 16> H          3.08320       -3.49064       -2.14147
| 17> H          1.88480        0.03130       -3.00642
| 18> H          1.65140        0.47571       -1.33278
| 19> H          0.57235       -0.67052       -2.09099
| 20> *
| 21>
| 22> %MaxCore 64000
| 23>
| 24> %pal nprocs 18
| 25> end
| 26>
| 27> %scf
| 28>   MaxIter 150
| 29> end
| 30>
| 31>
| 32>                          ****END OF INPUT****

CARTESIAN COORDINATES (ANGSTROEM)
---------------------------------
  C      2.486450   -2.677120   -2.563450
  C      3.037640   -2.366720   -3.923510
  C      2.280360   -2.454410   -4.967690
  N      4.321740   -2.017930   -4.016640
  H      4.879940   -1.911670   -3.173820
  H      4.710150   -1.670880   -4.883560
  H      1.270420   -2.412650   -4.866140
  H      2.581830   -2.055280   -5.846880
  C      2.497990   -1.469460   -1.610300
  C      1.582840   -0.321990   -2.042620
  H      2.193080   -1.833910   -0.625420
  H      3.523360   -1.103980   -1.490390
  H      1.472590   -3.051530   -2.694370
  H      3.083200   -3.490640   -2.141470
  H      1.884800    0.031300   -3.006420
  H      1.651400    0.475710   -1.332780
  H      0.572350   -0.670520   -2.090990

 Total Charge           Charge          ....    0
 Multiplicity           Mult            ....    1
 Number of Electrons    NEL             ....   48
 Basis Dimension        Dim             ....  139

ORBITAL ENERGIES
----------------

  NO   OCC          E(Eh)            E(eV)
   0   2.0000     -14.430588      -392.6763
   1   2.0000     -10.305229      -280.4195
   2   2.0000     -10.287718      -279.9430
   3   2.0000     -10.284116      -279.8450
   4   2.0000     -10.269661      -279.4517
   5   2.0000     -10.214705      -277.9563
   6   2.0000      -1.028056       -27.9748
   7   2.0000      -0.901264       -24.5246
   8   2.0000      -0.843660       -22.9572
   9   2.0000      -0.790648       -21.5146
  10   2.0000      -0.702517       -19.1165
  11   2.0000      -0.664263       -18.0755
  12   2.0000      -0.622568       -16.9409
  13   2.0000      -0.569549       -15.4982
  14   2.0000      -0.550120       -14.9695
  15   2.0000      -0.547409       -14.8958
  16   2.0000      -0.490907       -13.3583
  17   2.0000      -0.484254       -13.1772
  18   2.0000      -0.462968       -12.5980
  19   2.0000      -0.459972       -12.5165
  20   2.0000      -0.428896       -11.6709
  21   2.0000      -0.414562       -11.2808
  22   2.0000      -0.411134       -11.1875
  23   2.0000      -0.278892        -7.5891
  24   0.0000       0.131238         3.5712
  25   0.0000       0.139873         3.8061
  26   0.0000       0.172894         4.7047
  27   0.0000       0.181350         4.9348
  28   0.0000       0.198521         5.4020

MULLIKEN ATOMIC CHARGES
-----------------------
   0 C :    0.052742
   1 C :   -0.102715
   2 C :   -0.078132
   3 N :   -0.122144
   4 H :    0.118148
   5 H :    0.126293
   6 H :   -0.018660
   7 H :   -0.037783
   8 C :   -0.099703
   9 C :   -0.008053
  10 H :    0.027853
  11 H :    0.009689
  12 H :    0.018159
  13 H :    0.030462
  14 H :    0.033729
  15 H :    0.026616
  16 H :    0.023499
Sum of atomic charges:   -0.0000000

LOEWDIN ATOMIC CHARGES
----------------------
   0 C :   -0.029971
   1 C :    0.014719
   2 C :   -0.180444
   3 N :   -0.022742
   4 H :    0.070179
   5 H :    0.077403
   6 H :    0.003096
   7 H :   -0.005327
   8 C :   -0.041733
   9 C :   -0.054089
  10 H :    0.023178
  11 H :    0.013310
  12 H :    0.033523
  13 H :    0.029128
  14 H :    0.024227
  15 H :    0.023066
  16 H :    0.022478

  Mayer bond orders larger than 0.100000
B(  0-C ,  1-C ) :   1.0147 B(  0-C ,  8-C ) :   1.0624 B(  0-C , 12-H ) :   0.9387
B(  0-C , 13-H ) :   0.9374 B(  1-C ,  2-C ) :   1.8830 B(  1-C ,  3-N ) :   1.2395
B(  2-C ,  6-H ) :   0.9476 B(  2-C ,  7-H ) :   0.9613 B(  3-N ,  4-H ) :   0.9544
B(  3-N ,  5-H ) :   0.9521 B(  8-C ,  9-C ) :   1.0747 B(  8-C , 10-H ) :   0.9566
B(  8-C , 11-H ) :   0.9555 B(  9-C , 14-H ) :   0.9747 B(  9-C , 15-H ) :   0.9719
B(  9-C , 16-H ) :   0.9745

Dispersion correction           -0.004671683
FINAL SINGLE POINT ENERGY      -251.621146921815

DIPOLE MOMENT
-------------
                                X             Y             Z
Electronic contribution:      2.52170      -2.08607      -2.12706
Nuclear contribution   :     -1.92525       2.50924       2.56958
                        -----------------------------------------
Total Dipole Moment    :      0.59645       0.42316       0.44252
                        -----------------------------------------
Magnitude (a.u.)       :      0.85478
Magnitude (Debye)      :      2.17267

Rotational constants in cm-1:     0.181985     0.078726     0.071856
Rotational constants in MHz :  5455.785660  2360.157292  2154.177820

                             ****ORCA TERMINATED NORMALLY****
TOTAL RUN TIME: 0 days 0 hours 0 minutes 8 seconds 687 msec
