                         Program Version 5.0.0 -  RELEASE  -
|  1> !wB97X-D3 RIJCOSX def2-SVP def2/J TightSCF
|  2> *xyz 0 1
|  3> C         -0.87096        0.24804       -2.66280
|  4> C         -0.47749        0.60819       -4.10105
|  5> H          0.20677        1.45830       -4.11875
|  6> H         -1.36844        0.92942       -4.64785
|  7> C          0.18467       -0.50664       -4.91676
|  8> O         -0.15869       -1.70109       -4.65798
|  9> F          1.05594       -0.17441       -5.74037
| 10> C          0.10016       -0.67355       -1.91581
| 11> H         -1.00105        1.18104       -2.10407
| 12> H         -1.84465       -0.24659       -2.66328
| 13> H          0.22336       -1.58297       -2.46597
| 14> H         -0.29270       -0.89423       -0.94532
| 15> H          1.04759       -0.18666       -1.81480
| 16> *
| 17>
| 18> %MaxCore 64000
| 19>
| 20> %pal nprocs 18
| 21> end
| 22>
| 23> %scf
| 24>   MaxIter 150
| 25> end
| 26>
| 27>
| 28>                          ****END OF INPUT****

CARTESIAN COORDINATES (ANGSTROEM)
---------------------------------
  C     -0.870960    0.248040   -2.662800
  C     -0.477490    0.608190   -4.101050
  H      0.206770    1.458300   -4.118750
  H     -1.368440    0.929420   -4.647850
  C      0.184670   -0.506640   -4.916760
  O     -0.158690   -1.701090   -4.657980
  F      1.055940   -0.174410   -5.740370
  C      0.100160   -0.673550   -1.915810
  H     -1.001050    1.181040   -2.104070
  H     -1.844650   -0.246590   -2.663280
  H      0.223360   -1.582970   -2.465970
  H     -0.292700   -0.894230   -0.945320
  H      1.047590   -0.186660   -1.814800

 Total Charge           Charge          ....    0
 Multiplicity           Mult            ....    1
 Number of Electrons    NEL             ....   48
 Basis Dimension        Dim             ....  119

ORBITAL ENERGIES
----------------

  NO   OCC          E(Eh)            E(eV)
   0   2.0000     -24.864492      -676.5972
   1   2.0000     -19.240214      -523.5528
   2   2.0000     -10.466228      -284.8006
   3   2.0000     -10.318177      -280.7719
   4   2.0000     -10.299059      -280.2516
   5   2.0000     -10.270432      -279.4727
   6   2.0000      -1.424514       -38.7630
   7   2.0000      -1.126413       -30.6513
   8   2.0000      -0.917813       -24.9750
   9   2.0000      -0.835458       -22.7340
  10   2.0000      -0.765667       -20.8349
  11   2.0000      -0.714545       -19.4437
  12   2.0000      -0.654967       -17.8226
  13   2.0000      -0.633424       -17.2363
  14   2.0000      -0.605598       -16.4791
  15   2.0000      -0.568496       -15.4696
  16   2.0000      -0.550216       -14.9721
  17   2.0000      -0.511413       -13.9163
  18   2.0000      -0.490132       -13.3372
  19   2.0000      -0.456000       -12.4084
  20   2.0000      -0.450161       -12.2495
  21   2.0000      -0.434738       -11.8298
  22   2.0000      -0.430392       -11.7116
  23   2.0000      -0.379979       -10.3398
  24   0.0000       0.061439         1.6718
  25   0.0000       0.138689         3.7739
  26   0.0000       0.179227         4.8770
  27   0.0000       0.189128         5.1464
  28   0.0000       0.205536         5.5929

MULLIKEN ATOMIC CHARGES
-----------------------
   0 C :   -0.077846
   1 C :   -0.101130
   2 H :    0.046996
   3 H :    0.076404
   4 C :    0.262551
   5 O :   -0.284658
   6 F :   -0.065853
   7 C :   -0.043369
   8 H :    0.035427
   9 H :    0.042308
  10 H :    0.060777
  11 H :    0.029819
  12 H :    0.018574
Sum of atomic charges:   -0.0000000

LOEWDIN ATOMIC CHARGES
----------------------
   0 C :   -0.034658
   1 C :   -0.078427
   2 H :    0.033277
   3 H :    0.054916
   4 C :    0.116686
   5 O :   -0.215992
   6 F :    0.056326
   7 C :   -0.060925
   8 H :    0.029084
   9 H :    0.030289
  10 H :    0.026216
  11 H :    0.025919
  12 H :    0.017289

  Mayer bond orders larger than 0.100000
B(  0-C ,  1-C ) :   1.0544 B(  0-C ,  7-C ) :   1.0955 B(  0-C ,  8-H ) :   0.9573
B(  0-C ,  9-H ) :   0.9515 B(  1-C ,  2-H ) :   0.9430 B(  1-C ,  3-H ) :   0.9270
B(  1-C ,  4-C ) :   0.9951 B(  4-C ,  5-O ) :   2.0328 B(  4-C ,  6-F ) :   1.2113
B(  7-C , 10-H ) :   0.9621 B(  7-C , 11-H ) :   0.9705 B(  7-C , 12-H ) :   0.9777

Dispersion correction           -0.003191827
FINAL SINGLE POINT ENERGY      -331.366594444293

DIPOLE MOMENT
-------------
                                X             Y             Z
Electronic contribution:      3.83025      -1.81018     -10.44089
Nuclear contribution   :     -3.92885       2.87300      10.61091
                        -----------------------------------------
Total Dipole Moment    :     -0.09861       1.06282       0.17002
                        -----------------------------------------
Magnitude (a.u.)       :      1.08084
Magnitude (Debye)      :      2.74727

Rotational constants in cm-1:     0.209332     0.079487     0.069375
Rotational constants in MHz :  6275.605762  2382.960864  2079.805430

                             ****ORCA TERMINATED NORMALLY****
TOTAL RUN TIME: 0 days 0 hours 0 minutes 7 seconds 362 msec
