                         Program Version 5.0.0 -  RELEASE  -
|  1> !wB97X-D3 RIJCOSX def2-SVP def2/J TightSCF
|  2> *xyz 0 1
|  3> C          2.48645       -2.67712       -2.56345
|  4> C          3.03764       -2.36672       -3.92351
|  5> N          2.28036       -2.45441       -4.96769
|  6> C          4.32174       -2.01793       -4.01664
|  7> H          4.87994       -1.91167       -3.17382
|  8> H          4.71015       -1.67088       -4.88356
|  9> H          1.27042       -2.41265       -4.86614
| 10> H          2.58183       -2.05528       -5.84688
| 11> C          2.49799       -1.46946       -1.61030
| 12> C          1.58284       -0.32199       -2.04262
| 13> H          2.19308       -1.83391       -0.62542
| 14> H          3.52336       -1.10398       -1.49039
| 15> H          1.47259       -3.05153       -2.69437
| 16> H          3.08320       -3.49064       -2.14147
| 17> H          1.88480        0.03130       -3.00642
| 18> H          1.65140        0.47571       -1.33278
| 19> H          0.57235       -0.67052       -2.09099
| 20> *
| 21>
| 22> %MaxCore 64000
| 23>
| 24> %pal nprocs 18
| 25> end
| 26>
| 27> %scf
| 28>   MaxIter 150
| 29> end
| 30>
| 31>
| 32>                          ****END OF INPUT****

CARTESIAN COORDINATES (ANGSTROEM)
---------------------------------
  C      2.486450   -2.677120   -2.563450
  C      3.037640   -2.366720   -3.923510
  N      2.280360   -2.454410   -4.967690
  C      4.321740   -2.017930   -4.016640
  H      4.879940   -1.911670   -3.173820
  H      4.710150   -1.670880   -4.883560
  H      1.270420   -2.412650   -4.866140
  H      2.581830   -2.055280   -5.846880
  C      2.497990   -1.469460   -1.610300
  C      1.582840   -0.321990   -2.042620
  H      2.193080   -1.833910   -0.625420
  H      3.523360   -1.103980   -1.490390
  H      1.472590   -3.051530   -2.694370
  H      3.083200   -3.490640   -2.141470
  H      1.884800    0.031300   -3.006420
  H      1.651400    0.475710   -1.332780
  H      0.572350   -0.670520   -2.090990

 Total Charge           Charge          ....    0
 Multiplicity           Mult            ....    1
 Number of Electrons    NEL             ....   48
 Basis Dimension        Dim             ....  139

ORBITAL ENERGIES
----------------

  NO   OCC          E(Eh)            E(eV)
   0   2.0000     -14.434279      -392.7767
   1   2.0000     -10.305677      -280.4317
   2   2.0000     -10.284949      -279.8677
   3   2.0000     -10.283600      -279.8310
   4   2.0000     -10.270986      -279.4877
   5   2.0000     -10.214978      -277.9637
   6   2.0000      -1.043383       -28.3919
   7   2.0000      -0.902662       -24.5627
   8   2.0000      -0.835133       -22.7251
   9   2.0000      -0.785189       -21.3661
  10   2.0000      -0.712329       -19.3834
  11   2.0000      -0.662509       -18.0278
  12   2.0000      -0.616969       -16.7886
  13   2.0000      -0.584336       -15.9006
  14   2.0000      -0.552203       -15.0262
  15   2.0000      -0.529843       -14.4177
  16   2.0000      -0.497797       -13.5457
  17   2.0000      -0.484483       -13.1834
  18   2.0000      -0.464641       -12.6435
  19   2.0000      -0.452102       -12.3023
  20   2.0000      -0.428663       -11.6645
  21   2.0000      -0.419772       -11.4226
  22   2.0000      -0.416592       -11.3360
  23   2.0000      -0.268905        -7.3173
  24   0.0000       0.133058         3.6207
  25   0.0000       0.135947         3.6993
  26   0.0000       0.175713         4.7814
  27   0.0000       0.179650         4.8885
  28   0.0000       0.195876         5.3301

MULLIKEN ATOMIC CHARGES
-----------------------
   0 C :    0.048287
   1 C :   -0.164169
   2 N :   -0.066922
   3 C :   -0.076775
   4 H :   -0.020864
   5 H :   -0.034702
   6 H :    0.116303
   7 H :    0.120664
   8 C :   -0.081481
   9 C :   -0.018865
  10 H :    0.022432
  11 H :    0.033149
  12 H :   -0.003825
  13 H :    0.049253
  14 H :    0.032162
  15 H :    0.031377
  16 H :    0.013977
Sum of atomic charges:    0.0000000

LOEWDIN ATOMIC CHARGES
----------------------
   0 C :   -0.030622
   1 C :   -0.000916
   2 N :    0.001248
   3 C :   -0.187188
   4 H :   -0.001457
   5 H :   -0.007821
   6 H :    0.070726
   7 H :    0.078204
   8 C :   -0.032912
   9 C :   -0.057122
  10 H :    0.020533
  11 H :    0.024706
  12 H :    0.015920
  13 H :    0.041743
  14 H :    0.022260
  15 H :    0.025341
  16 H :    0.017356

  Mayer bond orders larger than 0.100000
B(  0-C ,  1-C ) :   0.9897 B(  0-C ,  8-C ) :   1.0799 B(  0-C , 12-H ) :   0.9427
B(  0-C , 13-H ) :   0.9382 B(  1-C ,  2-N ) :   1.2691 B(  1-C ,  3-C ) :   1.8513
B(  2-N ,  6-H ) :   0.9514 B(  2-N ,  7-H ) :   0.9521 B(  3-C ,  4-H ) :   0.9580
B(  3-C ,  5-H ) :   0.9619 B(  8-C ,  9-C ) :   1.0772 B(  8-C , 10-H ) :   0.9553
B(  8-C , 11-H ) :   0.9552 B(  9-C , 14-H ) :   0.9721 B(  9-C , 15-H ) :   0.9730
B(  9-C , 16-H ) :   0.9752

Dispersion correction           -0.004645989
FINAL SINGLE POINT ENERGY      -251.621854475011

DIPOLE MOMENT
-------------
                                X             Y             Z
Electronic contribution:      0.64025      -2.41579      -2.99141
Nuclear contribution   :     -1.44240       2.61248       2.79453
                        -----------------------------------------
Total Dipole Moment    :     -0.80215       0.19669      -0.19688
                        -----------------------------------------
Magnitude (a.u.)       :      0.84905
Magnitude (Debye)      :      2.15812

Rotational constants in cm-1:     0.182540     0.078634     0.071436
Rotational constants in MHz :  5472.425685  2357.397154  2141.608207

                             ****ORCA TERMINATED NORMALLY****
TOTAL RUN TIME: 0 days 0 hours 0 minutes 8 seconds 900 msec
