                         Program Version 5.0.0 -  RELEASE  -
|  1> !wB97X-D3 RIJCOSX def2-SVP def2/J TightSCF xyzfile
|  2>
|  3> *xyzfile 0 1 D4.xyz
|  4>
|  5> %MaxCore 64000
|  6>
|  7> %pal nprocs 18
|  8> end
|  9>
| 10> %scf
| 11>   MaxIter 150
| 12> end
| 13>
| 14>
| 15>                          ****END OF INPUT****

CARTESIAN COORDINATES (ANGSTROEM)
---------------------------------
  C      2.486452   -2.677121   -2.563447
  C     -0.870963    0.248043   -2.662804
  C     -0.477492    0.608191   -4.101052
  H      0.206773    1.458299   -4.118748
  H     -1.368442    0.929419   -4.647855
  C      0.184673   -0.506640   -4.916760
  C      3.037640   -2.366715   -3.923509
  N      2.280360   -2.454408   -4.967692
  C      4.321736   -2.017932   -4.016641
  H      4.879940   -1.911668   -3.173823
  H      4.710148   -1.670882   -4.883561
  H      1.270423   -2.412650   -4.866143
  H      2.581829   -2.055282   -5.846878
  O     -0.158685   -1.701088   -4.657981
  F      1.055938   -0.174410   -5.740373
  C      2.497991   -1.469464   -1.610303
  C      1.582841   -0.321986   -2.042619
  H      2.193083   -1.833912   -0.625420
  H      3.523356   -1.103982   -1.490392
  C      0.100160   -0.673551   -1.915815
  H      1.822311   -0.040361   -3.072834
  H      1.813180    0.557019   -1.433266
  H     -0.063284   -1.679120   -2.301112
  H     -0.168820   -0.691680   -0.853831
  H     -1.001048    1.181040   -2.104071
  H     -1.844645   -0.246592   -2.663281
  H      1.472592   -3.051527   -2.694366
  H      3.083201   -3.490638   -2.141472

 Total Charge           Charge          ....    0
 Multiplicity           Mult            ....    1
 Number of Electrons    NEL             ....   94
 Basis Dimension        Dim             ....  248

ORBITAL ENERGIES
----------------

  NO   OCC          E(Eh)            E(eV)
   0   2.0000     -24.890373      -677.3015
   1   2.0000     -19.269624      -524.3531
   2   2.0000     -14.398436      -391.8014
   3   2.0000     -10.495221      -285.5895
   4   2.0000     -10.332667      -281.1662
   5   2.0000     -10.308033      -280.4958
   6   2.0000     -10.291157      -280.0366
   7   2.0000     -10.287376      -279.9337
   8   2.0000     -10.287227      -279.9297
   9   2.0000     -10.281676      -279.7786
  10   2.0000     -10.275285      -279.6047
  11   2.0000     -10.200495      -277.5696
  12   2.0000      -1.450344       -39.4659
  13   2.0000      -1.163884       -31.6709
  14   2.0000      -1.021065       -27.7846
  15   2.0000      -0.941933       -25.6313
  16   2.0000      -0.901990       -24.5444
  17   2.0000      -0.859342       -23.3839
  18   2.0000      -0.815785       -22.1986
  19   2.0000      -0.788584       -21.4585
  20   2.0000      -0.768944       -20.9240
  21   2.0000      -0.726971       -19.7819
  22   2.0000      -0.689391       -18.7593
  23   2.0000      -0.681858       -18.5543
  24   2.0000      -0.659882       -17.9563
  25   2.0000      -0.649020       -17.6607
  26   2.0000      -0.628109       -17.0917
  27   2.0000      -0.596677       -16.2364
  28   2.0000      -0.582838       -15.8598
  29   2.0000      -0.578007       -15.7284
  30   2.0000      -0.568872       -15.4798
  31   2.0000      -0.543386       -14.7863
  32   2.0000      -0.523144       -14.2355
  33   2.0000      -0.509477       -13.8636
  34   2.0000      -0.503047       -13.6886
  35   2.0000      -0.489044       -13.3076
  36   2.0000      -0.475384       -12.9359
  37   2.0000      -0.467316       -12.7163
  38   2.0000      -0.454399       -12.3648
  39   2.0000      -0.453232       -12.3331
  40   2.0000      -0.433065       -11.7843
  41   2.0000      -0.427901       -11.6438
  42   2.0000      -0.413858       -11.2616
  43   2.0000      -0.412256       -11.2181
  44   2.0000      -0.405487       -11.0339
  45   2.0000      -0.389785       -10.6066
  46   2.0000      -0.251435        -6.8419
  47   0.0000       0.033925         0.9231
  48   0.0000       0.128536         3.4976
  49   0.0000       0.144017         3.9189
  50   0.0000       0.162168         4.4128
  51   0.0000       0.164821         4.4850

MULLIKEN ATOMIC CHARGES
-----------------------
   0 C :    0.052045
   1 C :    0.011801
   2 C :   -0.096400
   3 H :    0.060709
   4 H :    0.080584
   5 C :    0.275251
   6 C :   -0.169331
   7 N :   -0.075283
   8 C :   -0.088080
   9 H :   -0.031202
  10 H :   -0.042646
  11 H :    0.119988
  12 H :    0.105613
  13 O :   -0.296144
  14 F :   -0.059061
  15 C :   -0.014971
  16 C :   -0.043640
  17 H :    0.014569
  18 H :    0.029206
  19 C :   -0.076354
  20 H :    0.015667
  21 H :    0.022422
  22 H :    0.043784
  23 H :    0.026750
  24 H :    0.036365
  25 H :    0.041281
  26 H :    0.012016
  27 H :    0.045062
Sum of atomic charges:   -0.0000000

LOEWDIN ATOMIC CHARGES
----------------------
   0 C :   -0.030421
   1 C :   -0.028102
   2 C :   -0.070176
   3 H :    0.038659
   4 H :    0.058319
   5 C :    0.139554
   6 C :   -0.001249
   7 N :   -0.003677
   8 C :   -0.206001
   9 H :   -0.006239
  10 H :   -0.010909
  11 H :    0.019220
  12 H :    0.064253
  13 O :   -0.184095
  14 F :    0.073918
  15 C :   -0.025449
  16 C :   -0.042357
  17 H :    0.020737
  18 H :    0.026363
  19 C :   -0.045885
  20 H :    0.013384
  21 H :    0.024555
  22 H :    0.022015
  23 H :    0.027998
  24 H :    0.031351
  25 H :    0.033573
  26 H :    0.019722
  27 H :    0.040938

  Mayer bond orders larger than 0.100000
B(  0-C ,  6-C ) :   0.9870 B(  0-C , 15-C ) :   1.0795 B(  0-C , 26-H ) :   0.9408
B(  0-C , 27-H ) :   0.9335 B(  1-C ,  2-C ) :   1.0526 B(  1-C , 19-C ) :   1.0872
B(  1-C , 24-H ) :   0.9499 B(  1-C , 25-H ) :   0.9449 B(  2-C ,  3-H ) :   0.9416
B(  2-C ,  4-H ) :   0.9178 B(  2-C ,  5-C ) :   1.0008 B(  5-C , 13-O ) :   1.9100
B(  5-C , 14-F ) :   1.2026 B(  6-C ,  7-N ) :   1.3005 B(  6-C ,  8-C ) :   1.8241
B(  7-N , 11-H ) :   0.9006 B(  7-N , 12-H ) :   0.9503 B(  8-C ,  9-H ) :   0.9570
B(  8-C , 10-H ) :   0.9605 B( 11-H , 13-O ) :   0.1272 B( 15-C , 16-C ) :   1.0759
B( 15-C , 17-H ) :   0.9484 B( 15-C , 18-H ) :   0.9485 B( 16-C , 19-C ) :   1.0507
B( 16-C , 20-H ) :   0.9375 B( 16-C , 21-H ) :   0.9455 B( 19-C , 22-H ) :   0.9453
B( 19-C , 23-H ) :   0.9439

Dispersion correction           -0.013600414
FINAL SINGLE POINT ENERGY      -581.793456911223

DIPOLE MOMENT
-------------
                                X             Y             Z
Electronic contribution:     -3.46001       0.77300     -12.81675
Nuclear contribution   :      2.21030       0.63135      12.80988
                        -----------------------------------------
Total Dipole Moment    :     -1.24971       1.40435      -0.00686
                        -----------------------------------------
Magnitude (a.u.)       :      1.87990
Magnitude (Debye)      :      4.77832

Rotational constants in cm-1:     0.039980     0.026547     0.019089
Rotational constants in MHz :  1198.568620   795.867393   572.288555

                             ****ORCA TERMINATED NORMALLY****
TOTAL RUN TIME: 0 days 0 hours 0 minutes 29 seconds 270 msec
