                         Program Version 5.0.0 -  RELEASE  -
|  1> !TPSS D3BJ RIJCOSX def2-SVPD def2/J TightSCF
|  2> *xyz -1 1
|  3> C         -1.36353       -1.98134       -2.29361
|  4> O         -0.35039       -2.74969       -1.79601
|  5> H         -2.22523       -2.59288       -2.46214
|  6> H         -1.05452       -1.53818       -3.21720
|  7> H         -1.60477       -1.21086       -1.59143
|  8> *
|  9>
| 10> %MaxCore 64000
| 11> %pal nprocs 4
| 12> end
| 13>
| 14> %scf
| 15>   MaxIter 150
| 16> end
| 17>
| 18>
| 19>                          ****END OF INPUT****

CARTESIAN COORDINATES (ANGSTROEM)
---------------------------------
  C     -1.363530   -1.981340   -2.293610
  O     -0.350390   -2.749690   -1.796010
  H     -2.225230   -2.592880   -2.462140
  H     -1.054520   -1.538180   -3.217200
  H     -1.604770   -1.210860   -1.591430

 Total Charge           Charge          ....   -1
 Multiplicity           Mult            ....    1
 Number of Electrons    NEL             ....   18
 Basis Dimension        Dim             ....   67

ORBITAL ENERGIES
----------------

  NO   OCC          E(Eh)            E(eV)
   0   2.0000     -18.548338      -504.7259
   1   2.0000      -9.787921      -266.3429
   2   2.0000      -0.584814       -15.9136
   3   2.0000      -0.339990        -9.2516
   4   2.0000      -0.155471        -4.2306
   5   2.0000      -0.155471        -4.2306
   6   2.0000      -0.055380        -1.5070
   7   2.0000       0.091596         2.4925
   8   2.0000       0.091597         2.4925
   9   0.0000       0.189580         5.1587
  10   0.0000       0.259275         7.0552
  11   0.0000       0.259277         7.0553
  12   0.0000       0.267242         7.2720
  13   0.0000       0.304306         8.2806

MULLIKEN ATOMIC CHARGES
-----------------------
   0 C :    0.808371
   1 O :   -1.041004
   2 H :   -0.255742
   3 H :   -0.255801
   4 H :   -0.255824
Sum of atomic charges:   -1.0000000

LOEWDIN ATOMIC CHARGES
----------------------
   0 C :   -0.111381
   1 O :   -0.632325
   2 H :   -0.085427
   3 H :   -0.085433
   4 H :   -0.085434

  Mayer bond orders larger than 0.100000
B(  0-C ,  1-O ) :   1.1239 B(  0-C ,  2-H ) :   0.9214 B(  0-C ,  3-H ) :   0.9214
B(  0-C ,  4-H ) :   0.9214

Dispersion correction           -0.001756470
FINAL SINGLE POINT ENERGY      -115.034146932808

DIPOLE MOMENT
-------------
                                X             Y             Z
Electronic contribution:      1.41954      -1.07657       0.69720
Nuclear contribution   :     -2.13467       1.61890      -1.04844
                        -----------------------------------------
Total Dipole Moment    :     -0.71514       0.54233      -0.35124
                        -----------------------------------------
Magnitude (a.u.)       :      0.96380
Magnitude (Debye)      :      2.44978

Rotational constants in cm-1:     5.477725     0.944113     0.944112
Rotational constants in MHz : 164218.064700 28303.798445 28303.757130

                             ****ORCA TERMINATED NORMALLY****
TOTAL RUN TIME: 0 days 0 hours 0 minutes 2 seconds 824 msec
