                         Program Version 5.0.0 -  RELEASE  -
|  1> !TPSS D3BJ RIJCOSX def2-SVPD def2/J TightSCF
|  2> *xyz 1 1
|  3> C          2.20996       -2.81239       -3.66571
|  4> C          2.48901       -1.66851       -2.73754
|  5> N          3.59631       -0.94761       -2.95225
|  6> N          1.66394       -1.41369       -1.77781
|  7> H          0.81164       -1.96318       -1.70275
|  8> H          1.84550       -0.63508       -1.15875
|  9> H          4.20535       -1.17600       -3.73383
| 10> H          3.81723       -0.12585       -2.40604
| 11> H          2.99011       -2.87840       -4.39503
| 12> H          1.27381       -2.65174       -4.15838
| 13> H          2.16680       -3.72339       -3.10614
| 14> *
| 15>
| 16> %MaxCore 64000
| 17> %pal nprocs 4
| 18> end
| 19>
| 20> %scf
| 21>   MaxIter 150
| 22> end
| 23>
| 24>
| 25>                          ****END OF INPUT****

CARTESIAN COORDINATES (ANGSTROEM)
---------------------------------
  C      2.209960   -2.812390   -3.665710
  C      2.489010   -1.668510   -2.737540
  N      3.596310   -0.947610   -2.952250
  N      1.663940   -1.413690   -1.777810
  H      0.811640   -1.963180   -1.702750
  H      1.845500   -0.635080   -1.158750
  H      4.205350   -1.176000   -3.733830
  H      3.817230   -0.125850   -2.406040
  H      2.990110   -2.878400   -4.395030
  H      1.273810   -2.651740   -4.158380
  H      2.166800   -3.723390   -3.106140

 Total Charge           Charge          ....    1
 Multiplicity           Mult            ....    1
 Number of Electrons    NEL             ....   32
 Basis Dimension        Dim             ....  136

ORBITAL ENERGIES
----------------

  NO   OCC          E(Eh)            E(eV)
   0   2.0000     -14.373813      -391.1313
   1   2.0000     -14.368738      -390.9932
   2   2.0000     -10.322451      -280.8882
   3   2.0000     -10.201214      -277.5892
   4   2.0000      -1.137633       -30.9566
   5   2.0000      -1.048031       -28.5184
   6   2.0000      -0.894769       -24.3479
   7   2.0000      -0.793025       -21.5793
   8   2.0000      -0.738385       -20.0925
   9   2.0000      -0.725469       -19.7410
  10   2.0000      -0.669256       -18.2114
  11   2.0000      -0.619574       -16.8595
  12   2.0000      -0.577124       -15.7043
  13   2.0000      -0.564009       -15.3475
  14   2.0000      -0.540217       -14.7000
  15   2.0000      -0.464449       -12.6383
  16   0.0000      -0.243733        -6.6323
  17   0.0000      -0.178318        -4.8523
  18   0.0000      -0.133117        -3.6223
  19   0.0000      -0.131055        -3.5662
  20   0.0000      -0.107800        -2.9334

MULLIKEN ATOMIC CHARGES
-----------------------
   0 C :    0.555692
   1 C :    0.439107
   2 N :   -0.093546
   3 N :    0.141210
   4 H :    0.040571
   5 H :   -0.121929
   6 H :    0.071029
   7 H :   -0.114271
   8 H :    0.022052
   9 H :    0.027947
  10 H :    0.032139
Sum of atomic charges:    1.0000000

LOEWDIN ATOMIC CHARGES
----------------------
   0 C :    0.243927
   1 C :   -0.065920
   2 N :    0.282898
   3 N :    0.282709
   4 H :    0.067976
   5 H :    0.053930
   6 H :    0.050377
   7 H :    0.043688
   8 H :    0.001523
   9 H :    0.019394
  10 H :    0.019498

  Mayer bond orders larger than 0.100000
B(  0-C ,  1-C ) :   1.2441 B(  0-C ,  8-H ) :   0.7957 B(  0-C ,  9-H ) :   0.7894
B(  0-C , 10-H ) :   0.7720 B(  1-C ,  2-N ) :   0.9199 B(  1-C ,  3-N ) :   1.2192
B(  1-C ,  5-H ) :  -0.1485 B(  1-C ,  7-H ) :  -0.2515 B(  1-C ,  8-H ) :   0.2273
B(  1-C ,  9-H ) :   0.1443 B(  1-C , 10-H ) :   0.1613 B(  2-N ,  3-N ) :   0.1820
B(  2-N ,  6-H ) :   1.0560 B(  2-N ,  7-H ) :   1.3606 B(  3-N ,  4-H ) :   1.1099
B(  3-N ,  5-H ) :   1.2455 B(  4-H ,  5-H ) :  -0.1435 B(  6-H ,  7-H ) :  -0.1717
B(  9-H , 10-H ) :   0.1025

Dispersion correction           -0.008444941
FINAL SINGLE POINT ENERGY      -189.627075869423

DIPOLE MOMENT
-------------
                                X             Y             Z
Electronic contribution:      0.32637       1.63690       1.45745
Nuclear contribution   :     -0.32363      -1.20411      -1.15396
                        -----------------------------------------
Total Dipole Moment    :      0.00274       0.43279       0.30349
                        -----------------------------------------
Magnitude (a.u.)       :      0.52860
Magnitude (Debye)      :      1.34359

Rotational constants in cm-1:     0.327805     0.304052     0.162439
Rotational constants in MHz :  9827.347355  9115.244333  4869.808750

                             ****ORCA TERMINATED NORMALLY****
TOTAL RUN TIME: 0 days 0 hours 0 minutes 6 seconds 167 msec
