                         Program Version 5.0.0 -  RELEASE  -
|  1> !TPSS D3BJ RIJCOSX def2-SVPD def2/J TightSCF xyzfile
|  2>
|  3> *xyzfile 0 1 B.xyz
|  4>
|  5> %MaxCore 64000
|  6>
|  7> %pal nprocs 4
|  8> end
|  9>
| 10> %scf
| 11>   MaxIter 150
| 12> end
| 13>
| 14>
| 15>                          ****END OF INPUT****

CARTESIAN COORDINATES (ANGSTROEM)
---------------------------------
  C      1.647032   -2.345276   -5.020411
  C      0.217628   -1.814022   -4.924389
  C      2.209964   -2.812388   -3.665708
  C     -0.811356   -2.908780   -4.607625
  C     -1.916579   -2.485081   -3.643665
  H     -2.554525   -1.712428   -4.091993
  C     -1.363531   -1.981337   -2.293608
  H     -2.553448   -3.355667   -3.458815
  O     -0.350395   -2.749689   -1.796006
  H      2.308385   -1.588704   -5.457128
  H      1.674286   -3.203478   -5.697392
  C      2.489007   -1.668510   -2.737538
  N      3.596314   -0.947608   -2.952247
  N      1.663936   -1.413685   -1.777806
  H      0.811642   -1.963178   -1.702755
  H      1.845503   -0.635078   -1.158749
  H      4.205351   -1.176003   -3.733825
  H      3.817230   -0.125845   -2.406041
  H     -1.244829   -3.280884   -5.541040
  H     -0.306331   -3.757746   -4.142734
  H     -0.036244   -1.318555   -5.865303
  H      0.175004   -1.035382   -4.158095
  H      3.143106   -3.362803   -3.811524
  H      1.487683   -3.458935   -3.165211
  H     -2.226220   -1.908386   -1.602039
  H     -1.051353   -0.915671   -2.443331

 Total Charge           Charge          ....    0
 Multiplicity           Mult            ....    1
 Number of Electrons    NEL             ....   80
 Basis Dimension        Dim             ....  331

ORBITAL ENERGIES
----------------

  NO   OCC          E(Eh)            E(eV)
   0   2.0000     -18.761042      -510.5139
   1   2.0000     -14.195829      -386.2881
   2   2.0000     -14.149233      -385.0202
   3   2.0000     -10.129273      -275.6315
   4   2.0000     -10.026223      -272.8274
   5   2.0000     -10.014408      -272.5059
   6   2.0000      -9.985317      -271.7143
   7   2.0000      -9.977500      -271.5016
   8   2.0000      -9.966039      -271.1897
   9   2.0000      -9.948819      -270.7211
  10   2.0000      -0.947946       -25.7949
  11   2.0000      -0.860311       -23.4103
  12   2.0000      -0.803950       -21.8766
  13   2.0000      -0.751614       -20.4525
  14   2.0000      -0.692174       -18.8350
  15   2.0000      -0.645363       -17.5612
  16   2.0000      -0.597663       -16.2632
  17   2.0000      -0.576896       -15.6982
  18   2.0000      -0.552151       -15.0248
  19   2.0000      -0.538699       -14.6587
  20   2.0000      -0.513917       -13.9844
  21   2.0000      -0.476943       -12.9783
  22   2.0000      -0.453171       -12.3314
  23   2.0000      -0.441944       -12.0259
  24   2.0000      -0.422576       -11.4989
  25   2.0000      -0.399041       -10.8585
  26   2.0000      -0.388449       -10.5702
  27   2.0000      -0.363622        -9.8947
  28   2.0000      -0.351902        -9.5757
  29   2.0000      -0.348915        -9.4945
  30   2.0000      -0.319363        -8.6903
  31   2.0000      -0.310542        -8.4503
  32   2.0000      -0.301791        -8.2122
  33   2.0000      -0.281342        -7.6557
  34   2.0000      -0.275514        -7.4971
  35   2.0000      -0.263675        -7.1750
  36   2.0000      -0.255616        -6.9557
  37   2.0000      -0.247861        -6.7446
  38   2.0000      -0.131452        -3.5770
  39   2.0000      -0.122922        -3.3449
  40   0.0000      -0.061479        -1.6729
  41   0.0000      -0.031126        -0.8470
  42   0.0000       0.004537         0.1235
  43   0.0000       0.025739         0.7004
  44   0.0000       0.033541         0.9127

MULLIKEN ATOMIC CHARGES
-----------------------
   0 C :    0.229808
   1 C :    0.125074
   2 C :    0.117111
   3 C :    0.018385
   4 C :    0.169838
   5 H :   -0.118118
   6 C :    0.467796
   7 H :    0.060453
   8 O :   -0.760939
   9 H :   -0.049210
  10 H :   -0.060194
  11 C :    0.770457
  12 N :   -0.044000
  13 N :    0.363954
  14 H :   -0.301375
  15 H :   -0.128918
  16 H :   -0.040258
  17 H :   -0.151949
  18 H :   -0.204281
  19 H :    0.053083
  20 H :   -0.148545
  21 H :   -0.062670
  22 H :   -0.088572
  23 H :    0.026385
  24 H :   -0.373830
  25 H :    0.130514
Sum of atomic charges:    0.0000000

LOEWDIN ATOMIC CHARGES
----------------------
   0 C :   -0.008651
   1 C :   -0.007593
   2 C :    0.060204
   3 C :   -0.022904
   4 C :   -0.024358
   5 H :    0.010006
   6 C :   -0.080716
   7 H :    0.013711
   8 O :   -0.386666
   9 H :    0.006372
  10 H :    0.024104
  11 C :   -0.050122
  12 N :    0.239720
  13 N :    0.312125
  14 H :   -0.191396
  15 H :    0.034132
  16 H :    0.023042
  17 H :    0.016405
  18 H :    0.010535
  19 H :   -0.001195
  20 H :    0.015250
  21 H :   -0.007018
  22 H :    0.024890
  23 H :    0.006056
  24 H :   -0.002210
  25 H :   -0.013725

  Mayer bond orders larger than 0.100000
B(  0-C ,  1-C ) :   1.2264 B(  0-C ,  2-C ) :   1.1511 B(  0-C ,  9-H ) :   0.7437
B(  0-C , 10-H ) :   0.8761 B(  0-C , 21-H ) :   0.1596 B(  0-C , 22-H ) :   0.1093
B(  0-C , 23-H ) :   0.1059 B(  1-C ,  2-C ) :   0.1114 B(  1-C ,  3-C ) :   1.1720
B(  1-C ,  9-H ) :   0.1790 B(  1-C , 10-H ) :   0.1108 B(  1-C , 18-H ) :   0.2013
B(  1-C , 20-H ) :   0.8644 B(  1-C , 21-H ) :   0.8002 B(  2-C ,  9-H ) :   0.1411
B(  2-C , 10-H ) :   0.1192 B(  2-C , 11-C ) :   1.0577 B(  2-C , 12-N ) :   0.1061
B(  2-C , 22-H ) :   0.8251 B(  2-C , 23-H ) :   0.8326 B(  3-C ,  4-C ) :   1.2453
B(  3-C ,  5-H ) :   0.1405 B(  3-C ,  7-H ) :   0.1933 B(  3-C , 18-H ) :   0.8933
B(  3-C , 19-H ) :   0.8028 B(  3-C , 20-H ) :   0.1183 B(  3-C , 21-H ) :   0.1586
B(  4-C ,  5-H ) :   0.9299 B(  4-C ,  6-C ) :   1.1109 B(  4-C ,  7-H ) :   0.7039
B(  4-C , 19-H ) :   0.1008 B(  4-C , 24-H ) :   0.1408 B(  4-C , 25-H ) :   0.1004
B(  5-H ,  6-C ) :   0.1190 B(  6-C ,  7-H ) :   0.1137 B(  6-C ,  8-O ) :   0.9482
B(  6-C , 24-H ) :   1.0611 B(  6-C , 25-H ) :   0.7860 B(  8-O , 14-H ) :   0.4564
B( 11-C , 12-N ) :   0.9157 B( 11-C , 13-N ) :   1.1488 B( 11-C , 15-H ) :  -0.2404
B( 11-C , 16-H ) :  -0.1490 B( 11-C , 17-H ) :  -0.1407 B( 11-C , 22-H ) :   0.1159
B( 11-C , 23-H ) :   0.1641 B( 12-N , 13-N ) :   0.2011 B( 12-N , 16-H ) :   1.2102
B( 12-N , 17-H ) :   1.3057 B( 13-N , 14-H ) :   0.9080 B( 13-N , 15-H ) :   1.3279
B( 14-H , 15-H ) :  -0.2192 B( 16-H , 17-H ) :  -0.1667 B( 19-H , 23-H ) :   0.1236

Dispersion correction           -0.033295761
FINAL SINGLE POINT ENERGY      -460.871167326660

DIPOLE MOMENT
-------------
                                X             Y             Z
Electronic contribution:      5.55853       0.86496       4.34217
Nuclear contribution   :     -2.25948       0.71378      -5.15247
                        -----------------------------------------
Total Dipole Moment    :      3.29905       1.57874      -0.81030
                        -----------------------------------------
Magnitude (a.u.)       :      3.74603
Magnitude (Debye)      :      9.52165

Rotational constants in cm-1:     0.063973     0.031829     0.024059
Rotational constants in MHz :  1917.874550   954.201145   721.285252

                             ****ORCA TERMINATED NORMALLY****
TOTAL RUN TIME: 0 days 0 hours 0 minutes 41 seconds 265 msec
