                         Program Version 5.0.0 -  RELEASE  -
|  1> !TPSS D3BJ RIJCOSX def2-SVPD def2/J TightSCF
|  2> *xyz 0 1
|  3> C          2.20996       -2.81239       -3.66571
|  4> C          2.48901       -1.66851       -2.73754
|  5> C          3.59631       -0.94761       -2.95225
|  6> N          1.66394       -1.41369       -1.77781
|  7> H          0.81164       -1.96318       -1.70275
|  8> H          1.84550       -0.63508       -1.15875
|  9> H          4.20535       -1.17600       -3.73383
| 10> H          3.81723       -0.12585       -2.40604
| 11> H          2.99011       -2.87840       -4.39503
| 12> H          1.27381       -2.65174       -4.15838
| 13> H          2.16680       -3.72339       -3.10614
| 14> *
| 15>
| 16> %MaxCore 64000
| 17> %pal nprocs 4
| 18> end
| 19>
| 20> %scf
| 21>   MaxIter 150
| 22> end
| 23>
| 24>
| 25>                          ****END OF INPUT****

CARTESIAN COORDINATES (ANGSTROEM)
---------------------------------
  C      2.209960   -2.812390   -3.665710
  C      2.489010   -1.668510   -2.737540
  C      3.596310   -0.947610   -2.952250
  N      1.663940   -1.413690   -1.777810
  H      0.811640   -1.963180   -1.702750
  H      1.845500   -0.635080   -1.158750
  H      4.205350   -1.176000   -3.733830
  H      3.817230   -0.125850   -2.406040
  H      2.990110   -2.878400   -4.395030
  H      1.273810   -2.651740   -4.158380
  H      2.166800   -3.723390   -3.106140

 Total Charge           Charge          ....    0
 Multiplicity           Mult            ....    1
 Number of Electrons    NEL             ....   32
 Basis Dimension        Dim             ....  136

ORBITAL ENERGIES
----------------

  NO   OCC          E(Eh)            E(eV)
   0   2.0000     -14.124096      -384.3362
   1   2.0000     -10.015434      -272.5338
   2   2.0000      -9.991807      -271.8909
   3   2.0000      -9.932641      -270.2809
   4   2.0000      -0.866890       -23.5893
   5   2.0000      -0.692330       -18.8393
   6   2.0000      -0.625430       -17.0188
   7   2.0000      -0.526341       -14.3225
   8   2.0000      -0.490418       -13.3450
   9   2.0000      -0.427713       -11.6387
  10   2.0000      -0.391907       -10.6643
  11   2.0000      -0.357834        -9.7371
  12   2.0000      -0.351147        -9.5552
  13   2.0000      -0.310847        -8.4586
  14   2.0000      -0.300326        -8.1723
  15   2.0000      -0.156798        -4.2667
  16   0.0000       0.006624         0.1802
  17   0.0000       0.026691         0.7263
  18   0.0000       0.043936         1.1956
  19   0.0000       0.052722         1.4346
  20   0.0000       0.077336         2.1044

MULLIKEN ATOMIC CHARGES
-----------------------
   0 C :    0.776947
   1 C :   -0.506942
   2 C :    0.369104
   3 N :    0.284758
   4 H :   -0.151323
   5 H :   -0.177405
   6 H :   -0.077363
   7 H :   -0.455392
   8 H :    0.017691
   9 H :   -0.043019
  10 H :   -0.037055
Sum of atomic charges:    0.0000000

LOEWDIN ATOMIC CHARGES
----------------------
   0 C :    0.172243
   1 C :   -0.296877
   2 C :    0.175929
   3 N :    0.163956
   4 H :    0.010712
   5 H :    0.013075
   6 H :   -0.090213
   7 H :   -0.095647
   8 H :   -0.019135
   9 H :   -0.016835
  10 H :   -0.017207

  Mayer bond orders larger than 0.100000
B(  0-C ,  1-C ) :   1.2488 B(  0-C ,  8-H ) :   0.8016 B(  0-C ,  9-H ) :   0.6908
B(  0-C , 10-H ) :   0.6941 B(  1-C ,  2-C ) :   1.6334 B(  1-C ,  3-N ) :   1.2751
B(  1-C ,  7-H ) :   0.1328 B(  1-C ,  8-H ) :   0.2164 B(  1-C ,  9-H ) :   0.2605
B(  1-C , 10-H ) :   0.2614 B(  2-C ,  3-N ) :   0.2545 B(  2-C ,  6-H ) :   0.9606
B(  2-C ,  7-H ) :   0.8552 B(  3-N ,  4-H ) :   1.1645 B(  3-N ,  5-H ) :   1.1998
B(  4-H ,  5-H ) :  -0.1127 B(  8-H ,  9-H ) :   0.1039 B(  8-H , 10-H ) :   0.1049

Dispersion correction           -0.008874208
FINAL SINGLE POINT ENERGY      -173.168843779403

DIPOLE MOMENT
-------------
                                X             Y             Z
Electronic contribution:     -0.64864       0.88476       1.54861
Nuclear contribution   :     -0.07639      -1.03653      -1.19368
                        -----------------------------------------
Total Dipole Moment    :     -0.72503      -0.15177       0.35493
                        -----------------------------------------
Magnitude (a.u.)       :      0.82139
Magnitude (Debye)      :      2.08780

Rotational constants in cm-1:     0.347569     0.308531     0.168494
Rotational constants in MHz : 10419.863808  9249.512495  5051.317883

                             ****ORCA TERMINATED NORMALLY****
TOTAL RUN TIME: 0 days 0 hours 0 minutes 6 seconds 985 msec
