                         Program Version 5.0.0 -  RELEASE  -
|  1> !TPSS D3BJ RIJCOSX def2-SVPD def2/J TightSCF
|  2> *xyz 0 1
|  3> C          2.20996       -2.81239       -3.66571
|  4> C          2.48901       -1.66851       -2.73754
|  5> N          3.59631       -0.94761       -2.95225
|  6> C          1.66394       -1.41369       -1.77781
|  7> H          0.81164       -1.96318       -1.70275
|  8> H          1.84550       -0.63508       -1.15875
|  9> H          4.20535       -1.17600       -3.73383
| 10> H          3.81723       -0.12585       -2.40604
| 11> H          2.99011       -2.87840       -4.39503
| 12> H          1.27381       -2.65174       -4.15838
| 13> H          2.16680       -3.72339       -3.10614
| 14> *
| 15>
| 16> %MaxCore 64000
| 17> %pal nprocs 4
| 18> end
| 19>
| 20> %scf
| 21>   MaxIter 150
| 22> end
| 23>
| 24>
| 25>                          ****END OF INPUT****

CARTESIAN COORDINATES (ANGSTROEM)
---------------------------------
  C      2.209960   -2.812390   -3.665710
  C      2.489010   -1.668510   -2.737540
  N      3.596310   -0.947610   -2.952250
  C      1.663940   -1.413690   -1.777810
  H      0.811640   -1.963180   -1.702750
  H      1.845500   -0.635080   -1.158750
  H      4.205350   -1.176000   -3.733830
  H      3.817230   -0.125850   -2.406040
  H      2.990110   -2.878400   -4.395030
  H      1.273810   -2.651740   -4.158380
  H      2.166800   -3.723390   -3.106140

 Total Charge           Charge          ....    0
 Multiplicity           Mult            ....    1
 Number of Electrons    NEL             ....   32
 Basis Dimension        Dim             ....  136

ORBITAL ENERGIES
----------------

  NO   OCC          E(Eh)            E(eV)
   0   2.0000     -14.119475      -384.2105
   1   2.0000     -10.012160      -272.4447
   2   2.0000      -9.991890      -271.8931
   3   2.0000      -9.929560      -270.1971
   4   2.0000      -0.849544       -23.1173
   5   2.0000      -0.696998       -18.9663
   6   2.0000      -0.631120       -17.1737
   7   2.0000      -0.519037       -14.1237
   8   2.0000      -0.477944       -13.0055
   9   2.0000      -0.429748       -11.6940
  10   2.0000      -0.388943       -10.5837
  11   2.0000      -0.359694        -9.7878
  12   2.0000      -0.353759        -9.6263
  13   2.0000      -0.314456        -8.5568
  14   2.0000      -0.292974        -7.9722
  15   2.0000      -0.160957        -4.3799
  16   0.0000       0.008044         0.2189
  17   0.0000       0.026416         0.7188
  18   0.0000       0.044512         1.2112
  19   0.0000       0.052575         1.4306
  20   0.0000       0.076956         2.0941

MULLIKEN ATOMIC CHARGES
-----------------------
   0 C :    0.746272
   1 C :   -0.233574
   2 N :    0.046009
   3 C :    0.235524
   4 H :   -0.123358
   5 H :   -0.307438
   6 H :   -0.086295
   7 H :   -0.179583
   8 H :   -0.127915
   9 H :    0.015610
  10 H :    0.014747
Sum of atomic charges:   -0.0000000

LOEWDIN ATOMIC CHARGES
----------------------
   0 C :    0.174470
   1 C :   -0.284271
   2 N :    0.167602
   3 C :    0.157050
   4 H :   -0.070541
   5 H :   -0.083272
   6 H :   -0.008029
   7 H :    0.000538
   8 H :   -0.033387
   9 H :   -0.010139
  10 H :   -0.010023

  Mayer bond orders larger than 0.100000
B(  0-C ,  1-C ) :   1.0802 B(  0-C ,  2-N ) :   0.1215 B(  0-C ,  8-H ) :   0.7445
B(  0-C ,  9-H ) :   0.7618 B(  0-C , 10-H ) :   0.7563 B(  1-C ,  2-N ) :   0.9853
B(  1-C ,  3-C ) :   1.7781 B(  1-C ,  4-H ) :   0.1129 B(  1-C ,  5-H ) :   0.2503
B(  1-C ,  7-H ) :  -0.1566 B(  1-C ,  8-H ) :   0.2471 B(  1-C ,  9-H ) :   0.1653
B(  1-C , 10-H ) :   0.1757 B(  2-N ,  3-C ) :   0.2652 B(  2-N ,  6-H ) :   1.1161
B(  2-N ,  7-H ) :   1.3282 B(  3-C ,  4-H ) :   0.8513 B(  3-C ,  5-H ) :   0.7708
B(  6-H ,  7-H ) :  -0.1523

Dispersion correction           -0.008873792
FINAL SINGLE POINT ENERGY      -173.168293338435

DIPOLE MOMENT
-------------
                                X             Y             Z
Electronic contribution:      1.04757       1.27005       0.49180
Nuclear contribution   :     -0.50975      -1.14105      -0.93029
                        -----------------------------------------
Total Dipole Moment    :      0.53781       0.12900      -0.43849
                        -----------------------------------------
Magnitude (a.u.)       :      0.70580
Magnitude (Debye)      :      1.79401

Rotational constants in cm-1:     0.350603     0.305690     0.168346
Rotational constants in MHz : 10510.799277  9164.357607  5046.873498

                             ****ORCA TERMINATED NORMALLY****
TOTAL RUN TIME: 0 days 0 hours 0 minutes 7 seconds 51 msec
