                         Program Version 5.0.0 -  RELEASE  -
|  1> !CAM-B3LYP RIJCOSX def2-SVP def2/J TightSCF
|  2> *xyz -1 1
|  3> C          4.90646       -3.10282       -5.95484
|  4> C          3.51177       -2.80621       -6.49228
|  5> H          2.73604       -3.37345       -5.97374
|  6> H          3.44490       -3.04083       -7.55528
|  7> S          3.00462       -1.09621       -6.38926
|  8> O          4.12886       -0.32965       -6.95372
|  9> O          1.78128       -1.00078       -7.13640
| 10> O          2.85155       -0.78368       -4.95679
| 11> H          5.62703       -2.52424       -6.49422
| 12> H          5.12164       -4.14387       -6.07654
| 13> H          4.95004       -2.84862       -4.91639
| 14> *
| 15>
| 16> %MaxCore 64000
| 17>
| 18> %pal nprocs 4
| 19> end
| 20>
| 21> %scf
| 22>   MaxIter 150
| 23> end
| 24>
| 25>
| 26>                          ****END OF INPUT****

CARTESIAN COORDINATES (ANGSTROEM)
---------------------------------
  C      4.906460   -3.102820   -5.954840
  C      3.511770   -2.806210   -6.492280
  H      2.736040   -3.373450   -5.973740
  H      3.444900   -3.040830   -7.555280
  S      3.004620   -1.096210   -6.389260
  O      4.128860   -0.329650   -6.953720
  O      1.781280   -1.000780   -7.136400
  O      2.851550   -0.783680   -4.956790
  H      5.627030   -2.524240   -6.494220
  H      5.121640   -4.143870   -6.076540
  H      4.950040   -2.848620   -4.916390

 Total Charge           Charge          ....   -1
 Multiplicity           Mult            ....    1
 Number of Electrons    NEL             ....   58
 Basis Dimension        Dim             ....  113

ORBITAL ENERGIES
----------------

  NO   OCC          E(Eh)            E(eV)
   0   2.0000     -88.919385     -2419.6195
   1   2.0000     -18.957683      -515.8648
   2   2.0000     -18.944821      -515.5148
   3   2.0000     -18.943554      -515.4803
   4   2.0000     -10.110037      -275.1081
   5   2.0000     -10.106909      -275.0230
   6   2.0000      -7.979568      -217.1351
   7   2.0000      -5.948875      -161.8771
   8   2.0000      -5.948822      -161.8757
   9   2.0000      -5.948692      -161.8721
  10   2.0000      -0.982402       -26.7325
  11   2.0000      -0.835812       -22.7436
  12   2.0000      -0.813814       -22.1450
  13   2.0000      -0.702151       -19.1065
  14   2.0000      -0.574161       -15.6237
  15   2.0000      -0.434625       -11.8268
  16   2.0000      -0.381615       -10.3843
  17   2.0000      -0.365871        -9.9559
  18   2.0000      -0.330253        -8.9867
  19   2.0000      -0.308995        -8.4082
  20   2.0000      -0.304477        -8.2853
  21   2.0000      -0.282472        -7.6864
  22   2.0000      -0.267490        -7.2788
  23   2.0000      -0.185734        -5.0541
  24   2.0000      -0.184578        -5.0226
  25   2.0000      -0.150117        -4.0849
  26   2.0000      -0.141866        -3.8604
  27   2.0000      -0.135235        -3.6799
  28   2.0000      -0.095976        -2.6116
  29   0.0000       0.243832         6.6350
  30   0.0000       0.294893         8.0244
  31   0.0000       0.302826         8.2403
  32   0.0000       0.310731         8.4554
  33   0.0000       0.340573         9.2675

MULLIKEN ATOMIC CHARGES
-----------------------
   0 C :    0.049487
   1 C :   -0.083069
   2 H :   -0.008060
   3 H :   -0.008287
   4 S :    0.865645
   5 O :   -0.606856
   6 O :   -0.565830
   7 O :   -0.608615
   8 H :    0.004724
   9 H :   -0.039650
  10 H :    0.000512
Sum of atomic charges:   -1.0000000

LOEWDIN ATOMIC CHARGES
----------------------
   0 C :   -0.070527
   1 C :   -0.184252
   2 H :    0.006141
   3 H :    0.006323
   4 S :    1.115844
   5 O :   -0.647912
   6 O :   -0.608993
   7 O :   -0.651613
   8 H :    0.017385
   9 H :    0.001062
  10 H :    0.016541

  Mayer bond orders larger than 0.100000
B(  0-C ,  1-C ) :   1.0592 B(  0-C ,  8-H ) :   0.9647 B(  0-C ,  9-H ) :   0.9611
B(  0-C , 10-H ) :   0.9669 B(  1-C ,  2-H ) :   0.9419 B(  1-C ,  3-H ) :   0.9413
B(  1-C ,  4-S ) :   0.9010 B(  4-S ,  5-O ) :   1.5954 B(  4-S ,  6-O ) :   1.6498
B(  4-S ,  7-O ) :   1.6016

FINAL SINGLE POINT ENERGY      -702.607678610362

DIPOLE MOMENT
-------------
                                X             Y             Z
Electronic contribution:     -4.41994       6.48732      -0.66989
Nuclear contribution   :      5.05690      -8.21735       0.57889
                        -----------------------------------------
Total Dipole Moment    :      0.63696      -1.73003      -0.09100
                        -----------------------------------------
Magnitude (a.u.)       :      1.84581
Magnitude (Debye)      :      4.69168

Rotational constants in cm-1:     0.162547     0.083494     0.081672
Rotational constants in MHz :  4873.033504  2503.090885  2448.458543

                             ****ORCA TERMINATED NORMALLY****
TOTAL RUN TIME: 0 days 0 hours 0 minutes 13 seconds 380 msec
