                         Program Version 5.0.0 -  RELEASE  -
|  1> !CAM-B3LYP RIJCOSX def2-SVP def2/J TightSCF
|  2> *xyz 1 1
|  3> C          4.49059        1.15590       -2.46929
|  4> N          4.30539        1.22276       -3.90832
|  5> C          4.63192        2.24637       -4.67096
|  6> N          4.54169        2.14399       -5.98714
|  7> N          5.08409        3.39358       -4.11855
|  8> H          4.92067        3.57050       -3.13587
|  9> H          5.25465        4.19739       -4.70696
| 10> H          3.82453        0.44911       -4.35093
| 11> H          4.34337        1.24932       -6.41665
| 12> H          4.67671        2.95662       -6.57411
| 13> C          5.94213        0.93950       -2.03689
| 14> H          3.86431        0.32853       -2.13661
| 15> H          4.07623        2.04999       -1.98901
| 16> H          6.32982        0.06401       -2.51451
| 17> H          5.98308        0.81426       -0.97504
| 18> H          6.52865        1.78889       -2.31873
| 19> *
| 20>
| 21> %MaxCore 64000
| 22>
| 23> %pal nprocs 4
| 24> end
| 25>
| 26> %scf
| 27>   MaxIter 150
| 28> end
| 29>
| 30>
| 31>                          ****END OF INPUT****

CARTESIAN COORDINATES (ANGSTROEM)
---------------------------------
  C      4.490590    1.155900   -2.469290
  N      4.305390    1.222760   -3.908320
  C      4.631920    2.246370   -4.670960
  N      4.541690    2.143990   -5.987140
  N      5.084090    3.393580   -4.118550
  H      4.920670    3.570500   -3.135870
  H      5.254650    4.197390   -4.706960
  H      3.824530    0.449110   -4.350930
  H      4.343370    1.249320   -6.416650
  H      4.676710    2.956620   -6.574110
  C      5.942130    0.939500   -2.036890
  H      3.864310    0.328530   -2.136610
  H      4.076230    2.049990   -1.989010
  H      6.329820    0.064010   -2.514510
  H      5.983080    0.814260   -0.975040
  H      6.528650    1.788890   -2.318730

 Total Charge           Charge          ....    1
 Multiplicity           Mult            ....    1
 Number of Electrons    NEL             ....   48
 Basis Dimension        Dim             ....  134

ORBITAL ENERGIES
----------------

  NO   OCC          E(Eh)            E(eV)
   0   2.0000     -14.626933      -398.0191
   1   2.0000     -14.624761      -397.9600
   2   2.0000     -14.623404      -397.9231
   3   2.0000     -10.596091      -288.3343
   4   2.0000     -10.463669      -284.7309
   5   2.0000     -10.391591      -282.7696
   6   2.0000      -1.290557       -35.1179
   7   2.0000      -1.178081       -32.0572
   8   2.0000      -1.161298       -31.6005
   9   2.0000      -1.003168       -27.2976
  10   2.0000      -0.914934       -24.8966
  11   2.0000      -0.871820       -23.7234
  12   2.0000      -0.857463       -23.3328
  13   2.0000      -0.812035       -22.0966
  14   2.0000      -0.760635       -20.6979
  15   2.0000      -0.757578       -20.6148
  16   2.0000      -0.729157       -19.8414
  17   2.0000      -0.694371       -18.8948
  18   2.0000      -0.670225       -18.2377
  19   2.0000      -0.623237       -16.9591
  20   2.0000      -0.594337       -16.1727
  21   2.0000      -0.574136       -15.6230
  22   2.0000      -0.538229       -14.6459
  23   2.0000      -0.510933       -13.9032
  24   0.0000      -0.106495        -2.8979
  25   0.0000      -0.095049        -2.5864
  26   0.0000      -0.060620        -1.6496
  27   0.0000      -0.053306        -1.4505
  28   0.0000      -0.031669        -0.8618

MULLIKEN ATOMIC CHARGES
-----------------------
   0 C :    0.007439
   1 N :   -0.100327
   2 C :    0.019638
   3 N :   -0.005235
   4 N :   -0.045016
   5 H :    0.170472
   6 H :    0.167349
   7 H :    0.166898
   8 H :    0.172970
   9 H :    0.173290
  10 C :    0.029605
  11 H :    0.062890
  12 H :    0.051896
  13 H :    0.042573
  14 H :    0.063208
  15 H :    0.022350
Sum of atomic charges:    1.0000000

LOEWDIN ATOMIC CHARGES
----------------------
   0 C :    0.036618
   1 N :    0.031435
   2 C :    0.153290
   3 N :    0.048587
   4 N :    0.034104
   5 H :    0.106968
   6 H :    0.109843
   7 H :    0.109847
   8 H :    0.113294
   9 H :    0.113001
  10 C :   -0.046470
  11 H :    0.049629
  12 H :    0.030816
  13 H :    0.036115
  14 H :    0.048334
  15 H :    0.024588

  Mayer bond orders larger than 0.100000
B(  0-C ,  1-N ) :   0.9384 B(  0-C , 10-C ) :   1.0927 B(  0-C , 11-H ) :   0.9492
B(  0-C , 12-H ) :   0.9556 B(  1-N ,  2-C ) :   1.3883 B(  1-N ,  7-H ) :   0.9137
B(  2-C ,  3-N ) :   1.4076 B(  2-C ,  4-N ) :   1.3756 B(  3-N ,  8-H ) :   0.9242
B(  3-N ,  9-H ) :   0.9252 B(  4-N ,  5-H ) :   0.9228 B(  4-N ,  6-H ) :   0.9276
B( 10-C , 13-H ) :   0.9669 B( 10-C , 14-H ) :   0.9648 B( 10-C , 15-H ) :   0.9687

FINAL SINGLE POINT ENERGY      -284.044470814591

DIPOLE MOMENT
-------------
                                X             Y             Z
Electronic contribution:     -1.84637       1.62728      -4.55873
Nuclear contribution   :      1.34333      -1.11039       3.43667
                        -----------------------------------------
Total Dipole Moment    :     -0.50304       0.51688      -1.12206
                        -----------------------------------------
Magnitude (a.u.)       :      1.33388
Magnitude (Debye)      :      3.39046

Rotational constants in cm-1:     0.227161     0.075356     0.065003
Rotational constants in MHz :  6810.114531  2259.122204  1948.738523

                             ****ORCA TERMINATED NORMALLY****
TOTAL RUN TIME: 0 days 0 hours 0 minutes 18 seconds 186 msec
