                         Program Version 5.0.0 -  RELEASE  -
|  1> !CAM-B3LYP RIJCOSX def2-TZVP def2/J TightSCF xyzfile
|  2>
|  3> *xyzfile 0 1 B.xyz
|  4>
|  5> %MaxCore 64000
|  6>
|  7> %pal nprocs 18
|  8> end
|  9>
| 10> %scf
| 11>   MaxIter 150
| 12> end
| 13>
| 14>
| 15>                          ****END OF INPUT****

CARTESIAN COORDINATES (ANGSTROEM)
---------------------------------
  C      4.490588    1.155899   -2.469290
  N      4.305394    1.222762   -3.908317
  C      4.906458   -3.102816   -5.954844
  C      3.511771   -2.806215   -6.492283
  H      2.736044   -3.373445   -5.973736
  H      3.444904   -3.040831   -7.555281
  S      3.004618   -1.096206   -6.389259
  C      4.631918    2.246365   -4.670958
  N      4.541686    2.143990   -5.987139
  N      5.084086    3.393584   -4.118545
  H      4.920675    3.570501   -3.135870
  H      5.254652    4.197390   -4.706956
  H      3.824530    0.449113   -4.350926
  H      4.343373    1.249318   -6.416646
  H      4.676712    2.956624   -6.574113
  O      4.128856   -0.329647   -6.953717
  O      1.781285   -1.000779   -7.136399
  C      5.942129    0.939500   -2.036893
  H      3.864305    0.328532   -2.136611
  H      4.076233    2.049994   -1.989010
  C      6.462677   -3.117775   -3.944671
  C      5.024977   -3.025679   -4.437625
  H      4.423321   -3.818693   -3.977648
  H      4.579350   -2.087131   -4.108727
  H      5.201533   -4.100207   -6.296905
  H      5.605922   -2.397822   -6.413368
  C      6.559957   -0.356290   -2.559086
  H      5.967976    0.952567   -0.942444
  H      6.547184    1.788331   -2.368849
  C      6.006283   -1.615917   -1.899301
  H      7.642360   -0.318000   -2.402059
  H      6.414855   -0.403433   -3.642587
  C      6.608718   -2.917014   -2.435655
  H      6.190324   -1.561115   -0.820948
  H      4.919250   -1.651245   -2.016586
  H      7.066975   -2.374258   -4.475514
  H      6.887808   -4.089747   -4.215332
  H      6.135197   -3.755573   -1.915159
  H      7.671142   -2.955503   -2.172291
  O      2.851546   -0.783683   -4.956789

 Total Charge           Charge          ....    0
 Multiplicity           Mult            ....    1
 Number of Electrons    NEL             ....  144
 Basis Dimension        Dim             ....  671

ORBITAL ENERGIES
----------------

  NO   OCC          E(Eh)            E(eV)
   0   2.0000     -89.070844     -2423.7409
   1   2.0000     -19.135759      -520.7105
   2   2.0000     -19.135353      -520.6994
   3   2.0000     -19.121058      -520.3104
   4   2.0000     -14.464531      -393.5999
   5   2.0000     -14.432605      -392.7311
   6   2.0000     -14.430061      -392.6619
   7   2.0000     -10.418221      -283.4942
   8   2.0000     -10.308872      -280.5187
   9   2.0000     -10.262570      -279.2587
  10   2.0000     -10.245836      -278.8034
  11   2.0000     -10.238891      -278.6144
  12   2.0000     -10.233860      -278.4775
  13   2.0000     -10.233754      -278.4746
  14   2.0000     -10.226730      -278.2835
  15   2.0000     -10.224861      -278.2326
  16   2.0000     -10.217169      -278.0233
  17   2.0000      -8.114857      -220.8165
  18   2.0000      -6.079287      -165.4258
  19   2.0000      -6.078600      -165.4071
  20   2.0000      -6.077678      -165.3820
  21   2.0000      -1.165677       -31.7197
  22   2.0000      -1.136927       -30.9374
  23   2.0000      -1.030255       -28.0347
  24   2.0000      -1.026672       -27.9372
  25   2.0000      -1.020212       -27.7614
  26   2.0000      -1.009869       -27.4799
  27   2.0000      -0.907741       -24.7009
  28   2.0000      -0.881421       -23.9847
  29   2.0000      -0.853925       -23.2365
  30   2.0000      -0.815788       -22.1987
  31   2.0000      -0.779302       -21.2059
  32   2.0000      -0.753493       -20.5036
  33   2.0000      -0.724667       -19.7192
  34   2.0000      -0.702264       -19.1096
  35   2.0000      -0.691063       -18.8048
  36   2.0000      -0.669977       -18.2310
  37   2.0000      -0.650633       -17.7046
  38   2.0000      -0.626025       -17.0350
  39   2.0000      -0.617361       -16.7992
  40   2.0000      -0.609562       -16.5870
  41   2.0000      -0.586071       -15.9478
  42   2.0000      -0.574737       -15.6394
  43   2.0000      -0.555571       -15.1179
  44   2.0000      -0.550211       -14.9720
  45   2.0000      -0.535866       -14.5816
  46   2.0000      -0.529646       -14.4124
  47   2.0000      -0.519954       -14.1487
  48   2.0000      -0.503116       -13.6905
  49   2.0000      -0.499656       -13.5963
  50   2.0000      -0.493470       -13.4280
  51   2.0000      -0.483288       -13.1509
  52   2.0000      -0.474304       -12.9065
  53   2.0000      -0.465417       -12.6647
  54   2.0000      -0.455183       -12.3861
  55   2.0000      -0.446799       -12.1580
  56   2.0000      -0.430417       -11.7122
  57   2.0000      -0.423021       -11.5110
  58   2.0000      -0.413156       -11.2426
  59   2.0000      -0.398896       -10.8545
  60   2.0000      -0.390406       -10.6235
  61   2.0000      -0.387379       -10.5411
  62   2.0000      -0.382259       -10.4018
  63   2.0000      -0.377218       -10.2646
  64   2.0000      -0.374167       -10.1816
  65   2.0000      -0.371222       -10.1015
  66   2.0000      -0.365686        -9.9508
  67   2.0000      -0.348824        -9.4920
  68   2.0000      -0.335873        -9.1396
  69   2.0000      -0.327342        -8.9074
  70   2.0000      -0.317906        -8.6507
  71   2.0000      -0.292300        -7.9539
  72   0.0000       0.018752         0.5103
  73   0.0000       0.040149         1.0925
  74   0.0000       0.053832         1.4648
  75   0.0000       0.074850         2.0368
  76   0.0000       0.083336         2.2677

MULLIKEN ATOMIC CHARGES
-----------------------
   0 C :   -0.279329
   1 N :   -0.211523
   2 C :   -0.183637
   3 C :   -0.224573
   4 H :    0.118749
   5 H :    0.133361
   6 S :    0.873305
   7 C :    0.400805
   8 N :   -0.393543
   9 N :   -0.446805
  10 H :    0.261847
  11 H :    0.245338
  12 H :    0.270113
  13 H :    0.301551
  14 H :    0.233055
  15 O :   -0.609075
  16 O :   -0.485539
  17 C :   -0.149406
  18 H :    0.178499
  19 H :    0.133117
  20 C :   -0.216213
  21 C :   -0.261394
  22 H :    0.090160
  23 H :    0.122766
  24 H :    0.098542
  25 H :    0.119865
  26 C :   -0.228946
  27 H :    0.110491
  28 H :    0.114580
  29 C :   -0.255408
  30 H :    0.109724
  31 H :    0.135565
  32 C :   -0.162014
  33 H :    0.102265
  34 H :    0.125730
  35 H :    0.110705
  36 H :    0.103307
  37 H :    0.104498
  38 H :    0.101373
  39 O :   -0.591907
Sum of atomic charges:    0.0000000

LOEWDIN ATOMIC CHARGES
----------------------
   0 C :   -0.273196
   1 N :    0.176989
   2 C :   -0.288393
   3 C :   -0.376409
   4 H :    0.135155
   5 H :    0.137201
   6 S :    0.469388
   7 C :   -0.412809
   8 N :    0.062030
   9 N :    0.014683
  10 H :    0.181263
  11 H :    0.179307
  12 H :    0.174597
  13 H :    0.157580
  14 H :    0.177879
  15 O :   -0.380380
  16 O :   -0.325359
  17 C :   -0.269955
  18 H :    0.149761
  19 H :    0.127025
  20 C :   -0.271710
  21 C :   -0.273460
  22 H :    0.134419
  23 H :    0.136001
  24 H :    0.135313
  25 H :    0.140570
  26 C :   -0.265296
  27 H :    0.141495
  28 H :    0.133497
  29 C :   -0.270635
  30 H :    0.138482
  31 H :    0.141643
  32 C :   -0.266513
  33 H :    0.134382
  34 H :    0.135423
  35 H :    0.133389
  36 H :    0.134411
  37 H :    0.136650
  38 H :    0.134068
  39 O :   -0.378489

  Mayer bond orders larger than 0.100000
B(  0-C ,  1-N ) :   0.8914 B(  0-C , 17-C ) :   0.9025 B(  0-C , 18-H ) :   0.9790
B(  0-C , 19-H ) :   0.9954 B(  1-N ,  7-C ) :   1.4220 B(  1-N , 12-H ) :   0.7913
B(  2-C ,  3-C ) :   0.9460 B(  2-C , 21-C ) :   0.9594 B(  2-C , 24-H ) :   0.9668
B(  2-C , 25-H ) :   0.9674 B(  3-C ,  4-H ) :   0.9626 B(  3-C ,  5-H ) :   0.9674
B(  3-C ,  6-S ) :   0.9054 B(  6-S , 15-O ) :   1.5485 B(  6-S , 16-O ) :   1.9392
B(  6-S , 39-O ) :   1.5552 B(  7-C ,  8-N ) :   1.3954 B(  7-C ,  9-N ) :   1.2321
B(  8-N , 13-H ) :   0.7791 B(  8-N , 14-H ) :   0.9208 B(  9-N , 10-H ) :   0.9040
B(  9-N , 11-H ) :   0.9186 B( 12-H , 39-O ) :   0.1855 B( 13-H , 15-O ) :   0.1770
B( 17-C , 26-C ) :   0.9458 B( 17-C , 27-H ) :   0.9769 B( 17-C , 28-H ) :   0.9827
B( 20-C , 21-C ) :   0.9259 B( 20-C , 32-C ) :   0.9496 B( 20-C , 35-H ) :   0.9896
B( 20-C , 36-H ) :   0.9797 B( 21-C , 22-H ) :   0.9712 B( 21-C , 23-H ) :   0.9775
B( 26-C , 29-C ) :   0.9269 B( 26-C , 30-H ) :   0.9763 B( 26-C , 31-H ) :   0.9775
B( 29-C , 32-C ) :   0.9561 B( 29-C , 33-H ) :   0.9743 B( 29-C , 34-H ) :   0.9860
B( 32-C , 37-H ) :   0.9851 B( 32-C , 38-H ) :   0.9859

FINAL SINGLE POINT ENERGY     -1183.050551217275

DIPOLE MOMENT
-------------
                                X             Y             Z
Electronic contribution:    -14.51668       8.39742     -15.32942
Nuclear contribution   :     16.79156      -5.47215      17.54258
                        -----------------------------------------
Total Dipole Moment    :      2.27488       2.92527       2.21316
                        -----------------------------------------
Magnitude (a.u.)       :      4.31629
Magnitude (Debye)      :     10.97115

Rotational constants in cm-1:     0.014207     0.012373     0.007472
Rotational constants in MHz :   425.900436   370.942493   224.006604

                             ****ORCA TERMINATED NORMALLY****
TOTAL RUN TIME: 0 days 0 hours 1 minutes 51 seconds 761 msec
