                         Program Version 5.0.0 -  RELEASE  -
|  1> !CAM-B3LYP RIJCOSX def2-SVP def2/J TightSCF
|  2> *xyz 0 1
|  3> C          4.90646       -3.10282       -5.95484
|  4> C          3.51177       -2.80621       -6.49228
|  5> H          2.73604       -3.37345       -5.97374
|  6> H          3.44490       -3.04083       -7.55528
|  7> S          3.00462       -1.09621       -6.38926
|  8> F          4.12886       -0.32965       -6.95372
|  9> O          1.78128       -1.00078       -7.13640
| 10> O          2.85155       -0.78368       -4.95679
| 11> H          5.62703       -2.52424       -6.49422
| 12> H          5.12164       -4.14387       -6.07654
| 13> H          4.95004       -2.84862       -4.91639
| 14> *
| 15>
| 16> %MaxCore 64000
| 17>
| 18> %pal nprocs 4
| 19> end
| 20>
| 21> %scf
| 22>   MaxIter 150
| 23> end
| 24>
| 25>
| 26>                          ****END OF INPUT****

CARTESIAN COORDINATES (ANGSTROEM)
---------------------------------
  C      4.906460   -3.102820   -5.954840
  C      3.511770   -2.806210   -6.492280
  H      2.736040   -3.373450   -5.973740
  H      3.444900   -3.040830   -7.555280
  S      3.004620   -1.096210   -6.389260
  F      4.128860   -0.329650   -6.953720
  O      1.781280   -1.000780   -7.136400
  O      2.851550   -0.783680   -4.956790
  H      5.627030   -2.524240   -6.494220
  H      5.121640   -4.143870   -6.076540
  H      4.950040   -2.848620   -4.916390

 Total Charge           Charge          ....    0
 Multiplicity           Mult            ....    1
 Number of Electrons    NEL             ....   58
 Basis Dimension        Dim             ....  113

ORBITAL ENERGIES
----------------

  NO   OCC          E(Eh)            E(eV)
   0   2.0000     -89.193282     -2427.0726
   1   2.0000     -24.861283      -676.5099
   2   2.0000     -19.210417      -522.7420
   3   2.0000     -19.197248      -522.3837
   4   2.0000     -10.319016      -280.7947
   5   2.0000     -10.284363      -279.8517
   6   2.0000      -8.255740      -224.6501
   7   2.0000      -6.229217      -169.5056
   8   2.0000      -6.222711      -169.3286
   9   2.0000      -6.221531      -169.2965
  10   2.0000      -1.425376       -38.7864
  11   2.0000      -1.183955       -32.2170
  12   2.0000      -1.077537       -29.3213
  13   2.0000      -0.906793       -24.6751
  14   2.0000      -0.796616       -21.6770
  15   2.0000      -0.748773       -20.3751
  16   2.0000      -0.656825       -17.8731
  17   2.0000      -0.637055       -17.3351
  18   2.0000      -0.609184       -16.5767
  19   2.0000      -0.566181       -15.4066
  20   2.0000      -0.543058       -14.7773
  21   2.0000      -0.518598       -14.1118
  22   2.0000      -0.498072       -13.5532
  23   2.0000      -0.478372       -13.0172
  24   2.0000      -0.464659       -12.6440
  25   2.0000      -0.441164       -12.0047
  26   2.0000      -0.392621       -10.6838
  27   2.0000      -0.380533       -10.3548
  28   2.0000      -0.364590        -9.9210
  29   0.0000       0.072639         1.9766
  30   0.0000       0.107413         2.9229
  31   0.0000       0.133836         3.6419
  32   0.0000       0.136100         3.7035
  33   0.0000       0.144057         3.9200

MULLIKEN ATOMIC CHARGES
-----------------------
   0 C :    0.016928
   1 C :   -0.126084
   2 H :    0.090300
   3 H :    0.062388
   4 S :    0.947447
   5 F :   -0.202874
   6 O :   -0.427354
   7 O :   -0.471874
   8 H :    0.026664
   9 H :    0.038217
  10 H :    0.046242
Sum of atomic charges:   -0.0000000

LOEWDIN ATOMIC CHARGES
----------------------
   0 C :   -0.059497
   1 C :   -0.147237
   2 H :    0.053175
   3 H :    0.035203
   4 S :    1.178542
   5 F :   -0.150854
   6 O :   -0.482002
   7 O :   -0.525132
   8 H :    0.026333
   9 H :    0.037377
  10 H :    0.034092

  Mayer bond orders larger than 0.100000
B(  0-C ,  1-C ) :   1.0499 B(  0-C ,  8-H ) :   0.9734 B(  0-C ,  9-H ) :   0.9631
B(  0-C , 10-H ) :   0.9707 B(  1-C ,  2-H ) :   0.9370 B(  1-C ,  3-H ) :   0.9352
B(  1-C ,  4-S ) :   0.9289 B(  4-S ,  5-F ) :   0.9857 B(  4-S ,  6-O ) :   1.8009
B(  4-S ,  7-O ) :   1.7564

FINAL SINGLE POINT ENERGY      -727.125673085227

DIPOLE MOMENT
-------------
                                X             Y             Z
Electronic contribution:     -2.99963       8.21753      -1.76301
Nuclear contribution   :      4.18919      -9.36357       1.23251
                        -----------------------------------------
Total Dipole Moment    :      1.18956      -1.14603      -0.53050
                        -----------------------------------------
Magnitude (a.u.)       :      1.73490
Magnitude (Debye)      :      4.40977

Rotational constants in cm-1:     0.153152     0.082513     0.079874
Rotational constants in MHz :  4591.373714  2473.673397  2394.575279

                             ****ORCA TERMINATED NORMALLY****
TOTAL RUN TIME: 0 days 0 hours 0 minutes 13 seconds 146 msec
