                         Program Version 5.0.0 -  RELEASE  -
|  1> !CAM-B3LYP RIJCOSX def2-SVP def2/J TightSCF
|  2> *xyz 0 1
|  3> C          4.49059        1.15590       -2.46929
|  4> C          4.30539        1.22276       -3.90832
|  5> C          4.63192        2.24637       -4.67096
|  6> N          4.54169        2.14399       -5.98714
|  7> N          5.08409        3.39358       -4.11855
|  8> H          4.92067        3.57050       -3.13587
|  9> H          5.25465        4.19739       -4.70696
| 10> H          3.82453        0.44911       -4.35093
| 11> H          4.34337        1.24932       -6.41665
| 12> H          4.67671        2.95662       -6.57411
| 13> C          5.94213        0.93950       -2.03689
| 14> H          3.86431        0.32853       -2.13661
| 15> H          4.07623        2.04999       -1.98901
| 16> H          6.32982        0.06401       -2.51451
| 17> H          5.98308        0.81426       -0.97504
| 18> H          6.52865        1.78889       -2.31873
| 19> *
| 20>
| 21> %MaxCore 64000
| 22>
| 23> %pal nprocs 4
| 24> end
| 25>
| 26> %scf
| 27>   MaxIter 150
| 28> end
| 29>
| 30>
| 31>                          ****END OF INPUT****

CARTESIAN COORDINATES (ANGSTROEM)
---------------------------------
  C      4.490590    1.155900   -2.469290
  C      4.305390    1.222760   -3.908320
  C      4.631920    2.246370   -4.670960
  N      4.541690    2.143990   -5.987140
  N      5.084090    3.393580   -4.118550
  H      4.920670    3.570500   -3.135870
  H      5.254650    4.197390   -4.706960
  H      3.824530    0.449110   -4.350930
  H      4.343370    1.249320   -6.416650
  H      4.676710    2.956620   -6.574110
  C      5.942130    0.939500   -2.036890
  H      3.864310    0.328530   -2.136610
  H      4.076230    2.049990   -1.989010
  H      6.329820    0.064010   -2.514510
  H      5.983080    0.814260   -0.975040
  H      6.528650    1.788890   -2.318730

 Total Charge           Charge          ....    0
 Multiplicity           Mult            ....    1
 Number of Electrons    NEL             ....   48
 Basis Dimension        Dim             ....  134

ORBITAL ENERGIES
----------------

  NO   OCC          E(Eh)            E(eV)
   0   2.0000     -14.395481      -391.7209
   1   2.0000     -14.393455      -391.6658
   2   2.0000     -10.294328      -280.1229
   3   2.0000     -10.224524      -278.2234
   4   2.0000     -10.216507      -278.0053
   5   2.0000     -10.166666      -276.6491
   6   2.0000      -1.024951       -27.8903
   7   2.0000      -0.932474       -25.3739
   8   2.0000      -0.838972       -22.8296
   9   2.0000      -0.759276       -20.6609
  10   2.0000      -0.681708       -18.5502
  11   2.0000      -0.640716       -17.4348
  12   2.0000      -0.604577       -16.4514
  13   2.0000      -0.570167       -15.5150
  14   2.0000      -0.535427       -14.5697
  15   2.0000      -0.498257       -13.5583
  16   2.0000      -0.482801       -13.1377
  17   2.0000      -0.450644       -12.2626
  18   2.0000      -0.444377       -12.0921
  19   2.0000      -0.408607       -11.1188
  20   2.0000      -0.385453       -10.4887
  21   2.0000      -0.373331       -10.1589
  22   2.0000      -0.320156        -8.7119
  23   2.0000      -0.205683        -5.5969
  24   0.0000       0.087367         2.3774
  25   0.0000       0.118003         3.2110
  26   0.0000       0.133822         3.6415
  27   0.0000       0.149310         4.0629
  28   0.0000       0.155172         4.2224

MULLIKEN ATOMIC CHARGES
-----------------------
   0 C :    0.055507
   1 C :   -0.193649
   2 C :   -0.036907
   3 N :   -0.044039
   4 N :   -0.081001
   5 H :    0.119055
   6 H :    0.097025
   7 H :   -0.109231
   8 H :    0.117696
   9 H :    0.095809
  10 C :    0.068692
  11 H :   -0.023436
  12 H :   -0.032044
  13 H :   -0.008031
  14 H :   -0.013569
  15 H :   -0.011878
Sum of atomic charges:    0.0000000

LOEWDIN ATOMIC CHARGES
----------------------
   0 C :   -0.039008
   1 C :   -0.225247
   2 C :    0.033524
   3 N :   -0.022625
   4 N :   -0.032858
   5 H :    0.077402
   6 H :    0.064170
   7 H :   -0.011502
   8 H :    0.083407
   9 H :    0.064001
  10 C :   -0.053841
  11 H :    0.022517
  12 H :    0.002065
  13 H :    0.017006
  14 H :    0.010099
  15 H :    0.010889

  Mayer bond orders larger than 0.100000
B(  0-C ,  1-C ) :   1.0607 B(  0-C , 10-C ) :   1.0911 B(  0-C , 11-H ) :   0.9209
B(  0-C , 12-H ) :   0.9353 B(  1-C ,  2-C ) :   1.7011 B(  1-C ,  7-H ) :   0.9510
B(  2-C ,  3-N ) :   1.2472 B(  2-C ,  4-N ) :   1.2366 B(  3-N ,  8-H ) :   0.9410
B(  3-N ,  9-H ) :   0.9490 B(  4-N ,  5-H ) :   0.9378 B(  4-N ,  6-H ) :   0.9507
B( 10-C , 13-H ) :   0.9656 B( 10-C , 14-H ) :   0.9657 B( 10-C , 15-H ) :   0.9710

FINAL SINGLE POINT ENERGY      -267.566705686232

DIPOLE MOMENT
-------------
                                X             Y             Z
Electronic contribution:     -1.24246       2.11434      -4.25644
Nuclear contribution   :      1.23062      -1.24683       3.43056
                        -----------------------------------------
Total Dipole Moment    :     -0.01185       0.86751      -0.82588
                        -----------------------------------------
Magnitude (a.u.)       :      1.19783
Magnitude (Debye)      :      3.04464

Rotational constants in cm-1:     0.231477     0.075416     0.065327
Rotational constants in MHz :  6939.497385  2260.912204  1958.442932

                             ****ORCA TERMINATED NORMALLY****
TOTAL RUN TIME: 0 days 0 hours 0 minutes 18 seconds 596 msec
