                         Program Version 5.0.0 -  RELEASE  -
|  1> !CAM-B3LYP RIJCOSX def2-SVP def2/J TightSCF
|  2> *xyz 0 1
|  3> C          4.90646       -3.10282       -5.95484
|  4> C          3.51177       -2.80621       -6.49228
|  5> H          2.73604       -3.37345       -5.97374
|  6> H          3.44490       -3.04083       -7.55528
|  7> S          3.00462       -1.09621       -6.38926
|  8> O          4.12886       -0.32965       -6.95372
|  9> F          1.78128       -1.00078       -7.13640
| 10> O          2.85155       -0.78368       -4.95679
| 11> H          5.62703       -2.52424       -6.49422
| 12> H          5.12164       -4.14387       -6.07654
| 13> H          4.95004       -2.84862       -4.91639
| 14> *
| 15>
| 16> %MaxCore 64000
| 17>
| 18> %pal nprocs 4
| 19> end
| 20>
| 21> %scf
| 22>   MaxIter 150
| 23> end
| 24>
| 25>
| 26>                          ****END OF INPUT****

CARTESIAN COORDINATES (ANGSTROEM)
---------------------------------
  C      4.906460   -3.102820   -5.954840
  C      3.511770   -2.806210   -6.492280
  H      2.736040   -3.373450   -5.973740
  H      3.444900   -3.040830   -7.555280
  S      3.004620   -1.096210   -6.389260
  O      4.128860   -0.329650   -6.953720
  F      1.781280   -1.000780   -7.136400
  O      2.851550   -0.783680   -4.956790
  H      5.627030   -2.524240   -6.494220
  H      5.121640   -4.143870   -6.076540
  H      4.950040   -2.848620   -4.916390

 Total Charge           Charge          ....    0
 Multiplicity           Mult            ....    1
 Number of Electrons    NEL             ....   58
 Basis Dimension        Dim             ....  113

ORBITAL ENERGIES
----------------

  NO   OCC          E(Eh)            E(eV)
   0   2.0000     -89.194572     -2427.1077
   1   2.0000     -24.880201      -677.0247
   2   2.0000     -19.197205      -522.3825
   3   2.0000     -19.196759      -522.3704
   4   2.0000     -10.319880      -280.8182
   5   2.0000     -10.279003      -279.7059
   6   2.0000      -8.257182      -224.6894
   7   2.0000      -6.230722      -169.5466
   8   2.0000      -6.223954      -169.3624
   9   2.0000      -6.222854      -169.3325
  10   2.0000      -1.457390       -39.6576
  11   2.0000      -1.169868       -31.8337
  12   2.0000      -1.062866       -28.9221
  13   2.0000      -0.903229       -24.5781
  14   2.0000      -0.811032       -22.0693
  15   2.0000      -0.750987       -20.4354
  16   2.0000      -0.660527       -17.9738
  17   2.0000      -0.660349       -17.9690
  18   2.0000      -0.620825       -16.8935
  19   2.0000      -0.567596       -15.4451
  20   2.0000      -0.542978       -14.7752
  21   2.0000      -0.499723       -13.5982
  22   2.0000      -0.494217       -13.4483
  23   2.0000      -0.475862       -12.9489
  24   2.0000      -0.454390       -12.3646
  25   2.0000      -0.436463       -11.8768
  26   2.0000      -0.379338       -10.3223
  27   2.0000      -0.378158       -10.2902
  28   2.0000      -0.352550        -9.5934
  29   0.0000       0.086713         2.3596
  30   0.0000       0.092804         2.5253
  31   0.0000       0.128583         3.4989
  32   0.0000       0.134072         3.6483
  33   0.0000       0.143975         3.9178

MULLIKEN ATOMIC CHARGES
-----------------------
   0 C :    0.032960
   1 C :   -0.117948
   2 H :    0.061411
   3 H :    0.054659
   4 S :    0.940310
   5 O :   -0.468528
   6 F :   -0.163586
   7 O :   -0.468358
   8 H :    0.048425
   9 H :    0.034416
  10 H :    0.046240
Sum of atomic charges:   -0.0000000

LOEWDIN ATOMIC CHARGES
----------------------
   0 C :   -0.044317
   1 C :   -0.148985
   2 H :    0.034836
   3 H :    0.031947
   4 S :    1.172768
   5 O :   -0.519967
   6 F :   -0.113245
   7 O :   -0.522113
   8 H :    0.036356
   9 H :    0.036332
  10 H :    0.036388

  Mayer bond orders larger than 0.100000
B(  0-C ,  1-C ) :   1.0729 B(  0-C ,  8-H ) :   0.9687 B(  0-C ,  9-H ) :   0.9636
B(  0-C , 10-H ) :   0.9716 B(  1-C ,  2-H ) :   0.9320 B(  1-C ,  3-H ) :   0.9302
B(  1-C ,  4-S ) :   0.9265 B(  4-S ,  5-O ) :   1.7476 B(  4-S ,  6-F ) :   1.0340
B(  4-S ,  7-O ) :   1.7533

FINAL SINGLE POINT ENERGY      -727.109023397236

DIPOLE MOMENT
-------------
                                X             Y             Z
Electronic contribution:     -7.00937       7.09041      -2.07911
Nuclear contribution   :      6.63544      -8.66423       1.42287
                        -----------------------------------------
Total Dipole Moment    :     -0.37393      -1.57382      -0.65624
                        -----------------------------------------
Magnitude (a.u.)       :      1.74568
Magnitude (Debye)      :      4.43716

Rotational constants in cm-1:     0.158118     0.080978     0.078216
Rotational constants in MHz :  4740.271775  2427.649826  2344.849020

                             ****ORCA TERMINATED NORMALLY****
TOTAL RUN TIME: 0 days 0 hours 0 minutes 13 seconds 248 msec
