                         Program Version 5.0.0 -  RELEASE  -
|  1> !CAM-B3LYP RIJCOSX def2-SVP def2/J TightSCF
|  2> *xyz 0 1
|  3> C          4.49059        1.15590       -2.46929
|  4> N          4.30539        1.22276       -3.90832
|  5> C          4.63192        2.24637       -4.67096
|  6> C          4.54169        2.14399       -5.98714
|  7> N          5.08409        3.39358       -4.11855
|  8> H          4.92067        3.57050       -3.13587
|  9> H          5.25465        4.19739       -4.70696
| 10> H          3.82453        0.44911       -4.35093
| 11> H          4.34337        1.24932       -6.41665
| 12> H          4.67671        2.95662       -6.57411
| 13> C          5.94213        0.93950       -2.03689
| 14> H          3.86431        0.32853       -2.13661
| 15> H          4.07623        2.04999       -1.98901
| 16> H          6.32982        0.06401       -2.51451
| 17> H          5.98308        0.81426       -0.97504
| 18> H          6.52865        1.78889       -2.31873
| 19> *
| 20>
| 21> %MaxCore 64000
| 22>
| 23> %pal nprocs 4
| 24> end
| 25>
| 26> %scf
| 27>   MaxIter 150
| 28> end
| 29>
| 30>
| 31>                          ****END OF INPUT****

CARTESIAN COORDINATES (ANGSTROEM)
---------------------------------
  C      4.490590    1.155900   -2.469290
  N      4.305390    1.222760   -3.908320
  C      4.631920    2.246370   -4.670960
  C      4.541690    2.143990   -5.987140
  N      5.084090    3.393580   -4.118550
  H      4.920670    3.570500   -3.135870
  H      5.254650    4.197390   -4.706960
  H      3.824530    0.449110   -4.350930
  H      4.343370    1.249320   -6.416650
  H      4.676710    2.956620   -6.574110
  C      5.942130    0.939500   -2.036890
  H      3.864310    0.328530   -2.136610
  H      4.076230    2.049990   -1.989010
  H      6.329820    0.064010   -2.514510
  H      5.983080    0.814260   -0.975040
  H      6.528650    1.788890   -2.318730

 Total Charge           Charge          ....    0
 Multiplicity           Mult            ....    1
 Number of Electrons    NEL             ....   48
 Basis Dimension        Dim             ....  134

ORBITAL ENERGIES
----------------

  NO   OCC          E(Eh)            E(eV)
   0   2.0000     -14.394472      -391.6935
   1   2.0000     -14.394272      -391.6880
   2   2.0000     -10.296886      -280.1925
   3   2.0000     -10.295950      -280.1670
   4   2.0000     -10.245212      -278.7864
   5   2.0000     -10.161909      -276.5196
   6   2.0000      -1.035372       -28.1739
   7   2.0000      -0.946127       -25.7454
   8   2.0000      -0.841136       -22.8885
   9   2.0000      -0.768510       -20.9122
  10   2.0000      -0.697962       -18.9925
  11   2.0000      -0.662325       -18.0228
  12   2.0000      -0.599493       -16.3130
  13   2.0000      -0.562479       -15.3058
  14   2.0000      -0.542681       -14.7671
  15   2.0000      -0.512953       -13.9582
  16   2.0000      -0.487638       -13.2693
  17   2.0000      -0.465057       -12.6549
  18   2.0000      -0.442335       -12.0365
  19   2.0000      -0.435988       -11.8638
  20   2.0000      -0.420436       -11.4406
  21   2.0000      -0.414375       -11.2757
  22   2.0000      -0.310261        -8.4426
  23   2.0000      -0.210813        -5.7365
  24   0.0000       0.086037         2.3412
  25   0.0000       0.112891         3.0719
  26   0.0000       0.128475         3.4960
  27   0.0000       0.146188         3.9780
  28   0.0000       0.160609         4.3704

MULLIKEN ATOMIC CHARGES
-----------------------
   0 C :    0.052236
   1 N :   -0.123703
   2 C :   -0.032576
   3 C :   -0.070079
   4 N :   -0.088866
   5 H :    0.100888
   6 H :    0.117827
   7 H :    0.119247
   8 H :   -0.074208
   9 H :   -0.074776
  10 C :    0.049429
  11 H :    0.002822
  12 H :    0.000391
  13 H :    0.010749
  14 H :    0.003446
  15 H :    0.007171
Sum of atomic charges:   -0.0000000

LOEWDIN ATOMIC CHARGES
----------------------
   0 C :    0.028575
   1 N :   -0.026927
   2 C :    0.043429
   3 C :   -0.255071
   4 N :   -0.032060
   5 H :    0.061925
   6 H :    0.082255
   7 H :    0.085178
   8 H :   -0.010880
   9 H :   -0.011135
  10 C :   -0.061876
  11 H :    0.023942
  12 H :    0.008913
  13 H :    0.023362
  14 H :    0.021145
  15 H :    0.019225

  Mayer bond orders larger than 0.100000
B(  0-C ,  1-N ) :   1.0290 B(  0-C , 10-C ) :   1.0841 B(  0-C , 11-H ) :   0.9549
B(  0-C , 12-H ) :   0.9520 B(  1-N ,  2-C ) :   1.2004 B(  1-N ,  7-H ) :   0.9323
B(  2-C ,  3-C ) :   1.7724 B(  2-C ,  4-N ) :   1.2092 B(  3-C ,  8-H ) :   0.9298
B(  3-C ,  9-H ) :   0.9301 B(  4-N ,  5-H ) :   0.9490 B(  4-N ,  6-H ) :   0.9452
B( 10-C , 13-H ) :   0.9653 B( 10-C , 14-H ) :   0.9629 B( 10-C , 15-H ) :   0.9655

FINAL SINGLE POINT ENERGY      -267.561494903608

DIPOLE MOMENT
-------------
                                X             Y             Z
Electronic contribution:     -1.43898       1.13562      -1.93027
Nuclear contribution   :      1.28075      -1.05140       2.98955
                        -----------------------------------------
Total Dipole Moment    :     -0.15823       0.08422       1.05928
                        -----------------------------------------
Magnitude (a.u.)       :      1.07434
Magnitude (Debye)      :      2.73076

Rotational constants in cm-1:     0.229858     0.078444     0.067377
Rotational constants in MHz :  6890.979812  2351.691803  2019.910665

                             ****ORCA TERMINATED NORMALLY****
TOTAL RUN TIME: 0 days 0 hours 0 minutes 19 seconds 83 msec
