                         Program Version 5.0.0 -  RELEASE  -
|  1> !CAM-B3LYP RIJCOSX def2-SVP def2/J TightSCF
|  2> *xyz 0 1
|  3> C          4.90646       -3.10282       -5.95484
|  4> C          3.51177       -2.80621       -6.49228
|  5> H          2.73604       -3.37345       -5.97374
|  6> H          3.44490       -3.04083       -7.55528
|  7> S          3.00462       -1.09621       -6.38926
|  8> O          4.12886       -0.32965       -6.95372
|  9> O          1.78128       -1.00078       -7.13640
| 10> F          2.85155       -0.78368       -4.95679
| 11> H          5.62703       -2.52424       -6.49422
| 12> H          5.12164       -4.14387       -6.07654
| 13> H          4.95004       -2.84862       -4.91639
| 14> *
| 15>
| 16> %MaxCore 64000
| 17>
| 18> %pal nprocs 4
| 19> end
| 20>
| 21> %scf
| 22>   MaxIter 150
| 23> end
| 24>
| 25>
| 26>                          ****END OF INPUT****

CARTESIAN COORDINATES (ANGSTROEM)
---------------------------------
  C      4.906460   -3.102820   -5.954840
  C      3.511770   -2.806210   -6.492280
  H      2.736040   -3.373450   -5.973740
  H      3.444900   -3.040830   -7.555280
  S      3.004620   -1.096210   -6.389260
  O      4.128860   -0.329650   -6.953720
  O      1.781280   -1.000780   -7.136400
  F      2.851550   -0.783680   -4.956790
  H      5.627030   -2.524240   -6.494220
  H      5.121640   -4.143870   -6.076540
  H      4.950040   -2.848620   -4.916390

 Total Charge           Charge          ....    0
 Multiplicity           Mult            ....    1
 Number of Electrons    NEL             ....   58
 Basis Dimension        Dim             ....  113

ORBITAL ENERGIES
----------------

  NO   OCC          E(Eh)            E(eV)
   0   2.0000     -89.193630     -2427.0821
   1   2.0000     -24.860587      -676.4910
   2   2.0000     -19.210742      -522.7509
   3   2.0000     -19.198338      -522.4133
   4   2.0000     -10.318920      -280.7921
   5   2.0000     -10.281066      -279.7620
   6   2.0000      -8.256053      -224.6586
   7   2.0000      -6.229475      -169.5126
   8   2.0000      -6.223033      -169.3373
   9   2.0000      -6.221906      -169.3067
  10   2.0000      -1.424204       -38.7546
  11   2.0000      -1.184338       -32.2275
  12   2.0000      -1.079674       -29.3794
  13   2.0000      -0.904293       -24.6071
  14   2.0000      -0.795850       -21.6562
  15   2.0000      -0.747479       -20.3399
  16   2.0000      -0.653800       -17.7908
  17   2.0000      -0.635760       -17.2999
  18   2.0000      -0.611448       -16.6383
  19   2.0000      -0.564369       -15.3573
  20   2.0000      -0.545598       -14.8465
  21   2.0000      -0.518416       -14.1068
  22   2.0000      -0.495336       -13.4788
  23   2.0000      -0.474033       -12.8991
  24   2.0000      -0.464885       -12.6502
  25   2.0000      -0.439325       -11.9546
  26   2.0000      -0.392988       -10.6938
  27   2.0000      -0.381546       -10.3824
  28   2.0000      -0.366524        -9.9736
  29   0.0000       0.074316         2.0222
  30   0.0000       0.103075         2.8048
  31   0.0000       0.132105         3.5948
  32   0.0000       0.137415         3.7392
  33   0.0000       0.142947         3.8898

MULLIKEN ATOMIC CHARGES
-----------------------
   0 C :    0.022307
   1 C :   -0.127888
   2 H :    0.060064
   3 H :    0.088892
   4 S :    0.948942
   5 O :   -0.471946
   6 O :   -0.428653
   7 F :   -0.202769
   8 H :    0.051145
   9 H :    0.034532
  10 H :    0.025375
Sum of atomic charges:   -0.0000000

LOEWDIN ATOMIC CHARGES
----------------------
   0 C :   -0.057681
   1 C :   -0.147803
   2 H :    0.033680
   3 H :    0.052756
   4 S :    1.178386
   5 O :   -0.522301
   6 O :   -0.482731
   7 F :   -0.152772
   8 H :    0.035605
   9 H :    0.035872
  10 H :    0.026988

  Mayer bond orders larger than 0.100000
B(  0-C ,  1-C ) :   1.0513 B(  0-C ,  8-H ) :   0.9686 B(  0-C ,  9-H ) :   0.9621
B(  0-C , 10-H ) :   0.9741 B(  1-C ,  2-H ) :   0.9355 B(  1-C ,  3-H ) :   0.9363
B(  1-C ,  4-S ) :   0.9262 B(  4-S ,  5-O ) :   1.7523 B(  4-S ,  6-O ) :   1.8023
B(  4-S ,  7-F ) :   0.9885

FINAL SINGLE POINT ENERGY      -727.126275713481

DIPOLE MOMENT
-------------
                                X             Y             Z
Electronic contribution:     -5.18920       7.45587       1.64955
Nuclear contribution   :      5.52019      -8.89046      -0.84835
                        -----------------------------------------
Total Dipole Moment    :      0.33099      -1.43458       0.80120
                        -----------------------------------------
Magnitude (a.u.)       :      1.67616
Magnitude (Debye)      :      4.26045

Rotational constants in cm-1:     0.153332     0.082132     0.079755
Rotational constants in MHz :  4596.775407  2462.251277  2391.008596

                             ****ORCA TERMINATED NORMALLY****
TOTAL RUN TIME: 0 days 0 hours 0 minutes 13 seconds 139 msec
