                         Program Version 5.0.0 -  RELEASE  -
|  1> !CAM-B3LYP RIJCOSX def2-SVP def2/J TightSCF
|  2> *xyz 0 1
|  3> C          4.49059        1.15590       -2.46929
|  4> N          4.30539        1.22276       -3.90832
|  5> C          4.63192        2.24637       -4.67096
|  6> N          4.54169        2.14399       -5.98714
|  7> C          5.08409        3.39358       -4.11855
|  8> H          4.92067        3.57050       -3.13587
|  9> H          5.25465        4.19739       -4.70696
| 10> H          3.82453        0.44911       -4.35093
| 11> H          4.34337        1.24932       -6.41665
| 12> H          4.67671        2.95662       -6.57411
| 13> C          5.94213        0.93950       -2.03689
| 14> H          3.86431        0.32853       -2.13661
| 15> H          4.07623        2.04999       -1.98901
| 16> H          6.32982        0.06401       -2.51451
| 17> H          5.98308        0.81426       -0.97504
| 18> H          6.52865        1.78889       -2.31873
| 19> *
| 20>
| 21> %MaxCore 64000
| 22>
| 23> %pal nprocs 4
| 24> end
| 25>
| 26> %scf
| 27>   MaxIter 150
| 28> end
| 29>
| 30>
| 31>                          ****END OF INPUT****

CARTESIAN COORDINATES (ANGSTROEM)
---------------------------------
  C      4.490590    1.155900   -2.469290
  N      4.305390    1.222760   -3.908320
  C      4.631920    2.246370   -4.670960
  N      4.541690    2.143990   -5.987140
  C      5.084090    3.393580   -4.118550
  H      4.920670    3.570500   -3.135870
  H      5.254650    4.197390   -4.706960
  H      3.824530    0.449110   -4.350930
  H      4.343370    1.249320   -6.416650
  H      4.676710    2.956620   -6.574110
  C      5.942130    0.939500   -2.036890
  H      3.864310    0.328530   -2.136610
  H      4.076230    2.049990   -1.989010
  H      6.329820    0.064010   -2.514510
  H      5.983080    0.814260   -0.975040
  H      6.528650    1.788890   -2.318730

 Total Charge           Charge          ....    0
 Multiplicity           Mult            ....    1
 Number of Electrons    NEL             ....   48
 Basis Dimension        Dim             ....  134

ORBITAL ENERGIES
----------------

  NO   OCC          E(Eh)            E(eV)
   0   2.0000     -14.398075      -391.7915
   1   2.0000     -14.396870      -391.7587
   2   2.0000     -10.299866      -280.2736
   3   2.0000     -10.286328      -279.9052
   4   2.0000     -10.233686      -278.4728
   5   2.0000     -10.160062      -276.4694
   6   2.0000      -1.038771       -28.2664
   7   2.0000      -0.953217       -25.9384
   8   2.0000      -0.820977       -22.3399
   9   2.0000      -0.771869       -21.0036
  10   2.0000      -0.706968       -19.2376
  11   2.0000      -0.625367       -17.0171
  12   2.0000      -0.617274       -16.7969
  13   2.0000      -0.583957       -15.8903
  14   2.0000      -0.534304       -14.5392
  15   2.0000      -0.502988       -13.6870
  16   2.0000      -0.475779       -12.9466
  17   2.0000      -0.456976       -12.4350
  18   2.0000      -0.440577       -11.9887
  19   2.0000      -0.423109       -11.5134
  20   2.0000      -0.421562       -11.4713
  21   2.0000      -0.405407       -11.0317
  22   2.0000      -0.306143        -8.3306
  23   2.0000      -0.209791        -5.7087
  24   0.0000       0.087530         2.3818
  25   0.0000       0.115945         3.1550
  26   0.0000       0.130254         3.5444
  27   0.0000       0.145569         3.9611
  28   0.0000       0.162728         4.4281

MULLIKEN ATOMIC CHARGES
-----------------------
   0 C :    0.079169
   1 N :   -0.138316
   2 C :   -0.043935
   3 N :   -0.060979
   4 C :   -0.091440
   5 H :   -0.058341
   6 H :   -0.081913
   7 H :    0.095838
   8 H :    0.096935
   9 H :    0.123554
  10 C :    0.046692
  11 H :   -0.006675
  12 H :    0.017651
  13 H :   -0.003729
  14 H :    0.001245
  15 H :    0.024245
Sum of atomic charges:    0.0000000

LOEWDIN ATOMIC CHARGES
----------------------
   0 C :    0.042023
   1 N :   -0.026339
   2 C :    0.041800
   3 N :   -0.019263
   4 C :   -0.274149
   5 H :   -0.011025
   6 H :   -0.014104
   7 H :    0.065925
   8 H :    0.064297
   9 H :    0.084872
  10 C :   -0.058279
  11 H :    0.018689
  12 H :    0.019613
  13 H :    0.017277
  14 H :    0.020928
  15 H :    0.027733

  Mayer bond orders larger than 0.100000
B(  0-C ,  1-N ) :   1.0163 B(  0-C , 10-C ) :   1.1002 B(  0-C , 11-H ) :   0.9566
B(  0-C , 12-H ) :   0.9458 B(  1-N ,  2-C ) :   1.1938 B(  1-N ,  7-H ) :   0.9389
B(  2-C ,  3-N ) :   1.2407 B(  2-C ,  4-C ) :   1.7381 B(  3-N ,  8-H ) :   0.9514
B(  3-N ,  9-H ) :   0.9433 B(  4-C ,  5-H ) :   0.9283 B(  4-C ,  6-H ) :   0.9357
B( 10-C , 13-H ) :   0.9642 B( 10-C , 14-H ) :   0.9644 B( 10-C , 15-H ) :   0.9647

FINAL SINGLE POINT ENERGY      -267.559620826591

DIPOLE MOMENT
-------------
                                X             Y             Z
Electronic contribution:     -1.94570      -0.19073      -3.95760
Nuclear contribution   :      1.39581      -0.78630       3.38596
                        -----------------------------------------
Total Dipole Moment    :     -0.54989      -0.97703      -0.57164
                        -----------------------------------------
Magnitude (a.u.)       :      1.25847
Magnitude (Debye)      :      3.19877

Rotational constants in cm-1:     0.239249     0.075811     0.066261
Rotational constants in MHz :  7172.504830  2272.756282  1986.457543

                             ****ORCA TERMINATED NORMALLY****
TOTAL RUN TIME: 0 days 0 hours 0 minutes 19 seconds 906 msec
