                         Program Version 5.0.0 -  RELEASE  -
|  1> !CAM-B3LYP RIJCOSX def2-TZVP def2/J TightSCF xyzfile
|  2>
|  3> *xyzfile 0 1 D1.xyz
|  4>
|  5> %MaxCore 64000
|  6>
|  7> %pal nprocs 18
|  8> end
|  9>
| 10> %scf
| 11>   MaxIter 150
| 12> end
| 13>
| 14>
| 15>                          ****END OF INPUT****

CARTESIAN COORDINATES (ANGSTROEM)
---------------------------------
  C      4.490588    1.155899   -2.469290
  C      4.305394    1.222762   -3.908317
  C      4.906458   -3.102816   -5.954844
  C      3.511771   -2.806215   -6.492283
  H      2.736044   -3.373445   -5.973736
  H      3.444904   -3.040831   -7.555281
  S      3.004618   -1.096206   -6.389259
  C      4.631918    2.246365   -4.670958
  N      4.541686    2.143990   -5.987139
  N      5.084086    3.393584   -4.118545
  H      4.920675    3.570501   -3.135870
  H      5.254652    4.197390   -4.706956
  H      3.824530    0.449113   -4.350926
  H      4.343373    1.249318   -6.416646
  H      4.676712    2.956624   -6.574113
  F      4.128856   -0.329647   -6.953717
  O      1.781285   -1.000779   -7.136399
  C      5.942129    0.939500   -2.036893
  H      3.864305    0.328532   -2.136611
  H      4.076233    2.049994   -1.989010
  C      6.462677   -3.117775   -3.944671
  C      5.024977   -3.025679   -4.437625
  H      4.423321   -3.818693   -3.977648
  H      4.579350   -2.087131   -4.108727
  H      5.201533   -4.100207   -6.296905
  H      5.605922   -2.397822   -6.413368
  C      6.559957   -0.356290   -2.559086
  H      5.967976    0.952567   -0.942444
  H      6.547184    1.788331   -2.368849
  C      6.006283   -1.615917   -1.899301
  H      7.642360   -0.318000   -2.402059
  H      6.414855   -0.403433   -3.642587
  C      6.608718   -2.917014   -2.435655
  H      6.190324   -1.561115   -0.820948
  H      4.919250   -1.651245   -2.016586
  H      7.066975   -2.374258   -4.475514
  H      6.887808   -4.089747   -4.215332
  H      6.135197   -3.755573   -1.915159
  H      7.671142   -2.955503   -2.172291
  O      2.851546   -0.783683   -4.956789

 Total Charge           Charge          ....    0
 Multiplicity           Mult            ....    1
 Number of Electrons    NEL             ....  144
 Basis Dimension        Dim             ....  671

ORBITAL ENERGIES
----------------

  NO   OCC          E(Eh)            E(eV)
   0   2.0000     -89.185714     -2426.8666
   1   2.0000     -24.884004      -677.1282
   2   2.0000     -19.221946      -523.0557
   3   2.0000     -19.208227      -522.6824
   4   2.0000     -14.374410      -391.1476
   5   2.0000     -14.370189      -391.0327
   6   2.0000     -10.309765      -280.5430
   7   2.0000     -10.272884      -279.5394
   8   2.0000     -10.269959      -279.4598
   9   2.0000     -10.241565      -278.6872
  10   2.0000     -10.236991      -278.5627
  11   2.0000     -10.230453      -278.3848
  12   2.0000     -10.220977      -278.1269
  13   2.0000     -10.213892      -277.9341
  14   2.0000     -10.208538      -277.7884
  15   2.0000     -10.201313      -277.5918
  16   2.0000     -10.132369      -275.7158
  17   2.0000      -8.230017      -223.9501
  18   2.0000      -6.198180      -168.6611
  19   2.0000      -6.191055      -168.4672
  20   2.0000      -6.190911      -168.4632
  21   2.0000      -1.466301       -39.9001
  22   2.0000      -1.203459       -32.7478
  23   2.0000      -1.105057       -30.0701
  24   2.0000      -1.029408       -28.0116
  25   2.0000      -0.939549       -25.5664
  26   2.0000      -0.928368       -25.2622
  27   2.0000      -0.889529       -24.2053
  28   2.0000      -0.860101       -23.4045
  29   2.0000      -0.834101       -22.6971
  30   2.0000      -0.807398       -21.9704
  31   2.0000      -0.782126       -21.2827
  32   2.0000      -0.750525       -20.4228
  33   2.0000      -0.718902       -19.5623
  34   2.0000      -0.693922       -18.8826
  35   2.0000      -0.687021       -18.6948
  36   2.0000      -0.670853       -18.2548
  37   2.0000      -0.658619       -17.9219
  38   2.0000      -0.636448       -17.3186
  39   2.0000      -0.633993       -17.2518
  40   2.0000      -0.616248       -16.7690
  41   2.0000      -0.597937       -16.2707
  42   2.0000      -0.572421       -15.5764
  43   2.0000      -0.564191       -15.3524
  44   2.0000      -0.557432       -15.1685
  45   2.0000      -0.544098       -14.8057
  46   2.0000      -0.532562       -14.4917
  47   2.0000      -0.522860       -14.2278
  48   2.0000      -0.520281       -14.1576
  49   2.0000      -0.517435       -14.0801
  50   2.0000      -0.495206       -13.4752
  51   2.0000      -0.487691       -13.2708
  52   2.0000      -0.485257       -13.2045
  53   2.0000      -0.474603       -12.9146
  54   2.0000      -0.459651       -12.5077
  55   2.0000      -0.448937       -12.2162
  56   2.0000      -0.448037       -12.1917
  57   2.0000      -0.436389       -11.8748
  58   2.0000      -0.433064       -11.7843
  59   2.0000      -0.419027       -11.4023
  60   2.0000      -0.416059       -11.3215
  61   2.0000      -0.408492       -11.1156
  62   2.0000      -0.402472       -10.9518
  63   2.0000      -0.387641       -10.5483
  64   2.0000      -0.385158       -10.4807
  65   2.0000      -0.379273       -10.3205
  66   2.0000      -0.371215       -10.1013
  67   2.0000      -0.361970        -9.8497
  68   2.0000      -0.355004        -9.6602
  69   2.0000      -0.339564        -9.2400
  70   2.0000      -0.317171        -8.6306
  71   2.0000      -0.200321        -5.4510
  72   0.0000       0.043795         1.1917
  73   0.0000       0.067798         1.8449
  74   0.0000       0.075531         2.0553
  75   0.0000       0.083407         2.2696
  76   0.0000       0.084048         2.2871

MULLIKEN ATOMIC CHARGES
-----------------------
   0 C :   -0.343171
   1 C :   -0.340862
   2 C :   -0.233032
   3 C :   -0.240468
   4 H :    0.167406
   5 H :    0.165627
   6 S :    0.867479
   7 C :    0.356681
   8 N :   -0.474412
   9 N :   -0.483401
  10 H :    0.238247
  11 H :    0.203213
  12 H :    0.129803
  13 H :    0.230122
  14 H :    0.205197
  15 F :   -0.148903
  16 O :   -0.397375
  17 C :   -0.121600
  18 H :    0.108503
  19 H :    0.089437
  20 C :   -0.221348
  21 C :   -0.273619
  22 H :    0.101394
  23 H :    0.166842
  24 H :    0.126313
  25 H :    0.129262
  26 C :   -0.177046
  27 H :    0.076640
  28 H :    0.094826
  29 C :   -0.262804
  30 H :    0.092507
  31 H :    0.108210
  32 C :   -0.159966
  33 H :    0.100800
  34 H :    0.122242
  35 H :    0.116605
  36 H :    0.102470
  37 H :    0.099792
  38 H :    0.102346
  39 O :   -0.423956
Sum of atomic charges:   -0.0000000

LOEWDIN ATOMIC CHARGES
----------------------
   0 C :   -0.284969
   1 C :   -0.287061
   2 C :   -0.285475
   3 C :   -0.358585
   4 H :    0.155315
   5 H :    0.143838
   6 S :    0.570243
   7 C :   -0.457890
   8 N :   -0.026181
   9 N :   -0.027825
  10 H :    0.171910
  11 H :    0.156135
  12 H :    0.108633
  13 H :    0.148635
  14 H :    0.157935
  15 F :    0.071301
  16 O :   -0.254790
  17 C :   -0.263909
  18 H :    0.141405
  19 H :    0.124926
  20 C :   -0.270440
  21 C :   -0.271660
  22 H :    0.137422
  23 H :    0.144798
  24 H :    0.145296
  25 H :    0.139865
  26 C :   -0.266697
  27 H :    0.127749
  28 H :    0.131966
  29 C :   -0.269363
  30 H :    0.131894
  31 H :    0.135562
  32 C :   -0.267069
  33 H :    0.134876
  34 H :    0.134143
  35 H :    0.135577
  36 H :    0.133232
  37 H :    0.134243
  38 H :    0.135330
  39 O :   -0.260315

  Mayer bond orders larger than 0.100000
B(  0-C ,  1-C ) :   0.9639 B(  0-C , 17-C ) :   0.9209 B(  0-C , 18-H ) :   1.0158
B(  0-C , 19-H ) :   0.9963 B(  1-C ,  7-C ) :   1.6313 B(  1-C , 12-H ) :   0.9750
B(  2-C ,  3-C ) :   0.9332 B(  2-C , 21-C ) :   0.9181 B(  2-C , 24-H ) :   0.9652
B(  2-C , 25-H ) :   0.9857 B(  3-C ,  4-H ) :   0.9458 B(  3-C ,  5-H ) :   0.9616
B(  3-C ,  6-S ) :   0.9139 B(  6-S , 15-F ) :   1.0410 B(  6-S , 16-O ) :   1.9980
B(  6-S , 39-O ) :   1.8318 B(  7-C ,  8-N ) :   1.1421 B(  7-C ,  9-N ) :   1.1254
B(  8-N , 13-H ) :   0.9115 B(  8-N , 14-H ) :   0.9318 B(  9-N , 10-H ) :   0.9185
B(  9-N , 11-H ) :   0.9366 B( 17-C , 26-C ) :   0.9720 B( 17-C , 27-H ) :   0.9827
B( 17-C , 28-H ) :   0.9742 B( 20-C , 21-C ) :   0.9356 B( 20-C , 32-C ) :   0.9586
B( 20-C , 35-H ) :   0.9844 B( 20-C , 36-H ) :   0.9797 B( 21-C , 22-H ) :   0.9693
B( 21-C , 23-H ) :   0.9769 B( 26-C , 29-C ) :   0.9267 B( 26-C , 30-H ) :   0.9804
B( 26-C , 31-H ) :   0.9711 B( 29-C , 32-C ) :   0.9444 B( 29-C , 33-H ) :   0.9766
B( 29-C , 34-H ) :   0.9913 B( 32-C , 37-H ) :   0.9879 B( 32-C , 38-H ) :   0.9831

FINAL SINGLE POINT ENERGY     -1190.896196219466

DIPOLE MOMENT
-------------
                                X             Y             Z
Electronic contribution:    -16.31240       4.90250     -21.49364
Nuclear contribution   :     17.24138      -5.45913      20.34076
                        -----------------------------------------
Total Dipole Moment    :      0.92899      -0.55663      -1.15288
                        -----------------------------------------
Magnitude (a.u.)       :      1.58176
Magnitude (Debye)      :      4.02052

Rotational constants in cm-1:     0.014201     0.012275     0.007453
Rotational constants in MHz :   425.728191   368.008875   223.435232

                             ****ORCA TERMINATED NORMALLY****
TOTAL RUN TIME: 0 days 0 hours 2 minutes 39 seconds 247 msec
