                         Program Version 5.0.0 -  RELEASE  -
|  1> !CAM-B3LYP RIJCOSX def2-TZVP def2/J TightSCF xyzfile
|  2>
|  3> *xyzfile 0 1 D2.xyz
|  4>
|  5> %MaxCore 64000
|  6>
|  7> %pal nprocs 18
|  8> end
|  9>
| 10> %scf
| 11>   MaxIter 150
| 12> end
| 13>
| 14>
| 15>                          ****END OF INPUT****

CARTESIAN COORDINATES (ANGSTROEM)
---------------------------------
  C      4.490588    1.155899   -2.469290
  N      4.305394    1.222762   -3.908317
  C      4.906458   -3.102816   -5.954844
  C      3.511771   -2.806215   -6.492283
  H      2.736044   -3.373445   -5.973736
  H      3.444904   -3.040831   -7.555281
  S      3.004618   -1.096206   -6.389259
  C      4.631918    2.246365   -4.670958
  C      4.541686    2.143990   -5.987139
  N      5.084086    3.393584   -4.118545
  H      4.920675    3.570501   -3.135870
  H      5.254652    4.197390   -4.706956
  H      3.824530    0.449113   -4.350926
  H      4.343373    1.249318   -6.416646
  H      4.676712    2.956624   -6.574113
  F      4.128856   -0.329647   -6.953717
  O      1.781285   -1.000779   -7.136399
  C      5.942129    0.939500   -2.036893
  H      3.864305    0.328532   -2.136611
  H      4.076233    2.049994   -1.989010
  C      6.462677   -3.117775   -3.944671
  C      5.024977   -3.025679   -4.437625
  H      4.423321   -3.818693   -3.977648
  H      4.579350   -2.087131   -4.108727
  H      5.201533   -4.100207   -6.296905
  H      5.605922   -2.397822   -6.413368
  C      6.559957   -0.356290   -2.559086
  H      5.967976    0.952567   -0.942444
  H      6.547184    1.788331   -2.368849
  C      6.006283   -1.615917   -1.899301
  H      7.642360   -0.318000   -2.402059
  H      6.414855   -0.403433   -3.642587
  C      6.608718   -2.917014   -2.435655
  H      6.190324   -1.561115   -0.820948
  H      4.919250   -1.651245   -2.016586
  H      7.066975   -2.374258   -4.475514
  H      6.887808   -4.089747   -4.215332
  H      6.135197   -3.755573   -1.915159
  H      7.671142   -2.955503   -2.172291
  O      2.851546   -0.783683   -4.956789

 Total Charge           Charge          ....    0
 Multiplicity           Mult            ....    1
 Number of Electrons    NEL             ....  144
 Basis Dimension        Dim             ....  671

ORBITAL ENERGIES
----------------

  NO   OCC          E(Eh)            E(eV)
   0   2.0000     -89.189039     -2426.9571
   1   2.0000     -24.869911      -676.7447
   2   2.0000     -19.222130      -523.0608
   3   2.0000     -19.219560      -522.9908
   4   2.0000     -14.373420      -391.1206
   5   2.0000     -14.357925      -390.6990
   6   2.0000     -10.311642      -280.5940
   7   2.0000     -10.276225      -279.6303
   8   2.0000     -10.275048      -279.5983
   9   2.0000     -10.266239      -279.3586
  10   2.0000     -10.249065      -278.8912
  11   2.0000     -10.244490      -278.7667
  12   2.0000     -10.240295      -278.6526
  13   2.0000     -10.235183      -278.5135
  14   2.0000     -10.231312      -278.4081
  15   2.0000     -10.231085      -278.4020
  16   2.0000     -10.134011      -275.7605
  17   2.0000      -8.232931      -224.0294
  18   2.0000      -6.200842      -168.7335
  19   2.0000      -6.194384      -168.5578
  20   2.0000      -6.193878      -168.5440
  21   2.0000      -1.453806       -39.5601
  22   2.0000      -1.206198       -32.8223
  23   2.0000      -1.111801       -30.2536
  24   2.0000      -1.033625       -28.1264
  25   2.0000      -0.947670       -25.7874
  26   2.0000      -0.932454       -25.3734
  27   2.0000      -0.897660       -24.4266
  28   2.0000      -0.867342       -23.6016
  29   2.0000      -0.831528       -22.6270
  30   2.0000      -0.808463       -21.9994
  31   2.0000      -0.781048       -21.2534
  32   2.0000      -0.758757       -20.6468
  33   2.0000      -0.726699       -19.7745
  34   2.0000      -0.702924       -19.1275
  35   2.0000      -0.678475       -18.4623
  36   2.0000      -0.669064       -18.2062
  37   2.0000      -0.660378       -17.9698
  38   2.0000      -0.655524       -17.8377
  39   2.0000      -0.633049       -17.2261
  40   2.0000      -0.628414       -17.1000
  41   2.0000      -0.589305       -16.0358
  42   2.0000      -0.574374       -15.6295
  43   2.0000      -0.563318       -15.3287
  44   2.0000      -0.554757       -15.0957
  45   2.0000      -0.550990       -14.9932
  46   2.0000      -0.538292       -14.6477
  47   2.0000      -0.535555       -14.5732
  48   2.0000      -0.529236       -14.4012
  49   2.0000      -0.511299       -13.9132
  50   2.0000      -0.506101       -13.7717
  51   2.0000      -0.501280       -13.6405
  52   2.0000      -0.490675       -13.3520
  53   2.0000      -0.469304       -12.7704
  54   2.0000      -0.461861       -12.5679
  55   2.0000      -0.461150       -12.5485
  56   2.0000      -0.449611       -12.2345
  57   2.0000      -0.440925       -11.9982
  58   2.0000      -0.435662       -11.8550
  59   2.0000      -0.429424       -11.6852
  60   2.0000      -0.423939       -11.5360
  61   2.0000      -0.417765       -11.3680
  62   2.0000      -0.409508       -11.1433
  63   2.0000      -0.406760       -11.0685
  64   2.0000      -0.398817       -10.8524
  65   2.0000      -0.392920       -10.6919
  66   2.0000      -0.389575       -10.6009
  67   2.0000      -0.378463       -10.2985
  68   2.0000      -0.376453       -10.2438
  69   2.0000      -0.371766       -10.1163
  70   2.0000      -0.301178        -8.1955
  71   2.0000      -0.206173        -5.6102
  72   0.0000       0.046573         1.2673
  73   0.0000       0.071126         1.9354
  74   0.0000       0.072602         1.9756
  75   0.0000       0.078913         2.1473
  76   0.0000       0.082606         2.2478

MULLIKEN ATOMIC CHARGES
-----------------------
   0 C :   -0.269739
   1 N :   -0.291093
   2 C :   -0.236199
   3 C :   -0.244075
   4 H :    0.165756
   5 H :    0.169876
   6 S :    0.896424
   7 C :    0.428040
   8 C :   -0.595687
   9 N :   -0.491007
  10 H :    0.220260
  11 H :    0.227405
  12 H :    0.224700
  13 H :    0.078686
  14 H :    0.082586
  15 F :   -0.113901
  16 O :   -0.394836
  17 C :   -0.107627
  18 H :    0.140497
  19 H :    0.119434
  20 C :   -0.226799
  21 C :   -0.261227
  22 H :    0.104274
  23 H :    0.139695
  24 H :    0.127289
  25 H :    0.138057
  26 C :   -0.225184
  27 H :    0.088381
  28 H :    0.113057
  29 C :   -0.254663
  30 H :    0.103652
  31 H :    0.120875
  32 C :   -0.164360
  33 H :    0.105320
  34 H :    0.117661
  35 H :    0.122251
  36 H :    0.106927
  37 H :    0.103909
  38 H :    0.106908
  39 O :   -0.475526
Sum of atomic charges:    0.0000000

LOEWDIN ATOMIC CHARGES
----------------------
   0 C :   -0.295092
   1 N :    0.120045
   2 C :   -0.284606
   3 C :   -0.358223
   4 H :    0.154178
   5 H :    0.145848
   6 S :    0.583756
   7 C :   -0.454931
   8 C :   -0.370860
   9 N :   -0.022788
  10 H :    0.158912
  11 H :    0.171810
  12 H :    0.163508
  13 H :    0.080419
  14 H :    0.092744
  15 F :    0.087324
  16 O :   -0.249806
  17 C :   -0.271146
  18 H :    0.135181
  19 H :    0.122820
  20 C :   -0.269684
  21 C :   -0.272604
  22 H :    0.137930
  23 H :    0.139574
  24 H :    0.145902
  25 H :    0.142321
  26 C :   -0.267154
  27 H :    0.134339
  28 H :    0.136081
  29 C :   -0.270667
  30 H :    0.136232
  31 H :    0.137957
  32 C :   -0.265813
  33 H :    0.135869
  34 H :    0.132584
  35 H :    0.136657
  36 H :    0.134952
  37 H :    0.135575
  38 H :    0.136682
  39 O :   -0.285826

  Mayer bond orders larger than 0.100000
B(  0-C ,  1-N ) :   0.9410 B(  0-C , 17-C ) :   0.8964 B(  0-C , 18-H ) :   0.9946
B(  0-C , 19-H ) :   0.9996 B(  1-N ,  7-C ) :   1.1957 B(  1-N , 12-H ) :   0.8816
B(  2-C ,  3-C ) :   0.9329 B(  2-C , 21-C ) :   0.9217 B(  2-C , 24-H ) :   0.9647
B(  2-C , 25-H ) :   0.9833 B(  3-C ,  4-H ) :   0.9462 B(  3-C ,  5-H ) :   0.9611
B(  3-C ,  6-S ) :   0.9184 B(  6-S , 15-F ) :   1.0967 B(  6-S , 16-O ) :   2.0006
B(  6-S , 39-O ) :   1.7475 B(  7-C ,  8-C ) :   1.5537 B(  7-C ,  9-N ) :   1.1109
B(  8-C , 13-H ) :   1.0430 B(  8-C , 14-H ) :   1.0008 B(  9-N , 10-H ) :   0.9245
B(  9-N , 11-H ) :   0.9310 B( 12-H , 39-O ) :   0.1025 B( 17-C , 26-C ) :   0.9555
B( 17-C , 27-H ) :   0.9755 B( 17-C , 28-H ) :   0.9736 B( 20-C , 21-C ) :   0.9336
B( 20-C , 32-C ) :   0.9543 B( 20-C , 35-H ) :   0.9859 B( 20-C , 36-H ) :   0.9793
B( 21-C , 22-H ) :   0.9689 B( 21-C , 23-H ) :   0.9799 B( 26-C , 29-C ) :   0.9256
B( 26-C , 30-H ) :   0.9776 B( 26-C , 31-H ) :   0.9745 B( 29-C , 32-C ) :   0.9485
B( 29-C , 33-H ) :   0.9758 B( 29-C , 34-H ) :   0.9899 B( 32-C , 37-H ) :   0.9876
B( 32-C , 38-H ) :   0.9836

FINAL SINGLE POINT ENERGY     -1190.903502892474

DIPOLE MOMENT
-------------
                                X             Y             Z
Electronic contribution:    -16.36999       3.96329     -19.61182
Nuclear contribution   :     17.27667      -5.32157      20.03034
                        -----------------------------------------
Total Dipole Moment    :      0.90668      -1.35828       0.41852
                        -----------------------------------------
Magnitude (a.u.)       :      1.68587
Magnitude (Debye)      :      4.28513

Rotational constants in cm-1:     0.014355     0.012269     0.007481
Rotational constants in MHz :   430.360270   367.823451   224.273399

                             ****ORCA TERMINATED NORMALLY****
TOTAL RUN TIME: 0 days 0 hours 2 minutes 56 seconds 228 msec
