                         Program Version 5.0.0 -  RELEASE  -
|  1> !CAM-B3LYP RIJCOSX def2-TZVP def2/J TightSCF xyzfile
|  2>
|  3> *xyzfile 0 1 D3.xyz
|  4>
|  5> %MaxCore 64000
|  6>
|  7> %pal nprocs 18
|  8> end
|  9>
| 10> %scf
| 11>   MaxIter 150
| 12> end
| 13>
| 14>
| 15>                          ****END OF INPUT****

CARTESIAN COORDINATES (ANGSTROEM)
---------------------------------
  C      4.490588    1.155899   -2.469290
  N      4.305394    1.222762   -3.908317
  C      4.906458   -3.102816   -5.954844
  C      3.511771   -2.806215   -6.492283
  H      2.736044   -3.373445   -5.973736
  H      3.444904   -3.040831   -7.555281
  S      3.004618   -1.096206   -6.389259
  C      4.631918    2.246365   -4.670958
  N      4.541686    2.143990   -5.987139
  C      5.084086    3.393584   -4.118545
  H      4.920675    3.570501   -3.135870
  H      5.254652    4.197390   -4.706956
  H      3.824530    0.449113   -4.350926
  H      4.343373    1.249318   -6.416646
  H      4.676712    2.956624   -6.574113
  F      4.128856   -0.329647   -6.953717
  O      1.781285   -1.000779   -7.136399
  C      5.942129    0.939500   -2.036893
  H      3.864305    0.328532   -2.136611
  H      4.076233    2.049994   -1.989010
  C      6.462677   -3.117775   -3.944671
  C      5.024977   -3.025679   -4.437625
  H      4.423321   -3.818693   -3.977648
  H      4.579350   -2.087131   -4.108727
  H      5.201533   -4.100207   -6.296905
  H      5.605922   -2.397822   -6.413368
  C      6.559957   -0.356290   -2.559086
  H      5.967976    0.952567   -0.942444
  H      6.547184    1.788331   -2.368849
  C      6.006283   -1.615917   -1.899301
  H      7.642360   -0.318000   -2.402059
  H      6.414855   -0.403433   -3.642587
  C      6.608718   -2.917014   -2.435655
  H      6.190324   -1.561115   -0.820948
  H      4.919250   -1.651245   -2.016586
  H      7.066975   -2.374258   -4.475514
  H      6.887808   -4.089747   -4.215332
  H      6.135197   -3.755573   -1.915159
  H      7.671142   -2.955503   -2.172291
  O      2.851546   -0.783683   -4.956789

 Total Charge           Charge          ....    0
 Multiplicity           Mult            ....    1
 Number of Electrons    NEL             ....  144
 Basis Dimension        Dim             ....  671

ORBITAL ENERGIES
----------------

  NO   OCC          E(Eh)            E(eV)
   0   2.0000     -89.205475     -2427.4044
   1   2.0000     -24.899726      -677.5560
   2   2.0000     -19.239005      -523.5200
   3   2.0000     -19.234949      -523.4096
   4   2.0000     -14.372002      -391.0821
   5   2.0000     -14.359696      -390.7472
   6   2.0000     -10.324187      -280.9354
   7   2.0000     -10.285233      -279.8754
   8   2.0000     -10.274792      -279.5913
   9   2.0000     -10.257504      -279.1209
  10   2.0000     -10.254729      -279.0454
  11   2.0000     -10.247654      -278.8528
  12   2.0000     -10.240669      -278.6628
  13   2.0000     -10.233070      -278.4560
  14   2.0000     -10.226921      -278.2887
  15   2.0000     -10.220872      -278.1241
  16   2.0000     -10.135245      -275.7941
  17   2.0000      -8.249764      -224.4875
  18   2.0000      -6.217930      -169.1985
  19   2.0000      -6.210991      -169.0096
  20   2.0000      -6.210489      -168.9960
  21   2.0000      -1.482383       -40.3377
  22   2.0000      -1.223263       -33.2867
  23   2.0000      -1.127635       -30.6845
  24   2.0000      -1.036599       -28.2073
  25   2.0000      -0.953949       -25.9583
  26   2.0000      -0.942677       -25.6516
  27   2.0000      -0.900241       -24.4968
  28   2.0000      -0.865445       -23.5499
  29   2.0000      -0.838676       -22.8215
  30   2.0000      -0.809505       -22.0277
  31   2.0000      -0.780136       -21.2286
  32   2.0000      -0.768196       -20.9037
  33   2.0000      -0.736920       -20.0526
  34   2.0000      -0.710121       -19.3234
  35   2.0000      -0.696808       -18.9611
  36   2.0000      -0.687012       -18.6946
  37   2.0000      -0.671077       -18.2609
  38   2.0000      -0.656537       -17.8653
  39   2.0000      -0.637470       -17.3464
  40   2.0000      -0.614450       -16.7200
  41   2.0000      -0.599285       -16.3074
  42   2.0000      -0.591415       -16.0932
  43   2.0000      -0.575283       -15.6542
  44   2.0000      -0.568411       -15.4673
  45   2.0000      -0.554709       -15.0944
  46   2.0000      -0.546742       -14.8776
  47   2.0000      -0.538455       -14.6521
  48   2.0000      -0.526925       -14.3384
  49   2.0000      -0.515610       -14.0305
  50   2.0000      -0.506478       -13.7820
  51   2.0000      -0.502406       -13.6712
  52   2.0000      -0.490838       -13.3564
  53   2.0000      -0.478219       -13.0130
  54   2.0000      -0.463449       -12.6111
  55   2.0000      -0.457526       -12.4499
  56   2.0000      -0.454293       -12.3619
  57   2.0000      -0.446067       -12.1381
  58   2.0000      -0.436172       -11.8688
  59   2.0000      -0.434447       -11.8219
  60   2.0000      -0.427085       -11.6216
  61   2.0000      -0.418215       -11.3802
  62   2.0000      -0.417078       -11.3493
  63   2.0000      -0.410242       -11.1633
  64   2.0000      -0.402126       -10.9424
  65   2.0000      -0.398747       -10.8505
  66   2.0000      -0.393754       -10.7146
  67   2.0000      -0.377179       -10.2636
  68   2.0000      -0.375789       -10.2257
  69   2.0000      -0.366529        -9.9738
  70   2.0000      -0.295427        -8.0390
  71   2.0000      -0.204416        -5.5624
  72   0.0000       0.031358         0.8533
  73   0.0000       0.062546         1.7020
  74   0.0000       0.072830         1.9818
  75   0.0000       0.073326         1.9953
  76   0.0000       0.080277         2.1845

MULLIKEN ATOMIC CHARGES
-----------------------
   0 C :   -0.215653
   1 N :   -0.301929
   2 C :   -0.241161
   3 C :   -0.239499
   4 H :    0.172219
   5 H :    0.172937
   6 S :    0.879874
   7 C :    0.377033
   8 N :   -0.483836
   9 C :   -0.562074
  10 H :    0.096581
  11 H :    0.066459
  12 H :    0.198155
  13 H :    0.208618
  14 H :    0.235509
  15 F :   -0.141632
  16 O :   -0.385357
  17 C :   -0.118497
  18 H :    0.132720
  19 H :    0.127536
  20 C :   -0.224839
  21 C :   -0.263985
  22 H :    0.106985
  23 H :    0.141867
  24 H :    0.131885
  25 H :    0.134815
  26 C :   -0.220480
  27 H :    0.088828
  28 H :    0.135539
  29 C :   -0.256451
  30 H :    0.103612
  31 H :    0.101505
  32 C :   -0.164844
  33 H :    0.106478
  34 H :    0.116430
  35 H :    0.120910
  36 H :    0.107591
  37 H :    0.103623
  38 H :    0.107847
  39 O :   -0.455317
Sum of atomic charges:   -0.0000000

LOEWDIN ATOMIC CHARGES
----------------------
   0 C :   -0.277869
   1 N :    0.115772
   2 C :   -0.284599
   3 C :   -0.356014
   4 H :    0.156712
   5 H :    0.146710
   6 S :    0.575442
   7 C :   -0.464346
   8 N :   -0.020864
   9 C :   -0.368908
  10 H :    0.095322
  11 H :    0.088886
  12 H :    0.153105
  13 H :    0.136481
  14 H :    0.175631
  15 F :    0.073842
  16 O :   -0.244275
  17 C :   -0.265709
  18 H :    0.131462
  19 H :    0.131846
  20 C :   -0.269665
  21 C :   -0.272702
  22 H :    0.138752
  23 H :    0.139880
  24 H :    0.147469
  25 H :    0.140888
  26 C :   -0.268619
  27 H :    0.134774
  28 H :    0.144304
  29 C :   -0.270982
  30 H :    0.135941
  31 H :    0.132726
  32 C :   -0.265935
  33 H :    0.136498
  34 H :    0.131815
  35 H :    0.136330
  36 H :    0.134959
  37 H :    0.135304
  38 H :    0.137119
  39 O :   -0.277484

  Mayer bond orders larger than 0.100000
B(  0-C ,  1-N ) :   0.9372 B(  0-C , 17-C ) :   0.9225 B(  0-C , 18-H ) :   0.9944
B(  0-C , 19-H ) :   0.9849 B(  1-N ,  7-C ) :   1.1803 B(  1-N , 12-H ) :   0.8884
B(  2-C ,  3-C ) :   0.9313 B(  2-C , 21-C ) :   0.9159 B(  2-C , 24-H ) :   0.9638
B(  2-C , 25-H ) :   0.9861 B(  3-C ,  4-H ) :   0.9435 B(  3-C ,  5-H ) :   0.9599
B(  3-C ,  6-S ) :   0.9154 B(  6-S , 15-F ) :   1.0555 B(  6-S , 16-O ) :   2.0065
B(  6-S , 39-O ) :   1.7703 B(  7-C ,  8-N ) :   1.1265 B(  7-C ,  9-C ) :   1.6113
B(  8-N , 13-H ) :   0.9167 B(  8-N , 14-H ) :   0.9265 B(  9-C , 10-H ) :   1.0057
B(  9-C , 11-H ) :   1.0055 B( 17-C , 26-C ) :   0.9615 B( 17-C , 27-H ) :   0.9813
B( 17-C , 28-H ) :   0.9676 B( 20-C , 21-C ) :   0.9344 B( 20-C , 32-C ) :   0.9554
B( 20-C , 35-H ) :   0.9852 B( 20-C , 36-H ) :   0.9793 B( 21-C , 22-H ) :   0.9685
B( 21-C , 23-H ) :   0.9810 B( 26-C , 29-C ) :   0.9238 B( 26-C , 30-H ) :   0.9785
B( 26-C , 31-H ) :   0.9734 B( 29-C , 32-C ) :   0.9459 B( 29-C , 33-H ) :   0.9763
B( 29-C , 34-H ) :   0.9907 B( 32-C , 37-H ) :   0.9879 B( 32-C , 38-H ) :   0.9832

FINAL SINGLE POINT ENERGY     -1190.904857074825

DIPOLE MOMENT
-------------
                                X             Y             Z
Electronic contribution:    -16.88700       2.64807     -21.37729
Nuclear contribution   :     17.35766      -5.13497      20.30937
                        -----------------------------------------
Total Dipole Moment    :      0.47067      -2.48690      -1.06792
                        -----------------------------------------
Magnitude (a.u.)       :      2.74712
Magnitude (Debye)      :      6.98262

Rotational constants in cm-1:     0.014431     0.012329     0.007535
Rotational constants in MHz :   432.628327   369.619539   225.898827

                             ****ORCA TERMINATED NORMALLY****
TOTAL RUN TIME: 0 days 0 hours 2 minutes 45 seconds 66 msec
