                         Program Version 5.0.0 -  RELEASE  -
|  1> !CAM-B3LYP RIJCOSX def2-TZVP def2/J TightSCF xyzfile
|  2>
|  3> *xyzfile 0 1 D4.xyz
|  4>
|  5> %MaxCore 64000
|  6>
|  7> %pal nprocs 18
|  8> end
|  9>
| 10> %scf
| 11>   MaxIter 150
| 12> end
| 13>
| 14>
| 15>                          ****END OF INPUT****

CARTESIAN COORDINATES (ANGSTROEM)
---------------------------------
  C      4.490588    1.155899   -2.469290
  C      4.305394    1.222762   -3.908317
  C      4.906458   -3.102816   -5.954844
  C      3.511771   -2.806215   -6.492283
  H      2.736044   -3.373445   -5.973736
  H      3.444904   -3.040831   -7.555281
  S      3.004618   -1.096206   -6.389259
  C      4.631918    2.246365   -4.670958
  N      4.541686    2.143990   -5.987139
  N      5.084086    3.393584   -4.118545
  H      4.920675    3.570501   -3.135870
  H      5.254652    4.197390   -4.706956
  H      3.824530    0.449113   -4.350926
  H      4.343373    1.249318   -6.416646
  H      4.676712    2.956624   -6.574113
  O      4.128856   -0.329647   -6.953717
  F      1.781285   -1.000779   -7.136399
  C      5.942129    0.939500   -2.036893
  H      3.864305    0.328532   -2.136611
  H      4.076233    2.049994   -1.989010
  C      6.462677   -3.117775   -3.944671
  C      5.024977   -3.025679   -4.437625
  H      4.423321   -3.818693   -3.977648
  H      4.579350   -2.087131   -4.108727
  H      5.201533   -4.100207   -6.296905
  H      5.605922   -2.397822   -6.413368
  C      6.559957   -0.356290   -2.559086
  H      5.967976    0.952567   -0.942444
  H      6.547184    1.788331   -2.368849
  C      6.006283   -1.615917   -1.899301
  H      7.642360   -0.318000   -2.402059
  H      6.414855   -0.403433   -3.642587
  C      6.608718   -2.917014   -2.435655
  H      6.190324   -1.561115   -0.820948
  H      4.919250   -1.651245   -2.016586
  H      7.066975   -2.374258   -4.475514
  H      6.887808   -4.089747   -4.215332
  H      6.135197   -3.755573   -1.915159
  H      7.671142   -2.955503   -2.172291
  O      2.851546   -0.783683   -4.956789

 Total Charge           Charge          ....    0
 Multiplicity           Mult            ....    1
 Number of Electrons    NEL             ....  144
 Basis Dimension        Dim             ....  671

ORBITAL ENERGIES
----------------

  NO   OCC          E(Eh)            E(eV)
   0   2.0000     -89.194230     -2427.0984
   1   2.0000     -24.894866      -677.4237
   2   2.0000     -19.222963      -523.0834
   3   2.0000     -19.213321      -522.8210
   4   2.0000     -14.362081      -390.8121
   5   2.0000     -14.341911      -390.2632
   6   2.0000     -10.313704      -280.6502
   7   2.0000     -10.270408      -279.4720
   8   2.0000     -10.255012      -279.0531
   9   2.0000     -10.237932      -278.5883
  10   2.0000     -10.232318      -278.4355
  11   2.0000     -10.225926      -278.2616
  12   2.0000     -10.215535      -277.9788
  13   2.0000     -10.206221      -277.7254
  14   2.0000     -10.200429      -277.5678
  15   2.0000     -10.192493      -277.3518
  16   2.0000     -10.118955      -275.3508
  17   2.0000      -8.238275      -224.1749
  18   2.0000      -6.206044      -168.8751
  19   2.0000      -6.199659      -168.7013
  20   2.0000      -6.199255      -168.6903
  21   2.0000      -1.486537       -40.4507
  22   2.0000      -1.200398       -32.6645
  23   2.0000      -1.101463       -29.9723
  24   2.0000      -1.011275       -27.5182
  25   2.0000      -0.927835       -25.2477
  26   2.0000      -0.919016       -25.0077
  27   2.0000      -0.886056       -24.1108
  28   2.0000      -0.855867       -23.2893
  29   2.0000      -0.834760       -22.7150
  30   2.0000      -0.804357       -21.8877
  31   2.0000      -0.777403       -21.1542
  32   2.0000      -0.743040       -20.2192
  33   2.0000      -0.713735       -19.4217
  34   2.0000      -0.690806       -18.7978
  35   2.0000      -0.682589       -18.5742
  36   2.0000      -0.667762       -18.1707
  37   2.0000      -0.659444       -17.9444
  38   2.0000      -0.644687       -17.5428
  39   2.0000      -0.623448       -16.9649
  40   2.0000      -0.608168       -16.5491
  41   2.0000      -0.588629       -16.0174
  42   2.0000      -0.574681       -15.6379
  43   2.0000      -0.567321       -15.4376
  44   2.0000      -0.549049       -14.9404
  45   2.0000      -0.538615       -14.6565
  46   2.0000      -0.534847       -14.5539
  47   2.0000      -0.521555       -14.1922
  48   2.0000      -0.514614       -14.0034
  49   2.0000      -0.499079       -13.5806
  50   2.0000      -0.491352       -13.3704
  51   2.0000      -0.479745       -13.0545
  52   2.0000      -0.478424       -13.0186
  53   2.0000      -0.473320       -12.8797
  54   2.0000      -0.449218       -12.2239
  55   2.0000      -0.444761       -12.1026
  56   2.0000      -0.439818       -11.9681
  57   2.0000      -0.431504       -11.7418
  58   2.0000      -0.420044       -11.4300
  59   2.0000      -0.414796       -11.2872
  60   2.0000      -0.408985       -11.1291
  61   2.0000      -0.400116       -10.8877
  62   2.0000      -0.394336       -10.7304
  63   2.0000      -0.385727       -10.4962
  64   2.0000      -0.381538       -10.3822
  65   2.0000      -0.378201       -10.2914
  66   2.0000      -0.365178        -9.9370
  67   2.0000      -0.355769        -9.6810
  68   2.0000      -0.347463        -9.4549
  69   2.0000      -0.332568        -9.0496
  70   2.0000      -0.299123        -8.1395
  71   2.0000      -0.185588        -5.0501
  72   0.0000       0.056295         1.5319
  73   0.0000       0.063039         1.7154
  74   0.0000       0.079388         2.1603
  75   0.0000       0.085054         2.3144
  76   0.0000       0.089254         2.4287

MULLIKEN ATOMIC CHARGES
-----------------------
   0 C :   -0.328359
   1 C :   -0.343969
   2 C :   -0.214179
   3 C :   -0.232811
   4 H :    0.151363
   5 H :    0.156282
   6 S :    0.893018
   7 C :    0.324154
   8 N :   -0.474462
   9 N :   -0.485355
  10 H :    0.233367
  11 H :    0.200814
  12 H :    0.155329
  13 H :    0.256489
  14 H :    0.190758
  15 O :   -0.471672
  16 F :   -0.094313
  17 C :   -0.115800
  18 H :    0.100519
  19 H :    0.082958
  20 C :   -0.227009
  21 C :   -0.276181
  22 H :    0.095573
  23 H :    0.166916
  24 H :    0.124390
  25 H :    0.149917
  26 C :   -0.186421
  27 H :    0.070777
  28 H :    0.094093
  29 C :   -0.260841
  30 H :    0.089361
  31 H :    0.123666
  32 C :   -0.157464
  33 H :    0.098617
  34 H :    0.118823
  35 H :    0.122629
  36 H :    0.099459
  37 H :    0.096726
  38 H :    0.101255
  39 O :   -0.428413
Sum of atomic charges:   -0.0000000

LOEWDIN ATOMIC CHARGES
----------------------
   0 C :   -0.288876
   1 C :   -0.290644
   2 C :   -0.273094
   3 C :   -0.364429
   4 H :    0.144112
   5 H :    0.141113
   6 S :    0.575931
   7 C :   -0.457643
   8 N :   -0.023738
   9 N :   -0.031195
  10 H :    0.169345
  11 H :    0.154845
  12 H :    0.110902
  13 H :    0.146778
  14 H :    0.152150
  15 O :   -0.281888
  16 F :    0.109990
  17 C :   -0.264687
  18 H :    0.138963
  19 H :    0.122834
  20 C :   -0.269409
  21 C :   -0.269360
  22 H :    0.135377
  23 H :    0.146257
  24 H :    0.146183
  25 H :    0.150176
  26 C :   -0.266688
  27 H :    0.125961
  28 H :    0.132013
  29 C :   -0.269897
  30 H :    0.131179
  31 H :    0.138823
  32 C :   -0.267541
  33 H :    0.134103
  34 H :    0.133286
  35 H :    0.137779
  36 H :    0.132468
  37 H :    0.133185
  38 H :    0.135134
  39 O :   -0.259801

  Mayer bond orders larger than 0.100000
B(  0-C ,  1-C ) :   0.9564 B(  0-C , 17-C ) :   0.9229 B(  0-C , 18-H ) :   1.0172
B(  0-C , 19-H ) :   0.9933 B(  1-C ,  7-C ) :   1.6409 B(  1-C , 12-H ) :   0.9781
B(  2-C ,  3-C ) :   0.9485 B(  2-C , 21-C ) :   0.9491 B(  2-C , 24-H ) :   0.9626
B(  2-C , 25-H ) :   0.9688 B(  3-C ,  4-H ) :   0.9417 B(  3-C ,  5-H ) :   0.9488
B(  3-C ,  6-S ) :   0.9243 B(  6-S , 15-O ) :   1.7741 B(  6-S , 16-F ) :   1.1585
B(  6-S , 39-O ) :   1.8540 B(  7-C ,  8-N ) :   1.1784 B(  7-C ,  9-N ) :   1.1173
B(  8-N , 13-H ) :   0.8668 B(  8-N , 14-H ) :   0.9373 B(  9-N , 10-H ) :   0.9202
B(  9-N , 11-H ) :   0.9373 B( 17-C , 26-C ) :   0.9722 B( 17-C , 27-H ) :   0.9812
B( 17-C , 28-H ) :   0.9736 B( 20-C , 21-C ) :   0.9443 B( 20-C , 32-C ) :   0.9584
B( 20-C , 35-H ) :   0.9843 B( 20-C , 36-H ) :   0.9792 B( 21-C , 22-H ) :   0.9700
B( 21-C , 23-H ) :   0.9713 B( 26-C , 29-C ) :   0.9269 B( 26-C , 30-H ) :   0.9798
B( 26-C , 31-H ) :   0.9713 B( 29-C , 32-C ) :   0.9450 B( 29-C , 33-H ) :   0.9770
B( 29-C , 34-H ) :   0.9916 B( 32-C , 37-H ) :   0.9880 B( 32-C , 38-H ) :   0.9827

FINAL SINGLE POINT ENERGY     -1190.891633600752

DIPOLE MOMENT
-------------
                                X             Y             Z
Electronic contribution:    -20.60881       3.56319     -22.06579
Nuclear contribution   :     19.99734      -4.67125      20.55522
                        -----------------------------------------
Total Dipole Moment    :     -0.61147      -1.10806      -1.51057
                        -----------------------------------------
Magnitude (a.u.)       :      1.97066
Magnitude (Debye)      :      5.00902

Rotational constants in cm-1:     0.014213     0.012058     0.007367
Rotational constants in MHz :   426.102180   361.491761   220.844824

                             ****ORCA TERMINATED NORMALLY****
TOTAL RUN TIME: 0 days 0 hours 2 minutes 36 seconds 741 msec
