                         Program Version 5.0.0 -  RELEASE  -
|  1> !CAM-B3LYP RIJCOSX def2-TZVP def2/J TightSCF xyzfile
|  2>
|  3> *xyzfile 0 1 D6.xyz
|  4>
|  5> %MaxCore 64000
|  6>
|  7> %pal nprocs 18
|  8> end
|  9>
| 10> %scf
| 11>   MaxIter 150
| 12> end
| 13>
| 14>
| 15>                          ****END OF INPUT****

CARTESIAN COORDINATES (ANGSTROEM)
---------------------------------
  C      4.490588    1.155899   -2.469290
  N      4.305394    1.222762   -3.908317
  C      4.906458   -3.102816   -5.954844
  C      3.511771   -2.806215   -6.492283
  H      2.736044   -3.373445   -5.973736
  H      3.444904   -3.040831   -7.555281
  S      3.004618   -1.096206   -6.389259
  C      4.631918    2.246365   -4.670958
  N      4.541686    2.143990   -5.987139
  C      5.084086    3.393584   -4.118545
  H      4.920675    3.570501   -3.135870
  H      5.254652    4.197390   -4.706956
  H      3.824530    0.449113   -4.350926
  H      4.343373    1.249318   -6.416646
  H      4.676712    2.956624   -6.574113
  O      4.128856   -0.329647   -6.953717
  F      1.781285   -1.000779   -7.136399
  C      5.942129    0.939500   -2.036893
  H      3.864305    0.328532   -2.136611
  H      4.076233    2.049994   -1.989010
  C      6.462677   -3.117775   -3.944671
  C      5.024977   -3.025679   -4.437625
  H      4.423321   -3.818693   -3.977648
  H      4.579350   -2.087131   -4.108727
  H      5.201533   -4.100207   -6.296905
  H      5.605922   -2.397822   -6.413368
  C      6.559957   -0.356290   -2.559086
  H      5.967976    0.952567   -0.942444
  H      6.547184    1.788331   -2.368849
  C      6.006283   -1.615917   -1.899301
  H      7.642360   -0.318000   -2.402059
  H      6.414855   -0.403433   -3.642587
  C      6.608718   -2.917014   -2.435655
  H      6.190324   -1.561115   -0.820948
  H      4.919250   -1.651245   -2.016586
  H      7.066975   -2.374258   -4.475514
  H      6.887808   -4.089747   -4.215332
  H      6.135197   -3.755573   -1.915159
  H      7.671142   -2.955503   -2.172291
  O      2.851546   -0.783683   -4.956789

 Total Charge           Charge          ....    0
 Multiplicity           Mult            ....    1
 Number of Electrons    NEL             ....  144
 Basis Dimension        Dim             ....  671

ORBITAL ENERGIES
----------------

  NO   OCC          E(Eh)            E(eV)
   0   2.0000     -89.214198     -2427.6417
   1   2.0000     -24.911530      -677.8772
   2   2.0000     -19.239465      -523.5324
   3   2.0000     -19.238870      -523.5163
   4   2.0000     -14.348174      -390.4337
   5   2.0000     -14.343084      -390.2952
   6   2.0000     -10.328637      -281.0565
   7   2.0000     -10.283210      -279.8204
   8   2.0000     -10.259221      -279.1676
   9   2.0000     -10.251446      -278.9560
  10   2.0000     -10.249370      -278.8995
  11   2.0000     -10.243286      -278.7340
  12   2.0000     -10.236437      -278.5476
  13   2.0000     -10.227979      -278.3175
  14   2.0000     -10.219639      -278.0905
  15   2.0000     -10.213227      -277.9160
  16   2.0000     -10.120901      -275.4037
  17   2.0000      -8.258236      -224.7180
  18   2.0000      -6.225924      -169.4160
  19   2.0000      -6.219791      -169.2491
  20   2.0000      -6.219131      -169.2312
  21   2.0000      -1.503059       -40.9003
  22   2.0000      -1.221046       -33.2264
  23   2.0000      -1.122726       -30.5509
  24   2.0000      -1.019354       -27.7380
  25   2.0000      -0.941981       -25.6326
  26   2.0000      -0.934802       -25.4373
  27   2.0000      -0.897430       -24.4203
  28   2.0000      -0.865165       -23.5423
  29   2.0000      -0.837801       -22.7977
  30   2.0000      -0.808623       -22.0037
  31   2.0000      -0.771634       -20.9972
  32   2.0000      -0.756650       -20.5895
  33   2.0000      -0.733967       -19.9723
  34   2.0000      -0.707605       -19.2549
  35   2.0000      -0.699623       -19.0377
  36   2.0000      -0.682827       -18.5807
  37   2.0000      -0.667551       -18.1650
  38   2.0000      -0.662717       -18.0334
  39   2.0000      -0.630774       -17.1642
  40   2.0000      -0.608678       -16.5630
  41   2.0000      -0.596515       -16.2320
  42   2.0000      -0.589740       -16.0476
  43   2.0000      -0.574241       -15.6259
  44   2.0000      -0.566285       -15.4094
  45   2.0000      -0.549617       -14.9558
  46   2.0000      -0.543948       -14.8016
  47   2.0000      -0.531170       -14.4539
  48   2.0000      -0.521165       -14.1816
  49   2.0000      -0.506418       -13.7803
  50   2.0000      -0.499492       -13.5919
  51   2.0000      -0.496690       -13.5156
  52   2.0000      -0.488058       -13.2807
  53   2.0000      -0.472455       -12.8562
  54   2.0000      -0.458514       -12.4768
  55   2.0000      -0.452743       -12.3198
  56   2.0000      -0.449118       -12.2211
  57   2.0000      -0.438180       -11.9235
  58   2.0000      -0.431781       -11.7494
  59   2.0000      -0.423873       -11.5342
  60   2.0000      -0.418270       -11.3817
  61   2.0000      -0.413644       -11.2558
  62   2.0000      -0.406916       -11.0727
  63   2.0000      -0.402883       -10.9630
  64   2.0000      -0.397365       -10.8128
  65   2.0000      -0.393408       -10.7052
  66   2.0000      -0.386119       -10.5068
  67   2.0000      -0.371017       -10.0959
  68   2.0000      -0.369311       -10.0495
  69   2.0000      -0.359939        -9.7944
  70   2.0000      -0.277977        -7.5641
  71   2.0000      -0.189959        -5.1691
  72   0.0000       0.041977         1.1422
  73   0.0000       0.049409         1.3445
  74   0.0000       0.073969         2.0128
  75   0.0000       0.077688         2.1140
  76   0.0000       0.082103         2.2341

MULLIKEN ATOMIC CHARGES
-----------------------
   0 C :   -0.212511
   1 N :   -0.301162
   2 C :   -0.221096
   3 C :   -0.232088
   4 H :    0.156669
   5 H :    0.163956
   6 S :    0.908450
   7 C :    0.364721
   8 N :   -0.488583
   9 C :   -0.571894
  10 H :    0.089774
  11 H :    0.061701
  12 H :    0.217238
  13 H :    0.240804
  14 H :    0.221805
  15 O :   -0.461812
  16 F :   -0.087563
  17 C :   -0.115212
  18 H :    0.125236
  19 H :    0.122757
  20 C :   -0.230537
  21 C :   -0.268445
  22 H :    0.101284
  23 H :    0.143508
  24 H :    0.130319
  25 H :    0.155165
  26 C :   -0.228605
  27 H :    0.083942
  28 H :    0.135446
  29 C :   -0.255130
  30 H :    0.100802
  31 H :    0.117709
  32 C :   -0.162441
  33 H :    0.104507
  34 H :    0.113028
  35 H :    0.126902
  36 H :    0.104738
  37 H :    0.100701
  38 H :    0.106929
  39 O :   -0.461014
Sum of atomic charges:   -0.0000000

LOEWDIN ATOMIC CHARGES
----------------------
   0 C :   -0.280697
   1 N :    0.117027
   2 C :   -0.271921
   3 C :   -0.361595
   4 H :    0.145579
   5 H :    0.144129
   6 S :    0.582357
   7 C :   -0.463488
   8 N :   -0.019062
   9 C :   -0.381656
  10 H :    0.092649
  11 H :    0.087406
  12 H :    0.156871
  13 H :    0.136282
  14 H :    0.169929
  15 O :   -0.276878
  16 F :    0.116501
  17 C :   -0.266139
  18 H :    0.129048
  19 H :    0.130449
  20 C :   -0.268628
  21 C :   -0.270305
  22 H :    0.136761
  23 H :    0.141431
  24 H :    0.148509
  25 H :    0.151210
  26 C :   -0.268493
  27 H :    0.133257
  28 H :    0.144590
  29 C :   -0.271553
  30 H :    0.135352
  31 H :    0.136192
  32 C :   -0.266373
  33 H :    0.135769
  34 H :    0.130901
  35 H :    0.138535
  36 H :    0.134236
  37 H :    0.134284
  38 H :    0.136974
  39 O :   -0.279442

  Mayer bond orders larger than 0.100000
B(  0-C ,  1-N ) :   0.9444 B(  0-C , 17-C ) :   0.9239 B(  0-C , 18-H ) :   0.9958
B(  0-C , 19-H ) :   0.9836 B(  1-N ,  7-C ) :   1.1810 B(  1-N , 12-H ) :   0.8895
B(  2-C ,  3-C ) :   0.9461 B(  2-C , 21-C ) :   0.9472 B(  2-C , 24-H ) :   0.9611
B(  2-C , 25-H ) :   0.9690 B(  3-C ,  4-H ) :   0.9396 B(  3-C ,  5-H ) :   0.9479
B(  3-C ,  6-S ) :   0.9258 B(  6-S , 15-O ) :   1.7880 B(  6-S , 16-F ) :   1.1717
B(  6-S , 39-O ) :   1.7884 B(  7-C ,  8-N ) :   1.1544 B(  7-C ,  9-C ) :   1.5959
B(  8-N , 13-H ) :   0.8761 B(  8-N , 14-H ) :   0.9332 B(  9-C , 10-H ) :   1.0048
B(  9-C , 11-H ) :   1.0061 B( 17-C , 26-C ) :   0.9616 B( 17-C , 27-H ) :   0.9807
B( 17-C , 28-H ) :   0.9665 B( 20-C , 21-C ) :   0.9428 B( 20-C , 32-C ) :   0.9552
B( 20-C , 35-H ) :   0.9849 B( 20-C , 36-H ) :   0.9788 B( 21-C , 22-H ) :   0.9693
B( 21-C , 23-H ) :   0.9754 B( 26-C , 29-C ) :   0.9235 B( 26-C , 30-H ) :   0.9781
B( 26-C , 31-H ) :   0.9727 B( 29-C , 32-C ) :   0.9464 B( 29-C , 33-H ) :   0.9768
B( 29-C , 34-H ) :   0.9909 B( 32-C , 37-H ) :   0.9880 B( 32-C , 38-H ) :   0.9828

FINAL SINGLE POINT ENERGY     -1190.899470210254

DIPOLE MOMENT
-------------
                                X             Y             Z
Electronic contribution:    -21.18413       1.26261     -21.94251
Nuclear contribution   :     20.11362      -4.34709      20.52383
                        -----------------------------------------
Total Dipole Moment    :     -1.07052      -3.08448      -1.41868
                        -----------------------------------------
Magnitude (a.u.)       :      3.55987
Magnitude (Debye)      :      9.04847

Rotational constants in cm-1:     0.014449     0.012108     0.007447
Rotational constants in MHz :   433.168496   362.988632   223.260798

                             ****ORCA TERMINATED NORMALLY****
TOTAL RUN TIME: 0 days 0 hours 2 minutes 49 seconds 481 msec
