                         Program Version 5.0.0 -  RELEASE  -
|  1> !CAM-B3LYP RIJCOSX def2-TZVP def2/J TightSCF xyzfile
|  2>
|  3> *xyzfile 0 1 D7.xyz
|  4>
|  5> %MaxCore 64000
|  6>
|  7> %pal nprocs 18
|  8> end
|  9>
| 10> %scf
| 11>   MaxIter 150
| 12> end
| 13>
| 14>
| 15>                          ****END OF INPUT****

CARTESIAN COORDINATES (ANGSTROEM)
---------------------------------
  C      4.490588    1.155899   -2.469290
  C      4.305394    1.222762   -3.908317
  C      4.906458   -3.102816   -5.954844
  C      3.511771   -2.806215   -6.492283
  H      2.736044   -3.373445   -5.973736
  H      3.444904   -3.040831   -7.555281
  S      3.004618   -1.096206   -6.389259
  C      4.631918    2.246365   -4.670958
  N      4.541686    2.143990   -5.987139
  N      5.084086    3.393584   -4.118545
  H      4.920675    3.570501   -3.135870
  H      5.254652    4.197390   -4.706956
  H      3.824530    0.449113   -4.350926
  H      4.343373    1.249318   -6.416646
  H      4.676712    2.956624   -6.574113
  O      4.128856   -0.329647   -6.953717
  O      1.781285   -1.000779   -7.136399
  C      5.942129    0.939500   -2.036893
  H      3.864305    0.328532   -2.136611
  H      4.076233    2.049994   -1.989010
  C      6.462677   -3.117775   -3.944671
  C      5.024977   -3.025679   -4.437625
  H      4.423321   -3.818693   -3.977648
  H      4.579350   -2.087131   -4.108727
  H      5.201533   -4.100207   -6.296905
  H      5.605922   -2.397822   -6.413368
  C      6.559957   -0.356290   -2.559086
  H      5.967976    0.952567   -0.942444
  H      6.547184    1.788331   -2.368849
  C      6.006283   -1.615917   -1.899301
  H      7.642360   -0.318000   -2.402059
  H      6.414855   -0.403433   -3.642587
  C      6.608718   -2.917014   -2.435655
  H      6.190324   -1.561115   -0.820948
  H      4.919250   -1.651245   -2.016586
  H      7.066975   -2.374258   -4.475514
  H      6.887808   -4.089747   -4.215332
  H      6.135197   -3.755573   -1.915159
  H      7.671142   -2.955503   -2.172291
  F      2.851546   -0.783683   -4.956789

 Total Charge           Charge          ....    0
 Multiplicity           Mult            ....    1
 Number of Electrons    NEL             ....  144
 Basis Dimension        Dim             ....  671

ORBITAL ENERGIES
----------------

  NO   OCC          E(Eh)            E(eV)
   0   2.0000     -89.188542     -2426.9436
   1   2.0000     -24.869256      -676.7268
   2   2.0000     -19.223099      -523.0871
   3   2.0000     -19.219166      -522.9801
   4   2.0000     -14.375722      -391.1833
   5   2.0000     -14.352868      -390.5614
   6   2.0000     -10.310218      -280.5553
   7   2.0000     -10.272924      -279.5405
   8   2.0000     -10.269639      -279.4511
   9   2.0000     -10.250693      -278.9355
  10   2.0000     -10.240844      -278.6675
  11   2.0000     -10.234465      -278.4940
  12   2.0000     -10.226224      -278.2697
  13   2.0000     -10.217127      -278.0222
  14   2.0000     -10.212320      -277.8914
  15   2.0000     -10.208512      -277.7877
  16   2.0000     -10.142505      -275.9916
  17   2.0000      -8.232535      -224.0187
  18   2.0000      -6.200426      -168.7222
  19   2.0000      -6.193994      -168.5471
  20   2.0000      -6.193453      -168.5324
  21   2.0000      -1.453049       -39.5395
  22   2.0000      -1.206535       -32.8315
  23   2.0000      -1.112410       -30.2702
  24   2.0000      -1.024884       -27.8885
  25   2.0000      -0.932893       -25.3853
  26   2.0000      -0.928154       -25.2564
  27   2.0000      -0.892989       -24.2995
  28   2.0000      -0.863674       -23.5018
  29   2.0000      -0.837351       -22.7855
  30   2.0000      -0.800929       -21.7944
  31   2.0000      -0.786762       -21.4089
  32   2.0000      -0.749274       -20.3888
  33   2.0000      -0.721723       -19.6391
  34   2.0000      -0.700576       -19.0636
  35   2.0000      -0.670316       -18.2402
  36   2.0000      -0.664248       -18.0751
  37   2.0000      -0.655062       -17.8252
  38   2.0000      -0.648880       -17.6569
  39   2.0000      -0.627378       -17.0718
  40   2.0000      -0.619292       -16.8518
  41   2.0000      -0.595461       -16.2033
  42   2.0000      -0.572247       -15.5716
  43   2.0000      -0.559334       -15.2203
  44   2.0000      -0.555955       -15.1283
  45   2.0000      -0.548691       -14.9306
  46   2.0000      -0.546550       -14.8724
  47   2.0000      -0.528713       -14.3870
  48   2.0000      -0.519184       -14.1277
  49   2.0000      -0.509984       -13.8774
  50   2.0000      -0.497492       -13.5375
  51   2.0000      -0.492022       -13.3886
  52   2.0000      -0.489693       -13.3252
  53   2.0000      -0.473383       -12.8814
  54   2.0000      -0.463038       -12.5999
  55   2.0000      -0.450461       -12.2577
  56   2.0000      -0.443109       -12.0576
  57   2.0000      -0.437948       -11.9172
  58   2.0000      -0.432418       -11.7667
  59   2.0000      -0.421174       -11.4607
  60   2.0000      -0.413561       -11.2536
  61   2.0000      -0.408630       -11.1194
  62   2.0000      -0.403466       -10.9789
  63   2.0000      -0.397129       -10.8064
  64   2.0000      -0.392648       -10.6845
  65   2.0000      -0.390831       -10.6350
  66   2.0000      -0.383016       -10.4224
  67   2.0000      -0.367260        -9.9937
  68   2.0000      -0.361282        -9.8310
  69   2.0000      -0.355990        -9.6870
  70   2.0000      -0.310779        -8.4567
  71   2.0000      -0.203297        -5.5320
  72   0.0000       0.051783         1.4091
  73   0.0000       0.070717         1.9243
  74   0.0000       0.070995         1.9319
  75   0.0000       0.082841         2.2542
  76   0.0000       0.084291         2.2937

MULLIKEN ATOMIC CHARGES
-----------------------
   0 C :   -0.317484
   1 C :   -0.357719
   2 C :   -0.194215
   3 C :   -0.259102
   4 H :    0.154605
   5 H :    0.178733
   6 S :    0.890533
   7 C :    0.342887
   8 N :   -0.466542
   9 N :   -0.481483
  10 H :    0.235661
  11 H :    0.207469
  12 H :    0.095667
  13 H :    0.262890
  14 H :    0.196929
  15 O :   -0.479791
  16 O :   -0.402100
  17 C :   -0.116496
  18 H :    0.092838
  19 H :    0.092656
  20 C :   -0.230229
  21 C :   -0.270163
  22 H :    0.106239
  23 H :    0.117764
  24 H :    0.121544
  25 H :    0.151265
  26 C :   -0.194529
  27 H :    0.077133
  28 H :    0.098636
  29 C :   -0.256500
  30 H :    0.095306
  31 H :    0.128350
  32 C :   -0.161568
  33 H :    0.103488
  34 H :    0.110306
  35 H :    0.126156
  36 H :    0.106236
  37 H :    0.100326
  38 H :    0.105066
  39 F :   -0.110759
Sum of atomic charges:    0.0000000

LOEWDIN ATOMIC CHARGES
----------------------
   0 C :   -0.289813
   1 C :   -0.306987
   2 C :   -0.282180
   3 C :   -0.359125
   4 H :    0.143353
   5 H :    0.155275
   6 S :    0.581564
   7 C :   -0.449735
   8 N :   -0.014589
   9 N :   -0.024292
  10 H :    0.170668
  11 H :    0.158367
  12 H :    0.104979
  13 H :    0.147481
  14 H :    0.156083
  15 O :   -0.283548
  16 O :   -0.254690
  17 C :   -0.263671
  18 H :    0.137116
  19 H :    0.125501
  20 C :   -0.267521
  21 C :   -0.273202
  22 H :    0.136881
  23 H :    0.135279
  24 H :    0.144852
  25 H :    0.149208
  26 C :   -0.266690
  27 H :    0.127835
  28 H :    0.133312
  29 C :   -0.270259
  30 H :    0.133117
  31 H :    0.138554
  32 C :   -0.267058
  33 H :    0.135458
  34 H :    0.130207
  35 H :    0.138795
  36 H :    0.135099
  37 H :    0.134056
  38 H :    0.136390
  39 F :    0.083928

  Mayer bond orders larger than 0.100000
B(  0-C ,  1-C ) :   0.9613 B(  0-C , 17-C ) :   0.9233 B(  0-C , 18-H ) :   1.0100
B(  0-C , 19-H ) :   0.9976 B(  1-C ,  7-C ) :   1.6198 B(  1-C , 12-H ) :   0.9995
B(  2-C ,  3-C ) :   0.9279 B(  2-C , 21-C ) :   0.9443 B(  2-C , 24-H ) :   0.9607
B(  2-C , 25-H ) :   0.9674 B(  3-C ,  4-H ) :   0.9532 B(  3-C ,  5-H ) :   0.9539
B(  3-C ,  6-S ) :   0.9156 B(  6-S , 15-O ) :   1.7482 B(  6-S , 16-O ) :   2.0005
B(  6-S , 39-F ) :   1.0990 B(  7-C ,  8-N ) :   1.1980 B(  7-C ,  9-N ) :   1.1332
B(  8-N , 13-H ) :   0.8602 B(  8-N , 14-H ) :   0.9343 B(  9-N , 10-H ) :   0.9185
B(  9-N , 11-H ) :   0.9346 B( 17-C , 26-C ) :   0.9694 B( 17-C , 27-H ) :   0.9821
B( 17-C , 28-H ) :   0.9746 B( 20-C , 21-C ) :   0.9476 B( 20-C , 32-C ) :   0.9537
B( 20-C , 35-H ) :   0.9849 B( 20-C , 36-H ) :   0.9796 B( 21-C , 22-H ) :   0.9683
B( 21-C , 23-H ) :   0.9774 B( 26-C , 29-C ) :   0.9223 B( 26-C , 30-H ) :   0.9801
B( 26-C , 31-H ) :   0.9728 B( 29-C , 32-C ) :   0.9445 B( 29-C , 33-H ) :   0.9767
B( 29-C , 34-H ) :   0.9934 B( 32-C , 37-H ) :   0.9889 B( 32-C , 38-H ) :   0.9827

FINAL SINGLE POINT ENERGY     -1190.910783105802

DIPOLE MOMENT
-------------
                                X             Y             Z
Electronic contribution:    -18.42478       4.09062     -18.05684
Nuclear contribution   :     18.74089      -4.92611      17.99644
                        -----------------------------------------
Total Dipole Moment    :      0.31612      -0.83549      -0.06039
                        -----------------------------------------
Magnitude (a.u.)       :      0.89533
Magnitude (Debye)      :      2.27575

Rotational constants in cm-1:     0.014210     0.012324     0.007480
Rotational constants in MHz :   425.991442   369.455467   224.259162

                             ****ORCA TERMINATED NORMALLY****
TOTAL RUN TIME: 0 days 0 hours 2 minutes 41 seconds 410 msec
