                         Program Version 5.0.0 -  RELEASE  -
|  1> !CAM-B3LYP RIJCOSX def2-TZVP def2/J TightSCF xyzfile
|  2>
|  3> *xyzfile 0 1 D8.xyz
|  4>
|  5> %MaxCore 64000
|  6>
|  7> %pal nprocs 18
|  8> end
|  9>
| 10> %scf
| 11>   MaxIter 150
| 12> end
| 13>
| 14>
| 15>                          ****END OF INPUT****

CARTESIAN COORDINATES (ANGSTROEM)
---------------------------------
  C      4.490588    1.155899   -2.469290
  N      4.305394    1.222762   -3.908317
  C      4.906458   -3.102816   -5.954844
  C      3.511771   -2.806215   -6.492283
  H      2.736044   -3.373445   -5.973736
  H      3.444904   -3.040831   -7.555281
  S      3.004618   -1.096206   -6.389259
  C      4.631918    2.246365   -4.670958
  C      4.541686    2.143990   -5.987139
  N      5.084086    3.393584   -4.118545
  H      4.920675    3.570501   -3.135870
  H      5.254652    4.197390   -4.706956
  H      3.824530    0.449113   -4.350926
  H      4.343373    1.249318   -6.416646
  H      4.676712    2.956624   -6.574113
  O      4.128856   -0.329647   -6.953717
  O      1.781285   -1.000779   -7.136399
  C      5.942129    0.939500   -2.036893
  H      3.864305    0.328532   -2.136611
  H      4.076233    2.049994   -1.989010
  C      6.462677   -3.117775   -3.944671
  C      5.024977   -3.025679   -4.437625
  H      4.423321   -3.818693   -3.977648
  H      4.579350   -2.087131   -4.108727
  H      5.201533   -4.100207   -6.296905
  H      5.605922   -2.397822   -6.413368
  C      6.559957   -0.356290   -2.559086
  H      5.967976    0.952567   -0.942444
  H      6.547184    1.788331   -2.368849
  C      6.006283   -1.615917   -1.899301
  H      7.642360   -0.318000   -2.402059
  H      6.414855   -0.403433   -3.642587
  C      6.608718   -2.917014   -2.435655
  H      6.190324   -1.561115   -0.820948
  H      4.919250   -1.651245   -2.016586
  H      7.066975   -2.374258   -4.475514
  H      6.887808   -4.089747   -4.215332
  H      6.135197   -3.755573   -1.915159
  H      7.671142   -2.955503   -2.172291
  F      2.851546   -0.783683   -4.956789

 Total Charge           Charge          ....    0
 Multiplicity           Mult            ....    1
 Number of Electrons    NEL             ....  144
 Basis Dimension        Dim             ....  671

ORBITAL ENERGIES
----------------

  NO   OCC          E(Eh)            E(eV)
   0   2.0000     -89.183734     -2426.8128
   1   2.0000     -24.881561      -677.0617
   2   2.0000     -19.219764      -522.9964
   3   2.0000     -19.206597      -522.6381
   4   2.0000     -14.371292      -391.0627
   5   2.0000     -14.370585      -391.0435
   6   2.0000     -10.309662      -280.5402
   7   2.0000     -10.275049      -279.5983
   8   2.0000     -10.271871      -279.5118
   9   2.0000     -10.269569      -279.4492
  10   2.0000     -10.258126      -279.1378
  11   2.0000     -10.248377      -278.8725
  12   2.0000     -10.244536      -278.7680
  13   2.0000     -10.240928      -278.6698
  14   2.0000     -10.235895      -278.5329
  15   2.0000     -10.235116      -278.5117
  16   2.0000     -10.120742      -275.3994
  17   2.0000      -8.228054      -223.8967
  18   2.0000      -6.196215      -168.6076
  19   2.0000      -6.189170      -168.4159
  20   2.0000      -6.188858      -168.4074
  21   2.0000      -1.463901       -39.8348
  22   2.0000      -1.201286       -32.6886
  23   2.0000      -1.103805       -30.0361
  24   2.0000      -1.037685       -28.2369
  25   2.0000      -0.950589       -25.8669
  26   2.0000      -0.931884       -25.3579
  27   2.0000      -0.900718       -24.5098
  28   2.0000      -0.871257       -23.7081
  29   2.0000      -0.835186       -22.7266
  30   2.0000      -0.811226       -22.0746
  31   2.0000      -0.789008       -21.4700
  32   2.0000      -0.755567       -20.5600
  33   2.0000      -0.731041       -19.8926
  34   2.0000      -0.709733       -19.3128
  35   2.0000      -0.687076       -18.6963
  36   2.0000      -0.675457       -18.3801
  37   2.0000      -0.665130       -18.0991
  38   2.0000      -0.647111       -17.6088
  39   2.0000      -0.635401       -17.2902
  40   2.0000      -0.631399       -17.1812
  41   2.0000      -0.589385       -16.0380
  42   2.0000      -0.575384       -15.6570
  43   2.0000      -0.561858       -15.2889
  44   2.0000      -0.554364       -15.0850
  45   2.0000      -0.553540       -15.0626
  46   2.0000      -0.542259       -14.7556
  47   2.0000      -0.537544       -14.6273
  48   2.0000      -0.531008       -14.4495
  49   2.0000      -0.514056       -13.9882
  50   2.0000      -0.511315       -13.9136
  51   2.0000      -0.501438       -13.6448
  52   2.0000      -0.485507       -13.2113
  53   2.0000      -0.473051       -12.8724
  54   2.0000      -0.461915       -12.5694
  55   2.0000      -0.458772       -12.4838
  56   2.0000      -0.453073       -12.3287
  57   2.0000      -0.444596       -12.0981
  58   2.0000      -0.436408       -11.8753
  59   2.0000      -0.430682       -11.7195
  60   2.0000      -0.429838       -11.6965
  61   2.0000      -0.413595       -11.2545
  62   2.0000      -0.412515       -11.2251
  63   2.0000      -0.405768       -11.0415
  64   2.0000      -0.401913       -10.9366
  65   2.0000      -0.388306       -10.5663
  66   2.0000      -0.385105       -10.4792
  67   2.0000      -0.383305       -10.4302
  68   2.0000      -0.376883       -10.2555
  69   2.0000      -0.359846        -9.7919
  70   2.0000      -0.305347        -8.3089
  71   2.0000      -0.200554        -5.4574
  72   0.0000       0.047620         1.2958
  73   0.0000       0.065489         1.7820
  74   0.0000       0.067463         1.8358
  75   0.0000       0.077456         2.1077
  76   0.0000       0.080506         2.1907

MULLIKEN ATOMIC CHARGES
-----------------------
   0 C :   -0.271971
   1 N :   -0.298475
   2 C :   -0.195493
   3 C :   -0.260322
   4 H :    0.150346
   5 H :    0.180976
   6 S :    0.874841
   7 C :    0.411809
   8 C :   -0.606261
   9 N :   -0.493800
  10 H :    0.214922
  11 H :    0.229287
  12 H :    0.203900
  13 H :    0.153407
  14 H :    0.077398
  15 O :   -0.430106
  16 O :   -0.398673
  17 C :   -0.099054
  18 H :    0.128553
  19 H :    0.124467
  20 C :   -0.235191
  21 C :   -0.255532
  22 H :    0.109688
  23 H :    0.086100
  24 H :    0.121974
  25 H :    0.156865
  26 C :   -0.241595
  27 H :    0.089089
  28 H :    0.117689
  29 C :   -0.248949
  30 H :    0.106792
  31 H :    0.138541
  32 C :   -0.165665
  33 H :    0.108196
  34 H :    0.105880
  35 H :    0.131440
  36 H :    0.110860
  37 H :    0.104592
  38 H :    0.109600
  39 F :   -0.146123
Sum of atomic charges:    0.0000000

LOEWDIN ATOMIC CHARGES
----------------------
   0 C :   -0.298630
   1 N :    0.110496
   2 C :   -0.281790
   3 C :   -0.361208
   4 H :    0.141167
   5 H :    0.156440
   6 S :    0.571552
   7 C :   -0.463668
   8 C :   -0.342132
   9 N :   -0.027846
  10 H :    0.155955
  11 H :    0.172538
  12 H :    0.166311
  13 H :    0.086123
  14 H :    0.092028
  15 O :   -0.259536
  16 O :   -0.252942
  17 C :   -0.270099
  18 H :    0.130724
  19 H :    0.124348
  20 C :   -0.266740
  21 C :   -0.274011
  22 H :    0.137511
  23 H :    0.129229
  24 H :    0.145206
  25 H :    0.150835
  26 C :   -0.267175
  27 H :    0.134724
  28 H :    0.137963
  29 C :   -0.271680
  30 H :    0.137633
  31 H :    0.140601
  32 C :   -0.265788
  33 H :    0.136506
  34 H :    0.128430
  35 H :    0.139764
  36 H :    0.136923
  37 H :    0.135450
  38 H :    0.137754
  39 F :    0.067031

  Mayer bond orders larger than 0.100000
B(  0-C ,  1-N ) :   0.9447 B(  0-C , 17-C ) :   0.8947 B(  0-C , 18-H ) :   0.9958
B(  0-C , 19-H ) :   1.0012 B(  1-N ,  7-C ) :   1.1644 B(  1-N , 12-H ) :   0.9239
B(  2-C ,  3-C ) :   0.9268 B(  2-C , 21-C ) :   0.9484 B(  2-C , 24-H ) :   0.9601
B(  2-C , 25-H ) :   0.9649 B(  3-C ,  4-H ) :   0.9535 B(  3-C ,  5-H ) :   0.9526
B(  3-C ,  6-S ) :   0.9178 B(  6-S , 15-O ) :   1.8189 B(  6-S , 16-O ) :   1.9986
B(  6-S , 39-F ) :   1.0358 B(  7-C ,  8-C ) :   1.5856 B(  7-C ,  9-N ) :   1.0941
B(  8-C , 13-H ) :   1.0158 B(  8-C , 14-H ) :   1.0071 B(  9-N , 10-H ) :   0.9261
B(  9-N , 11-H ) :   0.9302 B( 17-C , 26-C ) :   0.9522 B( 17-C , 27-H ) :   0.9740
B( 17-C , 28-H ) :   0.9720 B( 20-C , 21-C ) :   0.9461 B( 20-C , 32-C ) :   0.9491
B( 20-C , 35-H ) :   0.9862 B( 20-C , 36-H ) :   0.9792 B( 21-C , 22-H ) :   0.9682
B( 21-C , 23-H ) :   0.9785 B( 26-C , 29-C ) :   0.9202 B( 26-C , 30-H ) :   0.9773
B( 26-C , 31-H ) :   0.9754 B( 29-C , 32-C ) :   0.9485 B( 29-C , 33-H ) :   0.9756
B( 29-C , 34-H ) :   0.9919 B( 32-C , 37-H ) :   0.9885 B( 32-C , 38-H ) :   0.9831

FINAL SINGLE POINT ENERGY     -1190.889529864030

DIPOLE MOMENT
-------------
                                X             Y             Z
Electronic contribution:    -18.46000       3.18052     -16.17235
Nuclear contribution   :     18.77618      -4.78855      17.68602
                        -----------------------------------------
Total Dipole Moment    :      0.31618      -1.60803       1.51367
                        -----------------------------------------
Magnitude (a.u.)       :      2.23090
Magnitude (Debye)      :      5.67050

Rotational constants in cm-1:     0.014368     0.012319     0.007509
Rotational constants in MHz :   430.738566   369.302170   225.105103

                             ****ORCA TERMINATED NORMALLY****
TOTAL RUN TIME: 0 days 0 hours 2 minutes 32 seconds 136 msec
