                         Program Version 5.0.0 -  RELEASE  -
|  1> !BLYP D3BJ RIJCOSX def2-SVPD def2/J TightSCF
|  2> *xyz -1 1
|  3> C         -7.33044       -2.67899       -3.20681
|  4> S         -6.01966       -2.92697       -4.41913
|  5> O         -5.64583       -1.58838       -4.91931
|  6> O         -4.88196       -3.50370       -3.66724
|  7> O         -6.54927       -3.80515       -5.42507
|  8> H         -8.18867       -2.26077       -3.68996
|  9> H         -6.98921       -2.01038       -2.44430
| 10> H         -7.59151       -3.61862       -2.76655
| 11> *
| 12> %MaxCore 64000
| 13>
| 14> %pal nprocs 8
| 15> end
| 16>
| 17> %scf
| 18>   MaxIter 150
| 19> end
| 20>
| 21>
| 22>                          ****END OF INPUT****

CARTESIAN COORDINATES (ANGSTROEM)
---------------------------------
  C     -7.330440   -2.678990   -3.206810
  S     -6.019660   -2.926970   -4.419130
  O     -5.645830   -1.588380   -4.919310
  O     -4.881960   -3.503700   -3.667240
  O     -6.549270   -3.805150   -5.425070
  H     -8.188670   -2.260770   -3.689960
  H     -6.989210   -2.010380   -2.444300
  H     -7.591510   -3.618620   -2.766550

 Total Charge           Charge          ....   -1
 Multiplicity           Mult            ....    1
 Number of Electrons    NEL             ....   50
 Basis Dimension        Dim             ....  140

ORBITAL ENERGIES
----------------

  NO   OCC          E(Eh)            E(eV)
   0   2.0000     -88.129402     -2398.1230
   1   2.0000     -18.572772      -505.3908
   2   2.0000     -18.561907      -505.0952
   3   2.0000     -18.559557      -505.0312
   4   2.0000      -9.778336      -266.0820
   5   2.0000      -7.665757      -208.5958
   6   2.0000      -5.700832      -155.1275
   7   2.0000      -5.700696      -155.1238
   8   2.0000      -5.700278      -155.1124
   9   2.0000      -0.829337       -22.5674
  10   2.0000      -0.694203       -18.8902
  11   2.0000      -0.671899       -18.2833
  12   2.0000      -0.506685       -13.7876
  13   2.0000      -0.325903        -8.8683
  14   2.0000      -0.241024        -6.5586
  15   2.0000      -0.238148        -6.4803
  16   2.0000      -0.237096        -6.4517
  17   2.0000      -0.192616        -5.2414
  18   2.0000      -0.190958        -5.1962
  19   2.0000      -0.097098        -2.6422
  20   2.0000      -0.095640        -2.6025
  21   2.0000      -0.069348        -1.8870
  22   2.0000      -0.059895        -1.6298
  23   2.0000      -0.050029        -1.3614
  24   2.0000      -0.013014        -0.3541
  25   0.0000       0.134667         3.6645
  26   0.0000       0.174470         4.7476
  27   0.0000       0.174673         4.7531
  28   0.0000       0.177807         4.8384
  29   0.0000       0.197355         5.3703

MULLIKEN ATOMIC CHARGES
-----------------------
   0 C :    0.908968
   1 S :    0.904276
   2 O :   -0.729077
   3 O :   -0.735420
   4 O :   -0.683738
   5 H :   -0.225370
   6 H :   -0.220572
   7 H :   -0.219068
Sum of atomic charges:   -1.0000000

LOEWDIN ATOMIC CHARGES
----------------------
   0 C :    0.067704
   1 S :    0.793752
   2 O :   -0.578929
   3 O :   -0.582417
   4 O :   -0.560362
   5 H :   -0.047610
   6 H :   -0.045463
   7 H :   -0.046674

  Mayer bond orders larger than 0.100000
B(  0-C ,  1-S ) :   0.9037 B(  0-C ,  5-H ) :   0.8433 B(  0-C ,  6-H ) :   0.8472
B(  0-C ,  7-H ) :   0.8438 B(  1-S ,  2-O ) :   1.3457 B(  1-S ,  3-O ) :   1.3421
B(  1-S ,  4-O ) :   1.3857 B(  1-S ,  5-H ) :   0.1397 B(  1-S ,  6-H ) :   0.1494
B(  1-S ,  7-H ) :   0.1402

Dispersion correction           -0.013570326
FINAL SINGLE POINT ENERGY      -663.446082947521

DIPOLE MOMENT
-------------
                                X             Y             Z
Electronic contribution:      3.05654      -0.65350      -2.97210
Nuclear contribution   :     -4.26236       0.77434       3.87117
                        -----------------------------------------
Total Dipole Moment    :     -1.20581       0.12084       0.89907
                        -----------------------------------------
Magnitude (a.u.)       :      1.50895
Magnitude (Debye)      :      3.83544

Rotational constants in cm-1:     0.172427     0.155038     0.152780
Rotational constants in MHz :  5169.225473  4647.928623  4580.233540

                             ****ORCA TERMINATED NORMALLY****
TOTAL RUN TIME: 0 days 0 hours 0 minutes 3 seconds 266 msec
