                         Program Version 5.0.0 -  RELEASE  -
|  1> !BLYP D3BJ RIJCOSX def2-SVPD def2/J TightSCF
|  2> *xyz 1 1
|  3> C         -2.16038       -1.36949       -3.46710
|  4> N         -3.03011       -1.91086       -4.54107
|  5> H         -3.47744       -2.79151       -4.25710
|  6> H         -2.53801       -2.01786       -5.43808
|  7> H         -3.89159       -1.37604       -4.71437
|  8> H         -1.71294       -0.45536       -3.79734
|  9> H         -1.39344       -2.07939       -3.23742
| 10> H         -2.74775       -1.18344       -2.59230
| 11> *
| 12> %MaxCore 64000
| 13>
| 14> %pal nprocs 8
| 15> end
| 16>
| 17> %scf
| 18>   MaxIter 150
| 19> end
| 20>
| 21>
| 22>                          ****END OF INPUT****

CARTESIAN COORDINATES (ANGSTROEM)
---------------------------------
  C     -2.160380   -1.369490   -3.467100
  N     -3.030110   -1.910860   -4.541070
  H     -3.477440   -2.791510   -4.257100
  H     -2.538010   -2.017860   -5.438080
  H     -3.891590   -1.376040   -4.714370
  H     -1.712940   -0.455360   -3.797340
  H     -1.393440   -2.079390   -3.237420
  H     -2.747750   -1.183440   -2.592300

 Total Charge           Charge          ....    1
 Multiplicity           Mult            ....    1
 Number of Electrons    NEL             ....   18
 Basis Dimension        Dim             ....   88

ORBITAL ENERGIES
----------------

  NO   OCC          E(Eh)            E(eV)
   0   2.0000     -14.372926      -391.1072
   1   2.0000     -10.182758      -277.0869
   2   2.0000      -1.133618       -30.8473
   3   2.0000      -0.868734       -23.6395
   4   2.0000      -0.764537       -20.8041
   5   2.0000      -0.736933       -20.0530
   6   2.0000      -0.670221       -18.2376
   7   2.0000      -0.581110       -15.8128
   8   2.0000      -0.577308       -15.7093
   9   0.0000      -0.232337        -6.3222
  10   0.0000      -0.169724        -4.6184
  11   0.0000      -0.164612        -4.4793
  12   0.0000      -0.155748        -4.2381
  13   0.0000      -0.109492        -2.9794

MULLIKEN ATOMIC CHARGES
-----------------------
   0 C :    1.368073
   1 N :   -0.705823
   2 H :    0.309573
   3 H :    0.320618
   4 H :    0.292422
   5 H :   -0.203848
   6 H :   -0.183841
   7 H :   -0.197173
Sum of atomic charges:    1.0000000

LOEWDIN ATOMIC CHARGES
----------------------
   0 C :    0.295893
   1 N :    0.320571
   2 H :    0.103651
   3 H :    0.109713
   4 H :    0.104845
   5 H :    0.021122
   6 H :    0.022350
   7 H :    0.021855

  Mayer bond orders larger than 0.100000
B(  0-C ,  1-N ) :   0.7900 B(  0-C ,  5-H ) :   0.8124 B(  0-C ,  6-H ) :   0.8020
B(  0-C ,  7-H ) :   0.8069 B(  1-N ,  2-H ) :   0.8219 B(  1-N ,  3-H ) :   0.7873
B(  1-N ,  4-H ) :   0.8409 B(  1-N ,  5-H ) :   0.1204 B(  1-N ,  6-H ) :   0.1266
B(  1-N ,  7-H ) :   0.1248

Dispersion correction           -0.006781929
FINAL SINGLE POINT ENERGY       -96.096910843400

DIPOLE MOMENT
-------------
                                X             Y             Z
Electronic contribution:     -0.57031      -0.37367      -0.78311
Nuclear contribution   :      0.00575       0.04584       0.17617
                        -----------------------------------------
Total Dipole Moment    :     -0.56456      -0.32782      -0.60694
                        -----------------------------------------
Magnitude (a.u.)       :      0.89138
Magnitude (Debye)      :      2.26572

Rotational constants in cm-1:     2.917716     0.684997     0.676552
Rotational constants in MHz : 87470.913131 20535.702929 20282.512120

                             ****ORCA TERMINATED NORMALLY****
TOTAL RUN TIME: 0 days 0 hours 0 minutes 2 seconds 342 msec
