                         Program Version 5.0.0 -  RELEASE  -
|  1> !BLYP D3BJ RIJCOSX def2-SVPD def2/J TightSCF
|  2> *xyz 0 1
|  3> C         -7.33044       -2.67899       -3.20681
|  4> S         -6.01966       -2.92697       -4.41913
|  5> F         -5.64583       -1.58838       -4.91931
|  6> O         -4.88196       -3.50370       -3.66724
|  7> O         -6.54927       -3.80515       -5.42507
|  8> H         -8.18867       -2.26077       -3.68996
|  9> H         -6.98921       -2.01038       -2.44430
| 10> H         -7.59151       -3.61862       -2.76655
| 11> *
| 12> %MaxCore 64000
| 13>
| 14> %pal nprocs 8
| 15> end
| 16>
| 17> %scf
| 18>   MaxIter 150
| 19> end
| 20>
| 21>
| 22>                          ****END OF INPUT****

CARTESIAN COORDINATES (ANGSTROEM)
---------------------------------
  C     -7.330440   -2.678990   -3.206810
  S     -6.019660   -2.926970   -4.419130
  F     -5.645830   -1.588380   -4.919310
  O     -4.881960   -3.503700   -3.667240
  O     -6.549270   -3.805150   -5.425070
  H     -8.188670   -2.260770   -3.689960
  H     -6.989210   -2.010380   -2.444300
  H     -7.591510   -3.618620   -2.766550

 Total Charge           Charge          ....    0
 Multiplicity           Mult            ....    1
 Number of Electrons    NEL             ....   50
 Basis Dimension        Dim             ....  140

ORBITAL ENERGIES
----------------

  NO   OCC          E(Eh)            E(eV)
   0   2.0000     -88.388780     -2405.1810
   1   2.0000     -24.407600      -664.1646
   2   2.0000     -18.809467      -511.8316
   3   2.0000     -18.795728      -511.4577
   4   2.0000      -9.986439      -271.7448
   5   2.0000      -7.925949      -215.6760
   6   2.0000      -5.965137      -162.3196
   7   2.0000      -5.958824      -162.1478
   8   2.0000      -5.957682      -162.1168
   9   2.0000      -1.241663       -33.7874
  10   2.0000      -1.018896       -27.7256
  11   2.0000      -0.919579       -25.0230
  12   2.0000      -0.725772       -19.7493
  13   2.0000      -0.638392       -17.3715
  14   2.0000      -0.532562       -14.4917
  15   2.0000      -0.504382       -13.7249
  16   2.0000      -0.492450       -13.4003
  17   2.0000      -0.429829       -11.6962
  18   2.0000      -0.425976       -11.5914
  19   2.0000      -0.417229       -11.3534
  20   2.0000      -0.390665       -10.6305
  21   2.0000      -0.339619        -9.2415
  22   2.0000      -0.298936        -8.1345
  23   2.0000      -0.283431        -7.7126
  24   2.0000      -0.265069        -7.2129
  25   0.0000      -0.036382        -0.9900
  26   0.0000      -0.002260        -0.0615
  27   0.0000       0.012603         0.3429
  28   0.0000       0.031309         0.8520
  29   0.0000       0.031985         0.8704

MULLIKEN ATOMIC CHARGES
-----------------------
   0 C :    0.877038
   1 S :    1.085392
   2 F :   -0.346783
   3 O :   -0.594865
   4 O :   -0.549006
   5 H :   -0.157313
   6 H :   -0.156274
   7 H :   -0.158188
Sum of atomic charges:    0.0000000

LOEWDIN ATOMIC CHARGES
----------------------
   0 C :    0.136078
   1 S :    1.066506
   2 F :   -0.258670
   3 O :   -0.460997
   4 O :   -0.441103
   5 H :   -0.019157
   6 H :   -0.017951
   7 H :   -0.004706

  Mayer bond orders larger than 0.100000
B(  0-C ,  1-S ) :   0.9621 B(  0-C ,  5-H ) :   0.8487 B(  0-C ,  6-H ) :   0.8515
B(  0-C ,  7-H ) :   0.8442 B(  1-S ,  2-F ) :   0.7197 B(  1-S ,  3-O ) :   1.5410
B(  1-S ,  4-O ) :   1.5841 B(  1-S ,  5-H ) :   0.1137 B(  1-S ,  6-H ) :   0.1216
B(  1-S ,  7-H ) :   0.1397 B(  3-O ,  4-O ) :   0.1060

Dispersion correction           -0.012717110
FINAL SINGLE POINT ENERGY      -687.949492618556

DIPOLE MOMENT
-------------
                                X             Y             Z
Electronic contribution:      3.58674       1.54643      -3.75587
Nuclear contribution   :     -4.68608      -0.54182       4.44322
                        -----------------------------------------
Total Dipole Moment    :     -1.09934       1.00460       0.68736
                        -----------------------------------------
Magnitude (a.u.)       :      1.64019
Magnitude (Debye)      :      4.16903

Rotational constants in cm-1:     0.164393     0.151201     0.145518
Rotational constants in MHz :  4928.381777  4532.884356  4362.527209

                             ****ORCA TERMINATED NORMALLY****
TOTAL RUN TIME: 0 days 0 hours 0 minutes 3 seconds 667 msec
