                         Program Version 5.0.0 -  RELEASE  -
|  1> !BLYP D3BJ RIJCOSX def2-SVPD def2/J TightSCF
|  2> *xyz 0 1
|  3> C         -2.16038       -1.36949       -3.46710
|  4> C         -3.03011       -1.91086       -4.54107
|  5> H         -3.47744       -2.79151       -4.25710
|  6> H         -2.53801       -2.01786       -5.43808
|  7> H         -3.89159       -1.37604       -4.71437
|  8> H         -1.71294       -0.45536       -3.79734
|  9> H         -1.39344       -2.07939       -3.23742
| 10> H         -2.74775       -1.18344       -2.59230
| 11> *
| 12> %MaxCore 64000
| 13>
| 14> %pal nprocs 8
| 15> end
| 16>
| 17> %scf
| 18>   MaxIter 150
| 19> end
| 20>
| 21>
| 22>                          ****END OF INPUT****

CARTESIAN COORDINATES (ANGSTROEM)
---------------------------------
  C     -2.160380   -1.369490   -3.467100
  C     -3.030110   -1.910860   -4.541070
  H     -3.477440   -2.791510   -4.257100
  H     -2.538010   -2.017860   -5.438080
  H     -3.891590   -1.376040   -4.714370
  H     -1.712940   -0.455360   -3.797340
  H     -1.393440   -2.079390   -3.237420
  H     -2.747750   -1.183440   -2.592300

 Total Charge           Charge          ....    0
 Multiplicity           Mult            ....    1
 Number of Electrons    NEL             ....   18
 Basis Dimension        Dim             ....   88

ORBITAL ENERGIES
----------------

  NO   OCC          E(Eh)            E(eV)
   0   2.0000      -9.902678      -269.4656
   1   2.0000      -9.889173      -269.0981
   2   2.0000      -0.684646       -18.6302
   3   2.0000      -0.552906       -15.0453
   4   2.0000      -0.401105       -10.9146
   5   2.0000      -0.386406       -10.5146
   6   2.0000      -0.328528        -8.9397
   7   2.0000      -0.305953        -8.3254
   8   2.0000      -0.290150        -7.8954
   9   0.0000       0.010038         0.2731
  10   0.0000       0.041109         1.1186
  11   0.0000       0.078487         2.1357
  12   0.0000       0.082113         2.2344
  13   0.0000       0.102328         2.7845

MULLIKEN ATOMIC CHARGES
-----------------------
   0 C :    0.678701
   1 C :    0.916577
   2 H :   -0.340907
   3 H :   -0.333020
   4 H :   -0.358679
   5 H :   -0.196809
   6 H :   -0.187658
   7 H :   -0.178204
Sum of atomic charges:   -0.0000000

LOEWDIN ATOMIC CHARGES
----------------------
   0 C :    0.097566
   1 C :    0.089630
   2 H :   -0.042527
   3 H :   -0.035941
   4 H :   -0.042980
   5 H :   -0.023006
   6 H :   -0.021461
   7 H :   -0.021282

  Mayer bond orders larger than 0.100000
B(  0-C ,  1-C ) :   1.4301 B(  0-C ,  2-H ) :   0.2110 B(  0-C ,  3-H ) :   0.2077
B(  0-C ,  4-H ) :   0.1828 B(  0-C ,  5-H ) :   0.7686 B(  0-C ,  6-H ) :   0.7433
B(  0-C ,  7-H ) :   0.7709 B(  1-C ,  2-H ) :   0.5847 B(  1-C ,  3-H ) :   0.6490
B(  1-C ,  4-H ) :   0.5847 B(  1-C ,  5-H ) :   0.2075 B(  1-C ,  6-H ) :   0.2136
B(  1-C ,  7-H ) :   0.2173 B(  2-H ,  4-H ) :   0.2901

Dispersion correction           -0.006826932
FINAL SINGLE POINT ENERGY       -79.697065199689

DIPOLE MOMENT
-------------
                                X             Y             Z
Electronic contribution:      0.10417       0.03375      -0.00181
Nuclear contribution   :     -0.14218      -0.04688      -0.00907
                        -----------------------------------------
Total Dipole Moment    :     -0.03801      -0.01313      -0.01088
                        -----------------------------------------
Magnitude (a.u.)       :      0.04166
Magnitude (Debye)      :      0.10590

Rotational constants in cm-1:     2.917838     0.714537     0.705359
Rotational constants in MHz : 87474.579540 21421.280941 21146.123231

                             ****ORCA TERMINATED NORMALLY****
TOTAL RUN TIME: 0 days 0 hours 0 minutes 2 seconds 388 msec
