                         Program Version 5.0.0 -  RELEASE  -
|  1> !BLYP D3BJ RIJCOSX def2-SVPD def2/J TightSCF
|  2> *xyz 0 1
|  3> C         -7.33044       -2.67899       -3.20681
|  4> S         -6.01966       -2.92697       -4.41913
|  5> O         -5.64583       -1.58838       -4.91931
|  6> F         -4.88196       -3.50370       -3.66724
|  7> O         -6.54927       -3.80515       -5.42507
|  8> H         -8.18867       -2.26077       -3.68996
|  9> H         -6.98921       -2.01038       -2.44430
| 10> H         -7.59151       -3.61862       -2.76655
| 11> *
| 12> %MaxCore 64000
| 13>
| 14> %pal nprocs 8
| 15> end
| 16>
| 17> %scf
| 18>   MaxIter 150
| 19> end
| 20>
| 21>
| 22>                          ****END OF INPUT****

CARTESIAN COORDINATES (ANGSTROEM)
---------------------------------
  C     -7.330440   -2.678990   -3.206810
  S     -6.019660   -2.926970   -4.419130
  O     -5.645830   -1.588380   -4.919310
  F     -4.881960   -3.503700   -3.667240
  O     -6.549270   -3.805150   -5.425070
  H     -8.188670   -2.260770   -3.689960
  H     -6.989210   -2.010380   -2.444300
  H     -7.591510   -3.618620   -2.766550

 Total Charge           Charge          ....    0
 Multiplicity           Mult            ....    1
 Number of Electrons    NEL             ....   50
 Basis Dimension        Dim             ....  140

ORBITAL ENERGIES
----------------

  NO   OCC          E(Eh)            E(eV)
   0   2.0000     -88.388649     -2405.1774
   1   2.0000     -24.404966      -664.0929
   2   2.0000     -18.809290      -511.8268
   3   2.0000     -18.798035      -511.5205
   4   2.0000      -9.986317      -271.7415
   5   2.0000      -7.925791      -215.6717
   6   2.0000      -5.964961      -162.3148
   7   2.0000      -5.958703      -162.1445
   8   2.0000      -5.957536      -162.1128
   9   2.0000      -1.238258       -33.6947
  10   2.0000      -1.019382       -27.7388
  11   2.0000      -0.922056       -25.0904
  12   2.0000      -0.726006       -19.7556
  13   2.0000      -0.636319       -17.3151
  14   2.0000      -0.531342       -14.4585
  15   2.0000      -0.502071       -13.6620
  16   2.0000      -0.491804       -13.3827
  17   2.0000      -0.429638       -11.6911
  18   2.0000      -0.426260       -11.5991
  19   2.0000      -0.416428       -11.3316
  20   2.0000      -0.391393       -10.6504
  21   2.0000      -0.340052        -9.2533
  22   2.0000      -0.299262        -8.1433
  23   2.0000      -0.285988        -7.7821
  24   2.0000      -0.267018        -7.2659
  25   0.0000      -0.034360        -0.9350
  26   0.0000      -0.001364        -0.0371
  27   0.0000       0.012603         0.3429
  28   0.0000       0.031708         0.8628
  29   0.0000       0.032153         0.8749

MULLIKEN ATOMIC CHARGES
-----------------------
   0 C :    0.876237
   1 S :    1.085883
   2 O :   -0.590753
   3 F :   -0.348509
   4 O :   -0.550695
   5 H :   -0.164039
   6 H :   -0.155498
   7 H :   -0.152626
Sum of atomic charges:   -0.0000000

LOEWDIN ATOMIC CHARGES
----------------------
   0 C :    0.136088
   1 S :    1.065948
   2 O :   -0.457681
   3 F :   -0.261200
   4 O :   -0.441420
   5 H :   -0.005344
   6 H :   -0.017691
   7 H :   -0.018701

  Mayer bond orders larger than 0.100000
B(  0-C ,  1-S ) :   0.9616 B(  0-C ,  5-H ) :   0.8437 B(  0-C ,  6-H ) :   0.8528
B(  0-C ,  7-H ) :   0.8482 B(  1-S ,  2-O ) :   1.5444 B(  1-S ,  3-F ) :   0.7156
B(  1-S ,  4-O ) :   1.5842 B(  1-S ,  5-H ) :   0.1399 B(  1-S ,  6-H ) :   0.1225
B(  1-S ,  7-H ) :   0.1142 B(  2-O ,  4-O ) :   0.1091

Dispersion correction           -0.012714590
FINAL SINGLE POINT ENERGY      -687.952043579250

DIPOLE MOMENT
-------------
                                X             Y             Z
Electronic contribution:      4.84729      -1.60423      -1.69497
Nuclear contribution   :     -5.44924       1.37171       3.19232
                        -----------------------------------------
Total Dipole Moment    :     -0.60195      -0.23252       1.49735
                        -----------------------------------------
Magnitude (a.u.)       :      1.63048
Magnitude (Debye)      :      4.14436

Rotational constants in cm-1:     0.163884     0.151426     0.145804
Rotational constants in MHz :  4913.124213  4539.628058  4371.086672

                             ****ORCA TERMINATED NORMALLY****
TOTAL RUN TIME: 0 days 0 hours 0 minutes 3 seconds 581 msec
