                         Program Version 5.0.0 -  RELEASE  -
|  1> !BLYP D3BJ RIJCOSX def2-SVPD def2/J TightSCF
|  2> *xyz 0 1
|  3> C         -7.33044       -2.67899       -3.20681
|  4> S         -6.01966       -2.92697       -4.41913
|  5> O         -5.64583       -1.58838       -4.91931
|  6> O         -4.88196       -3.50370       -3.66724
|  7> F         -6.54927       -3.80515       -5.42507
|  8> H         -8.18867       -2.26077       -3.68996
|  9> H         -6.98921       -2.01038       -2.44430
| 10> H         -7.59151       -3.61862       -2.76655
| 11> *
| 12> %MaxCore 64000
| 13>
| 14> %pal nprocs 8
| 15> end
| 16>
| 17> %scf
| 18>   MaxIter 150
| 19> end
| 20>
| 21>
| 22>                          ****END OF INPUT****

CARTESIAN COORDINATES (ANGSTROEM)
---------------------------------
  C     -7.330440   -2.678990   -3.206810
  S     -6.019660   -2.926970   -4.419130
  O     -5.645830   -1.588380   -4.919310
  O     -4.881960   -3.503700   -3.667240
  F     -6.549270   -3.805150   -5.425070
  H     -8.188670   -2.260770   -3.689960
  H     -6.989210   -2.010380   -2.444300
  H     -7.591510   -3.618620   -2.766550

 Total Charge           Charge          ....    0
 Multiplicity           Mult            ....    1
 Number of Electrons    NEL             ....   50
 Basis Dimension        Dim             ....  140

ORBITAL ENERGIES
----------------

  NO   OCC          E(Eh)            E(eV)
   0   2.0000     -88.391102     -2405.2442
   1   2.0000     -24.425955      -664.6640
   2   2.0000     -18.798514      -511.5336
   3   2.0000     -18.796055      -511.4667
   4   2.0000      -9.987180      -271.7650
   5   2.0000      -7.928207      -215.7375
   6   2.0000      -5.967670      -162.3886
   7   2.0000      -5.960858      -162.2032
   8   2.0000      -5.959730      -162.1725
   9   2.0000      -1.274606       -34.6838
  10   2.0000      -1.004489       -27.3335
  11   2.0000      -0.905597       -24.6425
  12   2.0000      -0.728501       -19.8235
  13   2.0000      -0.653358       -17.7788
  14   2.0000      -0.545807       -14.8522
  15   2.0000      -0.527064       -14.3421
  16   2.0000      -0.498227       -13.5575
  17   2.0000      -0.430509       -11.7147
  18   2.0000      -0.425205       -11.5704
  19   2.0000      -0.416436       -11.3318
  20   2.0000      -0.385544       -10.4912
  21   2.0000      -0.331323        -9.0158
  22   2.0000      -0.289708        -7.8834
  23   2.0000      -0.279257        -7.5990
  24   2.0000      -0.254192        -6.9169
  25   0.0000      -0.035267        -0.9597
  26   0.0000       0.000490         0.0133
  27   0.0000       0.011245         0.3060
  28   0.0000       0.025192         0.6855
  29   0.0000       0.031363         0.8534

MULLIKEN ATOMIC CHARGES
-----------------------
   0 C :    0.877387
   1 S :    1.079497
   2 O :   -0.578471
   3 O :   -0.584575
   4 F :   -0.323869
   5 H :   -0.158154
   6 H :   -0.160968
   7 H :   -0.150846
Sum of atomic charges:   -0.0000000

LOEWDIN ATOMIC CHARGES
----------------------
   0 C :    0.135356
   1 S :    1.067672
   2 O :   -0.457121
   3 O :   -0.460642
   4 F :   -0.243458
   5 H :   -0.019502
   6 H :   -0.003968
   7 H :   -0.018337

  Mayer bond orders larger than 0.100000
B(  0-C ,  1-S ) :   0.9625 B(  0-C ,  5-H ) :   0.8471 B(  0-C ,  6-H ) :   0.8489
B(  0-C ,  7-H ) :   0.8483 B(  1-S ,  2-O ) :   1.5478 B(  1-S ,  3-O ) :   1.5445
B(  1-S ,  4-F ) :   0.7717 B(  1-S ,  5-H ) :   0.1123 B(  1-S ,  6-H ) :   0.1477
B(  1-S ,  7-H ) :   0.1131

Dispersion correction           -0.012713379
FINAL SINGLE POINT ENERGY      -687.934155459173

DIPOLE MOMENT
-------------
                                X             Y             Z
Electronic contribution:      2.11787      -2.08377      -4.57655
Nuclear contribution   :     -3.78348       1.67287       4.94851
                        -----------------------------------------
Total Dipole Moment    :     -1.66561      -0.41090       0.37196
                        -----------------------------------------
Magnitude (a.u.)       :      1.75541
Magnitude (Debye)      :      4.46189

Rotational constants in cm-1:     0.163108     0.153882     0.144407
Rotational constants in MHz :  4889.859464  4613.257659  4329.207840

                             ****ORCA TERMINATED NORMALLY****
TOTAL RUN TIME: 0 days 0 hours 0 minutes 3 seconds 624 msec
