                         Program Version 5.0.0 -  RELEASE  -
|  1> !BLYP D3BJ RIJCOSX def2-SVPD def2/J TightSCF xyzfile
|  2>
|  3> *xyzfile 0 1 D2.xyz
|  4>
|  5> %MaxCore 64000
|  6>
|  7> %pal nprocs 4
|  8> end
|  9>
| 10> %scf
| 11>   MaxIter 150
| 12> end
| 13>
| 14>
| 15>                          ****END OF INPUT****

CARTESIAN COORDINATES (ANGSTROEM)
---------------------------------
  C     -2.160376   -1.369486   -3.467104
  C     -3.030108   -1.910857   -4.541074
  C     -2.047717    0.146583   -3.511774
  C     -7.330440   -2.678991   -3.206811
  S     -6.019659   -2.926965   -4.419128
  H     -3.477443   -2.791513   -4.257096
  H     -2.538013   -2.017860   -5.438075
  H     -3.891589   -1.376039   -4.714365
  O     -5.645830   -1.588384   -4.919307
  F     -4.881961   -3.503697   -3.667235
  H     -1.184438   -1.843997   -3.566393
  H     -2.598195   -1.708376   -2.528477
  O     -6.549267   -3.805150   -5.425071
  C     -3.328755    0.875037   -3.103669
  H     -1.740034    0.452343   -4.517126
  H     -1.232611    0.434938   -2.842208
  C     -3.628487    0.771601   -1.609363
  H     -4.175106    0.490791   -3.682203
  H     -3.237812    1.928663   -3.381480
  C     -4.975718    1.361432   -1.190644
  H     -2.830700    1.276234   -1.054766
  H     -3.594312   -0.275838   -1.294603
  C     -6.184720    0.784347   -1.926464
  H     -4.956292    2.445725   -1.342200
  H     -5.097256    1.205252   -0.114136
  C     -6.286921   -0.735882   -1.893531
  H     -6.163994    1.100199   -2.974250
  H     -7.094530    1.223459   -1.504509
  C     -7.468999   -1.246153   -2.713833
  H     -6.360641   -1.090347   -0.859176
  H     -5.369848   -1.171853   -2.295982
  H     -7.601914   -0.601349   -3.585329
  H     -8.389791   -1.173436   -2.126922
  H     -7.118254   -3.379818   -2.398055
  H     -8.241838   -3.004745   -3.706513

 Total Charge           Charge          ....    0
 Multiplicity           Mult            ....    1
 Number of Electrons    NEL             ....  122
 Basis Dimension        Dim             ....  464

ORBITAL ENERGIES
----------------

  NO   OCC          E(Eh)            E(eV)
   0   2.0000     -88.386223     -2405.1114
   1   2.0000     -24.404453      -664.0789
   2   2.0000     -18.809660      -511.8369
   3   2.0000     -18.797664      -511.5104
   4   2.0000      -9.984689      -271.6972
   5   2.0000      -9.948457      -270.7113
   6   2.0000      -9.931242      -270.2428
   7   2.0000      -9.921190      -269.9693
   8   2.0000      -9.916204      -269.8336
   9   2.0000      -9.910424      -269.6763
  10   2.0000      -9.905119      -269.5320
  11   2.0000      -9.902046      -269.4484
  12   2.0000      -9.896443      -269.2959
  13   2.0000      -9.852776      -268.1077
  14   2.0000      -7.922676      -215.5870
  15   2.0000      -5.961915      -162.2320
  16   2.0000      -5.955868      -162.0674
  17   2.0000      -5.954004      -162.0167
  18   2.0000      -1.241990       -33.7963
  19   2.0000      -1.020414       -27.7669
  20   2.0000      -0.925673       -25.1888
  21   2.0000      -0.757493       -20.6124
  22   2.0000      -0.727488       -19.7959
  23   2.0000      -0.702393       -19.1131
  24   2.0000      -0.680648       -18.5214
  25   2.0000      -0.644999       -17.5513
  26   2.0000      -0.630188       -17.1483
  27   2.0000      -0.594705       -16.1828
  28   2.0000      -0.563407       -15.3311
  29   2.0000      -0.549554       -14.9541
  30   2.0000      -0.514330       -13.9956
  31   2.0000      -0.511539       -13.9197
  32   2.0000      -0.505056       -13.7433
  33   2.0000      -0.494308       -13.4508
  34   2.0000      -0.478737       -13.0271
  35   2.0000      -0.447029       -12.1643
  36   2.0000      -0.433442       -11.7946
  37   2.0000      -0.422145       -11.4872
  38   2.0000      -0.416141       -11.3238
  39   2.0000      -0.409733       -11.1494
  40   2.0000      -0.393777       -10.7152
  41   2.0000      -0.383356       -10.4316
  42   2.0000      -0.380710       -10.3597
  43   2.0000      -0.376613       -10.2482
  44   2.0000      -0.356898        -9.7117
  45   2.0000      -0.347391        -9.4530
  46   2.0000      -0.340889        -9.2761
  47   2.0000      -0.335299        -9.1239
  48   2.0000      -0.327133        -8.9018
  49   2.0000      -0.318500        -8.6668
  50   2.0000      -0.312359        -8.4997
  51   2.0000      -0.300646        -8.1810
  52   2.0000      -0.294104        -8.0030
  53   2.0000      -0.288405        -7.8479
  54   2.0000      -0.286336        -7.7916
  55   2.0000      -0.277408        -7.5487
  56   2.0000      -0.276268        -7.5176
  57   2.0000      -0.270460        -7.3596
  58   2.0000      -0.260155        -7.0792
  59   2.0000      -0.258657        -7.0384
  60   2.0000      -0.242739        -6.6053
  61   0.0000      -0.026770        -0.7285
  62   0.0000      -0.009509        -0.2588
  63   0.0000       0.003298         0.0898
  64   0.0000       0.008304         0.2260
  65   0.0000       0.016841         0.4583

MULLIKEN ATOMIC CHARGES
-----------------------
   0 C :    0.419058
   1 C :    2.654563
   2 C :    0.887067
   3 C :    0.748301
   4 S :    1.255819
   5 H :   -0.856245
   6 H :   -0.426672
   7 H :   -1.185449
   8 O :   -0.692891
   9 F :   -0.500347
  10 H :   -0.460581
  11 H :   -0.183481
  12 O :   -0.617443
  13 C :    0.826514
  14 H :   -0.246245
  15 H :   -0.273038
  16 C :    0.158293
  17 H :   -0.841260
  18 H :   -0.190988
  19 C :    1.010428
  20 H :   -0.527696
  21 H :   -0.030307
  22 C :    0.155028
  23 H :   -0.185610
  24 H :   -0.146562
  25 C :    0.731883
  26 H :    0.106528
  27 H :   -0.621684
  28 C :    0.636356
  29 H :   -0.174798
  30 H :   -0.636298
  31 H :    0.000622
  32 H :   -0.391726
  33 H :   -0.186912
  34 H :   -0.214229
Sum of atomic charges:   -0.0000000

LOEWDIN ATOMIC CHARGES
----------------------
   0 C :   -0.033649
   1 C :    0.141509
   2 C :   -0.015945
   3 C :   -0.026824
   4 S :    1.124154
   5 H :   -0.099206
   6 H :   -0.014533
   7 H :   -0.119296
   8 O :   -0.428841
   9 F :   -0.263963
  10 H :    0.016650
  11 H :    0.002415
  12 O :   -0.422521
  13 C :   -0.008520
  14 H :    0.021879
  15 H :    0.012063
  16 C :   -0.026643
  17 H :   -0.005308
  18 H :    0.022399
  19 C :   -0.020030
  20 H :    0.019507
  21 H :   -0.001604
  22 C :   -0.024003
  23 H :    0.018456
  24 H :    0.016296
  25 C :   -0.016758
  26 H :    0.017299
  27 H :    0.021328
  28 C :   -0.027868
  29 H :    0.032854
  30 H :   -0.007721
  31 H :    0.023231
  32 H :    0.032870
  33 H :    0.018950
  34 H :    0.021372

  Mayer bond orders larger than 0.100000
B(  0-C ,  1-C ) :   0.7770 B(  0-C ,  2-C ) :   1.1981 B(  0-C ,  5-H ) :   0.5422
B(  0-C ,  6-H ) :   0.1314 B(  0-C ,  7-H ) :   0.5282 B(  0-C , 10-H ) :   0.6715
B(  0-C , 11-H ) :   0.6326 B(  0-C , 13-C ) :   0.1923 B(  0-C , 14-H ) :   0.1666
B(  0-C , 15-H ) :   0.2449 B(  0-C , 17-H ) :  -0.1053 B(  1-C ,  2-C ) :   0.1348
B(  1-C ,  5-H ) :  -1.0484 B(  1-C ,  6-H ) :   0.3731 B(  1-C ,  7-H ) :  -1.3708
B(  1-C ,  9-F ) :  -0.1259 B(  1-C , 11-H ) :   0.3084 B(  2-C ,  7-H ) :  -0.1279
B(  2-C , 11-H ) :   0.1413 B(  2-C , 13-C ) :   1.1316 B(  2-C , 14-H ) :   0.5025
B(  2-C , 15-H ) :   0.5582 B(  2-C , 17-H ) :   0.2138 B(  2-C , 18-H ) :   0.1050
B(  3-C ,  4-S ) :   0.8415 B(  3-C , 12-O ) :   0.1245 B(  3-C , 25-C ) :   0.1767
B(  3-C , 28-C ) :   1.1865 B(  3-C , 30-H ) :  -0.1002 B(  3-C , 31-H ) :   0.1193
B(  3-C , 33-H ) :   0.7842 B(  3-C , 34-H ) :   0.6098 B(  4-S ,  8-O ) :   1.5047
B(  4-S ,  9-F ) :   0.6264 B(  4-S , 12-O ) :   1.5685 B(  4-S , 33-H ) :   0.1115
B(  5-H ,  6-H ) :  -0.2169 B(  5-H ,  7-H ) :   1.2220 B(  5-H ,  9-F ) :   0.2764
B(  6-H ,  7-H ) :   0.1945 B(  7-H ,  8-O ) :   0.1037 B(  7-H ,  9-F ) :   0.1432
B(  7-H , 10-H ) :   0.1108 B(  7-H , 15-H ) :  -0.1102 B(  7-H , 17-H ) :   0.2119
B(  8-O , 12-O ) :   0.1361 B( 10-H , 11-H ) :  -0.1554 B( 10-H , 18-H ) :   0.1091
B( 11-H , 21-H ) :   0.1314 B( 13-C , 14-H ) :   0.2821 B( 13-C , 15-H ) :   0.1863
B( 13-C , 16-C ) :   1.1083 B( 13-C , 17-H ) :   0.3736 B( 13-C , 18-H ) :   0.5714
B( 13-C , 20-H ) :   0.2307 B( 13-C , 21-H ) :   0.1372 B( 14-H , 15-H ) :  -0.2274
B( 14-H , 17-H ) :   0.1106 B( 16-C , 17-H ) :   0.3096 B( 16-C , 18-H ) :   0.2386
B( 16-C , 19-C ) :   1.1248 B( 16-C , 20-H ) :   0.7770 B( 16-C , 21-H ) :   0.7905
B( 16-C , 22-C ) :   0.2450 B( 16-C , 23-H ) :   0.1851 B( 16-C , 24-H ) :   0.3740
B( 17-H , 26-H ) :   0.1279 B( 19-C , 22-C ) :   1.0929 B( 19-C , 23-H ) :   0.4974
B( 19-C , 24-H ) :   0.5017 B( 22-C , 23-H ) :   0.3272 B( 22-C , 24-H ) :   0.1466
B( 22-C , 25-C ) :   1.2171 B( 22-C , 26-H ) :   0.7310 B( 22-C , 27-H ) :   0.8191
B( 22-C , 28-C ) :   0.1829 B( 22-C , 29-H ) :   0.1263 B( 22-C , 30-H ) :   0.2134
B( 23-H , 24-H ) :  -0.1750 B( 25-C , 26-H ) :   0.1533 B( 25-C , 27-H ) :   0.1924
B( 25-C , 28-C ) :   1.1350 B( 25-C , 29-H ) :   0.5188 B( 25-C , 30-H ) :   0.4789
B( 25-C , 32-H ) :   0.2238 B( 26-H , 27-H ) :  -0.1223 B( 27-H , 31-H ) :  -0.1073
B( 28-C , 29-H ) :   0.1662 B( 28-C , 31-H ) :   0.7541 B( 28-C , 32-H ) :   0.5956
B( 28-C , 33-H ) :   0.1024 B( 28-C , 34-H ) :   0.2653 B( 29-H , 30-H ) :   0.2917
B( 31-H , 32-H ) :  -0.1021

Dispersion correction           -0.082274701
FINAL SINGLE POINT ENERGY     -1041.297269931932

DIPOLE MOMENT
-------------
                                X             Y             Z
Electronic contribution:     -9.52569     -19.47875     -11.12119
Nuclear contribution   :      8.71934      19.48829      12.54264
                        -----------------------------------------
Total Dipole Moment    :     -0.80635       0.00953       1.42145
                        -----------------------------------------
Magnitude (a.u.)       :      1.63426
Magnitude (Debye)      :      4.15397

Rotational constants in cm-1:     0.025810     0.015137     0.010647
Rotational constants in MHz :   773.773140   453.802427   319.195213

                             ****ORCA TERMINATED NORMALLY****
TOTAL RUN TIME: 0 days 0 hours 0 minutes 51 seconds 744 msec
