                         Program Version 5.0.0 -  RELEASE  -
|  1> !M062X D3Zero RIJCOSX def2-TZVPD def2/J TightSCF
|  2> *xyz -1 1
|  3> C         -7.33044       -2.67899       -3.20681
|  4> S         -6.01966       -2.92697       -4.41913
|  5> O         -5.64583       -1.58838       -4.91931
|  6> O         -4.88196       -3.50370       -3.66724
|  7> O         -6.54927       -3.80515       -5.42507
|  8> C         -7.46900       -1.24615       -2.71383
|  9> H         -7.11825       -3.37982       -2.39805
| 10> H         -8.24184       -3.00474       -3.70651
| 11> H         -7.67580       -0.60214       -3.54292
| 12> H         -6.55749       -0.94096       -2.24382
| 13> H         -8.27114       -1.18777       -2.00810
| 14> *
| 15> %MaxCore 64000
| 16>
| 17> %pal nprocs 4
| 18> end
| 19>
| 20> %scf
| 21>   MaxIter 150
| 22> end
| 23>
| 24>
| 25>                          ****END OF INPUT****

CARTESIAN COORDINATES (ANGSTROEM)
---------------------------------
  C     -7.330440   -2.678990   -3.206810
  S     -6.019660   -2.926970   -4.419130
  O     -5.645830   -1.588380   -4.919310
  O     -4.881960   -3.503700   -3.667240
  O     -6.549270   -3.805150   -5.425070
  C     -7.469000   -1.246150   -2.713830
  H     -7.118250   -3.379820   -2.398050
  H     -8.241840   -3.004740   -3.706510
  H     -7.675800   -0.602140   -3.542920
  H     -6.557490   -0.940960   -2.243820
  H     -8.271140   -1.187770   -2.008100

 Total Charge           Charge          ....   -1
 Multiplicity           Mult            ....    1
 Number of Electrons    NEL             ....   58
 Basis Dimension        Dim             ....  285

ORBITAL ENERGIES
----------------

  NO   OCC          E(Eh)            E(eV)
   0   2.0000     -89.890138     -2446.0350
   1   2.0000     -19.409195      -528.1511
   2   2.0000     -19.398601      -527.8628
   3   2.0000     -19.395275      -527.7723
   4   2.0000     -10.398889      -282.9681
   5   2.0000     -10.390808      -282.7483
   6   2.0000      -8.214859      -223.5377
   7   2.0000      -6.137476      -167.0092
   8   2.0000      -6.136375      -166.9792
   9   2.0000      -6.136219      -166.9750
  10   2.0000      -1.042885       -28.3783
  11   2.0000      -0.909024       -24.7358
  12   2.0000      -0.886198       -24.1147
  13   2.0000      -0.733162       -19.9503
  14   2.0000      -0.597670       -16.2634
  15   2.0000      -0.468309       -12.7433
  16   2.0000      -0.393155       -10.6983
  17   2.0000      -0.392263       -10.6740
  18   2.0000      -0.351312        -9.5597
  19   2.0000      -0.336904        -9.1676
  20   2.0000      -0.329016        -8.9530
  21   2.0000      -0.293720        -7.9925
  22   2.0000      -0.285416        -7.7666
  23   2.0000      -0.224538        -6.1100
  24   2.0000      -0.223748        -6.0885
  25   2.0000      -0.185661        -5.0521
  26   2.0000      -0.175118        -4.7652
  27   2.0000      -0.170576        -4.6416
  28   2.0000      -0.135975        -3.7001
  29   0.0000       0.126458         3.4411
  30   0.0000       0.143056         3.8928
  31   0.0000       0.146279         3.9804
  32   0.0000       0.157269         4.2795
  33   0.0000       0.174701         4.7539

MULLIKEN ATOMIC CHARGES
-----------------------
   0 C :   -0.511590
   1 S :    1.323245
   2 O :   -0.769829
   3 O :   -0.771589
   4 O :   -0.748413
   5 C :   -1.056506
   6 H :    0.313105
   7 H :    0.327542
   8 H :    0.270869
   9 H :    0.286905
  10 H :    0.336262
Sum of atomic charges:   -1.0000000

LOEWDIN ATOMIC CHARGES
----------------------
   0 C :   -0.320585
   1 S :    0.386774
   2 O :   -0.420625
   3 O :   -0.433291
   4 O :   -0.397934
   5 C :   -0.154415
   6 H :    0.083112
   7 H :    0.078834
   8 H :    0.059838
   9 H :    0.066926
  10 H :    0.051366

  Mayer bond orders larger than 0.100000
B(  0-C ,  1-S ) :   0.8828 B(  0-C ,  3-O ) :   0.1143 B(  0-C ,  4-O ) :   0.1084
B(  0-C ,  5-C ) :   0.4716 B(  0-C ,  6-H ) :   0.9685 B(  0-C ,  7-H ) :   0.9497
B(  1-S ,  2-O ) :   1.4299 B(  1-S ,  3-O ) :   1.4243 B(  1-S ,  4-O ) :   1.4425
B(  5-C ,  8-H ) :   1.0288 B(  5-C ,  9-H ) :   1.0031 B(  5-C , 10-H ) :   0.9231

Dispersion correction           -0.000149823
FINAL SINGLE POINT ENERGY      -703.157339587892

DIPOLE MOMENT
-------------
                                X             Y             Z
Electronic contribution:      4.64751      -3.50199      -5.07237
Nuclear contribution   :     -6.18165       4.01759       6.33106
                        -----------------------------------------
Total Dipole Moment    :     -1.53414       0.51560       1.25869
                        -----------------------------------------
Magnitude (a.u.)       :      2.05030
Magnitude (Debye)      :      5.21145

Rotational constants in cm-1:     0.161711     0.082788     0.081165
Rotational constants in MHz :  4847.971521  2481.906910  2433.276832

                             ****ORCA TERMINATED NORMALLY****
TOTAL RUN TIME: 0 days 0 hours 0 minutes 46 seconds 230 msec
