                         Program Version 5.0.0 -  RELEASE  -
|  1> !M062X D3Zero RIJCOSX def2-TZVPD def2/J TightSCF
|  2> *xyz 1 1
|  3> C         -2.16038       -1.36949       -3.46710
|  4> N         -3.03011       -1.91086       -4.54107
|  5> C         -2.04772        0.14658       -3.51177
|  6> H         -3.47744       -2.79151       -4.25710
|  7> H         -2.53801       -2.01786       -5.43808
|  8> H         -3.89159       -1.37604       -4.71437
|  9> H         -1.18444       -1.84400       -3.56639
| 10> H         -2.59819       -1.70838       -2.52848
| 11> H         -1.61525        0.44478       -4.44395
| 12> H         -1.42718        0.48198       -2.70720
| 13> H         -3.02145        0.57958       -3.41560
| 14> *
| 15> %MaxCore 64000
| 16>
| 17> %pal nprocs 4
| 18> end
| 19>
| 20> %scf
| 21>   MaxIter 150
| 22> end
| 23>
| 24>
| 25>                          ****END OF INPUT****

CARTESIAN COORDINATES (ANGSTROEM)
---------------------------------
  C     -2.160380   -1.369490   -3.467100
  N     -3.030110   -1.910860   -4.541070
  C     -2.047720    0.146580   -3.511770
  H     -3.477440   -2.791510   -4.257100
  H     -2.538010   -2.017860   -5.438080
  H     -3.891590   -1.376040   -4.714370
  H     -1.184440   -1.844000   -3.566390
  H     -2.598190   -1.708380   -2.528480
  H     -1.615250    0.444780   -4.443950
  H     -1.427180    0.481980   -2.707200
  H     -3.021450    0.579580   -3.415600

 Total Charge           Charge          ....    1
 Multiplicity           Mult            ....    1
 Number of Electrons    NEL             ....   26
 Basis Dimension        Dim             ....  183

ORBITAL ENERGIES
----------------

  NO   OCC          E(Eh)            E(eV)
   0   2.0000     -15.081259      -410.3819
   1   2.0000     -10.790667      -293.6290
   2   2.0000     -10.707927      -291.3775
   3   2.0000      -1.326113       -36.0854
   4   2.0000      -1.063981       -28.9524
   5   2.0000      -0.933515       -25.4022
   6   2.0000      -0.884430       -24.0666
   7   2.0000      -0.843843       -22.9621
   8   2.0000      -0.770387       -20.9633
   9   2.0000      -0.712100       -19.3772
  10   2.0000      -0.646160       -17.5829
  11   2.0000      -0.630715       -17.1626
  12   2.0000      -0.613837       -16.7033
  13   0.0000      -0.178247        -4.8503
  14   0.0000      -0.122845        -3.3428
  15   0.0000      -0.121193        -3.2978
  16   0.0000      -0.113053        -3.0763
  17   0.0000      -0.083240        -2.2651

MULLIKEN ATOMIC CHARGES
-----------------------
   0 C :   -0.272551
   1 N :   -0.501721
   2 C :   -1.163296
   3 H :    0.403158
   4 H :    0.399464
   5 H :    0.397996
   6 H :    0.330742
   7 H :    0.330167
   8 H :    0.370634
   9 H :    0.330043
  10 H :    0.375365
Sum of atomic charges:    1.0000000

LOEWDIN ATOMIC CHARGES
----------------------
   0 C :   -0.199666
   1 N :    0.169944
   2 C :   -0.055194
   3 H :    0.181883
   4 H :    0.187523
   5 H :    0.181813
   6 H :    0.137930
   7 H :    0.135496
   8 H :    0.084263
   9 H :    0.092800
  10 H :    0.083209

  Mayer bond orders larger than 0.100000
B(  0-C ,  1-N ) :   0.8297 B(  0-C ,  2-C ) :   0.5415 B(  0-C ,  6-H ) :   0.9327
B(  0-C ,  7-H ) :   0.8998 B(  1-N ,  3-H ) :   0.8418 B(  1-N ,  4-H ) :   0.8379
B(  1-N ,  5-H ) :   0.8351 B(  2-C ,  8-H ) :   0.9375 B(  2-C ,  9-H ) :   0.9764
B(  2-C , 10-H ) :   0.9027

Dispersion correction           -0.000055695
FINAL SINGLE POINT ENERGY      -135.505603305136

DIPOLE MOMENT
-------------
                                X             Y             Z
Electronic contribution:     -0.63666      -1.47455      -0.76158
Nuclear contribution   :     -0.15215       0.37393      -0.04773
                        -----------------------------------------
Total Dipole Moment    :     -0.78880      -1.10062      -0.80931
                        -----------------------------------------
Magnitude (a.u.)       :      1.57751
Magnitude (Debye)      :      4.00972

Rotational constants in cm-1:     1.020762     0.277172     0.247319
Rotational constants in MHz : 30601.664035  8309.399682  7414.438136

                             ****ORCA TERMINATED NORMALLY****
TOTAL RUN TIME: 0 days 0 hours 0 minutes 22 seconds 269 msec
