                         Program Version 5.0.0 -  RELEASE  -
|  1> !M062X D3Zero RIJCOSX def2-TZVPD def2/J TightSCF xyzfile
|  2>
|  3> *xyzfile 0 1 B.xyz
|  4>
|  5> %MaxCore 64000
|  6>
|  7> %pal nprocs 4
|  8> end
|  9>
| 10> %scf
| 11>   MaxIter 150
| 12> end
| 13>
| 14>
| 15>                          ****END OF INPUT****

CARTESIAN COORDINATES (ANGSTROEM)
---------------------------------
  C     -2.160376   -1.369486   -3.467104
  N     -3.030108   -1.910857   -4.541074
  C     -2.047717    0.146583   -3.511774
  C     -7.330440   -2.678991   -3.206811
  S     -6.019659   -2.926965   -4.419128
  H     -3.477443   -2.791513   -4.257096
  H     -2.538013   -2.017860   -5.438075
  H     -3.891589   -1.376039   -4.714365
  O     -5.645830   -1.588384   -4.919307
  O     -4.881961   -3.503697   -3.667235
  H     -1.184438   -1.843997   -3.566393
  H     -2.598195   -1.708376   -2.528477
  O     -6.549267   -3.805150   -5.425071
  C     -3.328755    0.875037   -3.103669
  H     -1.740034    0.452343   -4.517126
  H     -1.232611    0.434938   -2.842208
  C     -3.628487    0.771601   -1.609363
  H     -4.175106    0.490791   -3.682203
  H     -3.237812    1.928663   -3.381480
  C     -4.975718    1.361432   -1.190644
  H     -2.830700    1.276234   -1.054766
  H     -3.594312   -0.275838   -1.294603
  C     -6.184720    0.784347   -1.926464
  H     -4.956292    2.445725   -1.342200
  H     -5.097256    1.205252   -0.114136
  C     -6.286921   -0.735882   -1.893531
  H     -6.163994    1.100199   -2.974250
  H     -7.094530    1.223459   -1.504509
  C     -7.468999   -1.246153   -2.713833
  H     -6.360641   -1.090347   -0.859176
  H     -5.369848   -1.171853   -2.295982
  H     -7.601914   -0.601349   -3.585329
  H     -8.389791   -1.173436   -2.126922
  H     -7.118254   -3.379818   -2.398055
  H     -8.241838   -3.004745   -3.706513

 Total Charge           Charge          ....    0
 Multiplicity           Mult            ....    1
 Number of Electrons    NEL             ....  122
 Basis Dimension        Dim             ....  725

ORBITAL ENERGIES
----------------

  NO   OCC          E(Eh)            E(eV)
   0   2.0000     -90.058441     -2450.6148
   1   2.0000     -19.580069      -532.8008
   2   2.0000     -19.579893      -532.7960
   3   2.0000     -19.564588      -532.3795
   4   2.0000     -14.850090      -404.0915
   5   2.0000     -10.620622      -289.0018
   6   2.0000     -10.571811      -287.6736
   7   2.0000     -10.551786      -287.1287
   8   2.0000     -10.543102      -286.8924
   9   2.0000     -10.537202      -286.7318
  10   2.0000     -10.535264      -286.6791
  11   2.0000     -10.527782      -286.4755
  12   2.0000     -10.527400      -286.4651
  13   2.0000     -10.524497      -286.3861
  14   2.0000      -8.384098      -228.1429
  15   2.0000      -6.306491      -171.6084
  16   2.0000      -6.305939      -171.5933
  17   2.0000      -6.305051      -171.5692
  18   2.0000      -1.218800       -33.1652
  19   2.0000      -1.115750       -30.3611
  20   2.0000      -1.076534       -29.2940
  21   2.0000      -1.075109       -29.2552
  22   2.0000      -0.938222       -25.5303
  23   2.0000      -0.908304       -24.7162
  24   2.0000      -0.880285       -23.9538
  25   2.0000      -0.833426       -22.6787
  26   2.0000      -0.798046       -21.7159
  27   2.0000      -0.750998       -20.4357
  28   2.0000      -0.710649       -19.3377
  29   2.0000      -0.690678       -18.7943
  30   2.0000      -0.674816       -18.3627
  31   2.0000      -0.648329       -17.6419
  32   2.0000      -0.641069       -17.4444
  33   2.0000      -0.623983       -16.9794
  34   2.0000      -0.585875       -15.9425
  35   2.0000      -0.562704       -15.3120
  36   2.0000      -0.560165       -15.2429
  37   2.0000      -0.549770       -14.9600
  38   2.0000      -0.530172       -14.4267
  39   2.0000      -0.524545       -14.2736
  40   2.0000      -0.514595       -14.0028
  41   2.0000      -0.506274       -13.7764
  42   2.0000      -0.497861       -13.5475
  43   2.0000      -0.483905       -13.1677
  44   2.0000      -0.481010       -13.0889
  45   2.0000      -0.466598       -12.6968
  46   2.0000      -0.452568       -12.3150
  47   2.0000      -0.438489       -11.9319
  48   2.0000      -0.432675       -11.7737
  49   2.0000      -0.416482       -11.3330
  50   2.0000      -0.409021       -11.1300
  51   2.0000      -0.406414       -11.0591
  52   2.0000      -0.395665       -10.7666
  53   2.0000      -0.391843       -10.6626
  54   2.0000      -0.381436       -10.3794
  55   2.0000      -0.377211       -10.2644
  56   2.0000      -0.371634       -10.1127
  57   2.0000      -0.356712        -9.7066
  58   2.0000      -0.346712        -9.4345
  59   2.0000      -0.332297        -9.0423
  60   2.0000      -0.316060        -8.6004
  61   0.0000      -0.013696        -0.3727
  62   0.0000       0.008976         0.2442
  63   0.0000       0.013011         0.3540
  64   0.0000       0.021214         0.5773
  65   0.0000       0.030008         0.8166

MULLIKEN ATOMIC CHARGES
-----------------------
   0 C :   -0.506539
   1 N :   -0.373447
   2 C :   -0.967888
   3 C :   -1.026394
   4 S :    1.568340
   5 H :    0.535310
   6 H :    0.332231
   7 H :    0.386193
   8 O :   -0.919853
   9 O :   -0.940757
  10 H :    0.368149
  11 H :    0.300107
  12 O :   -0.811513
  13 C :   -0.162526
  14 H :    0.369836
  15 H :    0.405309
  16 C :   -0.483846
  17 H :    0.077839
  18 H :    0.359275
  19 C :   -1.162741
  20 H :    0.388495
  21 H :    0.261417
  22 C :   -0.640022
  23 H :    0.370062
  24 H :    0.374544
  25 C :    0.101728
  26 H :    0.274619
  27 H :    0.438236
  28 C :   -0.719419
  29 H :    0.328955
  30 H :   -0.039173
  31 H :    0.297593
  32 H :    0.412991
  33 H :    0.401846
  34 H :    0.401041
Sum of atomic charges:   -0.0000000

LOEWDIN ATOMIC CHARGES
----------------------
   0 C :   -0.159107
   1 N :    0.142962
   2 C :   -0.189816
   3 C :   -0.231907
   4 S :    0.481445
   5 H :    0.081228
   6 H :    0.177414
   7 H :    0.087642
   8 O :   -0.387174
   9 O :   -0.392905
  10 H :    0.127441
  11 H :    0.125699
  12 O :   -0.331011
  13 C :   -0.204995
  14 H :    0.117912
  15 H :    0.120573
  16 C :   -0.220582
  17 H :    0.099173
  18 H :    0.124211
  19 C :   -0.211742
  20 H :    0.117379
  21 H :    0.102152
  22 C :   -0.219647
  23 H :    0.112871
  24 H :    0.113419
  25 C :   -0.221069
  26 H :    0.112631
  27 H :    0.118955
  28 C :   -0.239460
  29 H :    0.128632
  30 H :    0.084989
  31 H :    0.110834
  32 H :    0.118307
  33 H :    0.104924
  34 H :    0.098622

  Mayer bond orders larger than 0.100000
B(  0-C ,  1-N ) :   0.7948 B(  0-C ,  2-C ) :   0.7269 B(  0-C , 10-H ) :   0.8921
B(  0-C , 11-H ) :   0.9076 B(  1-N ,  5-H ) :   0.7011 B(  1-N ,  6-H ) :   0.8789
B(  1-N ,  7-H ) :   0.8220 B(  1-N ,  9-O ) :  -0.1082 B(  2-C , 13-C ) :   0.5770
B(  2-C , 14-H ) :   0.9508 B(  2-C , 15-H ) :   0.9134 B(  2-C , 16-C ) :   0.1972
B(  3-C ,  4-S ) :   0.9304 B(  3-C ,  9-O ) :   0.1228 B(  3-C , 12-O ) :   0.1407
B(  3-C , 28-C ) :   0.5641 B(  3-C , 33-H ) :   0.8760 B(  3-C , 34-H ) :   0.9730
B(  4-S ,  8-O ) :   1.2441 B(  4-S ,  9-O ) :   1.1306 B(  4-S , 12-O ) :   1.2331
B(  4-S , 25-C ) :   0.1022 B( 13-C , 16-C ) :   0.2392 B( 13-C , 17-H ) :   1.0741
B( 13-C , 18-H ) :   0.9022 B( 13-C , 19-C ) :   0.1720 B( 13-C , 21-H ) :  -0.1629
B( 16-C , 19-C ) :   0.6638 B( 16-C , 20-H ) :   0.8849 B( 16-C , 21-H ) :   1.0793
B( 16-C , 22-C ) :  -0.1275 B( 16-C , 25-C ) :   0.1444 B( 19-C , 22-C ) :   0.5872
B( 19-C , 23-H ) :   0.9805 B( 19-C , 24-H ) :   0.9615 B( 19-C , 25-C ) :   0.1566
B( 20-H , 21-H ) :   0.1036 B( 22-C , 25-C ) :   0.2753 B( 22-C , 26-H ) :   1.1130
B( 22-C , 27-H ) :   0.8019 B( 22-C , 28-C ) :   0.3736 B( 25-C , 26-H ) :  -0.1806
B( 25-C , 28-C ) :   0.3178 B( 25-C , 29-H ) :   0.9286 B( 25-C , 30-H ) :   1.0297
B( 25-C , 31-H ) :  -0.1059 B( 28-C , 29-H ) :  -0.1283 B( 28-C , 31-H ) :   1.0075
B( 28-C , 32-H ) :   0.8982 B( 28-C , 34-H ) :  -0.1110

Dispersion correction           -0.002361004
FINAL SINGLE POINT ENERGY     -1034.202364347299

DIPOLE MOMENT
-------------
                                X             Y             Z
Electronic contribution:     -5.96118     -15.18147     -11.38879
Nuclear contribution   :      8.59301      16.99497      12.41069
                        -----------------------------------------
Total Dipole Moment    :      2.63183       1.81350       1.02189
                        -----------------------------------------
Magnitude (a.u.)       :      3.35553
Magnitude (Debye)      :      8.52909

Rotational constants in cm-1:     0.025617     0.015295     0.010641
Rotational constants in MHz :   767.991150   458.522408   319.013093

                             ****ORCA TERMINATED NORMALLY****
TOTAL RUN TIME: 0 days 0 hours 7 minutes 13 seconds 535 msec
