                         Program Version 5.0.0 -  RELEASE  -
|  1> !M062X D3Zero RIJCOSX def2-TZVPD def2/J TightSCF
|  2> *xyz 0 1
|  3> C         -7.33044       -2.67899       -3.20681
|  4> S         -6.01966       -2.92697       -4.41913
|  5> F         -5.64583       -1.58838       -4.91931
|  6> O         -4.88196       -3.50370       -3.66724
|  7> O         -6.54927       -3.80515       -5.42507
|  8> C         -7.46900       -1.24615       -2.71383
|  9> H         -7.11825       -3.37982       -2.39805
| 10> H         -8.24184       -3.00474       -3.70651
| 11> H         -7.67580       -0.60214       -3.54292
| 12> H         -6.55749       -0.94096       -2.24382
| 13> H         -8.27114       -1.18777       -2.00810
| 14> *
| 15> %MaxCore 64000
| 16>
| 17> %pal nprocs 4
| 18> end
| 19>
| 20> %scf
| 21>   MaxIter 150
| 22> end
| 23>
| 24>
| 25>                          ****END OF INPUT****

CARTESIAN COORDINATES (ANGSTROEM)
---------------------------------
  C     -7.330440   -2.678990   -3.206810
  S     -6.019660   -2.926970   -4.419130
  F     -5.645830   -1.588380   -4.919310
  O     -4.881960   -3.503700   -3.667240
  O     -6.549270   -3.805150   -5.425070
  C     -7.469000   -1.246150   -2.713830
  H     -7.118250   -3.379820   -2.398050
  H     -8.241840   -3.004740   -3.706510
  H     -7.675800   -0.602140   -3.542920
  H     -6.557490   -0.940960   -2.243820
  H     -8.271140   -1.187770   -2.008100

 Total Charge           Charge          ....    0
 Multiplicity           Mult            ....    1
 Number of Electrons    NEL             ....   58
 Basis Dimension        Dim             ....  285

ORBITAL ENERGIES
----------------

  NO   OCC          E(Eh)            E(eV)
   0   2.0000     -90.152068     -2453.1625
   1   2.0000     -25.353281      -689.8978
   2   2.0000     -19.644266      -534.5477
   3   2.0000     -19.629820      -534.1545
   4   2.0000     -10.601693      -288.4867
   5   2.0000     -10.563308      -287.4422
   6   2.0000      -8.477286      -230.6787
   7   2.0000      -6.402199      -174.2127
   8   2.0000      -6.397038      -174.0723
   9   2.0000      -6.396576      -174.0597
  10   2.0000      -1.503545       -40.9135
  11   2.0000      -1.232120       -33.5277
  12   2.0000      -1.129837       -30.7444
  13   2.0000      -0.930299       -25.3147
  14   2.0000      -0.824244       -22.4288
  15   2.0000      -0.769137       -20.9293
  16   2.0000      -0.682572       -18.5737
  17   2.0000      -0.670695       -18.2505
  18   2.0000      -0.632497       -17.2111
  19   2.0000      -0.574921       -15.6444
  20   2.0000      -0.555484       -15.1155
  21   2.0000      -0.527268       -14.3477
  22   2.0000      -0.519103       -14.1255
  23   2.0000      -0.484363       -13.1802
  24   2.0000      -0.466453       -12.6928
  25   2.0000      -0.461095       -12.5470
  26   2.0000      -0.408455       -11.1146
  27   2.0000      -0.395063       -10.7502
  28   2.0000      -0.386825       -10.5260
  29   0.0000      -0.002503        -0.0681
  30   0.0000       0.020758         0.5649
  31   0.0000       0.024942         0.6787
  32   0.0000       0.028632         0.7791
  33   0.0000       0.055286         1.5044

MULLIKEN ATOMIC CHARGES
-----------------------
   0 C :   -0.437787
   1 S :    1.330508
   2 F :   -0.170948
   3 O :   -0.662663
   4 O :   -0.642443
   5 C :   -1.148554
   6 H :    0.351910
   7 H :    0.363121
   8 H :    0.344797
   9 H :    0.341656
  10 H :    0.330403
Sum of atomic charges:    0.0000000

LOEWDIN ATOMIC CHARGES
----------------------
   0 C :   -0.267175
   1 S :    0.635078
   2 F :   -0.088700
   3 O :   -0.316763
   4 O :   -0.282608
   5 C :   -0.116570
   6 H :    0.109199
   7 H :    0.100843
   8 H :    0.071816
   9 H :    0.078280
  10 H :    0.076599

  Mayer bond orders larger than 0.100000
B(  0-C ,  1-S ) :   0.8664 B(  0-C ,  5-C ) :   0.4791 B(  0-C ,  6-H ) :   0.9270
B(  0-C ,  7-H ) :   0.9160 B(  1-S ,  2-F ) :   0.9086 B(  1-S ,  3-O ) :   1.6010
B(  1-S ,  4-O ) :   1.6296 B(  5-C ,  8-H ) :   0.9408 B(  5-C ,  9-H ) :   0.9587
B(  5-C , 10-H ) :   0.9479

Dispersion correction           -0.000156820
FINAL SINGLE POINT ENERGY      -727.681469499772

DIPOLE MOMENT
-------------
                                X             Y             Z
Electronic contribution:      5.61445      -1.68981      -6.35721
Nuclear contribution   :     -6.81251       2.87933       7.15058
                        -----------------------------------------
Total Dipole Moment    :     -1.19806       1.18952       0.79337
                        -----------------------------------------
Magnitude (a.u.)       :      1.86541
Magnitude (Debye)      :      4.74149

Rotational constants in cm-1:     0.152543     0.082494     0.078987
Rotational constants in MHz :  4573.135887  2473.116216  2367.980829

                             ****ORCA TERMINATED NORMALLY****
TOTAL RUN TIME: 0 days 0 hours 0 minutes 52 seconds 437 msec
