                         Program Version 5.0.0 -  RELEASE  -
|  1> !M062X D3Zero RIJCOSX def2-TZVPD def2/J TightSCF
|  2> *xyz 0 1
|  3> C         -2.16038       -1.36949       -3.46710
|  4> C         -3.03011       -1.91086       -4.54107
|  5> C         -2.04772        0.14658       -3.51177
|  6> H         -3.47744       -2.79151       -4.25710
|  7> H         -2.53801       -2.01786       -5.43808
|  8> H         -3.89159       -1.37604       -4.71437
|  9> H         -1.18444       -1.84400       -3.56639
| 10> H         -2.59819       -1.70838       -2.52848
| 11> H         -1.61525        0.44478       -4.44395
| 12> H         -1.42718        0.48198       -2.70720
| 13> H         -3.02145        0.57958       -3.41560
| 14> *
| 15> %MaxCore 64000
| 16>
| 17> %pal nprocs 4
| 18> end
| 19>
| 20> %scf
| 21>   MaxIter 150
| 22> end
| 23>
| 24>
| 25>                          ****END OF INPUT****

CARTESIAN COORDINATES (ANGSTROEM)
---------------------------------
  C     -2.160380   -1.369490   -3.467100
  C     -3.030110   -1.910860   -4.541070
  C     -2.047720    0.146580   -3.511770
  H     -3.477440   -2.791510   -4.257100
  H     -2.538010   -2.017860   -5.438080
  H     -3.891590   -1.376040   -4.714370
  H     -1.184440   -1.844000   -3.566390
  H     -2.598190   -1.708380   -2.528480
  H     -1.615250    0.444780   -4.443950
  H     -1.427180    0.481980   -2.707200
  H     -3.021450    0.579580   -3.415600

 Total Charge           Charge          ....    0
 Multiplicity           Mult            ....    1
 Number of Electrons    NEL             ....   26
 Basis Dimension        Dim             ....  183

ORBITAL ENERGIES
----------------

  NO   OCC          E(Eh)            E(eV)
   0   2.0000     -10.519612      -286.2532
   1   2.0000     -10.510080      -285.9938
   2   2.0000     -10.491531      -285.4891
   3   2.0000      -0.889821       -24.2133
   4   2.0000      -0.784008       -21.3340
   5   2.0000      -0.672071       -18.2880
   6   2.0000      -0.540290       -14.7020
   7   2.0000      -0.507648       -13.8138
   8   2.0000      -0.466879       -12.7044
   9   2.0000      -0.458833       -12.4855
  10   2.0000      -0.399718       -10.8769
  11   2.0000      -0.388099       -10.5607
  12   2.0000      -0.386396       -10.5144
  13   0.0000       0.024078         0.6552
  14   0.0000       0.043704         1.1892
  15   0.0000       0.046756         1.2723
  16   0.0000       0.073281         1.9941
  17   0.0000       0.095995         2.6122

MULLIKEN ATOMIC CHARGES
-----------------------
   0 C :   -0.176968
   1 C :   -1.287013
   2 C :   -1.138113
   3 H :    0.362722
   4 H :    0.335303
   5 H :    0.375623
   6 H :    0.284397
   7 H :    0.304953
   8 H :    0.319977
   9 H :    0.301144
  10 H :    0.317974
Sum of atomic charges:    0.0000000

LOEWDIN ATOMIC CHARGES
----------------------
   0 C :   -0.318646
   1 C :   -0.135295
   2 C :   -0.118223
   3 H :    0.051631
   4 H :    0.058066
   5 H :    0.054940
   6 H :    0.105626
   7 H :    0.104133
   8 H :    0.068849
   9 H :    0.061360
  10 H :    0.067560

  Mayer bond orders larger than 0.100000
B(  0-C ,  1-C ) :   0.4861 B(  0-C ,  2-C ) :   0.5360 B(  0-C ,  6-H ) :   0.9651
B(  0-C ,  7-H ) :   0.9611 B(  1-C ,  3-H ) :   0.9362 B(  1-C ,  4-H ) :   0.9500
B(  1-C ,  5-H ) :   0.9169 B(  2-C ,  8-H ) :   0.9663 B(  2-C ,  9-H ) :   0.9985
B(  2-C , 10-H ) :   0.9741

Dispersion correction           -0.000054268
FINAL SINGLE POINT ENERGY      -119.095991021136

DIPOLE MOMENT
-------------
                                X             Y             Z
Electronic contribution:      0.31991      -0.12847       0.27671
Nuclear contribution   :     -0.34625       0.09603      -0.26933
                        -----------------------------------------
Total Dipole Moment    :     -0.02634      -0.03243       0.00738
                        -----------------------------------------
Magnitude (a.u.)       :      0.04243
Magnitude (Debye)      :      0.10784

Rotational constants in cm-1:     1.028617     0.291238     0.258956
Rotational constants in MHz : 30837.159054  8731.095379  7763.318586

                             ****ORCA TERMINATED NORMALLY****
TOTAL RUN TIME: 0 days 0 hours 0 minutes 22 seconds 60 msec
