                         Program Version 5.0.0 -  RELEASE  -
|  1> !M062X D3Zero RIJCOSX def2-TZVPD def2/J TightSCF
|  2> *xyz 0 1
|  3> C         -7.33044       -2.67899       -3.20681
|  4> S         -6.01966       -2.92697       -4.41913
|  5> O         -5.64583       -1.58838       -4.91931
|  6> F         -4.88196       -3.50370       -3.66724
|  7> O         -6.54927       -3.80515       -5.42507
|  8> C         -7.46900       -1.24615       -2.71383
|  9> H         -7.11825       -3.37982       -2.39805
| 10> H         -8.24184       -3.00474       -3.70651
| 11> H         -7.67580       -0.60214       -3.54292
| 12> H         -6.55749       -0.94096       -2.24382
| 13> H         -8.27114       -1.18777       -2.00810
| 14> *
| 15> %MaxCore 64000
| 16>
| 17> %pal nprocs 4
| 18> end
| 19>
| 20> %scf
| 21>   MaxIter 150
| 22> end
| 23>
| 24>
| 25>                          ****END OF INPUT****

CARTESIAN COORDINATES (ANGSTROEM)
---------------------------------
  C     -7.330440   -2.678990   -3.206810
  S     -6.019660   -2.926970   -4.419130
  O     -5.645830   -1.588380   -4.919310
  F     -4.881960   -3.503700   -3.667240
  O     -6.549270   -3.805150   -5.425070
  C     -7.469000   -1.246150   -2.713830
  H     -7.118250   -3.379820   -2.398050
  H     -8.241840   -3.004740   -3.706510
  H     -7.675800   -0.602140   -3.542920
  H     -6.557490   -0.940960   -2.243820
  H     -8.271140   -1.187770   -2.008100

 Total Charge           Charge          ....    0
 Multiplicity           Mult            ....    1
 Number of Electrons    NEL             ....   58
 Basis Dimension        Dim             ....  285

ORBITAL ENERGIES
----------------

  NO   OCC          E(Eh)            E(eV)
   0   2.0000     -90.152145     -2453.1646
   1   2.0000     -25.350348      -689.8181
   2   2.0000     -19.644211      -534.5461
   3   2.0000     -19.633032      -534.2420
   4   2.0000     -10.601938      -288.4934
   5   2.0000     -10.554409      -287.2001
   6   2.0000      -8.477341      -230.6802
   7   2.0000      -6.402178      -174.2121
   8   2.0000      -6.397287      -174.0790
   9   2.0000      -6.396551      -174.0590
  10   2.0000      -1.499844       -40.8128
  11   2.0000      -1.233154       -33.5558
  12   2.0000      -1.133220       -30.8365
  13   2.0000      -0.925726       -25.1903
  14   2.0000      -0.824939       -22.4477
  15   2.0000      -0.762649       -20.7527
  16   2.0000      -0.672705       -18.3052
  17   2.0000      -0.666768       -18.1437
  18   2.0000      -0.640311       -17.4237
  19   2.0000      -0.570140       -15.5143
  20   2.0000      -0.561574       -15.2812
  21   2.0000      -0.535338       -14.5673
  22   2.0000      -0.501053       -13.6343
  23   2.0000      -0.471988       -12.8434
  24   2.0000      -0.471328       -12.8255
  25   2.0000      -0.455039       -12.3822
  26   2.0000      -0.408702       -11.1213
  27   2.0000      -0.400084       -10.8868
  28   2.0000      -0.389889       -10.6094
  29   0.0000      -0.000475        -0.0129
  30   0.0000       0.019514         0.5310
  31   0.0000       0.024103         0.6559
  32   0.0000       0.030045         0.8176
  33   0.0000       0.053289         1.4501

MULLIKEN ATOMIC CHARGES
-----------------------
   0 C :   -0.518050
   1 S :    1.329689
   2 O :   -0.662442
   3 F :   -0.164783
   4 O :   -0.646886
   5 C :   -1.074770
   6 H :    0.395051
   7 H :    0.360492
   8 H :    0.313335
   9 H :    0.320028
  10 H :    0.348336
Sum of atomic charges:    0.0000000

LOEWDIN ATOMIC CHARGES
----------------------
   0 C :   -0.270752
   1 S :    0.638187
   2 O :   -0.308086
   3 F :   -0.093669
   4 O :   -0.283250
   5 C :   -0.115080
   6 H :    0.100041
   7 H :    0.104274
   8 H :    0.075414
   9 H :    0.077218
  10 H :    0.075704

  Mayer bond orders larger than 0.100000
B(  0-C ,  1-S ) :   0.8767 B(  0-C ,  5-C ) :   0.5175 B(  0-C ,  6-H ) :   0.8577
B(  0-C ,  7-H ) :   0.9240 B(  1-S ,  2-O ) :   1.5992 B(  1-S ,  3-F ) :   0.9003
B(  1-S ,  4-O ) :   1.6196 B(  5-C ,  8-H ) :   1.0015 B(  5-C ,  9-H ) :   0.9605
B(  5-C , 10-H ) :   0.9246

Dispersion correction           -0.000152665
FINAL SINGLE POINT ENERGY      -727.684652395796

DIPOLE MOMENT
-------------
                                X             Y             Z
Electronic contribution:      6.96047      -4.96710      -4.23693
Nuclear contribution   :     -7.60849       4.87515       5.84588
                        -----------------------------------------
Total Dipole Moment    :     -0.64802      -0.09195       1.60895
                        -----------------------------------------
Magnitude (a.u.)       :      1.73698
Magnitude (Debye)      :      4.41506

Rotational constants in cm-1:     0.153704     0.080342     0.079431
Rotational constants in MHz :  4607.928650  2408.599360  2381.267225

                             ****ORCA TERMINATED NORMALLY****
TOTAL RUN TIME: 0 days 0 hours 0 minutes 49 seconds 733 msec
