                         Program Version 5.0.0 -  RELEASE  -
|  1> !M062X D3Zero RIJCOSX def2-TZVPD def2/J TightSCF
|  2> *xyz 0 1
|  3> C         -7.33044       -2.67899       -3.20681
|  4> S         -6.01966       -2.92697       -4.41913
|  5> O         -5.64583       -1.58838       -4.91931
|  6> O         -4.88196       -3.50370       -3.66724
|  7> F         -6.54927       -3.80515       -5.42507
|  8> C         -7.46900       -1.24615       -2.71383
|  9> H         -7.11825       -3.37982       -2.39805
| 10> H         -8.24184       -3.00474       -3.70651
| 11> H         -7.67580       -0.60214       -3.54292
| 12> H         -6.55749       -0.94096       -2.24382
| 13> H         -8.27114       -1.18777       -2.00810
| 14> *
| 15> %MaxCore 64000
| 16>
| 17> %pal nprocs 4
| 18> end
| 19>
| 20> %scf
| 21>   MaxIter 150
| 22> end
| 23>
| 24>
| 25>                          ****END OF INPUT****

CARTESIAN COORDINATES (ANGSTROEM)
---------------------------------
  C     -7.330440   -2.678990   -3.206810
  S     -6.019660   -2.926970   -4.419130
  O     -5.645830   -1.588380   -4.919310
  O     -4.881960   -3.503700   -3.667240
  F     -6.549270   -3.805150   -5.425070
  C     -7.469000   -1.246150   -2.713830
  H     -7.118250   -3.379820   -2.398050
  H     -8.241840   -3.004740   -3.706510
  H     -7.675800   -0.602140   -3.542920
  H     -6.557490   -0.940960   -2.243820
  H     -8.271140   -1.187770   -2.008100

 Total Charge           Charge          ....    0
 Multiplicity           Mult            ....    1
 Number of Electrons    NEL             ....   58
 Basis Dimension        Dim             ....  285

ORBITAL ENERGIES
----------------

  NO   OCC          E(Eh)            E(eV)
   0   2.0000     -90.154366     -2453.2250
   1   2.0000     -25.372461      -690.4198
   2   2.0000     -19.633517      -534.2551
   3   2.0000     -19.630514      -534.1735
   4   2.0000     -10.602626      -288.5121
   5   2.0000     -10.554648      -287.2066
   6   2.0000      -8.479609      -230.7419
   7   2.0000      -6.404394      -174.2724
   8   2.0000      -6.399400      -174.1365
   9   2.0000      -6.398858      -174.1218
  10   2.0000      -1.537451       -41.8362
  11   2.0000      -1.216271       -33.0964
  12   2.0000      -1.116058       -30.3695
  13   2.0000      -0.926297       -25.2058
  14   2.0000      -0.841443       -22.8968
  15   2.0000      -0.770417       -20.9641
  16   2.0000      -0.694748       -18.9051
  17   2.0000      -0.689568       -18.7641
  18   2.0000      -0.643160       -17.5013
  19   2.0000      -0.570009       -15.5107
  20   2.0000      -0.561174       -15.2703
  21   2.0000      -0.521425       -14.1887
  22   2.0000      -0.497740       -13.5442
  23   2.0000      -0.474339       -12.9074
  24   2.0000      -0.458606       -12.4793
  25   2.0000      -0.454635       -12.3712
  26   2.0000      -0.400755       -10.9051
  27   2.0000      -0.392924       -10.6920
  28   2.0000      -0.376480       -10.2445
  29   0.0000      -0.001422        -0.0387
  30   0.0000       0.016605         0.4519
  31   0.0000       0.024499         0.6667
  32   0.0000       0.030448         0.8285
  33   0.0000       0.054141         1.4732

MULLIKEN ATOMIC CHARGES
-----------------------
   0 C :   -0.516533
   1 S :    1.297866
   2 O :   -0.656700
   3 O :   -0.654998
   4 F :   -0.119532
   5 C :   -1.100286
   6 H :    0.358582
   7 H :    0.400961
   8 H :    0.314527
   9 H :    0.329597
  10 H :    0.346517
Sum of atomic charges:    0.0000000

LOEWDIN ATOMIC CHARGES
----------------------
   0 C :   -0.276024
   1 S :    0.637861
   2 O :   -0.309010
   3 O :   -0.315640
   4 F :   -0.059317
   5 C :   -0.109667
   6 H :    0.103603
   7 H :    0.095395
   8 H :    0.073874
   9 H :    0.082129
  10 H :    0.076796

  Mayer bond orders larger than 0.100000
B(  0-C ,  1-S ) :   0.8768 B(  0-C ,  5-C ) :   0.5508 B(  0-C ,  6-H ) :   0.9358
B(  0-C ,  7-H ) :   0.8448 B(  1-S ,  2-O ) :   1.6063 B(  1-S ,  3-O ) :   1.5976
B(  1-S ,  4-F ) :   0.9458 B(  5-C ,  8-H ) :   0.9808 B(  5-C ,  9-H ) :   0.9690
B(  5-C , 10-H ) :   0.9175

Dispersion correction           -0.000148182
FINAL SINGLE POINT ENERGY      -727.666467319141

DIPOLE MOMENT
-------------
                                X             Y             Z
Electronic contribution:      4.10683      -5.46247      -7.24625
Nuclear contribution   :     -5.87110       5.18927       7.67759
                        -----------------------------------------
Total Dipole Moment    :     -1.76427      -0.27320       0.43135
                        -----------------------------------------
Magnitude (a.u.)       :      1.83667
Magnitude (Debye)      :      4.66844

Rotational constants in cm-1:     0.155988     0.080452     0.078187
Rotational constants in MHz :  4676.405251  2411.902056  2343.983816

                             ****ORCA TERMINATED NORMALLY****
TOTAL RUN TIME: 0 days 0 hours 0 minutes 51 seconds 491 msec
