                         Program Version 5.0.0 -  RELEASE  -
|  1> !M062X D3Zero RIJCOSX def2-TZVPD def2/J TightSCF xyzfile
|  2>
|  3> *xyzfile 0 1 D1.xyz
|  4>
|  5> %MaxCore 64000
|  6>
|  7> %pal nprocs 4
|  8> end
|  9>
| 10> %scf
| 11>   MaxIter 150
| 12> end
| 13>
| 14>
| 15>                          ****END OF INPUT****

CARTESIAN COORDINATES (ANGSTROEM)
---------------------------------
  C     -2.160376   -1.369486   -3.467104
  C     -3.030108   -1.910857   -4.541074
  C     -2.047717    0.146583   -3.511774
  C     -7.330440   -2.678991   -3.206811
  S     -6.019659   -2.926965   -4.419128
  H     -3.477443   -2.791513   -4.257096
  H     -2.538013   -2.017860   -5.438075
  H     -3.891589   -1.376039   -4.714365
  F     -5.645830   -1.588384   -4.919307
  O     -4.881961   -3.503697   -3.667235
  H     -1.184438   -1.843997   -3.566393
  H     -2.598195   -1.708376   -2.528477
  O     -6.549267   -3.805150   -5.425071
  C     -3.328755    0.875037   -3.103669
  H     -1.740034    0.452343   -4.517126
  H     -1.232611    0.434938   -2.842208
  C     -3.628487    0.771601   -1.609363
  H     -4.175106    0.490791   -3.682203
  H     -3.237812    1.928663   -3.381480
  C     -4.975718    1.361432   -1.190644
  H     -2.830700    1.276234   -1.054766
  H     -3.594312   -0.275838   -1.294603
  C     -6.184720    0.784347   -1.926464
  H     -4.956292    2.445725   -1.342200
  H     -5.097256    1.205252   -0.114136
  C     -6.286921   -0.735882   -1.893531
  H     -6.163994    1.100199   -2.974250
  H     -7.094530    1.223459   -1.504509
  C     -7.468999   -1.246153   -2.713833
  H     -6.360641   -1.090347   -0.859176
  H     -5.369848   -1.171853   -2.295982
  H     -7.601914   -0.601349   -3.585329
  H     -8.389791   -1.173436   -2.126922
  H     -7.118254   -3.379818   -2.398055
  H     -8.241838   -3.004745   -3.706513

 Total Charge           Charge          ....    0
 Multiplicity           Mult            ....    1
 Number of Electrons    NEL             ....  122
 Basis Dimension        Dim             ....  725

ORBITAL ENERGIES
----------------

  NO   OCC          E(Eh)            E(eV)
   0   2.0000     -90.156613     -2453.2862
   1   2.0000     -25.357361      -690.0089
   2   2.0000     -19.648545      -534.6641
   3   2.0000     -19.633016      -534.2415
   4   2.0000     -10.600952      -288.4666
   5   2.0000     -10.569658      -287.6150
   6   2.0000     -10.548314      -287.0342
   7   2.0000     -10.539998      -286.8079
   8   2.0000     -10.532842      -286.6132
   9   2.0000     -10.525787      -286.4212
  10   2.0000     -10.523409      -286.3565
  11   2.0000     -10.515795      -286.1493
  12   2.0000     -10.505564      -285.8709
  13   2.0000     -10.457715      -284.5689
  14   2.0000      -8.482129      -230.8105
  15   2.0000      -6.407043      -174.3445
  16   2.0000      -6.401762      -174.2008
  17   2.0000      -6.401488      -174.1933
  18   2.0000      -1.511497       -41.1299
  19   2.0000      -1.238380       -33.6980
  20   2.0000      -1.139365       -31.0037
  21   2.0000      -0.949084       -25.8259
  22   2.0000      -0.916942       -24.9513
  23   2.0000      -0.887209       -24.1422
  24   2.0000      -0.858796       -23.3690
  25   2.0000      -0.819974       -22.3126
  26   2.0000      -0.801372       -21.8064
  27   2.0000      -0.762971       -20.7615
  28   2.0000      -0.725537       -19.7429
  29   2.0000      -0.709023       -19.2935
  30   2.0000      -0.685603       -18.6562
  31   2.0000      -0.681407       -18.5420
  32   2.0000      -0.653619       -17.7859
  33   2.0000      -0.639791       -17.4096
  34   2.0000      -0.626863       -17.0578
  35   2.0000      -0.573290       -15.6000
  36   2.0000      -0.566078       -15.4038
  37   2.0000      -0.554478       -15.0881
  38   2.0000      -0.542544       -14.7634
  39   2.0000      -0.537168       -14.6171
  40   2.0000      -0.523647       -14.2492
  41   2.0000      -0.506898       -13.7934
  42   2.0000      -0.503696       -13.7063
  43   2.0000      -0.495411       -13.4808
  44   2.0000      -0.482568       -13.1314
  45   2.0000      -0.465921       -12.6784
  46   2.0000      -0.459451       -12.5023
  47   2.0000      -0.457052       -12.4370
  48   2.0000      -0.440211       -11.9787
  49   2.0000      -0.430462       -11.7135
  50   2.0000      -0.422576       -11.4989
  51   2.0000      -0.417719       -11.3667
  52   2.0000      -0.406427       -11.0594
  53   2.0000      -0.399074       -10.8594
  54   2.0000      -0.392839       -10.6897
  55   2.0000      -0.387383       -10.5412
  56   2.0000      -0.383369       -10.4320
  57   2.0000      -0.374740       -10.1972
  58   2.0000      -0.363141        -9.8816
  59   2.0000      -0.359993        -9.7959
  60   2.0000      -0.340686        -9.2705
  61   0.0000      -0.002781        -0.0757
  62   0.0000       0.011923         0.3244
  63   0.0000       0.017806         0.4845
  64   0.0000       0.023496         0.6393
  65   0.0000       0.034025         0.9259

MULLIKEN ATOMIC CHARGES
-----------------------
   0 C :   -0.171331
   1 C :   -1.524302
   2 C :   -1.018219
   3 C :   -0.871024
   4 S :    1.453637
   5 H :    0.568402
   6 H :    0.458071
   7 H :    0.369502
   8 F :   -0.221545
   9 O :   -0.735106
  10 H :    0.362709
  11 H :    0.180184
  12 O :   -0.745944
  13 C :   -0.154544
  14 H :    0.395331
  15 H :    0.358080
  16 C :   -0.471762
  17 H :    0.006295
  18 H :    0.352115
  19 C :   -1.172890
  20 H :    0.403599
  21 H :    0.235793
  22 C :   -0.612296
  23 H :    0.372426
  24 H :    0.371762
  25 C :    0.112189
  26 H :    0.297731
  27 H :    0.423349
  28 C :   -0.869701
  29 H :    0.318644
  30 H :   -0.015349
  31 H :    0.313147
  32 H :    0.414734
  33 H :    0.414949
  34 H :    0.401365
Sum of atomic charges:    0.0000000

LOEWDIN ATOMIC CHARGES
----------------------
   0 C :   -0.240063
   1 C :   -0.132531
   2 C :   -0.214200
   3 C :   -0.205681
   4 S :    0.670984
   5 H :    0.003976
   6 H :    0.073699
   7 H :    0.020730
   8 F :   -0.105001
   9 O :   -0.312844
  10 H :    0.113217
  11 H :    0.105269
  12 O :   -0.263483
  13 C :   -0.212054
  14 H :    0.115822
  15 H :    0.109637
  16 C :   -0.220529
  17 H :    0.093286
  18 H :    0.118640
  19 C :   -0.212892
  20 H :    0.117891
  21 H :    0.102149
  22 C :   -0.221019
  23 H :    0.113245
  24 H :    0.112332
  25 C :   -0.215326
  26 H :    0.110407
  27 H :    0.118505
  28 C :   -0.233342
  29 H :    0.133159
  30 H :    0.092350
  31 H :    0.113565
  32 H :    0.125400
  33 H :    0.118772
  34 H :    0.105928

  Mayer bond orders larger than 0.100000
B(  0-C ,  1-C ) :   0.2964 B(  0-C ,  2-C ) :   0.6523 B(  0-C ,  7-H ) :  -0.1493
B(  0-C , 10-H ) :   0.9092 B(  0-C , 11-H ) :   1.0705 B(  1-C ,  2-C ) :   0.1561
B(  1-C ,  5-H ) :   0.7740 B(  1-C ,  6-H ) :   0.8333 B(  1-C ,  7-H ) :   0.8933
B(  1-C ,  8-F ) :   0.1686 B(  1-C ,  9-O ) :   0.1589 B(  2-C , 13-C ) :   0.7037
B(  2-C , 14-H ) :   0.9165 B(  2-C , 15-H ) :   0.9441 B(  2-C , 16-C ) :   0.2116
B(  3-C ,  4-S ) :   0.8837 B(  3-C ,  9-O ) :   0.1010 B(  3-C , 12-O ) :   0.1361
B(  3-C , 28-C ) :   0.6044 B(  3-C , 33-H ) :   0.8638 B(  3-C , 34-H ) :   0.9876
B(  4-S ,  8-F ) :   0.9343 B(  4-S ,  9-O ) :   1.4605 B(  4-S , 12-O ) :   1.3095
B(  5-H ,  9-O ) :  -0.2678 B(  7-H ,  8-F ) :  -0.1916 B( 13-C , 16-C ) :   0.2425
B( 13-C , 17-H ) :   1.0890 B( 13-C , 18-H ) :   0.9030 B( 13-C , 19-C ) :   0.1783
B( 13-C , 21-H ) :  -0.1530 B( 13-C , 22-C ) :   0.1019 B( 16-C , 17-H ) :  -0.1225
B( 16-C , 19-C ) :   0.6015 B( 16-C , 20-H ) :   0.8578 B( 16-C , 21-H ) :   1.1146
B( 16-C , 22-C ) :  -0.1271 B( 16-C , 25-C ) :   0.1349 B( 19-C , 22-C ) :   0.6312
B( 19-C , 23-H ) :   0.9816 B( 19-C , 24-H ) :   0.9675 B( 19-C , 25-C ) :   0.1625
B( 22-C , 25-C ) :   0.2944 B( 22-C , 26-H ) :   1.0872 B( 22-C , 27-H ) :   0.8128
B( 22-C , 28-C ) :   0.3403 B( 25-C , 26-H ) :  -0.1762 B( 25-C , 28-C ) :   0.1223
B( 25-C , 29-H ) :   0.9502 B( 25-C , 30-H ) :   1.0581 B( 25-C , 31-H ) :  -0.1575
B( 28-C , 29-H ) :  -0.1239 B( 28-C , 31-H ) :   1.0445 B( 28-C , 32-H ) :   0.8891
B( 28-C , 34-H ) :  -0.1143

Dispersion correction           -0.002315727
FINAL SINGLE POINT ENERGY     -1042.092319344515

DIPOLE MOMENT
-------------
                                X             Y             Z
Electronic contribution:    -10.86408     -16.16100     -13.15164
Nuclear contribution   :      9.63012      17.20461      14.03552
                        -----------------------------------------
Total Dipole Moment    :     -1.23396       1.04361       0.88387
                        -----------------------------------------
Magnitude (a.u.)       :      1.84202
Magnitude (Debye)      :      4.68203

Rotational constants in cm-1:     0.025899     0.015189     0.010690
Rotational constants in MHz :   776.424978   455.369614   320.488876

                             ****ORCA TERMINATED NORMALLY****
TOTAL RUN TIME: 0 days 0 hours 8 minutes 10 seconds 907 msec
