                         Program Version 5.0.0 -  RELEASE  -
|  1> !M062X D3Zero RIJCOSX def2-TZVPD def2/J TightSCF xyzfile
|  2>
|  3> *xyzfile 0 1 D2.xyz
|  4>
|  5> %MaxCore 64000
|  6>
|  7> %pal nprocs 4
|  8> end
|  9>
| 10> %scf
| 11>   MaxIter 150
| 12> end
| 13>
| 14>
| 15>                          ****END OF INPUT****

CARTESIAN COORDINATES (ANGSTROEM)
---------------------------------
  C     -2.160376   -1.369486   -3.467104
  C     -3.030108   -1.910857   -4.541074
  C     -2.047717    0.146583   -3.511774
  C     -7.330440   -2.678991   -3.206811
  S     -6.019659   -2.926965   -4.419128
  H     -3.477443   -2.791513   -4.257096
  H     -2.538013   -2.017860   -5.438075
  H     -3.891589   -1.376039   -4.714365
  O     -5.645830   -1.588384   -4.919307
  F     -4.881961   -3.503697   -3.667235
  H     -1.184438   -1.843997   -3.566393
  H     -2.598195   -1.708376   -2.528477
  O     -6.549267   -3.805150   -5.425071
  C     -3.328755    0.875037   -3.103669
  H     -1.740034    0.452343   -4.517126
  H     -1.232611    0.434938   -2.842208
  C     -3.628487    0.771601   -1.609363
  H     -4.175106    0.490791   -3.682203
  H     -3.237812    1.928663   -3.381480
  C     -4.975718    1.361432   -1.190644
  H     -2.830700    1.276234   -1.054766
  H     -3.594312   -0.275838   -1.294603
  C     -6.184720    0.784347   -1.926464
  H     -4.956292    2.445725   -1.342200
  H     -5.097256    1.205252   -0.114136
  C     -6.286921   -0.735882   -1.893531
  H     -6.163994    1.100199   -2.974250
  H     -7.094530    1.223459   -1.504509
  C     -7.468999   -1.246153   -2.713833
  H     -6.360641   -1.090347   -0.859176
  H     -5.369848   -1.171853   -2.295982
  H     -7.601914   -0.601349   -3.585329
  H     -8.389791   -1.173436   -2.126922
  H     -7.118254   -3.379818   -2.398055
  H     -8.241838   -3.004745   -3.706513

 Total Charge           Charge          ....    0
 Multiplicity           Mult            ....    1
 Number of Electrons    NEL             ....  122
 Basis Dimension        Dim             ....  725

ORBITAL ENERGIES
----------------

  NO   OCC          E(Eh)            E(eV)
   0   2.0000     -90.156893     -2453.2938
   1   2.0000     -25.354573      -689.9330
   2   2.0000     -19.648641      -534.6667
   3   2.0000     -19.636714      -534.3421
   4   2.0000     -10.601694      -288.4868
   5   2.0000     -10.562615      -287.4234
   6   2.0000     -10.544948      -286.9426
   7   2.0000     -10.534354      -286.6543
   8   2.0000     -10.529124      -286.5120
   9   2.0000     -10.523051      -286.3468
  10   2.0000     -10.517679      -286.2006
  11   2.0000     -10.514712      -286.1199
  12   2.0000     -10.508186      -285.9423
  13   2.0000     -10.460995      -284.6582
  14   2.0000      -8.482364      -230.8169
  15   2.0000      -6.407220      -174.3493
  16   2.0000      -6.402181      -174.2122
  17   2.0000      -6.401646      -174.1976
  18   2.0000      -1.509464       -41.0746
  19   2.0000      -1.239337       -33.7241
  20   2.0000      -1.141712       -31.0676
  21   2.0000      -0.943997       -25.6875
  22   2.0000      -0.914225       -24.8773
  23   2.0000      -0.886137       -24.1130
  24   2.0000      -0.859297       -23.3827
  25   2.0000      -0.819134       -22.2898
  26   2.0000      -0.800507       -21.7829
  27   2.0000      -0.760092       -20.6831
  28   2.0000      -0.721837       -19.6422
  29   2.0000      -0.708332       -19.2747
  30   2.0000      -0.679782       -18.4978
  31   2.0000      -0.671726       -18.2786
  32   2.0000      -0.657225       -17.8840
  33   2.0000      -0.644607       -17.5406
  34   2.0000      -0.624149       -16.9840
  35   2.0000      -0.581358       -15.8196
  36   2.0000      -0.558629       -15.2011
  37   2.0000      -0.550562       -14.9816
  38   2.0000      -0.545047       -14.8315
  39   2.0000      -0.537983       -14.6393
  40   2.0000      -0.515901       -14.0384
  41   2.0000      -0.502681       -13.6786
  42   2.0000      -0.500469       -13.6184
  43   2.0000      -0.495252       -13.4765
  44   2.0000      -0.477208       -12.9855
  45   2.0000      -0.469314       -12.7707
  46   2.0000      -0.455548       -12.3961
  47   2.0000      -0.448163       -12.1951
  48   2.0000      -0.440650       -11.9907
  49   2.0000      -0.429634       -11.6909
  50   2.0000      -0.421467       -11.4687
  51   2.0000      -0.410155       -11.1609
  52   2.0000      -0.401548       -10.9267
  53   2.0000      -0.401324       -10.9206
  54   2.0000      -0.394469       -10.7341
  55   2.0000      -0.389785       -10.6066
  56   2.0000      -0.378565       -10.3013
  57   2.0000      -0.373089       -10.1523
  58   2.0000      -0.360930        -9.8214
  59   2.0000      -0.357987        -9.7413
  60   2.0000      -0.348951        -9.4954
  61   0.0000      -0.001294        -0.0352
  62   0.0000       0.012809         0.3486
  63   0.0000       0.018593         0.5059
  64   0.0000       0.023591         0.6420
  65   0.0000       0.034292         0.9331

MULLIKEN ATOMIC CHARGES
-----------------------
   0 C :   -0.159824
   1 C :   -1.553511
   2 C :   -1.037557
   3 C :   -1.038990
   4 S :    1.432403
   5 H :    0.487852
   6 H :    0.435205
   7 H :    0.473367
   8 O :   -0.729989
   9 F :   -0.198719
  10 H :    0.355056
  11 H :    0.194960
  12 O :   -0.739322
  13 C :   -0.175376
  14 H :    0.396792
  15 H :    0.360516
  16 C :   -0.469844
  17 H :    0.050427
  18 H :    0.344793
  19 C :   -1.161639
  20 H :    0.402879
  21 H :    0.225422
  22 C :   -0.671399
  23 H :    0.371516
  24 H :    0.368957
  25 C :    0.115400
  26 H :    0.310337
  27 H :    0.436180
  28 C :   -0.687061
  29 H :    0.352899
  30 H :   -0.108997
  31 H :    0.323256
  32 H :    0.433273
  33 H :    0.457973
  34 H :    0.402769
Sum of atomic charges:    0.0000000

LOEWDIN ATOMIC CHARGES
----------------------
   0 C :   -0.244643
   1 C :   -0.127368
   2 C :   -0.211761
   3 C :   -0.209310
   4 S :    0.671471
   5 H :    0.022402
   6 H :    0.075462
   7 H :    0.007804
   8 O :   -0.304617
   9 F :   -0.116116
  10 H :    0.110878
  11 H :    0.101735
  12 O :   -0.264352
  13 C :   -0.208396
  14 H :    0.117019
  15 H :    0.109228
  16 C :   -0.222268
  17 H :    0.097717
  18 H :    0.119001
  19 C :   -0.213412
  20 H :    0.116944
  21 H :    0.099598
  22 C :   -0.217116
  23 H :    0.113204
  24 H :    0.111249
  25 C :   -0.218060
  26 H :    0.114239
  27 H :    0.118556
  28 C :   -0.230479
  29 H :    0.129705
  30 H :    0.090265
  31 H :    0.116369
  32 H :    0.125520
  33 H :    0.110308
  34 H :    0.109225

  Mayer bond orders larger than 0.100000
B(  0-C ,  1-C ) :   0.2267 B(  0-C ,  2-C ) :   0.6934 B(  0-C ,  7-H ) :  -0.1594
B(  0-C , 10-H ) :   0.9280 B(  0-C , 11-H ) :   1.0498 B(  1-C ,  2-C ) :   0.1683
B(  1-C ,  5-H ) :   0.7807 B(  1-C ,  6-H ) :   0.8806 B(  1-C ,  7-H ) :   0.8383
B(  1-C ,  8-O ) :   0.1679 B(  1-C ,  9-F ) :   0.1408 B(  2-C , 13-C ) :   0.6992
B(  2-C , 14-H ) :   0.9082 B(  2-C , 15-H ) :   0.9477 B(  2-C , 16-C ) :   0.2161
B(  3-C ,  4-S ) :   0.9101 B(  3-C , 12-O ) :   0.1408 B(  3-C , 25-C ) :   0.1551
B(  3-C , 28-C ) :   0.4676 B(  3-C , 33-H ) :   0.8158 B(  3-C , 34-H ) :   0.9744
B(  4-S ,  8-O ) :   1.6056 B(  4-S ,  9-F ) :   0.7981 B(  4-S , 12-O ) :   1.3438
B(  5-H ,  9-F ) :  -0.1168 B(  7-H ,  8-O ) :  -0.2557 B( 13-C , 16-C ) :   0.2240
B( 13-C , 17-H ) :   1.0976 B( 13-C , 18-H ) :   0.9115 B( 13-C , 19-C ) :   0.1728
B( 13-C , 21-H ) :  -0.1527 B( 13-C , 22-C ) :   0.1049 B( 16-C , 17-H ) :  -0.1284
B( 16-C , 19-C ) :   0.6008 B( 16-C , 20-H ) :   0.8620 B( 16-C , 21-H ) :   1.1174
B( 16-C , 22-C ) :  -0.1303 B( 16-C , 25-C ) :   0.1341 B( 19-C , 22-C ) :   0.6229
B( 19-C , 23-H ) :   0.9773 B( 19-C , 24-H ) :   0.9696 B( 19-C , 25-C ) :   0.1604
B( 22-C , 25-C ) :   0.3268 B( 22-C , 26-H ) :   1.0698 B( 22-C , 27-H ) :   0.8046
B( 22-C , 28-C ) :   0.3657 B( 25-C , 26-H ) :  -0.1593 B( 25-C , 28-C ) :   0.2885
B( 25-C , 29-H ) :   0.9374 B( 25-C , 30-H ) :   0.9815 B( 25-C , 31-H ) :  -0.1014
B( 28-C , 29-H ) :  -0.1234 B( 28-C , 31-H ) :   1.0004 B( 28-C , 32-H ) :   0.8756
B( 28-C , 34-H ) :  -0.1061

Dispersion correction           -0.002305929
FINAL SINGLE POINT ENERGY     -1042.096053820559

DIPOLE MOMENT
-------------
                                X             Y             Z
Electronic contribution:     -9.52679     -19.49109     -11.05749
Nuclear contribution   :      8.71934      19.48829      12.54264
                        -----------------------------------------
Total Dipole Moment    :     -0.80745      -0.00281       1.48515
                        -----------------------------------------
Magnitude (a.u.)       :      1.69046
Magnitude (Debye)      :      4.29681

Rotational constants in cm-1:     0.025810     0.015137     0.010647
Rotational constants in MHz :   773.773140   453.802427   319.195213

                             ****ORCA TERMINATED NORMALLY****
TOTAL RUN TIME: 0 days 0 hours 8 minutes 18 seconds 430 msec
