                         Program Version 5.0.0 -  RELEASE  -
|  1> !M062X D3Zero RIJCOSX def2-TZVPD def2/J TightSCF xyzfile
|  2>
|  3> *xyzfile 0 1 D3.xyz
|  4>
|  5> %MaxCore 64000
|  6>
|  7> %pal nprocs 4
|  8> end
|  9>
| 10> %scf
| 11>   MaxIter 150
| 12> end
| 13>
| 14>
| 15>                          ****END OF INPUT****

CARTESIAN COORDINATES (ANGSTROEM)
---------------------------------
  C     -2.160376   -1.369486   -3.467104
  C     -3.030108   -1.910857   -4.541074
  C     -2.047717    0.146583   -3.511774
  C     -7.330440   -2.678991   -3.206811
  S     -6.019659   -2.926965   -4.419128
  H     -3.477443   -2.791513   -4.257096
  H     -2.538013   -2.017860   -5.438075
  H     -3.891589   -1.376039   -4.714365
  O     -5.645830   -1.588384   -4.919307
  O     -4.881961   -3.503697   -3.667235
  H     -1.184438   -1.843997   -3.566393
  H     -2.598195   -1.708376   -2.528477
  F     -6.549267   -3.805150   -5.425071
  C     -3.328755    0.875037   -3.103669
  H     -1.740034    0.452343   -4.517126
  H     -1.232611    0.434938   -2.842208
  C     -3.628487    0.771601   -1.609363
  H     -4.175106    0.490791   -3.682203
  H     -3.237812    1.928663   -3.381480
  C     -4.975718    1.361432   -1.190644
  H     -2.830700    1.276234   -1.054766
  H     -3.594312   -0.275838   -1.294603
  C     -6.184720    0.784347   -1.926464
  H     -4.956292    2.445725   -1.342200
  H     -5.097256    1.205252   -0.114136
  C     -6.286921   -0.735882   -1.893531
  H     -6.163994    1.100199   -2.974250
  H     -7.094530    1.223459   -1.504509
  C     -7.468999   -1.246153   -2.713833
  H     -6.360641   -1.090347   -0.859176
  H     -5.369848   -1.171853   -2.295982
  H     -7.601914   -0.601349   -3.585329
  H     -8.389791   -1.173436   -2.126922
  H     -7.118254   -3.379818   -2.398055
  H     -8.241838   -3.004745   -3.706513

 Total Charge           Charge          ....    0
 Multiplicity           Mult            ....    1
 Number of Electrons    NEL             ....  122
 Basis Dimension        Dim             ....  725

ORBITAL ENERGIES
----------------

  NO   OCC          E(Eh)            E(eV)
   0   2.0000     -90.163093     -2453.4625
   1   2.0000     -25.379276      -690.6052
   2   2.0000     -19.641756      -534.4794
   3   2.0000     -19.638388      -534.3877
   4   2.0000     -10.603731      -288.5422
   5   2.0000     -10.563289      -287.4417
   6   2.0000     -10.537137      -286.7301
   7   2.0000     -10.528859      -286.5048
   8   2.0000     -10.522860      -286.3416
   9   2.0000     -10.514622      -286.1174
  10   2.0000     -10.508802      -285.9591
  11   2.0000     -10.502886      -285.7981
  12   2.0000     -10.491289      -285.4825
  13   2.0000     -10.435563      -283.9661
  14   2.0000      -8.488548      -230.9851
  15   2.0000      -6.413369      -174.5166
  16   2.0000      -6.408232      -174.3769
  17   2.0000      -6.407919      -174.3683
  18   2.0000      -1.544367       -42.0244
  19   2.0000      -1.230583       -33.4859
  20   2.0000      -1.130480       -30.7619
  21   2.0000      -0.942909       -25.6578
  22   2.0000      -0.907760       -24.7014
  23   2.0000      -0.877727       -23.8842
  24   2.0000      -0.857975       -23.3467
  25   2.0000      -0.823002       -22.3950
  26   2.0000      -0.793029       -21.5794
  27   2.0000      -0.754916       -20.5423
  28   2.0000      -0.719084       -19.5673
  29   2.0000      -0.702934       -19.1278
  30   2.0000      -0.696168       -18.9437
  31   2.0000      -0.686317       -18.6756
  32   2.0000      -0.650146       -17.6914
  33   2.0000      -0.643641       -17.5144
  34   2.0000      -0.613662       -16.6986
  35   2.0000      -0.577720       -15.7206
  36   2.0000      -0.564613       -15.3639
  37   2.0000      -0.547389       -14.8952
  38   2.0000      -0.543358       -14.7855
  39   2.0000      -0.530075       -14.4241
  40   2.0000      -0.517633       -14.0855
  41   2.0000      -0.498840       -13.5741
  42   2.0000      -0.488718       -13.2987
  43   2.0000      -0.484231       -13.1766
  44   2.0000      -0.475947       -12.9512
  45   2.0000      -0.453808       -12.3487
  46   2.0000      -0.451582       -12.2882
  47   2.0000      -0.441890       -12.0245
  48   2.0000      -0.428999       -11.6737
  49   2.0000      -0.422386       -11.4937
  50   2.0000      -0.411488       -11.1971
  51   2.0000      -0.404588       -11.0094
  52   2.0000      -0.401282       -10.9194
  53   2.0000      -0.395108       -10.7514
  54   2.0000      -0.385864       -10.4999
  55   2.0000      -0.374759       -10.1977
  56   2.0000      -0.367724       -10.0063
  57   2.0000      -0.363006        -9.8779
  58   2.0000      -0.347045        -9.4436
  59   2.0000      -0.340930        -9.2772
  60   2.0000      -0.327579        -8.9139
  61   0.0000      -0.006843        -0.1862
  62   0.0000       0.014224         0.3871
  63   0.0000       0.015662         0.4262
  64   0.0000       0.025005         0.6804
  65   0.0000       0.035529         0.9668

MULLIKEN ATOMIC CHARGES
-----------------------
   0 C :   -0.167758
   1 C :   -1.506038
   2 C :   -1.026784
   3 C :   -1.048029
   4 S :    1.368618
   5 H :    0.493032
   6 H :    0.445175
   7 H :    0.447518
   8 O :   -0.737146
   9 O :   -0.727609
  10 H :    0.361928
  11 H :    0.179547
  12 F :   -0.140015
  13 C :   -0.164778
  14 H :    0.393973
  15 H :    0.358082
  16 C :   -0.477124
  17 H :    0.031534
  18 H :    0.347915
  19 C :   -1.161191
  20 H :    0.402929
  21 H :    0.230854
  22 C :   -0.637792
  23 H :    0.370453
  24 H :    0.368181
  25 C :    0.090811
  26 H :    0.307023
  27 H :    0.428347
  28 C :   -0.743202
  29 H :    0.336980
  30 H :   -0.063930
  31 H :    0.307527
  32 H :    0.422920
  33 H :    0.417337
  34 H :    0.490714
Sum of atomic charges:   -0.0000000

LOEWDIN ATOMIC CHARGES
----------------------
   0 C :   -0.244194
   1 C :   -0.138556
   2 C :   -0.214977
   3 C :   -0.213744
   4 S :    0.692758
   5 H :    0.002658
   6 H :    0.070942
   7 H :    0.007984
   8 O :   -0.303844
   9 O :   -0.310439
  10 H :    0.109732
  11 H :    0.103522
  12 F :   -0.043686
  13 C :   -0.209756
  14 H :    0.115184
  15 H :    0.107559
  16 C :   -0.221689
  17 H :    0.097044
  18 H :    0.117494
  19 C :   -0.214204
  20 H :    0.116394
  21 H :    0.101436
  22 C :   -0.218972
  23 H :    0.112372
  24 H :    0.110799
  25 C :   -0.213632
  26 H :    0.113202
  27 H :    0.116958
  28 C :   -0.227914
  29 H :    0.130653
  30 H :    0.094589
  31 H :    0.114515
  32 H :    0.125608
  33 H :    0.113466
  34 H :    0.100737

  Mayer bond orders larger than 0.100000
B(  0-C ,  1-C ) :   0.2784 B(  0-C ,  2-C ) :   0.6676 B(  0-C ,  7-H ) :  -0.1528
B(  0-C , 10-H ) :   0.9147 B(  0-C , 11-H ) :   1.0568 B(  1-C ,  2-C ) :   0.1579
B(  1-C ,  5-H ) :   0.8543 B(  1-C ,  6-H ) :   0.8881 B(  1-C ,  7-H ) :   0.8570
B(  1-C ,  8-O ) :   0.1503 B(  1-C ,  9-O ) :   0.1113 B(  2-C , 13-C ) :   0.7002
B(  2-C , 14-H ) :   0.9153 B(  2-C , 15-H ) :   0.9468 B(  2-C , 16-C ) :   0.2195
B(  3-C ,  4-S ) :   0.8512 B(  3-C ,  9-O ) :   0.1078 B(  3-C , 28-C ) :   0.5981
B(  3-C , 33-H ) :   0.8902 B(  3-C , 34-H ) :   0.8338 B(  4-S ,  8-O ) :   1.6211
B(  4-S ,  9-O ) :   1.5304 B(  4-S , 12-F ) :   0.8112 B(  5-H ,  9-O ) :  -0.2422
B(  7-H ,  8-O ) :  -0.2864 B( 13-C , 16-C ) :   0.2323 B( 13-C , 17-H ) :   1.1013
B( 13-C , 18-H ) :   0.9059 B( 13-C , 19-C ) :   0.1706 B( 13-C , 21-H ) :  -0.1478
B( 13-C , 22-C ) :   0.1086 B( 16-C , 17-H ) :  -0.1252 B( 16-C , 19-C ) :   0.5941
B( 16-C , 20-H ) :   0.8606 B( 16-C , 21-H ) :   1.1172 B( 16-C , 22-C ) :  -0.1320
B( 16-C , 25-C ) :   0.1394 B( 19-C , 22-C ) :   0.6272 B( 19-C , 23-H ) :   0.9802
B( 19-C , 24-H ) :   0.9684 B( 19-C , 25-C ) :   0.1604 B( 22-C , 25-C ) :   0.3018
B( 22-C , 26-H ) :   1.0756 B( 22-C , 27-H ) :   0.8083 B( 22-C , 28-C ) :   0.3627
B( 25-C , 26-H ) :  -0.1712 B( 25-C , 28-C ) :   0.3091 B( 25-C , 29-H ) :   0.9333
B( 25-C , 30-H ) :   1.0174 B( 25-C , 31-H ) :  -0.1047 B( 28-C , 29-H ) :  -0.1302
B( 28-C , 31-H ) :   0.9997 B( 28-C , 32-H ) :   0.8803

Dispersion correction           -0.002303819
FINAL SINGLE POINT ENERGY     -1042.077565249326

DIPOLE MOMENT
-------------
                                X             Y             Z
Electronic contribution:    -12.67132     -20.26896     -14.28715
Nuclear contribution   :     10.70731      19.84772      14.63855
                        -----------------------------------------
Total Dipole Moment    :     -1.96401      -0.42125       0.35141
                        -----------------------------------------
Magnitude (a.u.)       :      2.03919
Magnitude (Debye)      :      5.18320

Rotational constants in cm-1:     0.026014     0.014812     0.010477
Rotational constants in MHz :   779.874765   444.063394   314.081855

                             ****ORCA TERMINATED NORMALLY****
TOTAL RUN TIME: 0 days 0 hours 7 minutes 49 seconds 558 msec
