                         Program Version 5.0.0 -  RELEASE  -
|  1> !TPSS D3BJ RIJCOSX def2-TZVP def2/J TightSCF
|  2> *xyz -1 1
|  3> C         -0.90349       -0.87394       -1.98739
|  4> C         -0.96015       -0.52236       -0.48987
|  5> H         -1.69039       -1.20813       -0.02168
|  6> H         -1.41449        0.48633       -0.40668
|  7> O          0.26170       -0.58031        0.13861
|  8> H         -1.88568       -0.80774       -2.40670
|  9> H         -0.53143       -1.87013       -2.10605
| 10> H         -0.25399       -0.18836       -2.49039
| 11> *
| 12>
| 13> %MaxCore 64000
| 14>
| 15> %pal nprocs 4
| 16> end
| 17>
| 18> %scf
| 19>   MaxIter 150
| 20> end
| 21>
| 22>
| 23>                          ****END OF INPUT****

CARTESIAN COORDINATES (ANGSTROEM)
---------------------------------
  C     -0.903490   -0.873940   -1.987390
  C     -0.960150   -0.522360   -0.489870
  H     -1.690390   -1.208130   -0.021680
  H     -1.414490    0.486330   -0.406680
  O      0.261700   -0.580310    0.138610
  H     -1.885680   -0.807740   -2.406700
  H     -0.531430   -1.870130   -2.106050
  H     -0.253990   -0.188360   -2.490390

 Total Charge           Charge          ....   -1
 Multiplicity           Mult            ....    1
 Number of Electrons    NEL             ....   26
 Basis Dimension        Dim             ....  123

ORBITAL ENERGIES
----------------

  NO   OCC          E(Eh)            E(eV)
   0   2.0000     -18.532658      -504.2993
   1   2.0000      -9.787485      -266.3310
   2   2.0000      -9.768775      -265.8219
   3   2.0000      -0.598696       -16.2913
   4   2.0000      -0.464531       -12.6405
   5   2.0000      -0.317014        -8.6264
   6   2.0000      -0.201926        -5.4947
   7   2.0000      -0.181011        -4.9256
   8   2.0000      -0.124627        -3.3913
   9   2.0000      -0.112579        -3.0634
  10   2.0000      -0.056366        -1.5338
  11   2.0000       0.083533         2.2731
  12   2.0000       0.086853         2.3634
  13   0.0000       0.208582         5.6758
  14   0.0000       0.244211         6.6453
  15   0.0000       0.267858         7.2888
  16   0.0000       0.270807         7.3690
  17   0.0000       0.303491         8.2584

MULLIKEN ATOMIC CHARGES
-----------------------
   0 C :   -0.090645
   1 C :    0.049835
   2 H :   -0.079718
   3 H :   -0.082195
   4 O :   -0.760981
   5 H :   -0.056868
   6 H :    0.010352
   7 H :    0.010221
Sum of atomic charges:   -1.0000000

LOEWDIN ATOMIC CHARGES
----------------------
   0 C :   -0.358586
   1 C :   -0.545895
   2 H :    0.047902
   3 H :    0.047401
   4 O :   -0.416965
   5 H :    0.064610
   6 H :    0.080780
   7 H :    0.080753

  Mayer bond orders larger than 0.100000
B(  0-C ,  1-C ) :   0.8899 B(  0-C ,  4-O ) :  -0.3266 B(  0-C ,  5-H ) :   0.8968
B(  0-C ,  6-H ) :   0.9528 B(  0-C ,  7-H ) :   0.9527 B(  1-C ,  2-H ) :   0.9080
B(  1-C ,  3-H ) :   0.9064 B(  1-C ,  4-O ) :   1.6370 B(  4-O ,  5-H ) :   0.1329

Dispersion correction           -0.004550408
FINAL SINGLE POINT ENERGY      -154.504376913333

DIPOLE MOMENT
-------------
                                X             Y             Z
Electronic contribution:      2.14329       0.17090       2.31621
Nuclear contribution   :     -2.90669      -0.27617      -3.31210
                        -----------------------------------------
Total Dipole Moment    :     -0.76341      -0.10527      -0.99589
                        -----------------------------------------
Magnitude (a.u.)       :      1.25924
Magnitude (Debye)      :      3.20072

Rotational constants in cm-1:     1.291883     0.321656     0.284469
Rotational constants in MHz : 38729.676116  9643.011620  8528.167295

                             ****ORCA TERMINATED NORMALLY****
TOTAL RUN TIME: 0 days 0 hours 0 minutes 6 seconds 144 msec
