                         Program Version 5.0.0 -  RELEASE  -
|  1> !TPSS D3BJ RIJCOSX def2-TZVP def2/J TightSCF
|  2> *xyz 1 1
|  3> C          4.36645       -0.13321       -1.41606
|  4> C          4.50829       -0.93187       -2.72425
|  5> C          3.05650       -0.32080       -0.70738
|  6> N          2.38983        0.71129       -0.24391
|  7> N          2.51600       -1.50772       -0.55023
|  8> H          2.96768       -2.32291       -0.95631
|  9> H          1.54987       -1.49063       -0.24988
| 10> H          2.74307        1.64947       -0.41280
| 11> H          1.44036        0.50278        0.03703
| 12> H          4.48784        0.93300       -1.61157
| 13> H          5.16967       -0.41443       -0.72982
| 14> H          5.46700       -0.73824       -3.15818
| 15> H          3.74074       -0.63528       -3.40821
| 16> H          4.41574       -1.97727       -2.51573
| 17> *
| 18>
| 19> %MaxCore 64000
| 20>
| 21> %pal nprocs 4
| 22> end
| 23>
| 24> %scf
| 25>   MaxIter 150
| 26> end
| 27>
| 28>
| 29>                          ****END OF INPUT****

CARTESIAN COORDINATES (ANGSTROEM)
---------------------------------
  C      4.366450   -0.133210   -1.416060
  C      4.508290   -0.931870   -2.724250
  C      3.056500   -0.320800   -0.707380
  N      2.389830    0.711290   -0.243910
  N      2.516000   -1.507720   -0.550230
  H      2.967680   -2.322910   -0.956310
  H      1.549870   -1.490630   -0.249880
  H      2.743070    1.649470   -0.412800
  H      1.440360    0.502780    0.037030
  H      4.487840    0.933000   -1.611570
  H      5.169670   -0.414430   -0.729820
  H      5.467000   -0.738240   -3.158180
  H      3.740740   -0.635280   -3.408210
  H      4.415740   -1.977270   -2.515730

 Total Charge           Charge          ....    1
 Multiplicity           Mult            ....    1
 Number of Electrons    NEL             ....   40
 Basis Dimension        Dim             ....  209

ORBITAL ENERGIES
----------------

  NO   OCC          E(Eh)            E(eV)
   0   2.0000     -14.347242      -390.4083
   1   2.0000     -14.345897      -390.3717
   2   2.0000     -10.295434      -280.1530
   3   2.0000     -10.186817      -277.1974
   4   2.0000     -10.144962      -276.0584
   5   2.0000      -1.146281       -31.1919
   6   2.0000      -1.047655       -28.5081
   7   2.0000      -0.914202       -24.8767
   8   2.0000      -0.810195       -22.0465
   9   2.0000      -0.770388       -20.9633
  10   2.0000      -0.723369       -19.6839
  11   2.0000      -0.710495       -19.3336
  12   2.0000      -0.660812       -17.9816
  13   2.0000      -0.616632       -16.7794
  14   2.0000      -0.587631       -15.9903
  15   2.0000      -0.560877       -15.2623
  16   2.0000      -0.516752       -14.0615
  17   2.0000      -0.505148       -13.7458
  18   2.0000      -0.492559       -13.4032
  19   2.0000      -0.456240       -12.4149
  20   0.0000      -0.239100        -6.5062
  21   0.0000      -0.177787        -4.8378
  22   0.0000      -0.131746        -3.5850
  23   0.0000      -0.128764        -3.5038
  24   0.0000      -0.093374        -2.5408

MULLIKEN ATOMIC CHARGES
-----------------------
   0 C :   -0.175865
   1 C :   -0.347580
   2 C :    0.241782
   3 N :   -0.300446
   4 N :   -0.303291
   5 H :    0.299049
   6 H :    0.270962
   7 H :    0.303367
   8 H :    0.268191
   9 H :    0.129152
  10 H :    0.175651
  11 H :    0.172919
  12 H :    0.150333
  13 H :    0.115775
Sum of atomic charges:    1.0000000

LOEWDIN ATOMIC CHARGES
----------------------
   0 C :   -0.212206
   1 C :   -0.253876
   2 C :   -0.305377
   3 N :    0.120725
   4 N :    0.120584
   5 H :    0.208193
   6 H :    0.199379
   7 H :    0.210520
   8 H :    0.198474
   9 H :    0.156932
  10 H :    0.172026
  11 H :    0.138331
  12 H :    0.128565
  13 H :    0.117731

  Mayer bond orders larger than 0.100000
B(  0-C ,  1-C ) :   1.0143 B(  0-C ,  2-C ) :   1.0291 B(  0-C ,  9-H ) :   0.9360
B(  0-C , 10-H ) :   0.9131 B(  1-C , 11-H ) :   0.9523 B(  1-C , 12-H ) :   0.9602
B(  1-C , 13-H ) :   0.9620 B(  2-C ,  3-N ) :   1.4760 B(  2-C ,  4-N ) :   1.4493
B(  3-N ,  7-H ) :   0.8741 B(  3-N ,  8-H ) :   0.8856 B(  4-N ,  5-H ) :   0.8802
B(  4-N ,  6-H ) :   0.8845

Dispersion correction           -0.012436551
FINAL SINGLE POINT ENERGY      -229.156762097435

DIPOLE MOMENT
-------------
                                X             Y             Z
Electronic contribution:     -2.68053       0.62503       3.11935
Nuclear contribution   :      1.78847      -0.48174      -2.67127
                        -----------------------------------------
Total Dipole Moment    :     -0.89206       0.14329       0.44808
                        -----------------------------------------
Magnitude (a.u.)       :      1.00850
Magnitude (Debye)      :      2.56341

Rotational constants in cm-1:     0.286883     0.123210     0.094446
Rotational constants in MHz :  8600.540572  3693.747366  2831.415242

                             ****ORCA TERMINATED NORMALLY****
TOTAL RUN TIME: 0 days 0 hours 0 minutes 12 seconds 388 msec
