                         Program Version 5.0.0 -  RELEASE  -
|  1> !TPSS D3BJ RIJCOSX def2-TZVP def2/J TightSCF xyzfile
|  2>
|  3> *xyzfile 0 1 B.xyz
|  4>
|  5> %MaxCore 64000
|  6>
|  7> %pal nprocs 18
|  8> end
|  9>
| 10> %scf
| 11>   MaxIter 150
| 12> end
| 13>
| 14>
| 15>                          ****END OF INPUT****

CARTESIAN COORDINATES (ANGSTROEM)
---------------------------------
  C      4.366454   -0.133215   -1.416062
  C      4.508292   -0.931872   -2.724249
  H      4.753716   -1.972051   -2.488408
  C      3.294164   -0.918214   -3.656570
  H      5.385637   -0.536236   -3.242640
  H      2.483463   -1.477378   -3.185764
  H      3.553092   -1.478495   -4.560331
  C      2.772335    0.460100   -4.051448
  H      2.608762    1.065107   -3.155194
  C      1.465354    0.410537   -4.853644
  H      3.532940    0.988848   -4.635671
  C      0.326171   -0.375613   -4.192580
  H      1.666704   -0.022269   -5.839323
  H      1.138198    1.439246   -5.035449
  C     -0.017405    0.080588   -2.778406
  H      0.585573   -1.439385   -4.168057
  H     -0.560005   -0.311425   -4.831461
  H      0.902090    0.201296   -2.206729
  C     -0.903495   -0.873945   -1.987388
  H     -0.479549    1.074657   -2.811915
  H     -0.502554   -1.892096   -2.081204
  H     -1.917039   -0.895427   -2.406277
  C     -0.960148   -0.522365   -0.489867
  H     -1.690392   -1.208130   -0.021677
  H     -1.414490    0.486329   -0.406677
  O      0.261703   -0.580307    0.138611
  C      3.056503   -0.320797   -0.707384
  N      2.389825    0.711285   -0.243909
  N      2.515999   -1.507721   -0.550229
  H      2.967683   -2.322915   -0.956305
  H      1.549872   -1.490634   -0.249876
  H      2.743071    1.649471   -0.412802
  H      1.440364    0.502778    0.037031
  H      4.487835    0.932997   -1.611569
  H      5.169672   -0.414432   -0.729817

 Total Charge           Charge          ....    0
 Multiplicity           Mult            ....    1
 Number of Electrons    NEL             ....  104
 Basis Dimension        Dim             ....  535

ORBITAL ENERGIES
----------------

  NO   OCC          E(Eh)            E(eV)
   0   2.0000     -18.760473      -510.4984
   1   2.0000     -14.127587      -384.4312
   2   2.0000     -14.127270      -384.4226
   3   2.0000     -10.094987      -274.6986
   4   2.0000     -10.027737      -272.8686
   5   2.0000     -10.013000      -272.4676
   6   2.0000      -9.992829      -271.9187
   7   2.0000      -9.986621      -271.7498
   8   2.0000      -9.978171      -271.5198
   9   2.0000      -9.967907      -271.2405
  10   2.0000      -9.967015      -271.2163
  11   2.0000      -9.954757      -270.8827
  12   2.0000      -9.942151      -270.5397
  13   2.0000      -0.939625       -25.5685
  14   2.0000      -0.839826       -22.8528
  15   2.0000      -0.825007       -22.4496
  16   2.0000      -0.774199       -21.0670
  17   2.0000      -0.739668       -20.1274
  18   2.0000      -0.702195       -19.1077
  19   2.0000      -0.664744       -18.0886
  20   2.0000      -0.628549       -17.1037
  21   2.0000      -0.589494       -16.0409
  22   2.0000      -0.572684       -15.5835
  23   2.0000      -0.560830       -15.2610
  24   2.0000      -0.521032       -14.1780
  25   2.0000      -0.506564       -13.7843
  26   2.0000      -0.501726       -13.6527
  27   2.0000      -0.480871       -13.0852
  28   2.0000      -0.458489       -12.4761
  29   2.0000      -0.457042       -12.4368
  30   2.0000      -0.440765       -11.9938
  31   2.0000      -0.420494       -11.4422
  32   2.0000      -0.405768       -11.0415
  33   2.0000      -0.387994       -10.5579
  34   2.0000      -0.377846       -10.2817
  35   2.0000      -0.372306       -10.1309
  36   2.0000      -0.366363        -9.9692
  37   2.0000      -0.360457        -9.8085
  38   2.0000      -0.342481        -9.3194
  39   2.0000      -0.332513        -9.0481
  40   2.0000      -0.324674        -8.8348
  41   2.0000      -0.315470        -8.5844
  42   2.0000      -0.306530        -8.3411
  43   2.0000      -0.301409        -8.2018
  44   2.0000      -0.283683        -7.7194
  45   2.0000      -0.277426        -7.5491
  46   2.0000      -0.268348        -7.3021
  47   2.0000      -0.262356        -7.1391
  48   2.0000      -0.260421        -7.0864
  49   2.0000      -0.248691        -6.7672
  50   2.0000      -0.144809        -3.9405
  51   2.0000      -0.138628        -3.7723
  52   0.0000      -0.047339        -1.2882
  53   0.0000      -0.006411        -0.1744
  54   0.0000       0.011612         0.3160
  55   0.0000       0.030146         0.8203
  56   0.0000       0.038618         1.0508

MULLIKEN ATOMIC CHARGES
-----------------------
   0 C :   -0.134046
   1 C :   -0.232646
   2 H :    0.116396
   3 C :   -0.164866
   4 H :    0.099854
   5 H :    0.105615
   6 H :    0.089405
   7 C :   -0.238797
   8 H :    0.094739
   9 C :   -0.071547
  10 H :    0.082192
  11 C :   -0.169322
  12 H :    0.079023
  13 H :    0.076434
  14 C :   -0.194028
  15 H :    0.086807
  16 H :    0.081441
  17 H :    0.059911
  18 C :   -0.094884
  19 H :    0.053384
  20 H :    0.037990
  21 H :    0.050295
  22 C :    0.096019
  23 H :    0.037196
  24 H :    0.012720
  25 O :   -0.729888
  26 C :    0.139510
  27 N :   -0.318657
  28 N :   -0.302344
  29 H :    0.237056
  30 H :    0.262890
  31 H :    0.231955
  32 H :    0.280727
  33 H :    0.109130
  34 H :    0.130333
Sum of atomic charges:    0.0000000

LOEWDIN ATOMIC CHARGES
----------------------
   0 C :   -0.216113
   1 C :   -0.255247
   2 H :    0.134031
   3 C :   -0.264460
   4 H :    0.140640
   5 H :    0.136959
   6 H :    0.137647
   7 C :   -0.265938
   8 H :    0.129668
   9 C :   -0.259370
  10 H :    0.131161
  11 C :   -0.268029
  12 H :    0.131557
  13 H :    0.133192
  14 C :   -0.271496
  15 H :    0.129179
  16 H :    0.131823
  17 H :    0.130899
  18 C :   -0.281914
  19 H :    0.129339
  20 H :    0.120867
  21 H :    0.123071
  22 C :   -0.455970
  23 H :    0.099463
  24 H :    0.095677
  25 O :   -0.280071
  26 C :   -0.350596
  27 N :    0.094528
  28 N :    0.098746
  29 H :    0.175968
  30 H :    0.146222
  31 H :    0.174508
  32 H :    0.144493
  33 H :    0.145300
  34 H :    0.154266

  Mayer bond orders larger than 0.100000
B(  0-C ,  1-C ) :   0.9929 B(  0-C , 26-C ) :   1.0360 B(  0-C , 33-H ) :   0.9458
B(  0-C , 34-H ) :   0.9282 B(  1-C ,  2-H ) :   0.9622 B(  1-C ,  3-C ) :   1.0005
B(  1-C ,  4-H ) :   0.9380 B(  3-C ,  5-H ) :   0.9552 B(  3-C ,  6-H ) :   0.9417
B(  3-C ,  7-C ) :   1.0102 B(  7-C ,  8-H ) :   0.9600 B(  7-C ,  9-C ) :   1.0145
B(  7-C , 10-H ) :   0.9370 B(  9-C , 11-C ) :   1.0096 B(  9-C , 12-H ) :   0.9465
B(  9-C , 13-H ) :   0.9453 B( 11-C , 14-C ) :   1.0211 B( 11-C , 15-H ) :   0.9575
B( 11-C , 16-H ) :   0.9448 B( 14-C , 17-H ) :   0.9654 B( 14-C , 18-C ) :   1.0450
B( 14-C , 19-H ) :   0.9331 B( 18-C , 20-H ) :   0.9365 B( 18-C , 21-H ) :   0.9264
B( 18-C , 22-C ) :   0.9868 B( 22-C , 23-H ) :   0.9387 B( 22-C , 24-H ) :   0.9424
B( 22-C , 25-O ) :   1.1763 B( 25-O , 30-H ) :   0.2542 B( 25-O , 32-H ) :   0.2509
B( 26-C , 27-N ) :   1.4967 B( 26-C , 28-N ) :   1.4779 B( 27-N , 31-H ) :   0.9019
B( 27-N , 32-H ) :   0.7251 B( 28-N , 29-H ) :   0.9026 B( 28-N , 30-H ) :   0.7289

Dispersion correction           -0.049345625
FINAL SINGLE POINT ENERGY      -579.369745592192

DIPOLE MOMENT
-------------
                                X             Y             Z
Electronic contribution:      2.68070      -0.28107       7.64868
Nuclear contribution   :     -0.17996       0.53390      -8.68067
                        -----------------------------------------
Total Dipole Moment    :      2.50074       0.25283      -1.03199
                        -----------------------------------------
Magnitude (a.u.)       :      2.71710
Magnitude (Debye)      :      6.90631

Rotational constants in cm-1:     0.028240     0.022734     0.014600
Rotational constants in MHz :   846.611263   681.554306   437.693928

                             ****ORCA TERMINATED NORMALLY****
TOTAL RUN TIME: 0 days 0 hours 0 minutes 30 seconds 931 msec
