                         Program Version 5.0.0 -  RELEASE  -
|  1> !TPSS D3BJ RIJCOSX def2-TZVP def2/J TightSCF
|  2> *xyz 0 1
|  3> C          4.36645       -0.13321       -1.41606
|  4> C          4.50829       -0.93187       -2.72425
|  5> C          3.05650       -0.32080       -0.70738
|  6> C          2.38983        0.71129       -0.24391
|  7> N          2.51600       -1.50772       -0.55023
|  8> H          2.96768       -2.32291       -0.95631
|  9> H          1.54987       -1.49063       -0.24988
| 10> H          2.74307        1.64947       -0.41280
| 11> H          1.44036        0.50278        0.03703
| 12> H          4.48784        0.93300       -1.61157
| 13> H          5.16967       -0.41443       -0.72982
| 14> H          5.46700       -0.73824       -3.15818
| 15> H          3.74074       -0.63528       -3.40821
| 16> H          4.41574       -1.97727       -2.51573
| 17> *
| 18>
| 19> %MaxCore 64000
| 20>
| 21> %pal nprocs 4
| 22> end
| 23>
| 24> %scf
| 25>   MaxIter 150
| 26> end
| 27>
| 28>
| 29>                          ****END OF INPUT****

CARTESIAN COORDINATES (ANGSTROEM)
---------------------------------
  C      4.366450   -0.133210   -1.416060
  C      4.508290   -0.931870   -2.724250
  C      3.056500   -0.320800   -0.707380
  C      2.389830    0.711290   -0.243910
  N      2.516000   -1.507720   -0.550230
  H      2.967680   -2.322910   -0.956310
  H      1.549870   -1.490630   -0.249880
  H      2.743070    1.649470   -0.412800
  H      1.440360    0.502780    0.037030
  H      4.487840    0.933000   -1.611570
  H      5.169670   -0.414430   -0.729820
  H      5.467000   -0.738240   -3.158180
  H      3.740740   -0.635280   -3.408210
  H      4.415740   -1.977270   -2.515730

 Total Charge           Charge          ....    0
 Multiplicity           Mult            ....    1
 Number of Electrons    NEL             ....   40
 Basis Dimension        Dim             ....  209

ORBITAL ENERGIES
----------------

  NO   OCC          E(Eh)            E(eV)
   0   2.0000     -14.098992      -383.6531
   1   2.0000      -9.994021      -271.9511
   2   2.0000      -9.985528      -271.7200
   3   2.0000      -9.976784      -271.4821
   4   2.0000      -9.912970      -269.7456
   5   2.0000      -0.868709       -23.6388
   6   2.0000      -0.720940       -19.6178
   7   2.0000      -0.666157       -18.1271
   8   2.0000      -0.586025       -15.9466
   9   2.0000      -0.514116       -13.9898
  10   2.0000      -0.489340       -13.3156
  11   2.0000      -0.426387       -11.6026
  12   2.0000      -0.399139       -10.8611
  13   2.0000      -0.388556       -10.5731
  14   2.0000      -0.352363        -9.5883
  15   2.0000      -0.341030        -9.2799
  16   2.0000      -0.321260        -8.7419
  17   2.0000      -0.303949        -8.2709
  18   2.0000      -0.286746        -7.8028
  19   2.0000      -0.156621        -4.2619
  20   0.0000       0.013251         0.3606
  21   0.0000       0.022022         0.5993
  22   0.0000       0.058208         1.5839
  23   0.0000       0.061338         1.6691
  24   0.0000       0.082040         2.2324

MULLIKEN ATOMIC CHARGES
-----------------------
   0 C :   -0.139380
   1 C :   -0.336396
   2 C :    0.163424
   3 C :   -0.384223
   4 N :   -0.437850
   5 H :    0.225947
   6 H :    0.228841
   7 H :    0.096397
   8 H :    0.064730
   9 H :    0.096154
  10 H :    0.097104
  11 H :    0.117644
  12 H :    0.118813
  13 H :    0.088795
Sum of atomic charges:   -0.0000000

LOEWDIN ATOMIC CHARGES
----------------------
   0 C :   -0.231378
   1 C :   -0.289881
   2 C :   -0.376259
   3 C :   -0.274628
   4 N :    0.006568
   5 H :    0.167132
   6 H :    0.177061
   7 H :    0.103279
   8 H :    0.097537
   9 H :    0.144385
  10 H :    0.138538
  11 H :    0.114876
  12 H :    0.116787
  13 H :    0.105985

  Mayer bond orders larger than 0.100000
B(  0-C ,  1-C ) :   0.9998 B(  0-C ,  2-C ) :   1.0231 B(  0-C ,  9-H ) :   0.9458
B(  0-C , 10-H ) :   0.9527 B(  1-C , 11-H ) :   0.9666 B(  1-C , 12-H ) :   0.9687
B(  1-C , 13-H ) :   0.9725 B(  2-C ,  3-C ) :   1.7833 B(  2-C ,  4-N ) :   1.1745
B(  3-C ,  7-H ) :   0.9838 B(  3-C ,  8-H ) :   0.9651 B(  4-N ,  5-H ) :   0.9191
B(  4-N ,  6-H ) :   0.9075

Dispersion correction           -0.012915332
FINAL SINGLE POINT ENERGY      -212.679499456579

DIPOLE MOMENT
-------------
                                X             Y             Z
Electronic contribution:     -1.50657      -0.46656       2.08265
Nuclear contribution   :      1.56827      -0.21459      -2.46657
                        -----------------------------------------
Total Dipole Moment    :      0.06170      -0.68115      -0.38392
                        -----------------------------------------
Magnitude (a.u.)       :      0.78432
Magnitude (Debye)      :      1.99358

Rotational constants in cm-1:     0.294070     0.127722     0.097792
Rotational constants in MHz :  8815.983970  3829.010547  2931.715816

                             ****ORCA TERMINATED NORMALLY****
TOTAL RUN TIME: 0 days 0 hours 0 minutes 12 seconds 628 msec
