                         Program Version 5.0.0 -  RELEASE  -
|  1> !TPSS D3BJ RIJCOSX def2-TZVP def2/J TightSCF
|  2> *xyz 0 1
|  3> C          4.36645       -0.13321       -1.41606
|  4> C          4.50829       -0.93187       -2.72425
|  5> C          3.05650       -0.32080       -0.70738
|  6> N          2.38983        0.71129       -0.24391
|  7> C          2.51600       -1.50772       -0.55023
|  8> H          2.96768       -2.32291       -0.95631
|  9> H          1.54987       -1.49063       -0.24988
| 10> H          2.74307        1.64947       -0.41280
| 11> H          1.44036        0.50278        0.03703
| 12> H          4.48784        0.93300       -1.61157
| 13> H          5.16967       -0.41443       -0.72982
| 14> H          5.46700       -0.73824       -3.15818
| 15> H          3.74074       -0.63528       -3.40821
| 16> H          4.41574       -1.97727       -2.51573
| 17> *
| 18>
| 19> %MaxCore 64000
| 20>
| 21> %pal nprocs 4
| 22> end
| 23>
| 24> %scf
| 25>   MaxIter 150
| 26> end
| 27>
| 28>
| 29>                          ****END OF INPUT****

CARTESIAN COORDINATES (ANGSTROEM)
---------------------------------
  C      4.366450   -0.133210   -1.416060
  C      4.508290   -0.931870   -2.724250
  C      3.056500   -0.320800   -0.707380
  N      2.389830    0.711290   -0.243910
  C      2.516000   -1.507720   -0.550230
  H      2.967680   -2.322910   -0.956310
  H      1.549870   -1.490630   -0.249880
  H      2.743070    1.649470   -0.412800
  H      1.440360    0.502780    0.037030
  H      4.487840    0.933000   -1.611570
  H      5.169670   -0.414430   -0.729820
  H      5.467000   -0.738240   -3.158180
  H      3.740740   -0.635280   -3.408210
  H      4.415740   -1.977270   -2.515730

 Total Charge           Charge          ....    0
 Multiplicity           Mult            ....    1
 Number of Electrons    NEL             ....   40
 Basis Dimension        Dim             ....  209

ORBITAL ENERGIES
----------------

  NO   OCC          E(Eh)            E(eV)
   0   2.0000     -14.099581      -383.6691
   1   2.0000      -9.994082      -271.9528
   2   2.0000      -9.986828      -271.7554
   3   2.0000      -9.970492      -271.3109
   4   2.0000      -9.911224      -269.6981
   5   2.0000      -0.868954       -23.6454
   6   2.0000      -0.721954       -19.6454
   7   2.0000      -0.655874       -17.8472
   8   2.0000      -0.594692       -16.1824
   9   2.0000      -0.505296       -13.7498
  10   2.0000      -0.487039       -13.2530
  11   2.0000      -0.433919       -11.8075
  12   2.0000      -0.408193       -11.1075
  13   2.0000      -0.365468        -9.9449
  14   2.0000      -0.351257        -9.5582
  15   2.0000      -0.340372        -9.2620
  16   2.0000      -0.319668        -8.6986
  17   2.0000      -0.304231        -8.2786
  18   2.0000      -0.287719        -7.8292
  19   2.0000      -0.154930        -4.2159
  20   0.0000       0.016692         0.4542
  21   0.0000       0.020975         0.5708
  22   0.0000       0.054887         1.4936
  23   0.0000       0.061234         1.6663
  24   0.0000       0.084175         2.2905

MULLIKEN ATOMIC CHARGES
-----------------------
   0 C :   -0.135225
   1 C :   -0.330988
   2 C :    0.166808
   3 N :   -0.431359
   4 C :   -0.392888
   5 H :    0.094148
   6 H :    0.066865
   7 H :    0.226499
   8 H :    0.226229
   9 H :    0.066137
  10 H :    0.107254
  11 H :    0.108664
  12 H :    0.112543
  13 H :    0.115313
Sum of atomic charges:   -0.0000000

LOEWDIN ATOMIC CHARGES
----------------------
   0 C :   -0.231705
   1 C :   -0.281076
   2 C :   -0.375870
   3 N :    0.005616
   4 C :   -0.277252
   5 H :    0.102531
   6 H :    0.098092
   7 H :    0.167158
   8 H :    0.176266
   9 H :    0.129375
  10 H :    0.144338
  11 H :    0.111109
  12 H :    0.115990
  13 H :    0.115428

  Mayer bond orders larger than 0.100000
B(  0-C ,  1-C ) :   1.0207 B(  0-C ,  2-C ) :   0.9942 B(  0-C ,  9-H ) :   0.9398
B(  0-C , 10-H ) :   0.9593 B(  1-C , 11-H ) :   0.9622 B(  1-C , 12-H ) :   0.9702
B(  1-C , 13-H ) :   0.9731 B(  2-C ,  3-N ) :   1.1914 B(  2-C ,  4-C ) :   1.7565
B(  3-N ,  7-H ) :   0.9121 B(  3-N ,  8-H ) :   0.9068 B(  4-C ,  5-H ) :   0.9963
B(  4-C ,  6-H ) :   0.9618

Dispersion correction           -0.012957825
FINAL SINGLE POINT ENERGY      -212.678319005091

DIPOLE MOMENT
-------------
                                X             Y             Z
Electronic contribution:     -1.62240       1.49504       2.36735
Nuclear contribution   :      1.59749      -0.72853      -2.53752
                        -----------------------------------------
Total Dipole Moment    :     -0.02492       0.76651      -0.17017
                        -----------------------------------------
Magnitude (a.u.)       :      0.78557
Magnitude (Debye)      :      1.99676

Rotational constants in cm-1:     0.304597     0.124127     0.096828
Rotational constants in MHz :  9131.600925  3721.227051  2902.830760

                             ****ORCA TERMINATED NORMALLY****
TOTAL RUN TIME: 0 days 0 hours 0 minutes 12 seconds 386 msec
