                         Program Version 5.0.0 -  RELEASE  -
|  1> !TPSS D3BJ RIJCOSX def2-TZVP def2/J TightSCF xyzfile
|  2>
|  3> *xyzfile 0 1 D1.xyz
|  4>
|  5> %MaxCore 64000
|  6>
|  7> %pal nprocs 18
|  8> end
|  9>
| 10> %scf
| 11>   MaxIter 150
| 12> end
| 13>
| 14>
| 15>                          ****END OF INPUT****

CARTESIAN COORDINATES (ANGSTROEM)
---------------------------------
  C      4.366454   -0.133215   -1.416062
  C      4.508292   -0.931872   -2.724249
  H      4.753716   -1.972051   -2.488408
  C      3.294164   -0.918214   -3.656570
  H      5.385637   -0.536236   -3.242640
  H      2.483463   -1.477378   -3.185764
  H      3.553092   -1.478495   -4.560331
  C      2.772335    0.460100   -4.051448
  H      2.608762    1.065107   -3.155194
  C      1.465354    0.410537   -4.853644
  H      3.532940    0.988848   -4.635671
  C      0.326171   -0.375613   -4.192580
  H      1.666704   -0.022269   -5.839323
  H      1.138198    1.439246   -5.035449
  C     -0.017405    0.080588   -2.778406
  H      0.585573   -1.439385   -4.168057
  H     -0.560005   -0.311425   -4.831461
  H      0.902090    0.201296   -2.206729
  C     -0.903495   -0.873945   -1.987388
  H     -0.479549    1.074657   -2.811915
  H     -0.502554   -1.892096   -2.081204
  H     -1.917039   -0.895427   -2.406277
  C     -0.960148   -0.522365   -0.489867
  H     -1.690392   -1.208130   -0.021677
  H     -1.414490    0.486329   -0.406677
  F      0.261703   -0.580307    0.138611
  C      3.056503   -0.320797   -0.707384
  C      2.389825    0.711285   -0.243909
  N      2.515999   -1.507721   -0.550229
  H      2.967683   -2.322915   -0.956305
  H      1.549872   -1.490634   -0.249876
  H      2.743071    1.649471   -0.412802
  H      1.440364    0.502778    0.037031
  H      4.487835    0.932997   -1.611569
  H      5.169672   -0.414432   -0.729817

 Total Charge           Charge          ....    0
 Multiplicity           Mult            ....    1
 Number of Electrons    NEL             ....  104
 Basis Dimension        Dim             ....  535

ORBITAL ENERGIES
----------------

  NO   OCC          E(Eh)            E(eV)
   0   2.0000     -24.427038      -664.6935
   1   2.0000     -14.076479      -383.0405
   2   2.0000     -10.073496      -274.1138
   3   2.0000      -9.996306      -272.0133
   4   2.0000      -9.978642      -271.5327
   5   2.0000      -9.977401      -271.4989
   6   2.0000      -9.977202      -271.4935
   7   2.0000      -9.974841      -271.4292
   8   2.0000      -9.974824      -271.4287
   9   2.0000      -9.972727      -271.3717
  10   2.0000      -9.970728      -271.3173
  11   2.0000      -9.968616      -271.2598
  12   2.0000      -9.890059      -269.1222
  13   2.0000      -1.159685       -31.5566
  14   2.0000      -0.852672       -23.2024
  15   2.0000      -0.759078       -20.6556
  16   2.0000      -0.738215       -20.0878
  17   2.0000      -0.712975       -19.4010
  18   2.0000      -0.677138       -18.4259
  19   2.0000      -0.650740       -17.7075
  20   2.0000      -0.631056       -17.1719
  21   2.0000      -0.586905       -15.9705
  22   2.0000      -0.565570       -15.3899
  23   2.0000      -0.537817       -14.6347
  24   2.0000      -0.510300       -13.8860
  25   2.0000      -0.495447       -13.4818
  26   2.0000      -0.485201       -13.2030
  27   2.0000      -0.478746       -13.0273
  28   2.0000      -0.462548       -12.5866
  29   2.0000      -0.441242       -12.0068
  30   2.0000      -0.424955       -11.5636
  31   2.0000      -0.415817       -11.3150
  32   2.0000      -0.401343       -10.9211
  33   2.0000      -0.396173       -10.7804
  34   2.0000      -0.385937       -10.5019
  35   2.0000      -0.381007       -10.3677
  36   2.0000      -0.354179        -9.6377
  37   2.0000      -0.347805        -9.4643
  38   2.0000      -0.340712        -9.2713
  39   2.0000      -0.332888        -9.0583
  40   2.0000      -0.326814        -8.8931
  41   2.0000      -0.316388        -8.6093
  42   2.0000      -0.309625        -8.4253
  43   2.0000      -0.305040        -8.3006
  44   2.0000      -0.301361        -8.2005
  45   2.0000      -0.294969        -8.0265
  46   2.0000      -0.276885        -7.5344
  47   2.0000      -0.273803        -7.4506
  48   2.0000      -0.270500        -7.3607
  49   2.0000      -0.267496        -7.2789
  50   2.0000      -0.261132        -7.1058
  51   2.0000      -0.141729        -3.8566
  52   0.0000       0.016386         0.4459
  53   0.0000       0.024858         0.6764
  54   0.0000       0.033524         0.9122
  55   0.0000       0.035968         0.9787
  56   0.0000       0.044113         1.2004

MULLIKEN ATOMIC CHARGES
-----------------------
   0 C :   -0.118719
   1 C :   -0.216150
   2 H :    0.097658
   3 C :   -0.146961
   4 H :    0.083840
   5 H :    0.080481
   6 H :    0.074230
   7 C :   -0.234581
   8 H :    0.123796
   9 C :   -0.078099
  10 H :    0.076591
  11 C :   -0.178064
  12 H :    0.077316
  13 H :    0.075356
  14 C :   -0.224682
  15 H :    0.091732
  16 H :    0.079925
  17 H :    0.132071
  18 C :   -0.166067
  19 H :    0.064816
  20 H :    0.085469
  21 H :    0.095809
  22 C :    0.042671
  23 H :    0.109462
  24 H :    0.095429
  25 F :   -0.215531
  26 C :    0.039751
  27 C :   -0.414994
  28 N :   -0.424140
  29 H :    0.222044
  30 H :    0.239805
  31 H :    0.082339
  32 H :    0.146154
  33 H :    0.104858
  34 H :    0.096386
Sum of atomic charges:   -0.0000000

LOEWDIN ATOMIC CHARGES
----------------------
   0 C :   -0.214803
   1 C :   -0.261712
   2 H :    0.129039
   3 C :   -0.265852
   4 H :    0.134314
   5 H :    0.130332
   6 H :    0.131843
   7 C :   -0.262939
   8 H :    0.138759
   9 C :   -0.258977
  10 H :    0.130530
  11 C :   -0.266087
  12 H :    0.131788
  13 H :    0.132428
  14 C :   -0.265466
  15 H :    0.131350
  16 H :    0.130145
  17 H :    0.146975
  18 C :   -0.271110
  19 H :    0.132579
  20 H :    0.134034
  21 H :    0.139520
  22 C :   -0.334708
  23 H :    0.122528
  24 H :    0.126032
  25 F :    0.152157
  26 C :   -0.387800
  27 C :   -0.286992
  28 N :    0.008070
  29 H :    0.163144
  30 H :    0.155187
  31 H :    0.098402
  32 H :    0.091040
  33 H :    0.145787
  34 H :    0.140464

  Mayer bond orders larger than 0.100000
B(  0-C ,  1-C ) :   0.9933 B(  0-C , 26-C ) :   1.0175 B(  0-C , 33-H ) :   0.9487
B(  0-C , 34-H ) :   0.9434 B(  1-C ,  2-H ) :   0.9645 B(  1-C ,  3-C ) :   1.0049
B(  1-C ,  4-H ) :   0.9406 B(  3-C ,  5-H ) :   0.9507 B(  3-C ,  6-H ) :   0.9406
B(  3-C ,  7-C ) :   1.0052 B(  7-C ,  8-H ) :   0.9614 B(  7-C ,  9-C ) :   1.0109
B(  7-C , 10-H ) :   0.9383 B(  9-C , 11-C ) :   1.0231 B(  9-C , 12-H ) :   0.9458
B(  9-C , 13-H ) :   0.9459 B( 11-C , 14-C ) :   1.0221 B( 11-C , 15-H ) :   0.9546
B( 11-C , 16-H ) :   0.9441 B( 14-C , 17-H ) :   0.9719 B( 14-C , 18-C ) :   1.0131
B( 14-C , 19-H ) :   0.9419 B( 18-C , 20-H ) :   0.9446 B( 18-C , 21-H ) :   0.9320
B( 18-C , 22-C ) :   1.0243 B( 22-C , 23-H ) :   0.9572 B( 22-C , 24-H ) :   0.9623
B( 22-C , 25-F ) :   0.9367 B( 26-C , 27-C ) :   1.7531 B( 26-C , 28-N ) :   1.1833
B( 27-C , 31-H ) :   0.9808 B( 27-C , 32-H ) :   0.9472 B( 28-N , 29-H ) :   0.9203
B( 28-N , 30-H ) :   0.8704

Dispersion correction           -0.049299355
FINAL SINGLE POINT ENERGY      -587.296126535833

DIPOLE MOMENT
-------------
                                X             Y             Z
Electronic contribution:     -2.67124      -1.62695      10.50564
Nuclear contribution   :      1.82572       1.04089     -11.09065
                        -----------------------------------------
Total Dipole Moment    :     -0.84552      -0.58606      -0.58501
                        -----------------------------------------
Magnitude (a.u.)       :      1.18347
Magnitude (Debye)      :      3.00815

Rotational constants in cm-1:     0.028436     0.022359     0.014416
Rotational constants in MHz :   852.496561   670.291843   432.183951

                             ****ORCA TERMINATED NORMALLY****
TOTAL RUN TIME: 0 days 0 hours 0 minutes 26 seconds 189 msec
