                         Program Version 5.0.0 -  RELEASE  -
|  1> !TPSS D3BJ RIJCOSX def2-TZVP def2/J TightSCF xyzfile
|  2>
|  3> *xyzfile 0 1 D2.xyz
|  4>
|  5> %MaxCore 64000
|  6>
|  7> %pal nprocs 18
|  8> end
|  9>
| 10> %scf
| 11>   MaxIter 150
| 12> end
| 13>
| 14>
| 15>                          ****END OF INPUT****

CARTESIAN COORDINATES (ANGSTROEM)
---------------------------------
  C      4.366454   -0.133215   -1.416062
  C      4.508292   -0.931872   -2.724249
  H      4.753716   -1.972051   -2.488408
  C      3.294164   -0.918214   -3.656570
  H      5.385637   -0.536236   -3.242640
  H      2.483463   -1.477378   -3.185764
  H      3.553092   -1.478495   -4.560331
  C      2.772335    0.460100   -4.051448
  H      2.608762    1.065107   -3.155194
  C      1.465354    0.410537   -4.853644
  H      3.532940    0.988848   -4.635671
  C      0.326171   -0.375613   -4.192580
  H      1.666704   -0.022269   -5.839323
  H      1.138198    1.439246   -5.035449
  C     -0.017405    0.080588   -2.778406
  H      0.585573   -1.439385   -4.168057
  H     -0.560005   -0.311425   -4.831461
  H      0.902090    0.201296   -2.206729
  C     -0.903495   -0.873945   -1.987388
  H     -0.479549    1.074657   -2.811915
  H     -0.502554   -1.892096   -2.081204
  H     -1.917039   -0.895427   -2.406277
  C     -0.960148   -0.522365   -0.489867
  H     -1.690392   -1.208130   -0.021677
  H     -1.414490    0.486329   -0.406677
  F      0.261703   -0.580307    0.138611
  C      3.056503   -0.320797   -0.707384
  N      2.389825    0.711285   -0.243909
  C      2.515999   -1.507721   -0.550229
  H      2.967683   -2.322915   -0.956305
  H      1.549872   -1.490634   -0.249876
  H      2.743071    1.649471   -0.412802
  H      1.440364    0.502778    0.037031
  H      4.487835    0.932997   -1.611569
  H      5.169672   -0.414432   -0.729817

 Total Charge           Charge          ....    0
 Multiplicity           Mult            ....    1
 Number of Electrons    NEL             ....  104
 Basis Dimension        Dim             ....  535

ORBITAL ENERGIES
----------------

  NO   OCC          E(Eh)            E(eV)
   0   2.0000     -24.427146      -664.6964
   1   2.0000     -14.076277      -383.0350
   2   2.0000     -10.073727      -274.1201
   3   2.0000      -9.994670      -271.9688
   4   2.0000      -9.977922      -271.5131
   5   2.0000      -9.977374      -271.4981
   6   2.0000      -9.977037      -271.4890
   7   2.0000      -9.975355      -271.4432
   8   2.0000      -9.974087      -271.4087
   9   2.0000      -9.972929      -271.3772
  10   2.0000      -9.970328      -271.3064
  11   2.0000      -9.964651      -271.1519
  12   2.0000      -9.888041      -269.0673
  13   2.0000      -1.159764       -31.5588
  14   2.0000      -0.852402       -23.1950
  15   2.0000      -0.758904       -20.6508
  16   2.0000      -0.737508       -20.0686
  17   2.0000      -0.713526       -19.4160
  18   2.0000      -0.673958       -18.3393
  19   2.0000      -0.644176       -17.5289
  20   2.0000      -0.632124       -17.2010
  21   2.0000      -0.590281       -16.0624
  22   2.0000      -0.566772       -15.4227
  23   2.0000      -0.538781       -14.6610
  24   2.0000      -0.507568       -13.8116
  25   2.0000      -0.497049       -13.5254
  26   2.0000      -0.484278       -13.1779
  27   2.0000      -0.471796       -12.8382
  28   2.0000      -0.459194       -12.4953
  29   2.0000      -0.437436       -11.9032
  30   2.0000      -0.431425       -11.7397
  31   2.0000      -0.418598       -11.3906
  32   2.0000      -0.405478       -11.0336
  33   2.0000      -0.394244       -10.7279
  34   2.0000      -0.386126       -10.5070
  35   2.0000      -0.372660       -10.1406
  36   2.0000      -0.353949        -9.6314
  37   2.0000      -0.347134        -9.4460
  38   2.0000      -0.340400        -9.2627
  39   2.0000      -0.328219        -8.9313
  40   2.0000      -0.324360        -8.8263
  41   2.0000      -0.318581        -8.6690
  42   2.0000      -0.313170        -8.5218
  43   2.0000      -0.308441        -8.3931
  44   2.0000      -0.295494        -8.0408
  45   2.0000      -0.290574        -7.9069
  46   2.0000      -0.277744        -7.5578
  47   2.0000      -0.273124        -7.4321
  48   2.0000      -0.270789        -7.3686
  49   2.0000      -0.264791        -7.2053
  50   2.0000      -0.262638        -7.1467
  51   2.0000      -0.139675        -3.8007
  52   0.0000       0.018966         0.5161
  53   0.0000       0.026131         0.7111
  54   0.0000       0.033339         0.9072
  55   0.0000       0.035465         0.9651
  56   0.0000       0.043506         1.1839

MULLIKEN ATOMIC CHARGES
-----------------------
   0 C :   -0.126418
   1 C :   -0.189894
   2 H :    0.104393
   3 C :   -0.132185
   4 H :    0.076839
   5 H :    0.101977
   6 H :    0.070540
   7 C :   -0.233341
   8 H :    0.093701
   9 C :   -0.076056
  10 H :    0.077632
  11 C :   -0.182614
  12 H :    0.078740
  13 H :    0.073133
  14 C :   -0.226383
  15 H :    0.098266
  16 H :    0.078920
  17 H :    0.110513
  18 C :   -0.142518
  19 H :    0.064066
  20 H :    0.097024
  21 H :    0.096256
  22 C :    0.029334
  23 H :    0.111539
  24 H :    0.091358
  25 F :   -0.214335
  26 C :    0.036066
  27 N :   -0.433438
  28 C :   -0.408730
  29 H :    0.092868
  30 H :    0.140005
  31 H :    0.214661
  32 H :    0.246131
  33 H :    0.077697
  34 H :    0.104257
Sum of atomic charges:   -0.0000000

LOEWDIN ATOMIC CHARGES
----------------------
   0 C :   -0.215186
   1 C :   -0.251252
   2 H :    0.135587
   3 C :   -0.264263
   4 H :    0.131774
   5 H :    0.137925
   6 H :    0.131107
   7 C :   -0.263973
   8 H :    0.130511
   9 C :   -0.258878
  10 H :    0.130567
  11 C :   -0.264366
  12 H :    0.132728
  13 H :    0.131183
  14 C :   -0.268434
  15 H :    0.134070
  16 H :    0.130295
  17 H :    0.143928
  18 C :   -0.267090
  19 H :    0.130352
  20 H :    0.139655
  21 H :    0.139307
  22 C :   -0.335967
  23 H :    0.124271
  24 H :    0.122670
  25 F :    0.152716
  26 C :   -0.390014
  27 N :    0.001716
  28 C :   -0.284777
  29 H :    0.100060
  30 H :    0.093140
  31 H :    0.160137
  32 H :    0.152943
  33 H :    0.131620
  34 H :    0.145936

  Mayer bond orders larger than 0.100000
B(  0-C ,  1-C ) :   1.0168 B(  0-C , 26-C ) :   0.9904 B(  0-C , 33-H ) :   0.9440
B(  0-C , 34-H ) :   0.9451 B(  1-C ,  2-H ) :   0.9533 B(  1-C ,  3-C ) :   1.0278
B(  1-C ,  4-H ) :   0.9421 B(  3-C ,  5-H ) :   0.9438 B(  3-C ,  6-H ) :   0.9383
B(  3-C ,  7-C ) :   1.0076 B(  7-C ,  8-H ) :   0.9601 B(  7-C ,  9-C ) :   1.0157
B(  7-C , 10-H ) :   0.9398 B(  9-C , 11-C ) :   1.0207 B(  9-C , 12-H ) :   0.9445
B(  9-C , 13-H ) :   0.9471 B( 11-C , 14-C ) :   1.0310 B( 11-C , 15-H ) :   0.9550
B( 11-C , 16-H ) :   0.9431 B( 14-C , 17-H ) :   0.9763 B( 14-C , 18-C ) :   1.0202
B( 14-C , 19-H ) :   0.9391 B( 18-C , 20-H ) :   0.9380 B( 18-C , 21-H ) :   0.9331
B( 18-C , 22-C ) :   1.0228 B( 22-C , 23-H ) :   0.9592 B( 22-C , 24-H ) :   0.9610
B( 22-C , 25-F ) :   0.9447 B( 26-C , 27-N ) :   1.1778 B( 26-C , 28-C ) :   1.7573
B( 27-N , 31-H ) :   0.9174 B( 27-N , 32-H ) :   0.8702 B( 28-C , 29-H ) :   0.9861
B( 28-C , 30-H ) :   0.9415

Dispersion correction           -0.049359949
FINAL SINGLE POINT ENERGY      -587.295325849102

DIPOLE MOMENT
-------------
                                X             Y             Z
Electronic contribution:     -2.77099       0.02633      10.73773
Nuclear contribution   :      1.85154       0.58682     -11.15333
                        -----------------------------------------
Total Dipole Moment    :     -0.91945       0.61315      -0.41560
                        -----------------------------------------
Magnitude (a.u.)       :      1.18070
Magnitude (Debye)      :      3.00111

Rotational constants in cm-1:     0.028379     0.022321     0.014415
Rotational constants in MHz :   850.785777   669.176075   432.155504

                             ****ORCA TERMINATED NORMALLY****
TOTAL RUN TIME: 0 days 0 hours 0 minutes 27 seconds 177 msec
