                         Program Version 5.0.0 -  RELEASE  -
|  1> !LC-BLYP RIJCOSX def2-SVPD def2/J TightSCF
|  2> *xyz -1 1
|  3> C         -2.79070       -0.78527        5.70281
|  4> C         -2.45380        0.05510        6.94145
|  5> C         -2.07842        1.48042        6.56410
|  6> H         -1.62558       -0.38216        7.49891
|  7> H         -3.32527        0.08775        7.59917
|  8> O         -0.90125        1.85816        6.82810
|  9> O         -2.93658        2.17731        5.96415
| 10> H         -1.94052       -0.82114        5.05412
| 11> H         -3.61590       -0.34261        5.18514
| 12> H         -3.05063       -1.77815        6.00536
| 13> *
| 14> %MaxCore 64000
| 15>
| 16> %pal nprocs 4
| 17> end
| 18>
| 19> %scf
| 20>   MaxIter 150
| 21> end
| 22>
| 23>
| 24>                          ****END OF INPUT****

CARTESIAN COORDINATES (ANGSTROEM)
---------------------------------
  C     -2.790700   -0.785270    5.702810
  C     -2.453800    0.055100    6.941450
  C     -2.078420    1.480420    6.564100
  H     -1.625580   -0.382160    7.498910
  H     -3.325270    0.087750    7.599170
  O     -0.901250    1.858160    6.828100
  O     -2.936580    2.177310    5.964150
  H     -1.940520   -0.821140    5.054120
  H     -3.615900   -0.342610    5.185140
  H     -3.050630   -1.778150    6.005360

 Total Charge           Charge          ....   -1
 Multiplicity           Mult            ....    1
 Number of Electrons    NEL             ....   40
 Basis Dimension        Dim             ....  146

ORBITAL ENERGIES
----------------

  NO   OCC          E(Eh)            E(eV)
   0   2.0000     -18.697647      -508.7888
   1   2.0000     -18.696076      -508.7461
   2   2.0000      -9.975442      -271.4456
   3   2.0000      -9.926238      -270.1067
   4   2.0000      -9.914266      -269.7809
   5   2.0000      -0.906187       -24.6586
   6   2.0000      -0.810121       -22.0445
   7   2.0000      -0.712916       -19.3994
   8   2.0000      -0.580755       -15.8032
   9   2.0000      -0.428927       -11.6717
  10   2.0000      -0.401508       -10.9256
  11   2.0000      -0.362817        -9.8728
  12   2.0000      -0.338722        -9.2171
  13   2.0000      -0.318752        -8.6737
  14   2.0000      -0.311800        -8.4845
  15   2.0000      -0.280095        -7.6218
  16   2.0000      -0.268691        -7.3115
  17   2.0000      -0.150564        -4.0971
  18   2.0000      -0.145112        -3.9487
  19   2.0000      -0.129310        -3.5187
  20   0.0000       0.205006         5.5785
  21   0.0000       0.237758         6.4697
  22   0.0000       0.250064         6.8046
  23   0.0000       0.274029         7.4567
  24   0.0000       0.298276         8.1165

MULLIKEN ATOMIC CHARGES
-----------------------
   0 C :    0.750711
   1 C :   -0.070567
   2 C :    0.127478
   3 H :   -0.123179
   4 H :   -0.082723
   5 O :   -0.573720
   6 O :   -0.587168
   7 H :   -0.159242
   8 H :   -0.116902
   9 H :   -0.164688
Sum of atomic charges:   -1.0000000

LOEWDIN ATOMIC CHARGES
----------------------
   0 C :    0.093720
   1 C :   -0.052742
   2 C :   -0.348009
   3 H :    0.005078
   4 H :    0.013810
   5 O :   -0.320737
   6 O :   -0.309896
   7 H :   -0.017747
   8 H :   -0.024229
   9 H :   -0.039249

  Mayer bond orders larger than 0.100000
B(  0-C ,  1-C ) :   1.2795 B(  0-C ,  3-H ) :   0.1047 B(  0-C ,  4-H ) :   0.1020
B(  0-C ,  7-H ) :   0.8029 B(  0-C ,  8-H ) :   0.7890 B(  0-C ,  9-H ) :   0.7998
B(  1-C ,  2-C ) :   1.0412 B(  1-C ,  3-H ) :   0.9257 B(  1-C ,  4-H ) :   0.8524
B(  1-C ,  7-H ) :   0.1935 B(  1-C ,  8-H ) :   0.2076 B(  1-C ,  9-H ) :   0.1837
B(  2-C ,  3-H ) :   0.2016 B(  2-C ,  5-O ) :   1.5927 B(  2-C ,  6-O ) :   1.6385

FINAL SINGLE POINT ENERGY      -267.061978939080

DIPOLE MOMENT
-------------
                                X             Y             Z
Electronic contribution:      1.60572       5.46691       0.69075
Nuclear contribution   :     -2.24498      -7.51881      -0.57245
                        -----------------------------------------
Total Dipole Moment    :     -0.63926      -2.05190       0.11830
                        -----------------------------------------
Magnitude (a.u.)       :      2.15243
Magnitude (Debye)      :      5.47104

Rotational constants in cm-1:     0.305589     0.135336     0.107479
Rotational constants in MHz :  9161.317320  4057.276612  3222.126231

                             ****ORCA TERMINATED NORMALLY****
TOTAL RUN TIME: 0 days 0 hours 0 minutes 18 seconds 783 msec
