                         Program Version 5.0.0 -  RELEASE  -
|  1> !LC-BLYP RIJCOSX def2-SVPD def2/J TightSCF
|  2> *xyz 1 1
|  3> C         -0.69912        3.48945        3.75516
|  4> H         -0.96672        4.34901        3.14049
|  5> N         -1.08067        3.79296        5.15686
|  6> C          0.77696        3.13839        3.61741
|  7> H         -1.33146        2.65651        3.44632
|  8> H         -0.87449        4.76274        5.42734
|  9> H         -0.68079        3.13476        5.83900
| 10> H         -2.05755        3.53169        5.34620
| 11> H          0.99957        2.92898        2.59199
| 12> H          0.99576        2.27685        4.21303
| 13> H          1.37223        3.96279        3.95046
| 14> *
| 15> %MaxCore 64000
| 16>
| 17> %pal nprocs 4
| 18> end
| 19>
| 20> %scf
| 21>   MaxIter 150
| 22> end
| 23>
| 24>
| 25>                          ****END OF INPUT****

CARTESIAN COORDINATES (ANGSTROEM)
---------------------------------
  C     -0.699120    3.489450    3.755160
  H     -0.966720    4.349010    3.140490
  N     -1.080670    3.792960    5.156860
  C      0.776960    3.138390    3.617410
  H     -1.331460    2.656510    3.446320
  H     -0.874490    4.762740    5.427340
  H     -0.680790    3.134760    5.839000
  H     -2.057550    3.531690    5.346200
  H      0.999570    2.928980    2.591990
  H      0.995760    2.276850    4.213030
  H      1.372230    3.962790    3.950460

 Total Charge           Charge          ....    1
 Multiplicity           Mult            ....    1
 Number of Electrons    NEL             ....   26
 Basis Dimension        Dim             ....  124

ORBITAL ENERGIES
----------------

  NO   OCC          E(Eh)            E(eV)
   0   2.0000     -14.522678      -395.1822
   1   2.0000     -10.339367      -281.3485
   2   2.0000     -10.259602      -279.1780
   3   2.0000      -1.311623       -35.6911
   4   2.0000      -1.070756       -29.1368
   5   2.0000      -0.950820       -25.8731
   6   2.0000      -0.921239       -25.0682
   7   2.0000      -0.872423       -23.7398
   8   2.0000      -0.802778       -21.8447
   9   2.0000      -0.747416       -20.3382
  10   2.0000      -0.682701       -18.5772
  11   2.0000      -0.667980       -18.1767
  12   2.0000      -0.648203       -17.6385
  13   0.0000      -0.134406        -3.6574
  14   0.0000      -0.073017        -1.9869
  15   0.0000      -0.070852        -1.9280
  16   0.0000      -0.064004        -1.7416
  17   0.0000      -0.034141        -0.9290

MULLIKEN ATOMIC CHARGES
-----------------------
   0 C :    0.342986
   1 H :   -0.173304
   2 N :   -0.710849
   3 C :    0.867892
   4 H :   -0.127388
   5 H :    0.382753
   6 H :    0.354370
   7 H :    0.336136
   8 H :   -0.091481
   9 H :   -0.117460
  10 H :   -0.063655
Sum of atomic charges:    1.0000000

LOEWDIN ATOMIC CHARGES
----------------------
   0 C :    0.036250
   1 H :    0.058963
   2 N :    0.324120
   3 C :    0.161544
   4 H :    0.056900
   5 H :    0.117473
   6 H :    0.107603
   7 H :    0.109441
   8 H :    0.018893
   9 H :    0.003264
  10 H :    0.005551

  Mayer bond orders larger than 0.100000
B(  0-C ,  1-H ) :   0.8853 B(  0-C ,  2-N ) :   0.8052 B(  0-C ,  3-C ) :   1.3158
B(  0-C ,  4-H ) :   0.8733 B(  0-C ,  8-H ) :   0.2095 B(  0-C ,  9-H ) :   0.2014
B(  0-C , 10-H ) :   0.1770 B(  1-H ,  2-N ) :   0.1264 B(  2-N ,  5-H ) :   0.7362
B(  2-N ,  6-H ) :   0.7846 B(  2-N ,  7-H ) :   0.7906 B(  3-C ,  8-H ) :   0.7789
B(  3-C ,  9-H ) :   0.7865 B(  3-C , 10-H ) :   0.7655

FINAL SINGLE POINT ENERGY      -135.040842759651

DIPOLE MOMENT
-------------
                                X             Y             Z
Electronic contribution:     -1.33862       0.57300       1.10796
Nuclear contribution   :      0.33986      -0.24565       0.10678
                        -----------------------------------------
Total Dipole Moment    :     -0.99876       0.32735       1.21475
                        -----------------------------------------
Magnitude (a.u.)       :      1.60633
Magnitude (Debye)      :      4.08296

Rotational constants in cm-1:     1.016237     0.277523     0.247812
Rotational constants in MHz : 30466.024354  8319.937961  7429.230177

                             ****ORCA TERMINATED NORMALLY****
TOTAL RUN TIME: 0 days 0 hours 0 minutes 15 seconds 173 msec
