                         Program Version 5.0.0 -  RELEASE  -
|  1> !LC-BLYP RIJCOSX def2-SVPD def2/J TightSCF
|  2> *xyz 0 1
|  3> C         -2.79070       -0.78527        5.70281
|  4> C         -2.45380        0.05510        6.94145
|  5> C         -2.07842        1.48042        6.56410
|  6> H         -1.62558       -0.38216        7.49891
|  7> H         -3.32527        0.08775        7.59917
|  8> F         -0.90125        1.85816        6.82810
|  9> O         -2.93658        2.17731        5.96415
| 10> H         -1.94052       -0.82114        5.05412
| 11> H         -3.61590       -0.34261        5.18514
| 12> H         -3.05063       -1.77815        6.00536
| 13> *
| 14> %MaxCore 64000
| 15>
| 16> %pal nprocs 4
| 17> end
| 18>
| 19> %scf
| 20>   MaxIter 150
| 21> end
| 22>
| 23>
| 24>                          ****END OF INPUT****

CARTESIAN COORDINATES (ANGSTROEM)
---------------------------------
  C     -2.790700   -0.785270    5.702810
  C     -2.453800    0.055100    6.941450
  C     -2.078420    1.480420    6.564100
  H     -1.625580   -0.382160    7.498910
  H     -3.325270    0.087750    7.599170
  F     -0.901250    1.858160    6.828100
  O     -2.936580    2.177310    5.964150
  H     -1.940520   -0.821140    5.054120
  H     -3.615900   -0.342610    5.185140
  H     -3.050630   -1.778150    6.005360

 Total Charge           Charge          ....    0
 Multiplicity           Mult            ....    1
 Number of Electrons    NEL             ....   40
 Basis Dimension        Dim             ....  146

ORBITAL ENERGIES
----------------

  NO   OCC          E(Eh)            E(eV)
   0   2.0000     -24.546809      -667.9526
   1   2.0000     -18.970550      -516.2149
   2   2.0000     -10.272347      -279.5248
   3   2.0000     -10.121327      -275.4153
   4   2.0000     -10.094257      -274.6787
   5   2.0000      -1.383990       -37.6603
   6   2.0000      -1.121351       -30.5135
   7   2.0000      -0.909672       -24.7534
   8   2.0000      -0.793976       -21.6052
   9   2.0000      -0.743877       -20.2419
  10   2.0000      -0.659590       -17.9484
  11   2.0000      -0.641254       -17.4494
  12   2.0000      -0.614200       -16.7132
  13   2.0000      -0.573259       -15.5992
  14   2.0000      -0.540825       -14.7166
  15   2.0000      -0.506348       -13.7784
  16   2.0000      -0.483504       -13.1568
  17   2.0000      -0.476996       -12.9797
  18   2.0000      -0.453745       -12.3470
  19   2.0000      -0.399722       -10.8770
  20   0.0000       0.043408         1.1812
  21   0.0000       0.065636         1.7860
  22   0.0000       0.095182         2.5900
  23   0.0000       0.105442         2.8692
  24   0.0000       0.128374         3.4932

MULLIKEN ATOMIC CHARGES
-----------------------
   0 C :    0.794149
   1 C :   -0.110860
   2 C :    0.444796
   3 H :   -0.101647
   4 H :   -0.024053
   5 F :   -0.278166
   6 O :   -0.355607
   7 H :   -0.138491
   8 H :   -0.102493
   9 H :   -0.127627
Sum of atomic charges:    0.0000000

LOEWDIN ATOMIC CHARGES
----------------------
   0 C :    0.133471
   1 C :   -0.007282
   2 C :   -0.051652
   3 H :    0.028398
   4 H :    0.045655
   5 F :   -0.018192
   6 O :   -0.113126
   7 H :   -0.004370
   8 H :   -0.004633
   9 H :   -0.008269

  Mayer bond orders larger than 0.100000
B(  0-C ,  1-C ) :   1.3084 B(  0-C ,  3-H ) :   0.1043 B(  0-C ,  7-H ) :   0.7968
B(  0-C ,  8-H ) :   0.7858 B(  0-C ,  9-H ) :   0.8025 B(  1-C ,  2-C ) :   1.0966
B(  1-C ,  3-H ) :   0.9299 B(  1-C ,  4-H ) :   0.8472 B(  1-C ,  7-H ) :   0.1813
B(  1-C ,  8-H ) :   0.1896 B(  1-C ,  9-H ) :   0.1772 B(  2-C ,  3-H ) :   0.1154
B(  2-C ,  5-F ) :   0.8756 B(  2-C ,  6-O ) :   1.9580 B(  5-F ,  6-O ) :   0.1077

FINAL SINGLE POINT ENERGY      -291.580709186492

DIPOLE MOMENT
-------------
                                X             Y             Z
Electronic contribution:      3.96644       7.39126       1.50560
Nuclear contribution   :     -3.69486      -8.49563      -1.04945
                        -----------------------------------------
Total Dipole Moment    :      0.27159      -1.10437       0.45614
                        -----------------------------------------
Magnitude (a.u.)       :      1.22534
Magnitude (Debye)      :      3.11456

Rotational constants in cm-1:     0.293725     0.129218     0.102393
Rotational constants in MHz :  8805.653529  3873.869810  3069.666716

                             ****ORCA TERMINATED NORMALLY****
TOTAL RUN TIME: 0 days 0 hours 0 minutes 18 seconds 909 msec
