                         Program Version 5.0.0 -  RELEASE  -
|  1> !LC-BLYP RIJCOSX def2-SVPD def2/J TightSCF
|  2> *xyz 0 1
|  3> C         -0.69912        3.48945        3.75516
|  4> H         -0.96672        4.34901        3.14049
|  5> C         -1.08067        3.79296        5.15686
|  6> C          0.77696        3.13839        3.61741
|  7> H         -1.33146        2.65651        3.44632
|  8> H         -0.87449        4.76274        5.42734
|  9> H         -0.68079        3.13476        5.83900
| 10> H         -2.05755        3.53169        5.34620
| 11> H          0.99957        2.92898        2.59199
| 12> H          0.99576        2.27685        4.21303
| 13> H          1.37223        3.96279        3.95046
| 14> *
| 15> %MaxCore 64000
| 16>
| 17> %pal nprocs 4
| 18> end
| 19>
| 20> %scf
| 21>   MaxIter 150
| 22> end
| 23>
| 24>
| 25>                          ****END OF INPUT****

CARTESIAN COORDINATES (ANGSTROEM)
---------------------------------
  C     -0.699120    3.489450    3.755160
  H     -0.966720    4.349010    3.140490
  C     -1.080670    3.792960    5.156860
  C      0.776960    3.138390    3.617410
  H     -1.331460    2.656510    3.446320
  H     -0.874490    4.762740    5.427340
  H     -0.680790    3.134760    5.839000
  H     -2.057550    3.531690    5.346200
  H      0.999570    2.928980    2.591990
  H      0.995760    2.276850    4.213030
  H      1.372230    3.962790    3.950460

 Total Charge           Charge          ....    0
 Multiplicity           Mult            ....    1
 Number of Electrons    NEL             ....   26
 Basis Dimension        Dim             ....  124

ORBITAL ENERGIES
----------------

  NO   OCC          E(Eh)            E(eV)
   0   2.0000     -10.072522      -274.0873
   1   2.0000     -10.063397      -273.8390
   2   2.0000     -10.047407      -273.4038
   3   2.0000      -0.895449       -24.3664
   4   2.0000      -0.794564       -21.6212
   5   2.0000      -0.691036       -18.8041
   6   2.0000      -0.579524       -15.7697
   7   2.0000      -0.545494       -14.8436
   8   2.0000      -0.502487       -13.6734
   9   2.0000      -0.497344       -13.5334
  10   2.0000      -0.438859       -11.9420
  11   2.0000      -0.425159       -11.5692
  12   2.0000      -0.423762       -11.5311
  13   0.0000       0.078594         2.1387
  14   0.0000       0.105408         2.8683
  15   0.0000       0.112917         3.0726
  16   0.0000       0.142646         3.8816
  17   0.0000       0.162835         4.4310

MULLIKEN ATOMIC CHARGES
-----------------------
   0 C :   -0.348175
   1 H :   -0.206459
   2 C :    1.142324
   3 C :    0.859221
   4 H :   -0.130594
   5 H :   -0.303950
   6 H :   -0.315483
   7 H :   -0.284199
   8 H :   -0.167123
   9 H :   -0.109157
  10 H :   -0.136404
Sum of atomic charges:   -0.0000000

LOEWDIN ATOMIC CHARGES
----------------------
   0 C :   -0.125600
   1 H :    0.025935
   2 C :    0.098777
   3 C :    0.105635
   4 H :    0.025031
   5 H :   -0.022028
   6 H :   -0.031265
   7 H :   -0.032606
   8 H :   -0.018518
   9 H :   -0.013463
  10 H :   -0.011896

  Mayer bond orders larger than 0.100000
B(  0-C ,  1-H ) :   0.9119 B(  0-C ,  2-C ) :   1.2994 B(  0-C ,  3-C ) :   1.2655
B(  0-C ,  4-H ) :   0.8724 B(  0-C ,  5-H ) :   0.2490 B(  0-C ,  6-H ) :   0.2105
B(  0-C ,  7-H ) :   0.2336 B(  0-C ,  8-H ) :   0.2226 B(  0-C ,  9-H ) :   0.1771
B(  0-C , 10-H ) :   0.2012 B(  1-H ,  2-C ) :   0.1228 B(  2-C ,  4-H ) :   0.1286
B(  2-C ,  5-H ) :   0.6342 B(  2-C ,  6-H ) :   0.5606 B(  2-C ,  7-H ) :   0.5444
B(  3-C ,  8-H ) :   0.7625 B(  3-C ,  9-H ) :   0.7915 B(  3-C , 10-H ) :   0.7766
B(  6-H ,  7-H ) :   0.2866

FINAL SINGLE POINT ENERGY      -118.648164144246

DIPOLE MOMENT
-------------
                                X             Y             Z
Electronic contribution:     -0.14776       0.11771      -0.39544
Nuclear contribution   :      0.10024      -0.14218       0.41628
                        -----------------------------------------
Total Dipole Moment    :     -0.04751      -0.02447       0.02084
                        -----------------------------------------
Magnitude (a.u.)       :      0.05737
Magnitude (Debye)      :      0.14581

Rotational constants in cm-1:     1.024179     0.291605     0.259489
Rotational constants in MHz : 30704.103454  8742.106283  7779.285909

                             ****ORCA TERMINATED NORMALLY****
TOTAL RUN TIME: 0 days 0 hours 0 minutes 13 seconds 420 msec
