                         Program Version 5.0.0 -  RELEASE  -
|  1> !LC-BLYP RIJCOSX def2-SVPD def2/J TightSCF
|  2> *xyz 0 1
|  3> C         -2.79070       -0.78527        5.70281
|  4> C         -2.45380        0.05510        6.94145
|  5> C         -2.07842        1.48042        6.56410
|  6> H         -1.62558       -0.38216        7.49891
|  7> H         -3.32527        0.08775        7.59917
|  8> O         -0.90125        1.85816        6.82810
|  9> F         -2.93658        2.17731        5.96415
| 10> H         -1.94052       -0.82114        5.05412
| 11> H         -3.61590       -0.34261        5.18514
| 12> H         -3.05063       -1.77815        6.00536
| 13> *
| 14> %MaxCore 64000
| 15>
| 16> %pal nprocs 4
| 17> end
| 18>
| 19> %scf
| 20>   MaxIter 150
| 21> end
| 22>
| 23>
| 24>                          ****END OF INPUT****

CARTESIAN COORDINATES (ANGSTROEM)
---------------------------------
  C     -2.790700   -0.785270    5.702810
  C     -2.453800    0.055100    6.941450
  C     -2.078420    1.480420    6.564100
  H     -1.625580   -0.382160    7.498910
  H     -3.325270    0.087750    7.599170
  O     -0.901250    1.858160    6.828100
  F     -2.936580    2.177310    5.964150
  H     -1.940520   -0.821140    5.054120
  H     -3.615900   -0.342610    5.185140
  H     -3.050630   -1.778150    6.005360

 Total Charge           Charge          ....    0
 Multiplicity           Mult            ....    1
 Number of Electrons    NEL             ....   40
 Basis Dimension        Dim             ....  146

ORBITAL ENERGIES
----------------

  NO   OCC          E(Eh)            E(eV)
   0   2.0000     -24.550219      -668.0454
   1   2.0000     -18.968485      -516.1587
   2   2.0000     -10.272198      -279.5207
   3   2.0000     -10.120920      -275.4042
   4   2.0000     -10.098504      -274.7943
   5   2.0000      -1.389357       -37.8063
   6   2.0000      -1.116539       -30.3826
   7   2.0000      -0.912928       -24.8420
   8   2.0000      -0.791525       -21.5385
   9   2.0000      -0.750685       -20.4272
  10   2.0000      -0.663670       -18.0594
  11   2.0000      -0.648384       -17.6434
  12   2.0000      -0.607917       -16.5423
  13   2.0000      -0.573356       -15.6018
  14   2.0000      -0.541116       -14.7245
  15   2.0000      -0.509569       -13.8661
  16   2.0000      -0.487787       -13.2733
  17   2.0000      -0.478887       -13.0312
  18   2.0000      -0.456181       -12.4133
  19   2.0000      -0.393119       -10.6973
  20   0.0000       0.045782         1.2458
  21   0.0000       0.064516         1.7556
  22   0.0000       0.095469         2.5978
  23   0.0000       0.104235         2.8364
  24   0.0000       0.128892         3.5073

MULLIKEN ATOMIC CHARGES
-----------------------
   0 C :    0.781170
   1 C :   -0.081560
   2 C :    0.459016
   3 H :   -0.104667
   4 H :   -0.042767
   5 O :   -0.341203
   6 F :   -0.292834
   7 H :   -0.137822
   8 H :   -0.115151
   9 H :   -0.124182
Sum of atomic charges:   -0.0000000

LOEWDIN ATOMIC CHARGES
----------------------
   0 C :    0.129111
   1 C :   -0.004365
   2 C :   -0.055238
   3 H :    0.039239
   4 H :    0.040297
   5 O :   -0.119340
   6 F :   -0.010038
   7 H :   -0.002348
   8 H :   -0.009604
   9 H :   -0.007714

  Mayer bond orders larger than 0.100000
B(  0-C ,  1-C ) :   1.2878 B(  0-C ,  7-H ) :   0.8105 B(  0-C ,  8-H ) :   0.7755
B(  0-C ,  9-H ) :   0.8106 B(  1-C ,  2-C ) :   1.0711 B(  1-C ,  3-H ) :   0.9443
B(  1-C ,  4-H ) :   0.8479 B(  1-C ,  7-H ) :   0.1783 B(  1-C ,  8-H ) :   0.1830
B(  1-C ,  9-H ) :   0.1759 B(  2-C ,  3-H ) :   0.1498 B(  2-C ,  5-O ) :   1.9408
B(  2-C ,  6-F ) :   0.8597 B(  5-O ,  6-F ) :   0.1148

FINAL SINGLE POINT ENERGY      -291.578171124898

DIPOLE MOMENT
-------------
                                X             Y             Z
Electronic contribution:      0.55856       7.90192       0.06171
Nuclear contribution   :     -1.47571      -8.84360      -0.10748
                        -----------------------------------------
Total Dipole Moment    :     -0.91715      -0.94168      -0.04577
                        -----------------------------------------
Magnitude (a.u.)       :      1.31530
Magnitude (Debye)      :      3.34323

Rotational constants in cm-1:     0.283081     0.133379     0.103386
Rotational constants in MHz :  8486.545774  3998.599544  3099.448040

                             ****ORCA TERMINATED NORMALLY****
TOTAL RUN TIME: 0 days 0 hours 0 minutes 18 seconds 732 msec
