                         Program Version 5.0.0 -  RELEASE  -
|  1> !LC-BLYP RIJCOSX def2-SVPD def2/J TightSCF xyzfile
|  2>
|  3> *xyzfile 0 1 D1.xyz
|  4>
|  5> %MaxCore 64000
|  6>
|  7> %pal nprocs 4
|  8> end
|  9>
| 10> %scf
| 11>   MaxIter 150
| 12> end
| 13>
| 14>
| 15>                          ****END OF INPUT****

CARTESIAN COORDINATES (ANGSTROEM)
---------------------------------
  C     -0.699123    3.489451    3.755163
  H     -0.966716    4.349013    3.140491
  C     -1.080669    3.792957    5.156857
  C      0.776956    3.138391    3.617408
  H     -1.331455    2.656510    3.446323
  H      1.371398    3.888342    4.149744
  H      1.046926    3.232057    2.561331
  C      1.118917    1.731170    4.115155
  H      2.200573    1.654226    4.254882
  C      0.659466    0.635182    3.153306
  H      0.677024    1.576674    5.103150
  H      1.312288    0.638870    2.274207
  H     -0.339563    0.868049    2.772876
  C      0.639957   -0.771175    3.755619
  C     -0.341821   -0.965537    4.915046
  H      1.648266   -1.028665    4.097015
  H      0.398568   -1.482386    2.958453
  H     -0.279892   -2.005646    5.252547
  C     -1.789164   -0.639231    4.557496
  H     -0.032380   -0.352918    5.765118
  H     -2.107151   -1.270102    3.719619
  H     -1.856352    0.391636    4.197604
  C     -2.790700   -0.785275    5.702812
  H     -2.867308   -1.835651    6.001675
  H     -3.774554   -0.486577    5.334807
  C     -2.453797    0.055101    6.941445
  C     -2.078419    1.480421    6.564098
  H     -1.625584   -0.382163    7.498914
  H     -3.325274    0.087746    7.599175
  H     -0.874488    4.762737    5.427344
  H     -0.680793    3.134762    5.839000
  H     -2.057550    3.531691    5.346197
  F     -0.901252    1.858156    6.828104
  O     -2.936582    2.177309    5.964151

 Total Charge           Charge          ....    0
 Multiplicity           Mult            ....    1
 Number of Electrons    NEL             ....  104
 Basis Dimension        Dim             ....  434

ORBITAL ENERGIES
----------------

  NO   OCC          E(Eh)            E(eV)
   0   2.0000     -24.557172      -668.2346
   1   2.0000     -18.976138      -516.3670
   2   2.0000     -10.281841      -279.7831
   3   2.0000     -10.121136      -275.4101
   4   2.0000     -10.102863      -274.9129
   5   2.0000     -10.088213      -274.5142
   6   2.0000     -10.085246      -274.4335
   7   2.0000     -10.079572      -274.2791
   8   2.0000     -10.072442      -274.0851
   9   2.0000     -10.069747      -274.0117
  10   2.0000     -10.062233      -273.8073
  11   2.0000     -10.053231      -273.5623
  12   2.0000     -10.001502      -272.1547
  13   2.0000      -1.399900       -38.0932
  14   2.0000      -1.134366       -30.8677
  15   2.0000      -0.938647       -25.5419
  16   2.0000      -0.914024       -24.8719
  17   2.0000      -0.882814       -24.0226
  18   2.0000      -0.854433       -23.2503
  19   2.0000      -0.811952       -22.0943
  20   2.0000      -0.789249       -21.4765
  21   2.0000      -0.763018       -20.7628
  22   2.0000      -0.730707       -19.8835
  23   2.0000      -0.715126       -19.4596
  24   2.0000      -0.675001       -18.3677
  25   2.0000      -0.671702       -18.2779
  26   2.0000      -0.660703       -17.9786
  27   2.0000      -0.641686       -17.4612
  28   2.0000      -0.624218       -16.9858
  29   2.0000      -0.588738       -16.0204
  30   2.0000      -0.585355       -15.9283
  31   2.0000      -0.567556       -15.4440
  32   2.0000      -0.565704       -15.3936
  33   2.0000      -0.543179       -14.7807
  34   2.0000      -0.533431       -14.5154
  35   2.0000      -0.518095       -14.0981
  36   2.0000      -0.512279       -13.9398
  37   2.0000      -0.502766       -13.6810
  38   2.0000      -0.493290       -13.4231
  39   2.0000      -0.481488       -13.1020
  40   2.0000      -0.468986       -12.7618
  41   2.0000      -0.463520       -12.6130
  42   2.0000      -0.453037       -12.3278
  43   2.0000      -0.443734       -12.0746
  44   2.0000      -0.438198       -11.9240
  45   2.0000      -0.426945       -11.6178
  46   2.0000      -0.421996       -11.4831
  47   2.0000      -0.409693       -11.1483
  48   2.0000      -0.405789       -11.0421
  49   2.0000      -0.394909       -10.7460
  50   2.0000      -0.392495       -10.6803
  51   2.0000      -0.364809        -9.9270
  52   0.0000       0.033154         0.9022
  53   0.0000       0.066348         1.8054
  54   0.0000       0.081345         2.2135
  55   0.0000       0.084662         2.3038
  56   0.0000       0.090906         2.4737

MULLIKEN ATOMIC CHARGES
-----------------------
   0 C :    0.291120
   1 H :   -0.412658
   2 C :    2.467668
   3 C :    0.716440
   4 H :   -0.403015
   5 H :   -0.181207
   6 H :   -0.202052
   7 C :    1.005316
   8 H :   -0.065257
   9 C :    0.233158
  10 H :   -1.021922
  11 H :   -0.338469
  12 H :   -0.246548
  13 C :    0.893151
  14 C :    0.201677
  15 H :   -0.227276
  16 H :   -0.040561
  17 H :   -0.392397
  18 C :    0.699070
  19 H :   -0.158615
  20 H :   -0.120041
  21 H :   -0.878765
  22 C :    0.653420
  23 H :   -0.265759
  24 H :    0.008622
  25 C :    0.517806
  26 C :    0.257069
  27 H :    0.063559
  28 H :   -0.263207
  29 H :   -0.361838
  30 H :   -1.047158
  31 H :   -0.522979
  32 F :   -0.456509
  33 O :   -0.401842
Sum of atomic charges:    0.0000000

LOEWDIN ATOMIC CHARGES
----------------------
   0 C :   -0.047052
   1 H :    0.027749
   2 C :    0.122264
   3 C :   -0.036492
   4 H :    0.007930
   5 H :    0.030026
   6 H :    0.022861
   7 C :   -0.024291
   8 H :    0.031069
   9 C :   -0.041822
  10 H :   -0.012640
  11 H :    0.030911
  12 H :    0.004658
  13 C :   -0.037467
  14 C :   -0.038164
  15 H :    0.029130
  16 H :    0.028158
  17 H :    0.032799
  18 C :   -0.032817
  19 H :   -0.001172
  20 H :    0.040745
  21 H :    0.003425
  22 C :   -0.017863
  23 H :    0.033580
  24 H :    0.036525
  25 C :    0.046428
  26 C :    0.007479
  27 H :    0.030171
  28 H :    0.048035
  29 H :   -0.012726
  30 H :   -0.097737
  31 H :   -0.099339
  32 F :   -0.026364
  33 O :   -0.087994

  Mayer bond orders larger than 0.100000
B(  0-C ,  1-H ) :   0.7824 B(  0-C ,  2-C ) :   0.5960 B(  0-C ,  3-C ) :   1.1726
B(  0-C ,  4-H ) :   0.6134 B(  0-C ,  5-H ) :   0.1495 B(  0-C ,  6-H ) :   0.1979
B(  0-C ,  7-C ) :   0.2800 B(  0-C , 10-H ) :  -0.2127 B(  0-C , 29-H ) :   0.1284
B(  0-C , 30-H ) :   0.7806 B(  0-C , 31-H ) :   0.4730 B(  1-H ,  2-C ) :  -0.1066
B(  1-H ,  5-H ) :   0.1310 B(  1-H ,  8-H ) :   0.1285 B(  1-H , 30-H ) :   0.1510
B(  2-C ,  3-C ) :   0.1336 B(  2-C ,  4-H ) :   0.2637 B(  2-C , 29-H ) :   0.3795
B(  2-C , 30-H ) :  -1.1149 B(  2-C , 32-F ) :  -0.1411 B(  3-C ,  4-H ) :   0.1383
B(  3-C ,  5-H ) :   0.6086 B(  3-C ,  6-H ) :   0.6490 B(  3-C ,  7-C ) :   1.1509
B(  3-C ,  9-C ) :   0.1066 B(  3-C , 10-H ) :   0.2420 B(  3-C , 13-C ) :   0.1095
B(  3-C , 30-H ) :  -0.1654 B(  4-H ,  7-C ) :  -0.1376 B(  4-H ,  8-H ) :  -0.1119
B(  4-H , 10-H ) :   0.1366 B(  4-H , 12-H ) :   0.1329 B(  4-H , 18-C ) :  -0.1010
B(  4-H , 21-H ) :   0.2633 B(  5-H ,  6-H ) :  -0.1708 B(  5-H ,  7-C ) :   0.1912
B(  5-H , 10-H ) :   0.1407 B(  6-H ,  7-C ) :   0.1206 B(  6-H ,  8-H ) :   0.1064
B(  7-C ,  8-H ) :   0.5987 B(  7-C ,  9-C ) :   1.0340 B(  7-C , 11-H ) :   0.2335
B(  7-C , 12-H ) :   0.1034 B(  8-H ,  9-C ) :   0.2398 B(  9-C , 10-H ) :   0.3440
B(  9-C , 11-H ) :   0.7969 B(  9-C , 12-H ) :   0.8270 B(  9-C , 13-C ) :   1.1781
B(  9-C , 14-C ) :   0.1731 B(  9-C , 15-H ) :   0.1383 B(  9-C , 16-H ) :   0.2866
B( 10-H , 13-C ) :  -0.1272 B( 10-H , 19-H ) :   0.1394 B( 10-H , 30-H ) :   0.1239
B( 12-H , 14-C ) :  -0.1013 B( 13-C , 14-C ) :   1.1316 B( 13-C , 15-H ) :   0.5676
B( 13-C , 16-H ) :   0.6036 B( 14-C , 15-H ) :   0.3538 B( 14-C , 17-H ) :   0.8463
B( 14-C , 18-C ) :   1.0808 B( 14-C , 19-H ) :   0.8264 B( 14-C , 20-H ) :   0.1800
B( 14-C , 21-H ) :   0.3425 B( 15-H , 16-H ) :  -0.1684 B( 17-H , 18-C ) :   0.1502
B( 18-C , 19-H ) :   0.1236 B( 18-C , 20-H ) :   0.6580 B( 18-C , 21-H ) :   0.2253
B( 18-C , 22-C ) :   1.1815 B( 18-C , 23-H ) :   0.1644 B( 18-C , 24-H ) :   0.3185
B( 18-C , 25-C ) :   0.1961 B( 21-H , 22-C ) :   0.1856 B( 22-C , 23-H ) :   0.7125
B( 22-C , 24-H ) :   0.6146 B( 22-C , 25-C ) :   1.0952 B( 22-C , 26-C ) :   0.1339
B( 22-C , 27-H ) :   0.1038 B( 22-C , 28-H ) :   0.1831 B( 23-H , 24-H ) :  -0.1892
B( 23-H , 25-C ) :   0.1549 B( 25-C , 26-C ) :   1.2436 B( 25-C , 27-H ) :   0.7600
B( 25-C , 28-H ) :   0.5537 B( 26-C , 27-H ) :   0.1979 B( 26-C , 28-H ) :   0.3296
B( 26-C , 30-H ) :   0.1018 B( 26-C , 32-F ) :   0.8115 B( 26-C , 33-O ) :   1.8778
B( 29-H , 30-H ) :   0.2249 B( 30-H , 31-H ) :   0.5216 B( 30-H , 32-F ) :   0.3283
B( 31-H , 33-O ) :   0.2302 B( 32-F , 33-O ) :   0.1128

FINAL SINGLE POINT ENERGY      -604.868455075591

DIPOLE MOMENT
-------------
                                X             Y             Z
Electronic contribution:     -5.46566       2.46406      10.84251
Nuclear contribution   :      5.54676      -3.70047     -10.28793
                        -----------------------------------------
Total Dipole Moment    :      0.08110      -1.23641       0.55458
                        -----------------------------------------
Magnitude (a.u.)       :      1.35752
Magnitude (Debye)      :      3.45054

Rotational constants in cm-1:     0.028503     0.023389     0.015214
Rotational constants in MHz :   854.502405   701.197575   456.108322

                             ****ORCA TERMINATED NORMALLY****
TOTAL RUN TIME: 0 days 0 hours 3 minutes 41 seconds 177 msec
