                         Program Version 5.0.0 -  RELEASE  -
|  1> !BLYP D3BJ RIJCOSX def2-TZVPD def2/J TightSCF
|  2> *xyz -1 1
|  3> C         -0.77894        0.17197        1.80496
|  4> C         -0.60249       -0.63071        0.49224
|  5> H          0.31389       -1.24035        0.60350
|  6> H         -0.36383        0.11332       -0.30117
|  7> O         -1.71206       -1.37684        0.20253
|  8> H         -1.65864        0.77733        1.73736
|  9> H          0.07466        0.79896        1.95712
| 10> H         -0.87474       -0.50584        2.62734
| 11> *
| 12> %MaxCore 64000
| 13>
| 14> %pal nprocs 4
| 15> end
| 16>
| 17> %scf
| 18>   MaxIter 150
| 19> end
| 20>
| 21>
| 22>                          ****END OF INPUT****

CARTESIAN COORDINATES (ANGSTROEM)
---------------------------------
  C     -0.778940    0.171970    1.804960
  C     -0.602490   -0.630710    0.492240
  H      0.313890   -1.240350    0.603500
  H     -0.363830    0.113320   -0.301170
  O     -1.712060   -1.376840    0.202530
  H     -1.658640    0.777330    1.737360
  H      0.074660    0.798960    1.957120
  H     -0.874740   -0.505840    2.627340

 Total Charge           Charge          ....   -1
 Multiplicity           Mult            ....    1
 Number of Electrons    NEL             ....   26
 Basis Dimension        Dim             ....  159

ORBITAL ENERGIES
----------------

  NO   OCC          E(Eh)            E(eV)
   0   2.0000     -18.458060      -502.2693
   1   2.0000      -9.723893      -264.6006
   2   2.0000      -9.696972      -263.8680
   3   2.0000      -0.602061       -16.3829
   4   2.0000      -0.452059       -12.3011
   5   2.0000      -0.313592        -8.5333
   6   2.0000      -0.200996        -5.4694
   7   2.0000      -0.178955        -4.8696
   8   2.0000      -0.129117        -3.5135
   9   2.0000      -0.115876        -3.1531
  10   2.0000      -0.075220        -2.0469
  11   2.0000       0.062257         1.6941
  12   2.0000       0.065065         1.7705
  13   0.0000       0.140927         3.8348
  14   0.0000       0.163952         4.4614
  15   0.0000       0.188613         5.1324
  16   0.0000       0.193856         5.2751
  17   0.0000       0.214100         5.8260

MULLIKEN ATOMIC CHARGES
-----------------------
   0 C :   -1.217700
   1 C :   -0.239551
   2 H :    0.209221
   3 H :    0.206170
   4 O :   -0.918027
   5 H :    0.272428
   6 H :    0.414336
   7 H :    0.273124
Sum of atomic charges:   -1.0000000

LOEWDIN ATOMIC CHARGES
----------------------
   0 C :   -0.174262
   1 C :   -0.616113
   2 H :    0.045123
   3 H :    0.046215
   4 O :   -0.377042
   5 H :    0.031880
   6 H :    0.014092
   7 H :    0.030106

  Mayer bond orders larger than 0.100000
B(  0-C ,  1-C ) :   0.7305 B(  0-C ,  4-O ) :   0.6168 B(  0-C ,  5-H ) :   0.9857
B(  0-C ,  6-H ) :   0.9060 B(  0-C ,  7-H ) :   0.9811 B(  1-C ,  2-H ) :   1.0505
B(  1-C ,  3-H ) :   1.0528 B(  1-C ,  4-O ) :   0.8063 B(  2-H ,  3-H ) :   0.1164
B(  4-O ,  6-H ) :  -0.1272

Dispersion correction           -0.007743466
FINAL SINGLE POINT ENERGY      -154.441533694586

DIPOLE MOMENT
-------------
                                X             Y             Z
Electronic contribution:     -1.75044      -2.01737      -1.65684
Nuclear contribution   :      2.47835       2.80827       2.30058
                        -----------------------------------------
Total Dipole Moment    :      0.72791       0.79090       0.64374
                        -----------------------------------------
Magnitude (a.u.)       :      1.25291
Magnitude (Debye)      :      3.18465

Rotational constants in cm-1:     1.255775     0.327783     0.287473
Rotational constants in MHz : 37647.186859  9826.677683  8618.224821

                             ****ORCA TERMINATED NORMALLY****
TOTAL RUN TIME: 0 days 0 hours 0 minutes 9 seconds 490 msec
