                         Program Version 5.0.0 -  RELEASE  -
|  1> !BLYP D3BJ RIJCOSX def2-TZVPD def2/J TightSCF
|  2> *xyz 1 1
|  3> C         -2.12050        0.88520        1.78951
|  4> C         -0.77894        0.17197        1.80496
|  5> H         -2.32419        1.47265        2.68608
|  6> H         -2.18770        1.54127        0.91948
|  7> N         -3.17690       -0.15948        1.61070
|  8> H         -4.06474        0.23127        1.28675
|  9> H         -3.34407       -0.67151        2.48493
| 10> H         -2.71686       -0.78189        0.93588
| 11> H         -0.65708       -0.37837        0.89547
| 12> H         -0.74207       -0.50050        2.63642
| 13> H          0.00707        0.89251        1.89389
| 14> *
| 15> %MaxCore 64000
| 16>
| 17> %pal nprocs 4
| 18> end
| 19>
| 20> %scf
| 21>   MaxIter 150
| 22> end
| 23>
| 24>
| 25>                          ****END OF INPUT****

CARTESIAN COORDINATES (ANGSTROEM)
---------------------------------
  C     -2.120500    0.885200    1.789510
  C     -0.778940    0.171970    1.804960
  H     -2.324190    1.472650    2.686080
  H     -2.187700    1.541270    0.919480
  N     -3.176900   -0.159480    1.610700
  H     -4.064740    0.231270    1.286750
  H     -3.344070   -0.671510    2.484930
  H     -2.716860   -0.781890    0.935880
  H     -0.657080   -0.378370    0.895470
  H     -0.742070   -0.500500    2.636420
  H      0.007070    0.892510    1.893890

 Total Charge           Charge          ....    1
 Multiplicity           Mult            ....    1
 Number of Electrons    NEL             ....   26
 Basis Dimension        Dim             ....  183

ORBITAL ENERGIES
----------------

  NO   OCC          E(Eh)            E(eV)
   0   2.0000     -14.336151      -390.1065
   1   2.0000     -10.159164      -276.4449
   2   2.0000     -10.084818      -274.4219
   3   2.0000      -1.129557       -30.7368
   4   2.0000      -0.892109       -24.2755
   5   2.0000      -0.780259       -21.2319
   6   2.0000      -0.747570       -20.3424
   7   2.0000      -0.737108       -20.0577
   8   2.0000      -0.640696       -17.4342
   9   2.0000      -0.594120       -16.1668
  10   2.0000      -0.538691       -14.6585
  11   2.0000      -0.532459       -14.4889
  12   2.0000      -0.512420       -13.9437
  13   0.0000      -0.223906        -6.0928
  14   0.0000      -0.166215        -4.5229
  15   0.0000      -0.164651        -4.4804
  16   0.0000      -0.153754        -4.1839
  17   0.0000      -0.124679        -3.3927

MULLIKEN ATOMIC CHARGES
-----------------------
   0 C :   -0.261754
   1 C :   -1.198810
   2 H :    0.326181
   3 H :    0.298695
   4 N :   -0.200323
   5 H :    0.312029
   6 H :    0.307151
   7 H :    0.289134
   8 H :    0.429391
   9 H :    0.371323
  10 H :    0.326983
Sum of atomic charges:    1.0000000

LOEWDIN ATOMIC CHARGES
----------------------
   0 C :   -0.189803
   1 C :   -0.048316
   2 H :    0.135128
   3 H :    0.133844
   4 N :    0.191020
   5 H :    0.176243
   6 H :    0.178331
   7 H :    0.163930
   8 H :    0.082069
   9 H :    0.084281
  10 H :    0.093273

  Mayer bond orders larger than 0.100000
B(  0-C ,  1-C ) :   0.5622 B(  0-C ,  2-H ) :   0.9104 B(  0-C ,  3-H ) :   0.9284
B(  0-C ,  4-N ) :   0.9321 B(  1-C ,  8-H ) :   0.8536 B(  1-C ,  9-H ) :   0.9283
B(  1-C , 10-H ) :   0.9721 B(  4-N ,  5-H ) :   0.8829 B(  4-N ,  6-H ) :   0.8897
B(  4-N ,  7-H ) :   0.8805

Dispersion correction           -0.012627110
FINAL SINGLE POINT ENERGY      -135.516603341226

DIPOLE MOMENT
-------------
                                X             Y             Z
Electronic contribution:     -1.79301      -0.14482      -0.05455
Nuclear contribution   :      0.50278      -0.30871      -0.06979
                        -----------------------------------------
Total Dipole Moment    :     -1.29023      -0.45354      -0.12434
                        -----------------------------------------
Magnitude (a.u.)       :      1.37326
Magnitude (Debye)      :      3.49055

Rotational constants in cm-1:     0.963746     0.295157     0.256910
Rotational constants in MHz : 28892.375247  8848.576767  7701.963879

                             ****ORCA TERMINATED NORMALLY****
TOTAL RUN TIME: 0 days 0 hours 0 minutes 9 seconds 222 msec
