                         Program Version 5.0.0 -  RELEASE  -
|  1> !BLYP D3BJ RIJCOSX def2-TZVPD def2/J TightSCF xyzfile
|  2>
|  3> *xyzfile 0 1 B.xyz
|  4>
|  5> %MaxCore 64000
|  6>
|  7> %pal nprocs 4
|  8> end
|  9>
| 10> %scf
| 11>   MaxIter 150
| 12> end
| 13>
| 14>
| 15>                          ****END OF INPUT****

CARTESIAN COORDINATES (ANGSTROEM)
---------------------------------
  C     -2.120502    0.885196    1.789506
  C     -0.778939    0.171966    1.804965
  H     -2.324193    1.472649    2.686078
  H     -2.187698    1.541272    0.919482
  N     -3.176900   -0.159484    1.610700
  H      0.015695    0.910767    1.939153
  H     -0.743553   -0.506827    2.665420
  C     -0.602493   -0.630712    0.492240
  H      0.313894   -1.240346    0.603498
  H     -0.363829    0.113322   -0.301169
  O     -1.712061   -1.376836    0.202535
  H     -4.064736    0.231272    1.286754
  H     -3.344073   -0.671511    2.484928
  H     -2.716861   -0.781886    0.935880

 Total Charge           Charge          ....    0
 Multiplicity           Mult            ....    1
 Number of Electrons    NEL             ....   42
 Basis Dimension        Dim             ....  269

ORBITAL ENERGIES
----------------

  NO   OCC          E(Eh)            E(eV)
   0   2.0000     -18.652702      -507.5658
   1   2.0000     -14.085141      -383.2762
   2   2.0000      -9.967055      -271.2174
   3   2.0000      -9.903330      -269.4833
   4   2.0000      -9.899155      -269.3697
   5   2.0000      -0.904767       -24.6200
   6   2.0000      -0.808831       -22.0094
   7   2.0000      -0.695216       -18.9178
   8   2.0000      -0.587604       -15.9895
   9   2.0000      -0.532982       -14.5032
  10   2.0000      -0.515450       -14.0261
  11   2.0000      -0.486735       -13.2447
  12   2.0000      -0.435007       -11.8371
  13   2.0000      -0.387899       -10.5553
  14   2.0000      -0.356914        -9.7121
  15   2.0000      -0.355071        -9.6620
  16   2.0000      -0.313375        -8.5274
  17   2.0000      -0.296686        -8.0732
  18   2.0000      -0.273135        -7.4324
  19   2.0000      -0.144102        -3.9212
  20   2.0000      -0.134726        -3.6661
  21   0.0000      -0.044507        -1.2111
  22   0.0000      -0.005542        -0.1508
  23   0.0000      -0.003185        -0.0867
  24   0.0000       0.020930         0.5695
  25   0.0000       0.039875         1.0850

MULLIKEN ATOMIC CHARGES
-----------------------
   0 C :   -0.554902
   1 C :   -0.385810
   2 H :    0.268489
   3 H :    0.270981
   4 N :   -0.189198
   5 H :    0.251230
   6 H :    0.260537
   7 C :   -0.334711
   8 H :    0.242024
   9 H :    0.224607
  10 O :   -0.854439
  11 H :    0.254051
  12 H :    0.256915
  13 H :    0.290227
Sum of atomic charges:    0.0000000

LOEWDIN ATOMIC CHARGES
----------------------
   0 C :   -0.175227
   1 C :   -0.186055
   2 H :    0.110990
   3 H :    0.123699
   4 N :    0.133975
   5 H :    0.105508
   6 H :    0.105967
   7 C :   -0.423064
   8 H :    0.093183
   9 H :    0.093443
  10 O :   -0.250097
  11 H :    0.147776
  12 H :    0.152642
  13 H :   -0.032740

  Mayer bond orders larger than 0.100000
B(  0-C ,  1-C ) :   0.7932 B(  0-C ,  2-H ) :   0.9643 B(  0-C ,  3-H ) :   0.9086
B(  0-C ,  4-N ) :   0.9683 B(  1-C ,  5-H ) :   1.0087 B(  1-C ,  6-H ) :   0.9310
B(  1-C ,  7-C ) :   0.9143 B(  1-C , 10-O ) :   0.1380 B(  4-N , 11-H ) :   0.9299
B(  4-N , 12-H ) :   0.9203 B(  4-N , 13-H ) :   0.6158 B(  7-C ,  8-H ) :   0.9831
B(  7-C ,  9-H ) :   1.0110 B(  7-C , 10-O ) :   0.8170 B( 10-O , 13-H ) :   0.4099

Dispersion correction           -0.021167853
FINAL SINGLE POINT ENERGY      -249.670508957408

DIPOLE MOMENT
-------------
                                X             Y             Z
Electronic contribution:     -1.47571      -1.52787      -0.86830
Nuclear contribution   :      0.08650       3.01678       2.47433
                        -----------------------------------------
Total Dipole Moment    :     -1.38921       1.48891       1.60603
                        -----------------------------------------
Magnitude (a.u.)       :      2.59347
Magnitude (Debye)      :      6.59208

Rotational constants in cm-1:     0.238796     0.156489     0.106146
Rotational constants in MHz :  7158.916762  4691.413084  3182.185740

                             ****ORCA TERMINATED NORMALLY****
TOTAL RUN TIME: 0 days 0 hours 0 minutes 15 seconds 329 msec
