                         Program Version 5.0.0 -  RELEASE  -
|  1> !BLYP D3BJ RIJCOSX def2-TZVPD def2/J TightSCF
|  2> *xyz 0 1
|  3> C         -0.77894        0.17197        1.80496
|  4> C         -0.60249       -0.63071        0.49224
|  5> H          0.31389       -1.24035        0.60350
|  6> H         -0.36383        0.11332       -0.30117
|  7> F         -1.71206       -1.37684        0.20253
|  8> H         -1.65864        0.77733        1.73736
|  9> H          0.07466        0.79896        1.95712
| 10> H         -0.87474       -0.50584        2.62734
| 11> *
| 12> %MaxCore 64000
| 13>
| 14> %pal nprocs 4
| 15> end
| 16>
| 17> %scf
| 18>   MaxIter 150
| 19> end
| 20>
| 21>
| 22>                          ****END OF INPUT****

CARTESIAN COORDINATES (ANGSTROEM)
---------------------------------
  C     -0.778940    0.171970    1.804960
  C     -0.602490   -0.630710    0.492240
  H      0.313890   -1.240350    0.603500
  H     -0.363830    0.113320   -0.301170
  F     -1.712060   -1.376840    0.202530
  H     -1.658640    0.777330    1.737360
  H      0.074660    0.798960    1.957120
  H     -0.874740   -0.505840    2.627340

 Total Charge           Charge          ....    0
 Multiplicity           Mult            ....    1
 Number of Electrons    NEL             ....   26
 Basis Dimension        Dim             ....  159

ORBITAL ENERGIES
----------------

  NO   OCC          E(Eh)            E(eV)
   0   2.0000     -24.274724      -660.5488
   1   2.0000      -9.982318      -271.6327
   2   2.0000      -9.899116      -269.3686
   3   2.0000      -1.093918       -29.7670
   4   2.0000      -0.685029       -18.6406
   5   2.0000      -0.564586       -15.3632
   6   2.0000      -0.452588       -12.3155
   7   2.0000      -0.436701       -11.8832
   8   2.0000      -0.399386       -10.8678
   9   2.0000      -0.353175        -9.6104
  10   2.0000      -0.351799        -9.5729
  11   2.0000      -0.284863        -7.7515
  12   2.0000      -0.283065        -7.7026
  13   0.0000      -0.006643        -0.1808
  14   0.0000       0.020571         0.5598
  15   0.0000       0.033198         0.9034
  16   0.0000       0.039556         1.0764
  17   0.0000       0.064467         1.7542

MULLIKEN ATOMIC CHARGES
-----------------------
   0 C :   -0.954611
   1 C :   -0.079005
   2 H :    0.223912
   3 H :    0.218282
   4 F :   -0.299467
   5 H :    0.286874
   6 H :    0.323732
   7 H :    0.280283
Sum of atomic charges:    0.0000000

LOEWDIN ATOMIC CHARGES
----------------------
   0 C :   -0.074938
   1 C :   -0.294743
   2 H :    0.105830
   3 H :    0.108152
   4 F :   -0.025463
   5 H :    0.060268
   6 H :    0.061789
   7 H :    0.059106

  Mayer bond orders larger than 0.100000
B(  0-C ,  1-C ) :   0.7394 B(  0-C ,  5-H ) :   0.9552 B(  0-C ,  6-H ) :   0.9247
B(  0-C ,  7-H ) :   0.9561 B(  1-C ,  2-H ) :   0.9636 B(  1-C ,  3-H ) :   0.9676
B(  1-C ,  4-F ) :   0.8254

Dispersion correction           -0.007133688
FINAL SINGLE POINT ENERGY      -179.083463890933

DIPOLE MOMENT
-------------
                                X             Y             Z
Electronic contribution:     -2.76245      -3.31061      -2.83301
Nuclear contribution   :      3.27800       3.70743       3.04146
                        -----------------------------------------
Total Dipole Moment    :      0.51556       0.39682       0.20845
                        -----------------------------------------
Magnitude (a.u.)       :      0.68316
Magnitude (Debye)      :      1.73646

Rotational constants in cm-1:     1.234437     0.305084     0.268865
Rotational constants in MHz : 37007.496448  9146.194083  8060.380630

                             ****ORCA TERMINATED NORMALLY****
TOTAL RUN TIME: 0 days 0 hours 0 minutes 7 seconds 888 msec
