                         Program Version 5.0.0 -  RELEASE  -
|  1> !BLYP D3BJ RIJCOSX def2-TZVPD def2/J TightSCF
|  2> *xyz 0 1
|  3> C         -2.12050        0.88520        1.78951
|  4> C         -0.77894        0.17197        1.80496
|  5> H         -2.32419        1.47265        2.68608
|  6> H         -2.18770        1.54127        0.91948
|  7> C         -3.17690       -0.15948        1.61070
|  8> H         -4.06474        0.23127        1.28675
|  9> H         -3.34407       -0.67151        2.48493
| 10> H         -2.71686       -0.78189        0.93588
| 11> H         -0.65708       -0.37837        0.89547
| 12> H         -0.74207       -0.50050        2.63642
| 13> H          0.00707        0.89251        1.89389
| 14> *
| 15> %MaxCore 64000
| 16>
| 17> %pal nprocs 4
| 18> end
| 19>
| 20> %scf
| 21>   MaxIter 150
| 22> end
| 23>
| 24>
| 25>                          ****END OF INPUT****

CARTESIAN COORDINATES (ANGSTROEM)
---------------------------------
  C     -2.120500    0.885200    1.789510
  C     -0.778940    0.171970    1.804960
  H     -2.324190    1.472650    2.686080
  H     -2.187700    1.541270    0.919480
  C     -3.176900   -0.159480    1.610700
  H     -4.064740    0.231270    1.286750
  H     -3.344070   -0.671510    2.484930
  H     -2.716860   -0.781890    0.935880
  H     -0.657080   -0.378370    0.895470
  H     -0.742070   -0.500500    2.636420
  H      0.007070    0.892510    1.893890

 Total Charge           Charge          ....    0
 Multiplicity           Mult            ....    1
 Number of Electrons    NEL             ....   26
 Basis Dimension        Dim             ....  183

ORBITAL ENERGIES
----------------

  NO   OCC          E(Eh)            E(eV)
   0   2.0000      -9.890101      -269.1233
   1   2.0000      -9.882084      -268.9052
   2   2.0000      -9.863086      -268.3882
   3   2.0000      -0.714914       -19.4538
   4   2.0000      -0.613004       -16.6807
   5   2.0000      -0.520665       -14.1680
   6   2.0000      -0.417767       -11.3680
   7   2.0000      -0.400364       -10.8945
   8   2.0000      -0.350892        -9.5482
   9   2.0000      -0.337087        -9.1726
  10   2.0000      -0.295840        -8.0502
  11   2.0000      -0.287576        -7.8254
  12   2.0000      -0.284122        -7.7313
  13   0.0000      -0.002015        -0.0548
  14   0.0000       0.022448         0.6108
  15   0.0000       0.025829         0.7028
  16   0.0000       0.042082         1.1451
  17   0.0000       0.063476         1.7273

MULLIKEN ATOMIC CHARGES
-----------------------
   0 C :    0.031932
   1 C :   -1.167062
   2 H :    0.234025
   3 H :    0.212217
   4 C :   -1.268932
   5 H :    0.347394
   6 H :    0.358428
   7 H :    0.314130
   8 H :    0.323552
   9 H :    0.305167
  10 H :    0.309148
Sum of atomic charges:   -0.0000000

LOEWDIN ATOMIC CHARGES
----------------------
   0 C :   -0.307362
   1 C :   -0.114629
   2 H :    0.100403
   3 H :    0.100447
   4 C :   -0.114787
   5 H :    0.048093
   6 H :    0.053641
   7 H :    0.045101
   8 H :    0.063478
   9 H :    0.067029
  10 H :    0.058586

  Mayer bond orders larger than 0.100000
B(  0-C ,  1-C ) :   0.5873 B(  0-C ,  2-H ) :   0.9467 B(  0-C ,  3-H ) :   0.9854
B(  0-C ,  4-C ) :   0.5667 B(  1-C ,  4-C ) :   0.1138 B(  1-C ,  8-H ) :   0.9581
B(  1-C ,  9-H ) :   0.9790 B(  1-C , 10-H ) :   0.9630 B(  4-C ,  5-H ) :   0.9111
B(  4-C ,  6-H ) :   0.9306 B(  4-C ,  7-H ) :   0.9648

Dispersion correction           -0.012707502
FINAL SINGLE POINT ENERGY      -119.092454103722

DIPOLE MOMENT
-------------
                                X             Y             Z
Electronic contribution:     -0.14630       0.47378       0.11294
Nuclear contribution   :      0.13334      -0.45108      -0.10852
                        -----------------------------------------
Total Dipole Moment    :     -0.01296       0.02270       0.00443
                        -----------------------------------------
Magnitude (a.u.)       :      0.02651
Magnitude (Debye)      :      0.06739

Rotational constants in cm-1:     0.972269     0.310387     0.269029
Rotational constants in MHz : 29147.878530  9305.178981  8065.286472

                             ****ORCA TERMINATED NORMALLY****
TOTAL RUN TIME: 0 days 0 hours 0 minutes 9 seconds 140 msec
