                         Program Version 5.0.0 -  RELEASE  -
|  1> !BLYP D3BJ RIJCOSX def2-TZVPD def2/J TightSCF xyzfile
|  2>
|  3> *xyzfile 0 1 D.xyz
|  4>
|  5> %MaxCore 64000
|  6>
|  7> %pal nprocs 4
|  8> end
|  9>
| 10> %scf
| 11>   MaxIter 150
| 12> end
| 13>
| 14>
| 15>                          ****END OF INPUT****

CARTESIAN COORDINATES (ANGSTROEM)
---------------------------------
  C     -2.120502    0.885196    1.789506
  C     -0.778939    0.171966    1.804965
  H     -2.324193    1.472649    2.686078
  H     -2.187698    1.541272    0.919482
  C     -3.176900   -0.159484    1.610700
  H      0.015695    0.910767    1.939153
  H     -0.743553   -0.506827    2.665420
  C     -0.602493   -0.630712    0.492240
  H      0.313894   -1.240346    0.603498
  H     -0.363829    0.113322   -0.301169
  F     -1.712061   -1.376836    0.202535
  H     -4.064736    0.231272    1.286754
  H     -3.344073   -0.671511    2.484928
  H     -2.716861   -0.781886    0.935880

 Total Charge           Charge          ....    0
 Multiplicity           Mult            ....    1
 Number of Electrons    NEL             ....   42
 Basis Dimension        Dim             ....  269

ORBITAL ENERGIES
----------------

  NO   OCC          E(Eh)            E(eV)
   0   2.0000     -24.291794      -661.0133
   1   2.0000      -9.989258      -271.8215
   2   2.0000      -9.908158      -269.6147
   3   2.0000      -9.888390      -269.0768
   4   2.0000      -9.828997      -267.4606
   5   2.0000      -1.125095       -30.6154
   6   2.0000      -0.724915       -19.7259
   7   2.0000      -0.658951       -17.9310
   8   2.0000      -0.568317       -15.4647
   9   2.0000      -0.526752       -14.3337
  10   2.0000      -0.469731       -12.7820
  11   2.0000      -0.466549       -12.6955
  12   2.0000      -0.429072       -11.6756
  13   2.0000      -0.387936       -10.5563
  14   2.0000      -0.359276        -9.7764
  15   2.0000      -0.352069        -9.5803
  16   2.0000      -0.331459        -9.0195
  17   2.0000      -0.297652        -8.0995
  18   2.0000      -0.284311        -7.7365
  19   2.0000      -0.280461        -7.6317
  20   2.0000      -0.230644        -6.2761
  21   0.0000      -0.008196        -0.2230
  22   0.0000       0.015484         0.4213
  23   0.0000       0.016697         0.4544
  24   0.0000       0.020846         0.5673
  25   0.0000       0.043970         1.1965

MULLIKEN ATOMIC CHARGES
-----------------------
   0 C :   -0.205683
   1 C :   -0.412709
   2 H :    0.193049
   3 H :    0.227635
   4 C :   -1.331958
   5 H :    0.222304
   6 H :    0.258750
   7 C :   -0.298425
   8 H :    0.272572
   9 H :    0.253321
  10 F :   -0.319496
  11 H :    0.351055
  12 H :    0.371100
  13 H :    0.418486
Sum of atomic charges:    0.0000000

LOEWDIN ATOMIC CHARGES
----------------------
   0 C :   -0.250283
   1 C :   -0.182675
   2 H :    0.101976
   3 H :    0.107573
   4 C :   -0.097484
   5 H :    0.108768
   6 H :    0.111897
   7 C :   -0.205987
   8 H :    0.115140
   9 H :    0.123100
  10 F :   -0.017938
  11 H :    0.053253
  12 H :    0.058658
  13 H :   -0.026000

  Mayer bond orders larger than 0.100000
B(  0-C ,  1-C ) :   0.7705 B(  0-C ,  2-H ) :   0.9987 B(  0-C ,  3-H ) :   0.9710
B(  0-C ,  4-C ) :   0.6164 B(  1-C ,  4-C ) :   0.1084 B(  1-C ,  5-H ) :   0.9988
B(  1-C ,  6-H ) :   0.9618 B(  1-C ,  7-C ) :   0.8864 B(  4-C , 11-H ) :   0.9427
B(  4-C , 12-H ) :   0.9430 B(  4-C , 13-H ) :   0.9470 B(  7-C ,  8-H ) :   0.9420
B(  7-C ,  9-H ) :   0.9739 B(  7-C , 10-F ) :   0.8378 B( 10-F , 13-H ) :  -0.1079

Dispersion correction           -0.020269891
FINAL SINGLE POINT ENERGY      -257.633137906176

DIPOLE MOMENT
-------------
                                X             Y             Z
Electronic contribution:      0.85635      -4.22007      -3.74353
Nuclear contribution   :     -0.20666       4.43855       3.76066
                        -----------------------------------------
Total Dipole Moment    :      0.64969       0.21847       0.01712
                        -----------------------------------------
Magnitude (a.u.)       :      0.68565
Magnitude (Debye)      :      1.74279

Rotational constants in cm-1:     0.236353     0.155239     0.105045
Rotational constants in MHz :  7085.692869  4653.957069  3149.180346

                             ****ORCA TERMINATED NORMALLY****
TOTAL RUN TIME: 0 days 0 hours 0 minutes 14 seconds 486 msec
