                         Program Version 5.0.0 -  RELEASE  -
|  1> !PBE D3BJ RIJCOSX def2-SVPD def2/J TightSCF
|  2> *xyz -1 1
|  3> C          1.69499        1.54179       -5.57045
|  4> S          1.78029       -0.03313       -6.42874
|  5> O          2.56929        0.21366       -7.60736
|  6> O          0.41688       -0.46297       -6.61859
|  7> O          2.50513       -0.93326       -5.48257
|  8> H          1.18489        2.25500       -6.18367
|  9> H          2.68564        1.89081       -5.36624
| 10> H          1.16361        1.41804       -4.65000
| 11> *
| 12> %MaxCore 64000
| 13>
| 14> %pal nprocs 8
| 15> end
| 16>
| 17> %scf
| 18>   MaxIter 150
| 19> end
| 20>
| 21>
| 22>                          ****END OF INPUT****

CARTESIAN COORDINATES (ANGSTROEM)
---------------------------------
  C      1.694990    1.541790   -5.570450
  S      1.780290   -0.033130   -6.428740
  O      2.569290    0.213660   -7.607360
  O      0.416880   -0.462970   -6.618590
  O      2.505130   -0.933260   -5.482570
  H      1.184890    2.255000   -6.183670
  H      2.685640    1.890810   -5.366240
  H      1.163610    1.418040   -4.650000

 Total Charge           Charge          ....   -1
 Multiplicity           Mult            ....    1
 Number of Electrons    NEL             ....   50
 Basis Dimension        Dim             ....  140

ORBITAL ENERGIES
----------------

  NO   OCC          E(Eh)            E(eV)
   0   2.0000     -88.054173     -2396.0759
   1   2.0000     -18.545907      -504.6598
   2   2.0000     -18.544788      -504.6293
   3   2.0000     -18.528513      -504.1865
   4   2.0000      -9.745433      -265.1867
   5   2.0000      -7.658393      -208.3955
   6   2.0000      -5.685373      -154.7069
   7   2.0000      -5.685193      -154.7020
   8   2.0000      -5.684813      -154.6916
   9   2.0000      -0.839810       -22.8524
  10   2.0000      -0.708876       -19.2895
  11   2.0000      -0.676412       -18.4061
  12   2.0000      -0.508557       -13.8386
  13   2.0000      -0.327481        -8.9112
  14   2.0000      -0.248219        -6.7544
  15   2.0000      -0.239344        -6.5129
  16   2.0000      -0.238277        -6.4839
  17   2.0000      -0.197932        -5.3860
  18   2.0000      -0.194990        -5.3060
  19   2.0000      -0.102954        -2.8015
  20   2.0000      -0.102541        -2.7903
  21   2.0000      -0.070867        -1.9284
  22   2.0000      -0.069964        -1.9038
  23   2.0000      -0.051177        -1.3926
  24   2.0000      -0.016506        -0.4491
  25   0.0000       0.136354         3.7104
  26   0.0000       0.172159         4.6847
  27   0.0000       0.172869         4.7040
  28   0.0000       0.175626         4.7790
  29   0.0000       0.198022         5.3884

MULLIKEN ATOMIC CHARGES
-----------------------
   0 C :    0.506019
   1 S :    0.925138
   2 O :   -0.702957
   3 O :   -0.704898
   4 O :   -0.763324
   5 H :   -0.090992
   6 H :   -0.082181
   7 H :   -0.086805
Sum of atomic charges:   -1.0000000

LOEWDIN ATOMIC CHARGES
----------------------
   0 C :    0.048357
   1 S :    0.778440
   2 O :   -0.558501
   3 O :   -0.557652
   4 O :   -0.585927
   5 H :   -0.043499
   6 H :   -0.040326
   7 H :   -0.040891

  Mayer bond orders larger than 0.100000
B(  0-C ,  1-S ) :   0.9383 B(  0-C ,  5-H ) :   0.9180 B(  0-C ,  6-H ) :   0.9195
B(  0-C ,  7-H ) :   0.9211 B(  1-S ,  2-O ) :   1.3770 B(  1-S ,  3-O ) :   1.3733
B(  1-S ,  4-O ) :   1.3333 B(  1-S ,  5-H ) :   0.1123 B(  1-S ,  6-H ) :   0.1228
B(  1-S ,  7-H ) :   0.1227

Dispersion correction           -0.006305867
FINAL SINGLE POINT ENERGY      -663.051673048881

DIPOLE MOMENT
-------------
                                X             Y             Z
Electronic contribution:      0.12857      -3.76149      -2.20913
Nuclear contribution   :     -0.31747       5.08000       2.69095
                        -----------------------------------------
Total Dipole Moment    :     -0.18890       1.31850       0.48182
                        -----------------------------------------
Magnitude (a.u.)       :      1.41643
Magnitude (Debye)      :      3.60028

Rotational constants in cm-1:     0.172246     0.157831     0.154490
Rotational constants in MHz :  5163.797750  4731.657963  4631.481993

                             ****ORCA TERMINATED NORMALLY****
TOTAL RUN TIME: 0 days 0 hours 0 minutes 3 seconds 340 msec
