                         Program Version 5.0.0 -  RELEASE  -
|  1> !PBE D3BJ RIJCOSX def2-SVPD def2/J TightSCF
|  2> *xyz 1 1
|  3> C          1.96337       -1.74915       -1.89689
|  4> N          2.73849       -2.01517       -3.09711
|  5> C          4.04974       -2.15472       -3.15204
|  6> N          4.65821       -1.98629       -4.31866
|  7> N          4.76423       -2.45444       -2.05049
|  8> H          4.28736       -2.77626       -1.21750
|  9> H          5.75082       -2.65835       -2.12599
| 10> H          2.34518       -1.69027       -3.97145
| 11> H          4.10900       -1.59268       -5.07176
| 12> H          5.64910       -2.15646       -4.42724
| 13> H          0.92556       -1.68522       -2.14942
| 14> H          2.28268       -0.82430       -1.46378
| 15> H          2.11118       -2.54207       -1.19381
| 16> *
| 17> %MaxCore 64000
| 18>
| 19> %pal nprocs 8
| 20> end
| 21>
| 22> %scf
| 23>   MaxIter 150
| 24> end
| 25>
| 26>
| 27>                          ****END OF INPUT****

CARTESIAN COORDINATES (ANGSTROEM)
---------------------------------
  C      1.963370   -1.749150   -1.896890
  N      2.738490   -2.015170   -3.097110
  C      4.049740   -2.154720   -3.152040
  N      4.658210   -1.986290   -4.318660
  N      4.764230   -2.454440   -2.050490
  H      4.287360   -2.776260   -1.217500
  H      5.750820   -2.658350   -2.125990
  H      2.345180   -1.690270   -3.971450
  H      4.109000   -1.592680   -5.071760
  H      5.649100   -2.156460   -4.427240
  H      0.925560   -1.685220   -2.149420
  H      2.282680   -0.824300   -1.463780
  H      2.111180   -2.542070   -1.193810

 Total Charge           Charge          ....    1
 Multiplicity           Mult            ....    1
 Number of Electrons    NEL             ....   40
 Basis Dimension        Dim             ....  164

ORBITAL ENERGIES
----------------

  NO   OCC          E(Eh)            E(eV)
   0   2.0000     -14.231265      -387.2524
   1   2.0000     -14.227819      -387.1586
   2   2.0000     -14.226822      -387.1315
   3   2.0000     -10.223216      -278.1878
   4   2.0000     -10.101183      -274.8672
   5   2.0000      -1.130377       -30.7591
   6   2.0000      -1.025327       -27.9006
   7   2.0000      -1.012937       -27.5634
   8   2.0000      -0.841433       -22.8965
   9   2.0000      -0.771353       -20.9896
  10   2.0000      -0.735263       -20.0075
  11   2.0000      -0.707457       -19.2509
  12   2.0000      -0.650793       -17.7090
  13   2.0000      -0.643956       -17.5229
  14   2.0000      -0.607723       -16.5370
  15   2.0000      -0.604219       -16.4416
  16   2.0000      -0.547901       -14.9091
  17   2.0000      -0.535237       -14.5646
  18   2.0000      -0.442012       -12.0277
  19   2.0000      -0.421736       -11.4760
  20   0.0000      -0.207860        -5.6562
  21   0.0000      -0.183397        -4.9905
  22   0.0000      -0.145721        -3.9653
  23   0.0000      -0.139195        -3.7877
  24   0.0000      -0.114877        -3.1260

MULLIKEN ATOMIC CHARGES
-----------------------
   0 C :    1.146849
   1 N :   -0.523567
   2 C :    1.363172
   3 N :   -0.057603
   4 N :    0.006340
   5 H :   -0.069349
   6 H :   -0.125936
   7 H :   -0.194122
   8 H :   -0.012481
   9 H :   -0.103022
  10 H :   -0.288217
  11 H :   -0.049914
  12 H :   -0.092151
Sum of atomic charges:    1.0000000

LOEWDIN ATOMIC CHARGES
----------------------
   0 C :    0.255347
   1 N :    0.025070
   2 C :   -0.060774
   3 N :    0.275459
   4 N :    0.293424
   5 H :    0.021682
   6 H :    0.035355
   7 H :    0.051322
   8 H :    0.036828
   9 H :    0.042067
  10 H :    0.015018
  11 H :    0.010854
  12 H :   -0.001652

  Mayer bond orders larger than 0.100000
B(  0-C ,  1-N ) :   0.9730 B(  0-C , 10-H ) :   0.7925 B(  0-C , 11-H ) :   0.8235
B(  0-C , 12-H ) :   0.8193 B(  1-N ,  2-C ) :   1.0037 B(  1-N ,  3-N ) :   0.3057
B(  1-N ,  4-N ) :   0.2555 B(  1-N ,  7-H ) :   1.2373 B(  1-N , 10-H ) :   0.1943
B(  1-N , 11-H ) :   0.1234 B(  1-N , 12-H ) :   0.1634 B(  2-C ,  3-N ) :   0.7931
B(  2-C ,  4-N ) :   0.9318 B(  2-C ,  5-H ) :  -0.1574 B(  2-C ,  6-H ) :  -0.1443
B(  2-C ,  7-H ) :  -0.2010 B(  2-C ,  8-H ) :  -0.1354 B(  2-C ,  9-H ) :  -0.1697
B(  3-N ,  4-N ) :   0.1958 B(  3-N ,  8-H ) :   1.1382 B(  3-N ,  9-H ) :   1.2745
B(  4-N ,  5-H ) :   1.1209 B(  4-N ,  6-H ) :   1.2321 B(  5-H ,  6-H ) :  -0.1943
B(  8-H ,  9-H ) :  -0.1794

Dispersion correction           -0.009106029
FINAL SINGLE POINT ENERGY      -244.626760788021

DIPOLE MOMENT
-------------
                                X             Y             Z
Electronic contribution:      2.04123      -0.55744      -1.79967
Nuclear contribution   :     -1.59972       0.59064       1.48941
                        -----------------------------------------
Total Dipole Moment    :      0.44150       0.03320      -0.31026
                        -----------------------------------------
Magnitude (a.u.)       :      0.54063
Magnitude (Debye)      :      1.37418

Rotational constants in cm-1:     0.309236     0.134358     0.096189
Rotational constants in MHz :  9270.657746  4027.948155  2883.671905

                             ****ORCA TERMINATED NORMALLY****
TOTAL RUN TIME: 0 days 0 hours 0 minutes 4 seconds 510 msec
