                         Program Version 5.0.0 -  RELEASE  -
|  1> !PBE D3BJ RIJCOSX def2-SVPD def2/J TightSCF xyzfile
|  2>
|  3> *xyzfile 0 1 B.xyz
|  4>
|  5> %MaxCore 64000
|  6>
|  7> %pal nprocs 4
|  8> end
|  9>
| 10> %scf
| 11>   MaxIter 150
| 12> end
| 13>
| 14>
| 15>                          ****END OF INPUT****

CARTESIAN COORDINATES (ANGSTROEM)
---------------------------------
  C      1.963365   -1.749150   -1.896887
  N      2.738490   -2.015170   -3.097113
  C      0.611877    1.657634   -4.500288
  C      1.694991    1.541794   -5.570447
  H      2.697326    1.734659   -5.183996
  H      1.506656    2.272239   -6.358076
  S      1.780287   -0.033128   -6.428739
  C      4.049736   -2.154717   -3.152044
  N      4.658206   -1.986293   -4.318655
  N      4.764231   -2.454435   -2.050491
  H      4.287363   -2.776259   -1.217496
  H      5.750825   -2.658351   -2.125988
  H      2.345176   -1.690274   -3.971447
  H      4.109004   -1.592677   -5.071760
  H      5.649095   -2.156462   -4.427237
  O      2.569287    0.213657   -7.607360
  O      0.416880   -0.462969   -6.618595
  C      2.088520   -0.300912   -1.415204
  H      2.231272   -2.451616   -1.102643
  H      0.930249   -1.977801   -2.155438
  C      0.680356    0.655418   -3.348038
  H     -0.356865    1.549231   -4.991128
  H      0.650228    2.675438   -4.096000
  C      1.968993    0.733582   -2.535654
  H      3.051356   -0.168602   -0.911868
  H      1.316501   -0.136231   -0.657252
  O      2.505129   -0.933263   -5.482570
  H      2.824195    0.624726   -3.208464
  H      2.058919    1.730331   -2.093112
  H      0.542252   -0.344731   -3.766662
  H     -0.174219    0.829692   -2.685182

 Total Charge           Charge          ....    0
 Multiplicity           Mult            ....    1
 Number of Electrons    NEL             ....  120
 Basis Dimension        Dim             ....  432

ORBITAL ENERGIES
----------------

  NO   OCC          E(Eh)            E(eV)
   0   2.0000     -88.203521     -2400.1398
   1   2.0000     -18.707574      -509.0590
   2   2.0000     -18.686578      -508.4876
   3   2.0000     -18.685296      -508.4528
   4   2.0000     -14.086197      -383.3049
   5   2.0000     -14.057677      -382.5288
   6   2.0000     -14.054877      -382.4526
   7   2.0000     -10.065767      -273.9034
   8   2.0000      -9.967986      -271.2427
   9   2.0000      -9.920255      -269.9439
  10   2.0000      -9.901373      -269.4301
  11   2.0000      -9.889566      -269.1088
  12   2.0000      -9.885694      -269.0034
  13   2.0000      -9.885505      -268.9983
  14   2.0000      -7.806567      -212.4275
  15   2.0000      -5.834663      -158.7692
  16   2.0000      -5.833116      -158.7272
  17   2.0000      -5.832203      -158.7023
  18   2.0000      -0.990436       -26.9511
  19   2.0000      -0.972414       -26.4607
  20   2.0000      -0.871850       -23.7243
  21   2.0000      -0.858046       -23.3486
  22   2.0000      -0.849239       -23.1090
  23   2.0000      -0.845910       -23.0184
  24   2.0000      -0.744544       -20.2601
  25   2.0000      -0.707819       -19.2607
  26   2.0000      -0.664589       -18.0844
  27   2.0000      -0.631366       -17.1803
  28   2.0000      -0.607562       -16.5326
  29   2.0000      -0.580844       -15.8056
  30   2.0000      -0.569607       -15.4998
  31   2.0000      -0.538438       -14.6516
  32   2.0000      -0.515364       -14.0238
  33   2.0000      -0.503806       -13.7093
  34   2.0000      -0.492855       -13.4113
  35   2.0000      -0.470766       -12.8102
  36   2.0000      -0.451376       -12.2826
  37   2.0000      -0.435090       -11.8394
  38   2.0000      -0.430682       -11.7194
  39   2.0000      -0.421764       -11.4768
  40   2.0000      -0.407372       -11.0852
  41   2.0000      -0.392248       -10.6736
  42   2.0000      -0.382177       -10.3996
  43   2.0000      -0.372956       -10.1487
  44   2.0000      -0.356077        -9.6894
  45   2.0000      -0.348485        -9.4828
  46   2.0000      -0.337125        -9.1736
  47   2.0000      -0.328819        -8.9476
  48   2.0000      -0.322957        -8.7881
  49   2.0000      -0.296446        -8.0667
  50   2.0000      -0.292787        -7.9671
  51   2.0000      -0.290515        -7.9053
  52   2.0000      -0.276174        -7.5151
  53   2.0000      -0.261822        -7.1245
  54   2.0000      -0.258946        -7.0463
  55   2.0000      -0.251345        -6.8394
  56   2.0000      -0.220157        -5.9908
  57   2.0000      -0.209805        -5.7091
  58   2.0000      -0.206479        -5.6186
  59   2.0000      -0.176628        -4.8063
  60   0.0000      -0.055823        -1.5190
  61   0.0000      -0.052145        -1.4189
  62   0.0000      -0.022123        -0.6020
  63   0.0000       0.003707         0.1009
  64   0.0000       0.010153         0.2763

MULLIKEN ATOMIC CHARGES
-----------------------
   0 C :    1.024272
   1 N :   -0.026213
   2 C :    0.453538
   3 C :    0.130258
   4 H :    0.068955
   5 H :   -0.127601
   6 S :    1.247563
   7 C :    1.389256
   8 N :    0.242682
   9 N :    0.070479
  10 H :   -0.070853
  11 H :   -0.210265
  12 H :   -0.627199
  13 H :   -0.184120
  14 H :   -0.240763
  15 O :   -0.730528
  16 O :   -0.754230
  17 C :    0.431049
  18 H :   -0.460880
  19 H :   -0.119555
  20 C :   -0.034725
  21 H :    0.014328
  22 H :   -0.055597
  23 C :   -0.023783
  24 H :   -0.065904
  25 H :   -0.041623
  26 O :   -0.840538
  27 H :    0.100848
  28 H :   -0.338589
  29 H :   -0.020081
  30 H :   -0.200183
Sum of atomic charges:   -0.0000000

LOEWDIN ATOMIC CHARGES
----------------------
   0 C :    0.072096
   1 N :    0.084320
   2 C :   -0.036405
   3 C :   -0.074342
   4 H :    0.006617
   5 H :    0.016454
   6 S :    0.903825
   7 C :   -0.056892
   8 N :    0.292187
   9 N :    0.264450
  10 H :    0.000729
  11 H :    0.014447
  12 H :   -0.072612
  13 H :   -0.064041
  14 H :    0.024453
  15 O :   -0.495438
  16 O :   -0.491570
  17 C :   -0.014330
  18 H :    0.010887
  19 H :    0.033171
  20 C :   -0.028218
  21 H :    0.027722
  22 H :    0.025530
  23 C :   -0.029872
  24 H :    0.015142
  25 H :    0.027782
  26 O :   -0.529776
  27 H :    0.008175
  28 H :    0.029126
  29 H :    0.006130
  30 H :    0.030250

  Mayer bond orders larger than 0.100000
B(  0-C ,  1-N ) :   0.8914 B(  0-C , 12-H ) :  -0.3455 B(  0-C , 17-C ) :   1.0716
B(  0-C , 18-H ) :   0.8609 B(  0-C , 19-H ) :   0.6133 B(  0-C , 23-C ) :   0.1214
B(  0-C , 25-H ) :   0.1237 B(  1-N ,  7-C ) :   1.0821 B(  1-N ,  8-N ) :   0.1696
B(  1-N ,  9-N ) :   0.2766 B(  1-N , 12-H ) :   1.2152 B(  1-N , 13-H ) :   0.1048
B(  1-N , 18-H ) :   0.1186 B(  1-N , 19-H ) :   0.1834 B(  2-C ,  3-C ) :   1.2680
B(  2-C ,  4-H ) :   0.1120 B(  2-C ,  5-H ) :   0.1819 B(  2-C , 20-C ) :   1.2867
B(  2-C , 21-H ) :   0.6226 B(  2-C , 22-H ) :   0.7508 B(  2-C , 29-H ) :   0.1085
B(  3-C ,  4-H ) :   0.8655 B(  3-C ,  5-H ) :   0.8426 B(  3-C ,  6-S ) :   0.9640
B(  3-C , 21-H ) :   0.1401 B(  3-C , 22-H ) :   0.1536 B(  6-S , 15-O ) :   1.3911
B(  6-S , 16-O ) :   1.2962 B(  6-S , 26-O ) :   1.1113 B(  7-C ,  8-N ) :   0.7991
B(  7-C ,  9-N ) :   0.8439 B(  7-C , 10-H ) :  -0.1356 B(  7-C , 11-H ) :  -0.1431
B(  7-C , 12-H ) :  -0.4848 B(  7-C , 13-H ) :  -0.2240 B(  7-C , 14-H ) :  -0.2441
B(  8-N ,  9-N ) :   0.1861 B(  8-N , 13-H ) :   1.1277 B(  8-N , 14-H ) :   1.3843
B(  9-N , 10-H ) :   1.0878 B(  9-N , 11-H ) :   1.2999 B( 10-H , 11-H ) :  -0.2264
B( 12-H , 19-H ) :   0.1669 B( 12-H , 24-H ) :   0.1109 B( 12-H , 26-O ) :   0.1097
B( 12-H , 27-H ) :   0.1119 B( 12-H , 28-H ) :  -0.1273 B( 13-H , 14-H ) :  -0.2301
B( 13-H , 26-O ) :   0.2524 B( 16-O , 26-O ) :   0.1324 B( 17-C , 18-H ) :   0.1545
B( 17-C , 19-H ) :   0.1049 B( 17-C , 23-C ) :   1.2703 B( 17-C , 24-H ) :   0.7374
B( 17-C , 25-H ) :   0.8125 B( 18-H , 19-H ) :  -0.1492 B( 20-C , 21-H ) :   0.2858
B( 20-C , 22-H ) :   0.1073 B( 20-C , 23-C ) :   1.2150 B( 20-C , 27-H ) :   0.1109
B( 20-C , 28-H ) :   0.1525 B( 20-C , 29-H ) :   0.9181 B( 20-C , 30-H ) :   0.8206
B( 23-C , 24-H ) :   0.2202 B( 23-C , 25-H ) :   0.1371 B( 23-C , 27-H ) :   0.8385
B( 23-C , 28-H ) :   0.9083 B( 23-C , 30-H ) :   0.1517

Dispersion correction           -0.037590724
FINAL SINGLE POINT ENERGY     -1063.602347980970

DIPOLE MOMENT
-------------
                                X             Y             Z
Electronic contribution:      2.19486      -4.94811     -14.29915
Nuclear contribution   :      0.44641       3.59123      19.13564
                        -----------------------------------------
Total Dipole Moment    :      2.64127      -1.35687       4.83649
                        -----------------------------------------
Magnitude (a.u.)       :      5.67531
Magnitude (Debye)      :     14.42548

Rotational constants in cm-1:     0.029186     0.014646     0.011115
Rotational constants in MHz :   874.975540   439.070287   333.231642

                             ****ORCA TERMINATED NORMALLY****
TOTAL RUN TIME: 0 days 0 hours 0 minutes 44 seconds 901 msec
