                         Program Version 5.0.0 -  RELEASE  -
|  1> !PBE D3BJ RIJCOSX def2-SVPD def2/J TightSCF
|  2> *xyz 0 1
|  3> C          1.69499        1.54179       -5.57045
|  4> S          1.78029       -0.03313       -6.42874
|  5> F          2.56929        0.21366       -7.60736
|  6> O          0.41688       -0.46297       -6.61859
|  7> O          2.50513       -0.93326       -5.48257
|  8> H          1.18489        2.25500       -6.18367
|  9> H          2.68564        1.89081       -5.36624
| 10> H          1.16361        1.41804       -4.65000
| 11> *
| 12> %MaxCore 64000
| 13>
| 14> %pal nprocs 8
| 15> end
| 16>
| 17> %scf
| 18>   MaxIter 150
| 19> end
| 20>
| 21>
| 22>                          ****END OF INPUT****

CARTESIAN COORDINATES (ANGSTROEM)
---------------------------------
  C      1.694990    1.541790   -5.570450
  S      1.780290   -0.033130   -6.428740
  F      2.569290    0.213660   -7.607360
  O      0.416880   -0.462970   -6.618590
  O      2.505130   -0.933260   -5.482570
  H      1.184890    2.255000   -6.183670
  H      2.685640    1.890810   -5.366240
  H      1.163610    1.418040   -4.650000

 Total Charge           Charge          ....    0
 Multiplicity           Mult            ....    1
 Number of Electrons    NEL             ....   50
 Basis Dimension        Dim             ....  140

ORBITAL ENERGIES
----------------

  NO   OCC          E(Eh)            E(eV)
   0   2.0000     -88.317187     -2403.2328
   1   2.0000     -24.393671      -663.7855
   2   2.0000     -18.783679      -511.1299
   3   2.0000     -18.765774      -510.6427
   4   2.0000      -9.954543      -270.8769
   5   2.0000      -7.922125      -215.5720
   6   2.0000      -5.953422      -162.0008
   7   2.0000      -5.946730      -161.8187
   8   2.0000      -5.945557      -161.7868
   9   2.0000      -1.278294       -34.7841
  10   2.0000      -1.021918       -27.8078
  11   2.0000      -0.917199       -24.9582
  12   2.0000      -0.731575       -19.9072
  13   2.0000      -0.656568       -17.8661
  14   2.0000      -0.547432       -14.8964
  15   2.0000      -0.528915       -14.3925
  16   2.0000      -0.502071       -13.6620
  17   2.0000      -0.431580       -11.7439
  18   2.0000      -0.429138       -11.6774
  19   2.0000      -0.419977       -11.4282
  20   2.0000      -0.392401       -10.6778
  21   2.0000      -0.342382        -9.3167
  22   2.0000      -0.299977        -8.1628
  23   2.0000      -0.281292        -7.6543
  24   2.0000      -0.261497        -7.1157
  25   0.0000      -0.034166        -0.9297
  26   0.0000       0.002657         0.0723
  27   0.0000       0.009745         0.2652
  28   0.0000       0.029073         0.7911
  29   0.0000       0.031498         0.8571

MULLIKEN ATOMIC CHARGES
-----------------------
   0 C :    0.494674
   1 S :    1.109402
   2 F :   -0.328486
   3 O :   -0.566728
   4 O :   -0.619624
   5 H :   -0.028700
   6 H :   -0.023475
   7 H :   -0.037063
Sum of atomic charges:   -0.0000000

LOEWDIN ATOMIC CHARGES
----------------------
   0 C :    0.116514
   1 S :    1.053215
   2 F :   -0.240882
   3 O :   -0.437264
   4 O :   -0.463337
   5 H :   -0.015435
   6 H :   -0.013154
   7 H :    0.000342

  Mayer bond orders larger than 0.100000
B(  0-C ,  1-S ) :   1.0010 B(  0-C ,  5-H ) :   0.9066 B(  0-C ,  6-H ) :   0.9092
B(  0-C ,  7-H ) :   0.9106 B(  1-S ,  2-F ) :   0.7522 B(  1-S ,  3-O ) :   1.5709
B(  1-S ,  4-O ) :   1.5307 B(  1-S ,  7-H ) :   0.1204

Dispersion correction           -0.005922087
FINAL SINGLE POINT ENERGY      -687.522742906505

DIPOLE MOMENT
-------------
                                X             Y             Z
Electronic contribution:      1.38605      -3.29776      -4.13612
Nuclear contribution   :     -1.09446       4.91008       3.93848
                        -----------------------------------------
Total Dipole Moment    :      0.29158       1.61232      -0.19764
                        -----------------------------------------
Magnitude (a.u.)       :      1.65035
Magnitude (Debye)      :      4.19486

Rotational constants in cm-1:     0.163326     0.155515     0.146672
Rotational constants in MHz :  4896.387829  4662.220576  4397.127261

                             ****ORCA TERMINATED NORMALLY****
TOTAL RUN TIME: 0 days 0 hours 0 minutes 3 seconds 471 msec
