                         Program Version 5.0.0 -  RELEASE  -
|  1> !PBE D3BJ RIJCOSX def2-SVPD def2/J TightSCF
|  2> *xyz 0 1
|  3> C          1.96337       -1.74915       -1.89689
|  4> C          2.73849       -2.01517       -3.09711
|  5> C          4.04974       -2.15472       -3.15204
|  6> N          4.65821       -1.98629       -4.31866
|  7> N          4.76423       -2.45444       -2.05049
|  8> H          4.28736       -2.77626       -1.21750
|  9> H          5.75082       -2.65835       -2.12599
| 10> H          2.34518       -1.69027       -3.97145
| 11> H          4.10900       -1.59268       -5.07176
| 12> H          5.64910       -2.15646       -4.42724
| 13> H          0.92556       -1.68522       -2.14942
| 14> H          2.28268       -0.82430       -1.46378
| 15> H          2.11118       -2.54207       -1.19381
| 16> *
| 17> %MaxCore 64000
| 18>
| 19> %pal nprocs 8
| 20> end
| 21>
| 22> %scf
| 23>   MaxIter 150
| 24> end
| 25>
| 26>
| 27>                          ****END OF INPUT****

CARTESIAN COORDINATES (ANGSTROEM)
---------------------------------
  C      1.963370   -1.749150   -1.896890
  C      2.738490   -2.015170   -3.097110
  C      4.049740   -2.154720   -3.152040
  N      4.658210   -1.986290   -4.318660
  N      4.764230   -2.454440   -2.050490
  H      4.287360   -2.776260   -1.217500
  H      5.750820   -2.658350   -2.125990
  H      2.345180   -1.690270   -3.971450
  H      4.109000   -1.592680   -5.071760
  H      5.649100   -2.156460   -4.427240
  H      0.925560   -1.685220   -2.149420
  H      2.282680   -0.824300   -1.463780
  H      2.111180   -2.542070   -1.193810

 Total Charge           Charge          ....    0
 Multiplicity           Mult            ....    1
 Number of Electrons    NEL             ....   40
 Basis Dimension        Dim             ....  164

ORBITAL ENERGIES
----------------

  NO   OCC          E(Eh)            E(eV)
   0   2.0000     -14.002620      -381.0307
   1   2.0000     -13.998466      -380.9176
   2   2.0000      -9.929558      -270.1970
   3   2.0000      -9.859712      -268.2964
   4   2.0000      -9.817534      -267.1487
   5   2.0000      -0.869404       -23.6577
   6   2.0000      -0.786332       -21.3972
   7   2.0000      -0.675335       -18.3768
   8   2.0000      -0.588318       -16.0089
   9   2.0000      -0.528747       -14.3879
  10   2.0000      -0.490831       -13.3562
  11   2.0000      -0.456157       -12.4127
  12   2.0000      -0.425894       -11.5892
  13   2.0000      -0.376614       -10.2482
  14   2.0000      -0.362229        -9.8567
  15   2.0000      -0.332630        -9.0513
  16   2.0000      -0.313326        -8.5260
  17   2.0000      -0.293045        -7.9742
  18   2.0000      -0.222674        -6.0593
  19   2.0000      -0.127448        -3.4680
  20   0.0000      -0.006348        -0.1727
  21   0.0000       0.022636         0.6160
  22   0.0000       0.035655         0.9702
  23   0.0000       0.044408         1.2084
  24   0.0000       0.061821         1.6822

MULLIKEN ATOMIC CHARGES
-----------------------
   0 C :    0.896287
   1 C :   -0.643131
   2 C :    0.873454
   3 N :    0.029588
   4 N :   -0.018619
   5 H :   -0.070325
   6 H :   -0.280497
   7 H :   -0.289607
   8 H :   -0.020964
   9 H :   -0.214004
  10 H :   -0.089411
  11 H :   -0.114605
  12 H :   -0.058166
Sum of atomic charges:   -0.0000000

LOEWDIN ATOMIC CHARGES
----------------------
   0 C :    0.086445
   1 C :   -0.075126
   2 C :   -0.242106
   3 N :    0.187044
   4 N :    0.212791
   5 H :   -0.010858
   6 H :   -0.017000
   7 H :   -0.056839
   8 H :    0.001976
   9 H :   -0.012224
  10 H :   -0.019379
  11 H :   -0.020782
  12 H :   -0.033941

  Mayer bond orders larger than 0.100000
B(  0-C ,  1-C ) :   1.2093 B(  0-C ,  7-H ) :   0.2117 B(  0-C , 10-H ) :   0.7293
B(  0-C , 11-H ) :   0.7560 B(  0-C , 12-H ) :   0.6958 B(  1-C ,  2-C ) :   1.5577
B(  1-C ,  3-N ) :   0.3438 B(  1-C ,  4-N ) :   0.2963 B(  1-C ,  7-H ) :   0.9632
B(  1-C , 10-H ) :   0.2916 B(  1-C , 11-H ) :   0.1527 B(  1-C , 12-H ) :   0.3025
B(  2-C ,  3-N ) :   0.8900 B(  2-C ,  4-N ) :   0.8830 B(  2-C ,  6-H ) :  -0.1938
B(  2-C ,  7-H ) :   0.2199 B(  2-C ,  9-H ) :  -0.1132 B(  3-N ,  4-N ) :   0.1275
B(  3-N ,  7-H ) :   0.1013 B(  3-N ,  8-H ) :   1.1338 B(  3-N ,  9-H ) :   1.2750
B(  4-N ,  5-H ) :   1.0843 B(  4-N ,  6-H ) :   1.3473 B(  5-H ,  6-H ) :  -0.1903
B(  8-H ,  9-H ) :  -0.1734 B( 10-H , 12-H ) :   0.1048

Dispersion correction           -0.009492495
FINAL SINGLE POINT ENERGY      -228.163444632225

DIPOLE MOMENT
-------------
                                X             Y             Z
Electronic contribution:      2.73149      -0.66550      -1.59320
Nuclear contribution   :     -1.78367       0.60166       1.44982
                        -----------------------------------------
Total Dipole Moment    :      0.94782      -0.06384      -0.14339
                        -----------------------------------------
Magnitude (a.u.)       :      0.96073
Magnitude (Debye)      :      2.44199

Rotational constants in cm-1:     0.313991     0.135452     0.097139
Rotational constants in MHz :  9413.212964  4060.745953  2912.144668

                             ****ORCA TERMINATED NORMALLY****
TOTAL RUN TIME: 0 days 0 hours 0 minutes 4 seconds 670 msec
