                         Program Version 5.0.0 -  RELEASE  -
|  1> !PBE D3BJ RIJCOSX def2-SVPD def2/J TightSCF
|  2> *xyz 0 1
|  3> C          1.69499        1.54179       -5.57045
|  4> S          1.78029       -0.03313       -6.42874
|  5> O          2.56929        0.21366       -7.60736
|  6> F          0.41688       -0.46297       -6.61859
|  7> O          2.50513       -0.93326       -5.48257
|  8> H          1.18489        2.25500       -6.18367
|  9> H          2.68564        1.89081       -5.36624
| 10> H          1.16361        1.41804       -4.65000
| 11> *
| 12> %MaxCore 64000
| 13>
| 14> %pal nprocs 8
| 15> end
| 16>
| 17> %scf
| 18>   MaxIter 150
| 19> end
| 20>
| 21>
| 22>                          ****END OF INPUT****

CARTESIAN COORDINATES (ANGSTROEM)
---------------------------------
  C      1.694990    1.541790   -5.570450
  S      1.780290   -0.033130   -6.428740
  O      2.569290    0.213660   -7.607360
  F      0.416880   -0.462970   -6.618590
  O      2.505130   -0.933260   -5.482570
  H      1.184890    2.255000   -6.183670
  H      2.685640    1.890810   -5.366240
  H      1.163610    1.418040   -4.650000

 Total Charge           Charge          ....    0
 Multiplicity           Mult            ....    1
 Number of Electrons    NEL             ....   50
 Basis Dimension        Dim             ....  140

ORBITAL ENERGIES
----------------

  NO   OCC          E(Eh)            E(eV)
   0   2.0000     -88.316923     -2403.2257
   1   2.0000     -24.393967      -663.7936
   2   2.0000     -18.782597      -511.1004
   3   2.0000     -18.765811      -510.6437
   4   2.0000      -9.954585      -270.8780
   5   2.0000      -7.921908      -215.5661
   6   2.0000      -5.953176      -161.9942
   7   2.0000      -5.946516      -161.8129
   8   2.0000      -5.945352      -161.7813
   9   2.0000      -1.277157       -34.7532
  10   2.0000      -1.022882       -27.8340
  11   2.0000      -0.916891       -24.9499
  12   2.0000      -0.731191       -19.8967
  13   2.0000      -0.656697       -17.8696
  14   2.0000      -0.547068       -14.8865
  15   2.0000      -0.528370       -14.3777
  16   2.0000      -0.501686       -13.6516
  17   2.0000      -0.431599       -11.7444
  18   2.0000      -0.428962       -11.6726
  19   2.0000      -0.420545       -11.4436
  20   2.0000      -0.392249       -10.6736
  21   2.0000      -0.342664        -9.3244
  22   2.0000      -0.299274        -8.1437
  23   2.0000      -0.281262        -7.6535
  24   2.0000      -0.260977        -7.1016
  25   0.0000      -0.035374        -0.9626
  26   0.0000       0.001634         0.0445
  27   0.0000       0.009662         0.2629
  28   0.0000       0.028413         0.7731
  29   0.0000       0.031358         0.8533

MULLIKEN ATOMIC CHARGES
-----------------------
   0 C :    0.495433
   1 S :    1.108429
   2 O :   -0.565045
   3 F :   -0.331219
   4 O :   -0.618620
   5 H :   -0.028711
   6 H :   -0.032797
   7 H :   -0.027470
Sum of atomic charges:   -0.0000000

LOEWDIN ATOMIC CHARGES
----------------------
   0 C :    0.116655
   1 S :    1.053477
   2 O :   -0.438331
   3 F :   -0.240428
   4 O :   -0.463062
   5 H :   -0.015441
   6 H :    0.000698
   7 H :   -0.013567

  Mayer bond orders larger than 0.100000
B(  0-C ,  1-S ) :   1.0012 B(  0-C ,  5-H ) :   0.9063 B(  0-C ,  6-H ) :   0.9093
B(  0-C ,  7-H ) :   0.9106 B(  1-S ,  2-O ) :   1.5738 B(  1-S ,  3-F ) :   0.7488
B(  1-S ,  4-O ) :   1.5301 B(  1-S ,  6-H ) :   0.1202

Dispersion correction           -0.005923099
FINAL SINGLE POINT ENERGY      -687.522058327693

DIPOLE MOMENT
-------------
                                X             Y             Z
Electronic contribution:     -2.11643      -4.39865      -2.52375
Nuclear contribution   :      1.05593       5.58608       2.95063
                        -----------------------------------------
Total Dipole Moment    :     -1.06049       1.18743       0.42688
                        -----------------------------------------
Magnitude (a.u.)       :      1.64829
Magnitude (Debye)      :      4.18963

Rotational constants in cm-1:     0.163930     0.155251     0.146268
Rotational constants in MHz :  4914.487830  4654.318941  4385.000376

                             ****ORCA TERMINATED NORMALLY****
TOTAL RUN TIME: 0 days 0 hours 0 minutes 3 seconds 432 msec
