                         Program Version 5.0.0 -  RELEASE  -
|  1> !PBE D3BJ RIJCOSX def2-SVPD def2/J TightSCF
|  2> *xyz 0 1
|  3> C          1.96337       -1.74915       -1.89689
|  4> N          2.73849       -2.01517       -3.09711
|  5> C          4.04974       -2.15472       -3.15204
|  6> C          4.65821       -1.98629       -4.31866
|  7> N          4.76423       -2.45444       -2.05049
|  8> H          4.28736       -2.77626       -1.21750
|  9> H          5.75082       -2.65835       -2.12599
| 10> H          2.34518       -1.69027       -3.97145
| 11> H          4.10900       -1.59268       -5.07176
| 12> H          5.64910       -2.15646       -4.42724
| 13> H          0.92556       -1.68522       -2.14942
| 14> H          2.28268       -0.82430       -1.46378
| 15> H          2.11118       -2.54207       -1.19381
| 16> *
| 17> %MaxCore 64000
| 18>
| 19> %pal nprocs 8
| 20> end
| 21>
| 22> %scf
| 23>   MaxIter 150
| 24> end
| 25>
| 26>
| 27>                          ****END OF INPUT****

CARTESIAN COORDINATES (ANGSTROEM)
---------------------------------
  C      1.963370   -1.749150   -1.896890
  N      2.738490   -2.015170   -3.097110
  C      4.049740   -2.154720   -3.152040
  C      4.658210   -1.986290   -4.318660
  N      4.764230   -2.454440   -2.050490
  H      4.287360   -2.776260   -1.217500
  H      5.750820   -2.658350   -2.125990
  H      2.345180   -1.690270   -3.971450
  H      4.109000   -1.592680   -5.071760
  H      5.649100   -2.156460   -4.427240
  H      0.925560   -1.685220   -2.149420
  H      2.282680   -0.824300   -1.463780
  H      2.111180   -2.542070   -1.193810

 Total Charge           Charge          ....    0
 Multiplicity           Mult            ....    1
 Number of Electrons    NEL             ....   40
 Basis Dimension        Dim             ....  164

ORBITAL ENERGIES
----------------

  NO   OCC          E(Eh)            E(eV)
   0   2.0000     -14.002250      -381.0206
   1   2.0000     -14.001077      -380.9887
   2   2.0000      -9.933120      -270.2939
   3   2.0000      -9.926062      -270.1019
   4   2.0000      -9.808934      -266.9147
   5   2.0000      -0.878593       -23.9077
   6   2.0000      -0.798072       -21.7166
   7   2.0000      -0.671454       -18.2712
   8   2.0000      -0.595944       -16.2165
   9   2.0000      -0.543200       -14.7812
  10   2.0000      -0.482839       -13.1387
  11   2.0000      -0.443912       -12.0795
  12   2.0000      -0.429308       -11.6821
  13   2.0000      -0.405934       -11.0460
  14   2.0000      -0.359905        -9.7935
  15   2.0000      -0.344884        -9.3848
  16   2.0000      -0.339652        -9.2424
  17   2.0000      -0.315870        -8.5953
  18   2.0000      -0.214735        -5.8432
  19   2.0000      -0.131933        -3.5901
  20   0.0000      -0.007105        -0.1933
  21   0.0000       0.026938         0.7330
  22   0.0000       0.029196         0.7945
  23   0.0000       0.041668         1.1338
  24   0.0000       0.063793         1.7359

MULLIKEN ATOMIC CHARGES
-----------------------
   0 C :    1.131959
   1 N :   -0.489520
   2 C :    0.671430
   3 C :    0.326446
   4 N :    0.103976
   5 H :   -0.171005
   6 H :   -0.143188
   7 H :   -0.211377
   8 H :   -0.248755
   9 H :   -0.413301
  10 H :   -0.333349
  11 H :   -0.077550
  12 H :   -0.145767
Sum of atomic charges:    0.0000000

LOEWDIN ATOMIC CHARGES
----------------------
   0 C :    0.198059
   1 N :   -0.037505
   2 C :   -0.256285
   3 C :    0.143644
   4 N :    0.209967
   5 H :   -0.026129
   6 H :    0.001666
   7 H :    0.024221
   8 H :   -0.101665
   9 H :   -0.100396
  10 H :   -0.012154
  11 H :   -0.017712
  12 H :   -0.025709

  Mayer bond orders larger than 0.100000
B(  0-C ,  1-N ) :   0.9596 B(  0-C , 10-H ) :   0.7848 B(  0-C , 11-H ) :   0.8248
B(  0-C , 12-H ) :   0.8168 B(  1-N ,  2-C ) :   1.0649 B(  1-N ,  3-C ) :   0.2680
B(  1-N ,  4-N ) :   0.1815 B(  1-N ,  7-H ) :   1.1981 B(  1-N , 10-H ) :   0.1877
B(  1-N , 11-H ) :   0.1358 B(  1-N , 12-H ) :   0.1823 B(  2-C ,  3-C ) :   1.3073
B(  2-C ,  4-N ) :   0.9563 B(  2-C ,  7-H ) :  -0.1405 B(  2-C ,  8-H ) :   0.1201
B(  2-C ,  9-H ) :   0.1376 B(  3-C ,  4-N ) :   0.2297 B(  3-C ,  8-H ) :   0.8577
B(  3-C ,  9-H ) :   0.8370 B(  4-N ,  5-H ) :   1.1147 B(  4-N ,  6-H ) :   1.2039
B(  5-H ,  6-H ) :  -0.1926

Dispersion correction           -0.009435664
FINAL SINGLE POINT ENERGY      -228.154656926639

DIPOLE MOMENT
-------------
                                X             Y             Z
Electronic contribution:      0.87539      -0.65140      -0.34394
Nuclear contribution   :     -1.39484       0.60751       1.20240
                        -----------------------------------------
Total Dipole Moment    :     -0.51945      -0.04390       0.85845
                        -----------------------------------------
Magnitude (a.u.)       :      1.00434
Magnitude (Debye)      :      2.55283

Rotational constants in cm-1:     0.316419     0.139940     0.099730
Rotational constants in MHz :  9485.991536  4195.289338  2989.818216

                             ****ORCA TERMINATED NORMALLY****
TOTAL RUN TIME: 0 days 0 hours 0 minutes 4 seconds 567 msec
