                         Program Version 5.0.0 -  RELEASE  -
|  1> !PBE D3BJ RIJCOSX def2-SVPD def2/J TightSCF
|  2> *xyz 0 1
|  3> C          1.69499        1.54179       -5.57045
|  4> S          1.78029       -0.03313       -6.42874
|  5> O          2.56929        0.21366       -7.60736
|  6> O          0.41688       -0.46297       -6.61859
|  7> F          2.50513       -0.93326       -5.48257
|  8> H          1.18489        2.25500       -6.18367
|  9> H          2.68564        1.89081       -5.36624
| 10> H          1.16361        1.41804       -4.65000
| 11> *
| 12> %MaxCore 64000
| 13>
| 14> %pal nprocs 8
| 15> end
| 16>
| 17> %scf
| 18>   MaxIter 150
| 19> end
| 20>
| 21>
| 22>                          ****END OF INPUT****

CARTESIAN COORDINATES (ANGSTROEM)
---------------------------------
  C      1.694990    1.541790   -5.570450
  S      1.780290   -0.033130   -6.428740
  O      2.569290    0.213660   -7.607360
  O      0.416880   -0.462970   -6.618590
  F      2.505130   -0.933260   -5.482570
  H      1.184890    2.255000   -6.183670
  H      2.685640    1.890810   -5.366240
  H      1.163610    1.418040   -4.650000

 Total Charge           Charge          ....    0
 Multiplicity           Mult            ....    1
 Number of Electrons    NEL             ....   50
 Basis Dimension        Dim             ....  140

ORBITAL ENERGIES
----------------

  NO   OCC          E(Eh)            E(eV)
   0   2.0000     -88.314009     -2403.1464
   1   2.0000     -24.367923      -663.0849
   2   2.0000     -18.783123      -511.1148
   3   2.0000     -18.782004      -511.0843
   4   2.0000      -9.953248      -270.8417
   5   2.0000      -7.919022      -215.4875
   6   2.0000      -5.949934      -161.9059
   7   2.0000      -5.943922      -161.7423
   8   2.0000      -5.942759      -161.7107
   9   2.0000      -1.234620       -33.5957
  10   2.0000      -1.033036       -28.1103
  11   2.0000      -0.943689       -25.6791
  12   2.0000      -0.728387       -19.8204
  13   2.0000      -0.635721       -17.2989
  14   2.0000      -0.531025       -14.4499
  15   2.0000      -0.499334       -13.5876
  16   2.0000      -0.494915       -13.4673
  17   2.0000      -0.430266       -11.7081
  18   2.0000      -0.429964       -11.6999
  19   2.0000      -0.417009       -11.3474
  20   2.0000      -0.398651       -10.8478
  21   2.0000      -0.349186        -9.5018
  22   2.0000      -0.301885        -8.2147
  23   2.0000      -0.300964        -8.1896
  24   2.0000      -0.280970        -7.6456
  25   0.0000      -0.031020        -0.8441
  26   0.0000       0.000528         0.0144
  27   0.0000       0.012075         0.3286
  28   0.0000       0.032074         0.8728
  29   0.0000       0.032944         0.8965

MULLIKEN ATOMIC CHARGES
-----------------------
   0 C :    0.492493
   1 S :    1.121815
   2 O :   -0.581618
   3 O :   -0.582392
   4 F :   -0.358314
   5 H :   -0.039060
   6 H :   -0.024121
   7 H :   -0.028803
Sum of atomic charges:   -0.0000000

LOEWDIN ATOMIC CHARGES
----------------------
   0 C :    0.117207
   1 S :    1.050662
   2 O :   -0.439150
   3 O :   -0.437899
   4 F :   -0.262543
   5 H :   -0.001356
   6 H :   -0.013177
   7 H :   -0.013744

  Mayer bond orders larger than 0.100000
B(  0-C ,  1-S ) :   0.9995 B(  0-C ,  5-H ) :   0.9058 B(  0-C ,  6-H ) :   0.9105
B(  0-C ,  7-H ) :   0.9120 B(  1-S ,  2-O ) :   1.5698 B(  1-S ,  3-O ) :   1.5667
B(  1-S ,  4-F ) :   0.6880 B(  1-S ,  5-H ) :   0.1124 B(  2-O ,  3-O ) :   0.1123

Dispersion correction           -0.005922814
FINAL SINGLE POINT ENERGY      -687.544807990925

DIPOLE MOMENT
-------------
                                X             Y             Z
Electronic contribution:      1.29742      -5.18180      -0.64856
Nuclear contribution   :     -1.03036       6.05593       1.81567
                        -----------------------------------------
Total Dipole Moment    :      0.26706       0.87413       1.16711
                        -----------------------------------------
Magnitude (a.u.)       :      1.48242
Magnitude (Debye)      :      3.76801

Rotational constants in cm-1:     0.164224     0.152173     0.148737
Rotational constants in MHz :  4923.310232  4562.031098  4459.033187

                             ****ORCA TERMINATED NORMALLY****
TOTAL RUN TIME: 0 days 0 hours 0 minutes 3 seconds 482 msec
