                         Program Version 5.0.0 -  RELEASE  -
|  1> !PBE D3BJ RIJCOSX def2-SVPD def2/J TightSCF
|  2> *xyz 0 1
|  3> C          1.96337       -1.74915       -1.89689
|  4> N          2.73849       -2.01517       -3.09711
|  5> C          4.04974       -2.15472       -3.15204
|  6> N          4.65821       -1.98629       -4.31866
|  7> C          4.76423       -2.45444       -2.05049
|  8> H          4.28736       -2.77626       -1.21750
|  9> H          5.75082       -2.65835       -2.12599
| 10> H          2.34518       -1.69027       -3.97145
| 11> H          4.10900       -1.59268       -5.07176
| 12> H          5.64910       -2.15646       -4.42724
| 13> H          0.92556       -1.68522       -2.14942
| 14> H          2.28268       -0.82430       -1.46378
| 15> H          2.11118       -2.54207       -1.19381
| 16> *
| 17> %MaxCore 64000
| 18>
| 19> %pal nprocs 8
| 20> end
| 21>
| 22> %scf
| 23>   MaxIter 150
| 24> end
| 25>
| 26>
| 27>                          ****END OF INPUT****

CARTESIAN COORDINATES (ANGSTROEM)
---------------------------------
  C      1.963370   -1.749150   -1.896890
  N      2.738490   -2.015170   -3.097110
  C      4.049740   -2.154720   -3.152040
  N      4.658210   -1.986290   -4.318660
  C      4.764230   -2.454440   -2.050490
  H      4.287360   -2.776260   -1.217500
  H      5.750820   -2.658350   -2.125990
  H      2.345180   -1.690270   -3.971450
  H      4.109000   -1.592680   -5.071760
  H      5.649100   -2.156460   -4.427240
  H      0.925560   -1.685220   -2.149420
  H      2.282680   -0.824300   -1.463780
  H      2.111180   -2.542070   -1.193810

 Total Charge           Charge          ....    0
 Multiplicity           Mult            ....    1
 Number of Electrons    NEL             ....   40
 Basis Dimension        Dim             ....  164

ORBITAL ENERGIES
----------------

  NO   OCC          E(Eh)            E(eV)
   0   2.0000     -14.007093      -381.1524
   1   2.0000     -14.002347      -381.0232
   2   2.0000      -9.934498      -270.3314
   3   2.0000      -9.919737      -269.9298
   4   2.0000      -9.810839      -266.9665
   5   2.0000      -0.884352       -24.0644
   6   2.0000      -0.801406       -21.8074
   7   2.0000      -0.647992       -17.6328
   8   2.0000      -0.625040       -17.0082
   9   2.0000      -0.512069       -13.9341
  10   2.0000      -0.495883       -13.4937
  11   2.0000      -0.473094       -12.8735
  12   2.0000      -0.408093       -11.1048
  13   2.0000      -0.400247       -10.8913
  14   2.0000      -0.369247       -10.0477
  15   2.0000      -0.338201        -9.2029
  16   2.0000      -0.326988        -8.8978
  17   2.0000      -0.320345        -8.7170
  18   2.0000      -0.211086        -5.7439
  19   2.0000      -0.135823        -3.6959
  20   0.0000      -0.008336        -0.2268
  21   0.0000       0.019991         0.5440
  22   0.0000       0.032356         0.8804
  23   0.0000       0.044687         1.2160
  24   0.0000       0.065717         1.7883

MULLIKEN ATOMIC CHARGES
-----------------------
   0 C :    1.148079
   1 N :   -0.461835
   2 C :    0.623528
   3 N :    0.087657
   4 C :    0.363034
   5 H :   -0.101635
   6 H :   -0.583248
   7 H :   -0.341260
   8 H :   -0.144253
   9 H :   -0.127182
  10 H :   -0.356852
  11 H :   -0.099604
  12 H :   -0.006429
Sum of atomic charges:    0.0000000

LOEWDIN ATOMIC CHARGES
----------------------
   0 C :    0.206313
   1 N :   -0.040694
   2 C :   -0.262289
   3 N :    0.193796
   4 C :    0.163611
   5 H :   -0.114088
   6 H :   -0.107179
   7 H :    0.009372
   8 H :   -0.014334
   9 H :    0.008236
  10 H :   -0.013491
  11 H :   -0.012161
  12 H :   -0.017092

  Mayer bond orders larger than 0.100000
B(  0-C ,  1-N ) :   0.9503 B(  0-C ,  7-H ) :  -0.1136 B(  0-C , 10-H ) :   0.8101
B(  0-C , 11-H ) :   0.8150 B(  0-C , 12-H ) :   0.8167 B(  1-N ,  2-C ) :   0.9791
B(  1-N ,  3-N ) :   0.1899 B(  1-N ,  4-C ) :   0.3680 B(  1-N ,  7-H ) :   1.2858
B(  1-N , 10-H ) :   0.1776 B(  1-N , 11-H ) :   0.1720 B(  1-N , 12-H ) :   0.1061
B(  2-C ,  3-N ) :   0.9008 B(  2-C ,  4-C ) :   1.5879 B(  2-C ,  5-H ) :   0.2371
B(  2-C ,  6-H ) :   0.1354 B(  2-C ,  7-H ) :  -0.1710 B(  2-C ,  9-H ) :  -0.1048
B(  3-N ,  4-C ) :   0.2500 B(  3-N ,  8-H ) :   1.1590 B(  3-N ,  9-H ) :   1.2514
B(  4-C ,  5-H ) :   0.6887 B(  4-C ,  6-H ) :   0.9357 B(  8-H ,  9-H ) :  -0.1688

Dispersion correction           -0.009475833
FINAL SINGLE POINT ENERGY      -228.155554614047

DIPOLE MOMENT
-------------
                                X             Y             Z
Electronic contribution:      0.80056      -0.14318      -2.54363
Nuclear contribution   :     -1.37336       0.51269       1.66180
                        -----------------------------------------
Total Dipole Moment    :     -0.57280       0.36950      -0.88183
                        -----------------------------------------
Magnitude (a.u.)       :      1.11457
Magnitude (Debye)      :      2.83301

Rotational constants in cm-1:     0.331915     0.135033     0.098638
Rotational constants in MHz :  9950.555862  4048.179255  2957.099162

                             ****ORCA TERMINATED NORMALLY****
TOTAL RUN TIME: 0 days 0 hours 0 minutes 4 seconds 625 msec
