                         Program Version 5.0.0 -  RELEASE  -
|  1> !PBE D3BJ RIJCOSX def2-SVPD def2/J TightSCF xyzfile
|  2>
|  3> *xyzfile 0 1 D6.xyz
|  4>
|  5> %MaxCore 64000
|  6>
|  7> %pal nprocs 4
|  8> end
|  9>
| 10> %scf
| 11>   MaxIter 150
| 12> end
| 13>
| 14>
| 15>                          ****END OF INPUT****

CARTESIAN COORDINATES (ANGSTROEM)
---------------------------------
  C      1.963365   -1.749150   -1.896887
  N      2.738490   -2.015170   -3.097113
  C      0.611877    1.657634   -4.500288
  C      1.694991    1.541794   -5.570447
  H      2.697326    1.734659   -5.183996
  H      1.506656    2.272239   -6.358076
  S      1.780287   -0.033128   -6.428739
  C      4.049736   -2.154717   -3.152044
  N      4.658206   -1.986293   -4.318655
  C      4.764231   -2.454435   -2.050491
  H      4.287363   -2.776259   -1.217496
  H      5.750825   -2.658351   -2.125988
  H      2.345176   -1.690274   -3.971447
  H      4.109004   -1.592677   -5.071760
  H      5.649095   -2.156462   -4.427237
  O      2.569287    0.213657   -7.607360
  F      0.416880   -0.462969   -6.618595
  C      2.088520   -0.300912   -1.415204
  H      2.231272   -2.451616   -1.102643
  H      0.930249   -1.977801   -2.155438
  C      0.680356    0.655418   -3.348038
  H     -0.356865    1.549231   -4.991128
  H      0.650228    2.675438   -4.096000
  C      1.968993    0.733582   -2.535654
  H      3.051356   -0.168602   -0.911868
  H      1.316501   -0.136231   -0.657252
  O      2.505129   -0.933263   -5.482570
  H      2.824195    0.624726   -3.208464
  H      2.058919    1.730331   -2.093112
  H      0.542252   -0.344731   -3.766662
  H     -0.174219    0.829692   -2.685182

 Total Charge           Charge          ....    0
 Multiplicity           Mult            ....    1
 Number of Electrons    NEL             ....  120
 Basis Dimension        Dim             ....  432

ORBITAL ENERGIES
----------------

  NO   OCC          E(Eh)            E(eV)
   0   2.0000     -88.338559     -2403.8144
   1   2.0000     -24.413113      -664.3146
   2   2.0000     -18.803702      -511.6747
   3   2.0000     -18.796623      -511.4821
   4   2.0000     -13.971678      -380.1887
   5   2.0000     -13.969683      -380.1344
   6   2.0000      -9.972544      -271.3667
   7   2.0000      -9.939573      -270.4695
   8   2.0000      -9.915363      -269.8107
   9   2.0000      -9.914614      -269.7904
  10   2.0000      -9.911846      -269.7150
  11   2.0000      -9.899977      -269.3921
  12   2.0000      -9.887267      -269.0462
  13   2.0000      -9.789289      -266.3801
  14   2.0000      -7.942482      -216.1259
  15   2.0000      -5.973855      -162.5569
  16   2.0000      -5.967647      -162.3879
  17   2.0000      -5.965385      -162.3264
  18   2.0000      -1.295408       -35.2498
  19   2.0000      -1.046826       -28.4856
  20   2.0000      -0.948261       -25.8035
  21   2.0000      -0.858722       -23.3670
  22   2.0000      -0.782117       -21.2825
  23   2.0000      -0.775327       -21.0977
  24   2.0000      -0.723296       -19.6819
  25   2.0000      -0.688768       -18.7423
  26   2.0000      -0.660976       -17.9861
  27   2.0000      -0.621565       -16.9136
  28   2.0000      -0.610599       -16.6152
  29   2.0000      -0.579659       -15.7733
  30   2.0000      -0.553896       -15.0723
  31   2.0000      -0.549665       -14.9572
  32   2.0000      -0.528001       -14.3676
  33   2.0000      -0.515791       -14.0354
  34   2.0000      -0.481236       -13.0951
  35   2.0000      -0.473439       -12.8829
  36   2.0000      -0.460583       -12.5331
  37   2.0000      -0.458107       -12.4657
  38   2.0000      -0.448596       -12.2069
  39   2.0000      -0.437113       -11.8944
  40   2.0000      -0.418153       -11.3785
  41   2.0000      -0.411936       -11.2093
  42   2.0000      -0.397077       -10.8050
  43   2.0000      -0.386969       -10.5300
  44   2.0000      -0.383867       -10.4456
  45   2.0000      -0.364770        -9.9259
  46   2.0000      -0.351510        -9.5651
  47   2.0000      -0.350247        -9.5307
  48   2.0000      -0.332468        -9.0469
  49   2.0000      -0.326396        -8.8817
  50   2.0000      -0.317904        -8.6506
  51   2.0000      -0.314369        -8.5544
  52   2.0000      -0.305382        -8.3099
  53   2.0000      -0.301156        -8.1949
  54   2.0000      -0.292547        -7.9606
  55   2.0000      -0.292332        -7.9547
  56   2.0000      -0.287238        -7.8162
  57   2.0000      -0.277767        -7.5584
  58   2.0000      -0.186408        -5.0724
  59   2.0000      -0.113599        -3.0912
  60   0.0000      -0.051402        -1.3987
  61   0.0000      -0.014715        -0.4004
  62   0.0000      -0.005958        -0.1621
  63   0.0000      -0.001618        -0.0440
  64   0.0000       0.006314         0.1718

MULLIKEN ATOMIC CHARGES
-----------------------
   0 C :    0.964719
   1 N :    0.125289
   2 C :    0.459888
   3 C :    0.106709
   4 H :    0.109772
   5 H :   -0.093114
   6 S :    1.420868
   7 C :    0.723389
   8 N :    0.418659
   9 C :    0.411996
  10 H :    0.018275
  11 H :   -0.681777
  12 H :   -0.821821
  13 H :   -0.312091
  14 H :   -0.266342
  15 O :   -0.602543
  16 F :   -0.413041
  17 C :    0.450689
  18 H :   -0.330712
  19 H :   -0.200076
  20 C :   -0.000693
  21 H :   -0.005549
  22 H :   -0.047564
  23 C :   -0.032310
  24 H :   -0.105661
  25 H :   -0.036355
  26 O :   -0.797362
  27 H :    0.096752
  28 H :   -0.325452
  29 H :   -0.032540
  30 H :   -0.202005
Sum of atomic charges:   -0.0000000

LOEWDIN ATOMIC CHARGES
----------------------
   0 C :    0.061122
   1 N :    0.018018
   2 C :   -0.036919
   3 C :   -0.038073
   4 H :    0.035418
   5 H :    0.024132
   6 S :    1.139900
   7 C :   -0.238629
   8 N :    0.222030
   9 C :    0.154778
  10 H :   -0.119063
  11 H :   -0.111328
  12 H :   -0.091744
  13 H :   -0.089384
  14 H :    0.007104
  15 O :   -0.409977
  16 F :   -0.220291
  17 C :   -0.010765
  18 H :    0.014519
  19 H :    0.014359
  20 C :   -0.030353
  21 H :    0.025407
  22 H :    0.038961
  23 C :   -0.027554
  24 H :    0.019565
  25 H :    0.020110
  26 O :   -0.448705
  27 H :    0.011588
  28 H :    0.026722
  29 H :    0.003043
  30 H :    0.036011

  Mayer bond orders larger than 0.100000
B(  0-C ,  1-N ) :   0.9451 B(  0-C , 12-H ) :  -0.3833 B(  0-C , 17-C ) :   1.0298
B(  0-C , 18-H ) :   0.8792 B(  0-C , 19-H ) :   0.6808 B(  0-C , 23-C ) :   0.1233
B(  0-C , 25-H ) :   0.1180 B(  1-N ,  7-C ) :   0.8990 B(  1-N ,  8-N ) :   0.1058
B(  1-N ,  9-C ) :   0.5409 B(  1-N , 12-H ) :   0.9461 B(  1-N , 13-H ) :   0.1229
B(  1-N , 19-H ) :   0.1666 B(  1-N , 26-O ) :  -0.1029 B(  2-C ,  3-C ) :   1.2833
B(  2-C ,  4-H ) :   0.1088 B(  2-C ,  5-H ) :   0.1869 B(  2-C , 20-C ) :   1.2728
B(  2-C , 21-H ) :   0.6210 B(  2-C , 22-H ) :   0.7588 B(  3-C ,  4-H ) :   0.8704
B(  3-C ,  5-H ) :   0.8417 B(  3-C ,  6-S ) :   1.0353 B(  3-C , 21-H ) :   0.1221
B(  3-C , 22-H ) :   0.1440 B(  6-S , 15-O ) :   1.5876 B(  6-S , 16-F ) :   0.5973
B(  6-S , 26-O ) :   1.3518 B(  7-C ,  8-N ) :   0.8219 B(  7-C ,  9-C ) :   1.3783
B(  7-C , 10-H ) :   0.3311 B(  7-C , 11-H ) :   0.2795 B(  7-C , 12-H ) :  -0.3742
B(  7-C , 14-H ) :  -0.1985 B(  8-N ,  9-C ) :   0.2725 B(  8-N , 11-H ) :   0.1047
B(  8-N , 13-H ) :   1.0268 B(  8-N , 14-H ) :   1.3408 B(  9-C , 10-H ) :   0.5395
B(  9-C , 11-H ) :   0.7542 B(  9-C , 12-H ) :  -0.1425 B( 10-H , 18-H ) :   0.1640
B( 10-H , 19-H ) :  -0.1130 B( 12-H , 19-H ) :   0.1112 B( 12-H , 26-O ) :   0.1332
B( 12-H , 27-H ) :   0.1269 B( 12-H , 28-H ) :  -0.1204 B( 13-H , 14-H ) :  -0.2123
B( 13-H , 26-O ) :   0.2223 B( 15-O , 26-O ) :   0.1046 B( 16-F , 26-O ) :   0.1615
B( 17-C , 18-H ) :   0.1085 B( 17-C , 19-H ) :   0.1079 B( 17-C , 23-C ) :   1.2672
B( 17-C , 24-H ) :   0.7678 B( 17-C , 25-H ) :   0.8010 B( 17-C , 27-H ) :   0.1097
B( 18-H , 19-H ) :  -0.1978 B( 20-C , 21-H ) :   0.2824 B( 20-C , 22-H ) :   0.1043
B( 20-C , 23-C ) :   1.2156 B( 20-C , 27-H ) :   0.1142 B( 20-C , 28-H ) :   0.1693
B( 20-C , 29-H ) :   0.9159 B( 20-C , 30-H ) :   0.8225 B( 21-H , 22-H ) :  -0.1026
B( 23-C , 24-H ) :   0.2325 B( 23-C , 25-H ) :   0.1398 B( 23-C , 27-H ) :   0.8235
B( 23-C , 28-H ) :   0.8862 B( 23-C , 29-H ) :   0.1066 B( 23-C , 30-H ) :   0.1445

Dispersion correction           -0.037472493
FINAL SINGLE POINT ENERGY     -1071.440497852443

DIPOLE MOMENT
-------------
                                X             Y             Z
Electronic contribution:     -4.78685      -1.44047     -22.72993
Nuclear contribution   :      2.90585       3.30398      21.99296
                        -----------------------------------------
Total Dipole Moment    :     -1.88100       1.86351      -0.73697
                        -----------------------------------------
Magnitude (a.u.)       :      2.74845
Magnitude (Debye)      :      6.98599

Rotational constants in cm-1:     0.029065     0.014689     0.011200
Rotational constants in MHz :   871.338526   440.374927   335.770911

                             ****ORCA TERMINATED NORMALLY****
TOTAL RUN TIME: 0 days 0 hours 0 minutes 47 seconds 712 msec
