                         Program Version 5.0.0 -  RELEASE  -
|  1> !PBE D3BJ RIJCOSX def2-SVPD def2/J TightSCF xyzfile
|  2>
|  3> *xyzfile 0 1 D9.xyz
|  4>
|  5> %MaxCore 64000
|  6>
|  7> %pal nprocs 4
|  8> end
|  9>
| 10> %scf
| 11>   MaxIter 150
| 12> end
| 13>
| 14>
| 15>                          ****END OF INPUT****

CARTESIAN COORDINATES (ANGSTROEM)
---------------------------------
  C      1.963365   -1.749150   -1.896887
  N      2.738490   -2.015170   -3.097113
  C      0.611877    1.657634   -4.500288
  C      1.694991    1.541794   -5.570447
  H      2.697326    1.734659   -5.183996
  H      1.506656    2.272239   -6.358076
  S      1.780287   -0.033128   -6.428739
  C      4.049736   -2.154717   -3.152044
  N      4.658206   -1.986293   -4.318655
  C      4.764231   -2.454435   -2.050491
  H      4.287363   -2.776259   -1.217496
  H      5.750825   -2.658351   -2.125988
  H      2.345176   -1.690274   -3.971447
  H      4.109004   -1.592677   -5.071760
  H      5.649095   -2.156462   -4.427237
  O      2.569287    0.213657   -7.607360
  O      0.416880   -0.462969   -6.618595
  C      2.088520   -0.300912   -1.415204
  H      2.231272   -2.451616   -1.102643
  H      0.930249   -1.977801   -2.155438
  C      0.680356    0.655418   -3.348038
  H     -0.356865    1.549231   -4.991128
  H      0.650228    2.675438   -4.096000
  C      1.968993    0.733582   -2.535654
  H      3.051356   -0.168602   -0.911868
  H      1.316501   -0.136231   -0.657252
  F      2.505129   -0.933263   -5.482570
  H      2.824195    0.624726   -3.208464
  H      2.058919    1.730331   -2.093112
  H      0.542252   -0.344731   -3.766662
  H     -0.174219    0.829692   -2.685182

 Total Charge           Charge          ....    0
 Multiplicity           Mult            ....    1
 Number of Electrons    NEL             ....  120
 Basis Dimension        Dim             ....  432

ORBITAL ENERGIES
----------------

  NO   OCC          E(Eh)            E(eV)
   0   2.0000     -88.325130     -2403.4490
   1   2.0000     -24.396453      -663.8612
   2   2.0000     -18.796465      -511.4778
   3   2.0000     -18.796093      -511.4677
   4   2.0000     -13.999672      -380.9505
   5   2.0000     -13.998711      -380.9243
   6   2.0000      -9.966161      -271.1930
   7   2.0000      -9.933680      -270.3092
   8   2.0000      -9.932441      -270.2755
   9   2.0000      -9.929294      -270.1898
  10   2.0000      -9.916846      -269.8511
  11   2.0000      -9.908068      -269.6122
  12   2.0000      -9.897591      -269.3271
  13   2.0000      -9.809099      -266.9192
  14   2.0000      -7.929608      -215.7756
  15   2.0000      -5.961053      -162.2085
  16   2.0000      -5.954454      -162.0289
  17   2.0000      -5.952716      -161.9817
  18   2.0000      -1.264724       -34.4149
  19   2.0000      -1.048025       -28.5182
  20   2.0000      -0.956521       -26.0283
  21   2.0000      -0.884941       -24.0805
  22   2.0000      -0.803881       -21.8747
  23   2.0000      -0.772799       -21.0289
  24   2.0000      -0.726491       -19.7688
  25   2.0000      -0.694447       -18.8969
  26   2.0000      -0.666394       -18.1335
  27   2.0000      -0.629182       -17.1209
  28   2.0000      -0.625586       -17.0231
  29   2.0000      -0.578730       -15.7480
  30   2.0000      -0.546586       -14.8734
  31   2.0000      -0.540426       -14.7057
  32   2.0000      -0.523555       -14.2467
  33   2.0000      -0.510914       -13.9027
  34   2.0000      -0.492797       -13.4097
  35   2.0000      -0.489537       -13.3210
  36   2.0000      -0.468760       -12.7556
  37   2.0000      -0.457758       -12.4562
  38   2.0000      -0.452768       -12.3204
  39   2.0000      -0.436600       -11.8805
  40   2.0000      -0.425229       -11.5711
  41   2.0000      -0.418529       -11.3887
  42   2.0000      -0.401690       -10.9306
  43   2.0000      -0.395826       -10.7710
  44   2.0000      -0.385447       -10.4885
  45   2.0000      -0.366551        -9.9744
  46   2.0000      -0.357482        -9.7276
  47   2.0000      -0.356691        -9.7061
  48   2.0000      -0.340681        -9.2704
  49   2.0000      -0.330473        -8.9926
  50   2.0000      -0.329275        -8.9600
  51   2.0000      -0.322144        -8.7660
  52   2.0000      -0.314493        -8.5578
  53   2.0000      -0.307792        -8.3754
  54   2.0000      -0.303093        -8.2476
  55   2.0000      -0.299949        -8.1620
  56   2.0000      -0.294004        -8.0002
  57   2.0000      -0.289767        -7.8850
  58   2.0000      -0.210674        -5.7327
  59   2.0000      -0.134340        -3.6556
  60   0.0000      -0.039877        -1.0851
  61   0.0000      -0.013992        -0.3807
  62   0.0000      -0.005693        -0.1549
  63   0.0000      -0.001667        -0.0454
  64   0.0000       0.009358         0.2546

MULLIKEN ATOMIC CHARGES
-----------------------
   0 C :    0.974045
   1 N :    0.095922
   2 C :    0.491614
   3 C :    0.095207
   4 H :    0.153647
   5 H :   -0.164520
   6 S :    1.390416
   7 C :    0.731051
   8 N :    0.438407
   9 C :    0.412981
  10 H :    0.034873
  11 H :   -0.673463
  12 H :   -0.832020
  13 H :   -0.354928
  14 H :   -0.237340
  15 O :   -0.624267
  16 O :   -0.661885
  17 C :    0.445403
  18 H :   -0.325314
  19 H :   -0.183093
  20 C :   -0.027468
  21 H :    0.003667
  22 H :   -0.038252
  23 C :   -0.034745
  24 H :   -0.103785
  25 H :   -0.045668
  26 F :   -0.491406
  27 H :    0.084852
  28 H :   -0.310471
  29 H :   -0.085184
  30 H :   -0.158275
Sum of atomic charges:   -0.0000000

LOEWDIN ATOMIC CHARGES
----------------------
   0 C :    0.064565
   1 N :    0.014442
   2 C :   -0.031763
   3 C :   -0.044357
   4 H :    0.020870
   5 H :    0.033485
   6 S :    1.091538
   7 C :   -0.239245
   8 N :    0.218655
   9 C :    0.164344
  10 H :   -0.112181
  11 H :   -0.105012
  12 H :   -0.059700
  13 H :   -0.067157
  14 H :    0.013245
  15 O :   -0.418386
  16 O :   -0.415200
  17 C :   -0.009708
  18 H :    0.017856
  19 H :    0.018614
  20 C :   -0.028234
  21 H :    0.031053
  22 H :    0.038328
  23 C :   -0.032558
  24 H :    0.020164
  25 H :    0.023137
  26 F :   -0.283950
  27 H :    0.006403
  28 H :    0.028570
  29 H :    0.004204
  30 H :    0.037978

  Mayer bond orders larger than 0.100000
B(  0-C ,  1-N ) :   0.9331 B(  0-C , 12-H ) :  -0.3694 B(  0-C , 17-C ) :   1.0281
B(  0-C , 18-H ) :   0.8764 B(  0-C , 19-H ) :   0.6796 B(  0-C , 23-C ) :   0.1188
B(  0-C , 25-H ) :   0.1062 B(  1-N ,  7-C ) :   0.9008 B(  1-N ,  8-N ) :   0.1141
B(  1-N ,  9-C ) :   0.5344 B(  1-N , 12-H ) :   0.9896 B(  1-N , 13-H ) :   0.1110
B(  1-N , 19-H ) :   0.1769 B(  2-C ,  3-C ) :   1.2767 B(  2-C ,  4-H ) :   0.1271
B(  2-C ,  5-H ) :   0.1864 B(  2-C , 20-C ) :   1.2765 B(  2-C , 21-H ) :   0.6306
B(  2-C , 22-H ) :   0.7384 B(  2-C , 29-H ) :   0.1007 B(  3-C ,  4-H ) :   0.8519
B(  3-C ,  5-H ) :   0.7979 B(  3-C ,  6-S ) :   1.0439 B(  3-C , 21-H ) :   0.1396
B(  3-C , 22-H ) :   0.1376 B(  6-S , 15-O ) :   1.5412 B(  6-S , 16-O ) :   1.4796
B(  6-S , 26-F ) :   0.6105 B(  7-C ,  8-N ) :   0.8120 B(  7-C ,  9-C ) :   1.3951
B(  7-C , 10-H ) :   0.3327 B(  7-C , 11-H ) :   0.2490 B(  7-C , 12-H ) :  -0.4001
B(  7-C , 14-H ) :  -0.1918 B(  8-N ,  9-C ) :   0.2821 B(  8-N , 13-H ) :   1.0336
B(  8-N , 14-H ) :   1.3159 B(  9-C , 10-H ) :   0.5341 B(  9-C , 11-H ) :   0.7869
B(  9-C , 12-H ) :  -0.1400 B( 10-H , 18-H ) :   0.1658 B( 10-H , 19-H ) :  -0.1123
B( 12-H , 19-H ) :   0.1078 B( 12-H , 27-H ) :   0.1111 B( 12-H , 28-H ) :  -0.1038
B( 13-H , 14-H ) :  -0.1861 B( 13-H , 26-F ) :   0.2743 B( 16-O , 26-F ) :   0.1078
B( 17-C , 18-H ) :   0.1075 B( 17-C , 19-H ) :   0.1051 B( 17-C , 23-C ) :   1.2586
B( 17-C , 24-H ) :   0.7712 B( 17-C , 25-H ) :   0.8131 B( 17-C , 27-H ) :   0.1161
B( 18-H , 19-H ) :  -0.2043 B( 20-C , 21-H ) :   0.2877 B( 20-C , 22-H ) :   0.1066
B( 20-C , 23-C ) :   1.2135 B( 20-C , 28-H ) :   0.1723 B( 20-C , 29-H ) :   0.9364
B( 20-C , 30-H ) :   0.8024 B( 23-C , 24-H ) :   0.2353 B( 23-C , 25-H ) :   0.1424
B( 23-C , 27-H ) :   0.8243 B( 23-C , 28-H ) :   0.8975 B( 23-C , 30-H ) :   0.1614

Dispersion correction           -0.037146808
FINAL SINGLE POINT ENERGY     -1071.449293466802

DIPOLE MOMENT
-------------
                                X             Y             Z
Electronic contribution:     -1.05296      -2.40586     -20.36947
Nuclear contribution   :      0.52036       3.84122      20.69523
                        -----------------------------------------
Total Dipole Moment    :     -0.53261       1.43536       0.32576
                        -----------------------------------------
Magnitude (a.u.)       :      1.56526
Magnitude (Debye)      :      3.97858

Rotational constants in cm-1:     0.029184     0.014996     0.011314
Rotational constants in MHz :   874.907122   449.569665   339.178205

                             ****ORCA TERMINATED NORMALLY****
TOTAL RUN TIME: 0 days 0 hours 0 minutes 46 seconds 324 msec
