                         Program Version 5.0.0 -  RELEASE  -
|  1> !PBE0 D3BJ RIJCOSX def2-TZVP def2/J TightSCF
|  2> *xyz -1 1
|  3> C         -7.33044       -2.67899       -3.20681
|  4> S         -6.01966       -2.92697       -4.41913
|  5> O         -5.64583       -1.58838       -4.91931
|  6> O         -4.88196       -3.50370       -3.66724
|  7> O         -6.54927       -3.80515       -5.42507
|  8> C         -7.46900       -1.24615       -2.71383
|  9> H         -7.11825       -3.37982       -2.39805
| 10> H         -8.24184       -3.00474       -3.70651
| 11> H         -7.67580       -0.60214       -3.54292
| 12> H         -6.55749       -0.94096       -2.24382
| 13> H         -8.27114       -1.18777       -2.00810
| 14> *
| 15> %MaxCore 64000
| 16>
| 17> %pal nprocs 4
| 18> end
| 19>
| 20> %scf
| 21>   MaxIter 150
| 22> end
| 23>
| 24>
| 25>                          ****END OF INPUT****

CARTESIAN COORDINATES (ANGSTROEM)
---------------------------------
  C     -7.330440   -2.678990   -3.206810
  S     -6.019660   -2.926970   -4.419130
  O     -5.645830   -1.588380   -4.919310
  O     -4.881960   -3.503700   -3.667240
  O     -6.549270   -3.805150   -5.425070
  C     -7.469000   -1.246150   -2.713830
  H     -7.118250   -3.379820   -2.398050
  H     -8.241840   -3.004740   -3.706510
  H     -7.675800   -0.602140   -3.542920
  H     -6.557490   -0.940960   -2.243820
  H     -8.271140   -1.187770   -2.008100

 Total Charge           Charge          ....   -1
 Multiplicity           Mult            ....    1
 Number of Electrons    NEL             ....   58
 Basis Dimension        Dim             ....  222

ORBITAL ENERGIES
----------------

  NO   OCC          E(Eh)            E(eV)
   0   2.0000     -88.993391     -2421.6333
   1   2.0000     -18.978999      -516.4448
   2   2.0000     -18.968373      -516.1557
   3   2.0000     -18.964210      -516.0424
   4   2.0000     -10.080452      -274.3030
   5   2.0000     -10.072683      -274.0916
   6   2.0000      -7.938830      -216.0265
   7   2.0000      -5.876111      -159.8971
   8   2.0000      -5.874908      -159.8644
   9   2.0000      -5.874700      -159.8587
  10   2.0000      -0.939500       -25.5651
  11   2.0000      -0.808529       -22.0012
  12   2.0000      -0.785989       -21.3878
  13   2.0000      -0.653990       -17.7960
  14   2.0000      -0.523728       -14.2514
  15   2.0000      -0.394286       -10.7291
  16   2.0000      -0.330942        -9.0054
  17   2.0000      -0.323021        -8.7898
  18   2.0000      -0.283843        -7.7238
  19   2.0000      -0.265141        -7.2148
  20   2.0000      -0.263298        -7.1647
  21   2.0000      -0.236723        -6.4416
  22   2.0000      -0.227799        -6.1987
  23   2.0000      -0.155029        -4.2186
  24   2.0000      -0.153299        -4.1715
  25   2.0000      -0.119384        -3.2486
  26   2.0000      -0.112521        -3.0618
  27   2.0000      -0.103515        -2.8168
  28   2.0000      -0.066935        -1.8214
  29   0.0000       0.181768         4.9461
  30   0.0000       0.227670         6.1952
  31   0.0000       0.238463         6.4889
  32   0.0000       0.245627         6.6838
  33   0.0000       0.269441         7.3319

MULLIKEN ATOMIC CHARGES
-----------------------
   0 C :   -0.262919
   1 S :    0.806547
   2 O :   -0.576130
   3 O :   -0.585499
   4 O :   -0.540988
   5 C :   -0.324552
   6 H :    0.096540
   7 H :    0.092079
   8 H :    0.116436
   9 H :    0.109680
  10 H :    0.068806
Sum of atomic charges:   -1.0000000

LOEWDIN ATOMIC CHARGES
----------------------
   0 C :   -0.431420
   1 S :    0.414451
   2 O :   -0.409732
   3 O :   -0.427262
   4 O :   -0.369013
   5 C :   -0.348482
   6 H :    0.120877
   7 H :    0.118628
   8 H :    0.116246
   9 H :    0.116549
  10 H :    0.099158

  Mayer bond orders larger than 0.100000
B(  0-C ,  1-S ) :   0.8733 B(  0-C ,  5-C ) :   0.9938 B(  0-C ,  6-H ) :   0.9570
B(  0-C ,  7-H ) :   0.9525 B(  1-S ,  2-O ) :   1.7536 B(  1-S ,  3-O ) :   1.7695
B(  1-S ,  4-O ) :   1.8256 B(  5-C ,  8-H ) :   0.9705 B(  5-C ,  9-H ) :   0.9734
B(  5-C , 10-H ) :   0.9548

Dispersion correction           -0.008239706
FINAL SINGLE POINT ENERGY      -702.837526084180

DIPOLE MOMENT
-------------
                                X             Y             Z
Electronic contribution:      4.73246      -3.53800      -5.14550
Nuclear contribution   :     -6.18165       4.01759       6.33106
                        -----------------------------------------
Total Dipole Moment    :     -1.44919       0.47959       1.18556
                        -----------------------------------------
Magnitude (a.u.)       :      1.93280
Magnitude (Debye)      :      4.91278

Rotational constants in cm-1:     0.161711     0.082788     0.081165
Rotational constants in MHz :  4847.971521  2481.906910  2433.276832

                             ****ORCA TERMINATED NORMALLY****
TOTAL RUN TIME: 0 days 0 hours 0 minutes 30 seconds 639 msec
