                         Program Version 5.0.0 -  RELEASE  -
|  1> !PBE0 D3BJ RIJCOSX def2-TZVP def2/J TightSCF
|  2> *xyz 1 1
|  3> C         -2.16038       -1.36949       -3.46710
|  4> N         -3.03011       -1.91086       -4.54107
|  5> C         -2.04772        0.14658       -3.51177
|  6> H         -3.47744       -2.79151       -4.25710
|  7> H         -2.53801       -2.01786       -5.43808
|  8> H         -3.89159       -1.37604       -4.71437
|  9> H         -1.18444       -1.84400       -3.56639
| 10> H         -2.59819       -1.70838       -2.52848
| 11> H         -1.61525        0.44478       -4.44395
| 12> H         -1.42718        0.48198       -2.70720
| 13> H         -3.02145        0.57958       -3.41560
| 14> *
| 15> %MaxCore 64000
| 16>
| 17> %pal nprocs 4
| 18> end
| 19>
| 20> %scf
| 21>   MaxIter 150
| 22> end
| 23>
| 24>
| 25>                          ****END OF INPUT****

CARTESIAN COORDINATES (ANGSTROEM)
---------------------------------
  C     -2.160380   -1.369490   -3.467100
  N     -3.030110   -1.910860   -4.541070
  C     -2.047720    0.146580   -3.511770
  H     -3.477440   -2.791510   -4.257100
  H     -2.538010   -2.017860   -5.438080
  H     -3.891590   -1.376040   -4.714370
  H     -1.184440   -1.844000   -3.566390
  H     -2.598190   -1.708380   -2.528480
  H     -1.615250    0.444780   -4.443950
  H     -1.427180    0.481980   -2.707200
  H     -3.021450    0.579580   -3.415600

 Total Charge           Charge          ....    1
 Multiplicity           Mult            ....    1
 Number of Electrons    NEL             ....   26
 Basis Dimension        Dim             ....  141

ORBITAL ENERGIES
----------------

  NO   OCC          E(Eh)            E(eV)
   0   2.0000     -14.719298      -400.5325
   1   2.0000     -10.475191      -285.0444
   2   2.0000     -10.392754      -282.8012
   3   2.0000      -1.244401       -33.8619
   4   2.0000      -0.990595       -26.9554
   5   2.0000      -0.866582       -23.5809
   6   2.0000      -0.825499       -22.4630
   7   2.0000      -0.785453       -21.3733
   8   2.0000      -0.715506       -19.4699
   9   2.0000      -0.656466       -17.8633
  10   2.0000      -0.595012       -16.1911
  11   2.0000      -0.579992       -15.7824
  12   2.0000      -0.561698       -15.2846
  13   0.0000      -0.186893        -5.0856
  14   0.0000      -0.125820        -3.4237
  15   0.0000      -0.124129        -3.3777
  16   0.0000      -0.102667        -2.7937
  17   0.0000      -0.064032        -1.7424

MULLIKEN ATOMIC CHARGES
-----------------------
   0 C :   -0.201886
   1 N :   -0.296312
   2 C :   -0.366942
   3 H :    0.332116
   4 H :    0.337207
   5 H :    0.321941
   6 H :    0.195409
   7 H :    0.186021
   8 H :    0.154366
   9 H :    0.184695
  10 H :    0.153385
Sum of atomic charges:    1.0000000

LOEWDIN ATOMIC CHARGES
----------------------
   0 C :   -0.281386
   1 N :    0.168337
   2 C :   -0.278931
   3 H :    0.224813
   4 H :    0.224553
   5 H :    0.221250
   6 H :    0.155370
   7 H :    0.153333
   8 H :    0.132412
   9 H :    0.149021
  10 H :    0.131226

  Mayer bond orders larger than 0.100000
B(  0-C ,  1-N ) :   0.8750 B(  0-C ,  2-C ) :   1.0267 B(  0-C ,  6-H ) :   0.9479
B(  0-C ,  7-H ) :   0.9471 B(  1-N ,  3-H ) :   0.8777 B(  1-N ,  4-H ) :   0.8705
B(  1-N ,  5-H ) :   0.8749 B(  2-C ,  8-H ) :   0.9565 B(  2-C ,  9-H ) :   0.9528
B(  2-C , 10-H ) :   0.9570

Dispersion correction           -0.004996590
FINAL SINGLE POINT ENERGY      -135.420169422107

DIPOLE MOMENT
-------------
                                X             Y             Z
Electronic contribution:     -0.65409      -1.49486      -0.77867
Nuclear contribution   :     -0.15215       0.37393      -0.04773
                        -----------------------------------------
Total Dipole Moment    :     -0.80624      -1.12092      -0.82640
                        -----------------------------------------
Magnitude (a.u.)       :      1.60917
Magnitude (Debye)      :      4.09018

Rotational constants in cm-1:     1.020762     0.277172     0.247319
Rotational constants in MHz : 30601.664035  8309.399682  7414.438136

                             ****ORCA TERMINATED NORMALLY****
TOTAL RUN TIME: 0 days 0 hours 0 minutes 12 seconds 795 msec
