                         Program Version 5.0.0 -  RELEASE  -
|  1> !PBE0 D3BJ RIJCOSX def2-TZVP def2/J TightSCF
|  2> *xyz 0 1
|  3> C         -7.33044       -2.67899       -3.20681
|  4> S         -6.01966       -2.92697       -4.41913
|  5> F         -5.64583       -1.58838       -4.91931
|  6> O         -4.88196       -3.50370       -3.66724
|  7> O         -6.54927       -3.80515       -5.42507
|  8> C         -7.46900       -1.24615       -2.71383
|  9> H         -7.11825       -3.37982       -2.39805
| 10> H         -8.24184       -3.00474       -3.70651
| 11> H         -7.67580       -0.60214       -3.54292
| 12> H         -6.55749       -0.94096       -2.24382
| 13> H         -8.27114       -1.18777       -2.00810
| 14> *
| 15> %MaxCore 64000
| 16>
| 17> %pal nprocs 4
| 18> end
| 19>
| 20> %scf
| 21>   MaxIter 150
| 22> end
| 23>
| 24>
| 25>                          ****END OF INPUT****

CARTESIAN COORDINATES (ANGSTROEM)
---------------------------------
  C     -7.330440   -2.678990   -3.206810
  S     -6.019660   -2.926970   -4.419130
  F     -5.645830   -1.588380   -4.919310
  O     -4.881960   -3.503700   -3.667240
  O     -6.549270   -3.805150   -5.425070
  C     -7.469000   -1.246150   -2.713830
  H     -7.118250   -3.379820   -2.398050
  H     -8.241840   -3.004740   -3.706510
  H     -7.675800   -0.602140   -3.542920
  H     -6.557490   -0.940960   -2.243820
  H     -8.271140   -1.187770   -2.008100

 Total Charge           Charge          ....    0
 Multiplicity           Mult            ....    1
 Number of Electrons    NEL             ....   58
 Basis Dimension        Dim             ....  222

ORBITAL ENERGIES
----------------

  NO   OCC          E(Eh)            E(eV)
   0   2.0000     -89.259225     -2428.8670
   1   2.0000     -24.875485      -676.8964
   2   2.0000     -19.220038      -523.0038
   3   2.0000     -19.205284      -522.6023
   4   2.0000     -10.285284      -279.8768
   5   2.0000     -10.246535      -278.8224
   6   2.0000      -8.205330      -223.2784
   7   2.0000      -6.145766      -167.2348
   8   2.0000      -6.139417      -167.0620
   9   2.0000      -6.139021      -167.0513
  10   2.0000      -1.387574       -37.7578
  11   2.0000      -1.134423       -30.8692
  12   2.0000      -1.034871       -28.1603
  13   2.0000      -0.852313       -23.1926
  14   2.0000      -0.744993       -20.2723
  15   2.0000      -0.695787       -18.9333
  16   2.0000      -0.602607       -16.3978
  17   2.0000      -0.584736       -15.9115
  18   2.0000      -0.560339       -15.2476
  19   2.0000      -0.514110       -13.9896
  20   2.0000      -0.488924       -13.3043
  21   2.0000      -0.464214       -12.6319
  22   2.0000      -0.458310       -12.4713
  23   2.0000      -0.428380       -11.6568
  24   2.0000      -0.411279       -11.1915
  25   2.0000      -0.398825       -10.8526
  26   2.0000      -0.348593        -9.4857
  27   2.0000      -0.335016        -9.1162
  28   2.0000      -0.322612        -8.7787
  29   0.0000       0.010925         0.2973
  30   0.0000       0.052762         1.4357
  31   0.0000       0.069341         1.8869
  32   0.0000       0.071502         1.9457
  33   0.0000       0.082920         2.2564

MULLIKEN ATOMIC CHARGES
-----------------------
   0 C :   -0.257345
   1 S :    0.840578
   2 F :   -0.115550
   3 O :   -0.443081
   4 O :   -0.398062
   5 C :   -0.368936
   6 H :    0.167918
   7 H :    0.157881
   8 H :    0.134689
   9 H :    0.143769
  10 H :    0.138142
Sum of atomic charges:    0.0000000

LOEWDIN ATOMIC CHARGES
----------------------
   0 C :   -0.387709
   1 S :    0.544791
   2 F :    0.061252
   3 O :   -0.310677
   4 O :   -0.254808
   5 C :   -0.321289
   6 H :    0.150012
   7 H :    0.143137
   8 H :    0.121932
   9 H :    0.125755
  10 H :    0.127603

  Mayer bond orders larger than 0.100000
B(  0-C ,  1-S ) :   0.9092 B(  0-C ,  5-C ) :   1.0014 B(  0-C ,  6-H ) :   0.9353
B(  0-C ,  7-H ) :   0.9359 B(  1-S ,  2-F ) :   1.1126 B(  1-S ,  3-O ) :   1.9041
B(  1-S ,  4-O ) :   1.9581 B(  5-C ,  8-H ) :   0.9653 B(  5-C ,  9-H ) :   0.9653
B(  5-C , 10-H ) :   0.9560

Dispersion correction           -0.007824341
FINAL SINGLE POINT ENERGY      -727.359234627360

DIPOLE MOMENT
-------------
                                X             Y             Z
Electronic contribution:      5.66081      -1.72473      -6.39358
Nuclear contribution   :     -6.81251       2.87933       7.15058
                        -----------------------------------------
Total Dipole Moment    :     -1.15171       1.15460       0.75699
                        -----------------------------------------
Magnitude (a.u.)       :      1.79793
Magnitude (Debye)      :      4.56998

Rotational constants in cm-1:     0.152543     0.082494     0.078987
Rotational constants in MHz :  4573.135887  2473.116216  2367.980829

                             ****ORCA TERMINATED NORMALLY****
TOTAL RUN TIME: 0 days 0 hours 0 minutes 27 seconds 862 msec
