                         Program Version 5.0.0 -  RELEASE  -
|  1> !PBE0 D3BJ RIJCOSX def2-TZVP def2/J TightSCF
|  2> *xyz 0 1
|  3> C         -2.16038       -1.36949       -3.46710
|  4> C         -3.03011       -1.91086       -4.54107
|  5> C         -2.04772        0.14658       -3.51177
|  6> H         -3.47744       -2.79151       -4.25710
|  7> H         -2.53801       -2.01786       -5.43808
|  8> H         -3.89159       -1.37604       -4.71437
|  9> H         -1.18444       -1.84400       -3.56639
| 10> H         -2.59819       -1.70838       -2.52848
| 11> H         -1.61525        0.44478       -4.44395
| 12> H         -1.42718        0.48198       -2.70720
| 13> H         -3.02145        0.57958       -3.41560
| 14> *
| 15> %MaxCore 64000
| 16>
| 17> %pal nprocs 4
| 18> end
| 19>
| 20> %scf
| 21>   MaxIter 150
| 22> end
| 23>
| 24>
| 25>                          ****END OF INPUT****

CARTESIAN COORDINATES (ANGSTROEM)
---------------------------------
  C     -2.160380   -1.369490   -3.467100
  C     -3.030110   -1.910860   -4.541070
  C     -2.047720    0.146580   -3.511770
  H     -3.477440   -2.791510   -4.257100
  H     -2.538010   -2.017860   -5.438080
  H     -3.891590   -1.376040   -4.714370
  H     -1.184440   -1.844000   -3.566390
  H     -2.598190   -1.708380   -2.528480
  H     -1.615250    0.444780   -4.443950
  H     -1.427180    0.481980   -2.707200
  H     -3.021450    0.579580   -3.415600

 Total Charge           Charge          ....    0
 Multiplicity           Mult            ....    1
 Number of Electrons    NEL             ....   26
 Basis Dimension        Dim             ....  141

ORBITAL ENERGIES
----------------

  NO   OCC          E(Eh)            E(eV)
   0   2.0000     -10.206821      -277.7417
   1   2.0000     -10.195886      -277.4442
   2   2.0000     -10.176890      -276.9273
   3   2.0000      -0.814109       -22.1530
   4   2.0000      -0.712549       -19.3894
   5   2.0000      -0.606365       -16.5000
   6   2.0000      -0.483193       -13.1483
   7   2.0000      -0.452690       -12.3183
   8   2.0000      -0.414300       -11.2737
   9   2.0000      -0.405804       -11.0425
  10   2.0000      -0.350916        -9.5489
  11   2.0000      -0.338588        -9.2135
  12   2.0000      -0.337579        -9.1860
  13   0.0000       0.050509         1.3744
  14   0.0000       0.093261         2.5377
  15   0.0000       0.098864         2.6902
  16   0.0000       0.102866         2.7991
  17   0.0000       0.126588         3.4446

MULLIKEN ATOMIC CHARGES
-----------------------
   0 C :   -0.159701
   1 C :   -0.363326
   2 C :   -0.345408
   3 H :    0.118976
   4 H :    0.114973
   5 H :    0.110732
   6 H :    0.093611
   7 H :    0.091900
   8 H :    0.109738
   9 H :    0.116918
  10 H :    0.111587
Sum of atomic charges:   -0.0000000

LOEWDIN ATOMIC CHARGES
----------------------
   0 C :   -0.325406
   1 C :   -0.313999
   2 C :   -0.309204
   3 H :    0.112386
   4 H :    0.108917
   5 H :    0.110867
   6 H :    0.133908
   7 H :    0.133978
   8 H :    0.116885
   9 H :    0.115450
  10 H :    0.116219

  Mayer bond orders larger than 0.100000
B(  0-C ,  1-C ) :   1.0005 B(  0-C ,  2-C ) :   1.0049 B(  0-C ,  6-H ) :   0.9663
B(  0-C ,  7-H ) :   0.9683 B(  1-C ,  3-H ) :   0.9777 B(  1-C ,  4-H ) :   0.9748
B(  1-C ,  5-H ) :   0.9766 B(  2-C ,  8-H ) :   0.9737 B(  2-C ,  9-H ) :   0.9745
B(  2-C , 10-H ) :   0.9752

Dispersion correction           -0.005016279
FINAL SINGLE POINT ENERGY      -119.016993560232

DIPOLE MOMENT
-------------
                                X             Y             Z
Electronic contribution:      0.31554      -0.13202       0.27569
Nuclear contribution   :     -0.34625       0.09603      -0.26933
                        -----------------------------------------
Total Dipole Moment    :     -0.03070      -0.03599       0.00636
                        -----------------------------------------
Magnitude (a.u.)       :      0.04773
Magnitude (Debye)      :      0.12132

Rotational constants in cm-1:     1.028617     0.291238     0.258956
Rotational constants in MHz : 30837.159054  8731.095379  7763.318586

                             ****ORCA TERMINATED NORMALLY****
TOTAL RUN TIME: 0 days 0 hours 0 minutes 12 seconds 975 msec
