                         Program Version 5.0.0 -  RELEASE  -
|  1> !PBE0 D3BJ RIJCOSX def2-TZVP def2/J TightSCF
|  2> *xyz 0 1
|  3> C         -7.33044       -2.67899       -3.20681
|  4> S         -6.01966       -2.92697       -4.41913
|  5> O         -5.64583       -1.58838       -4.91931
|  6> F         -4.88196       -3.50370       -3.66724
|  7> O         -6.54927       -3.80515       -5.42507
|  8> C         -7.46900       -1.24615       -2.71383
|  9> H         -7.11825       -3.37982       -2.39805
| 10> H         -8.24184       -3.00474       -3.70651
| 11> H         -7.67580       -0.60214       -3.54292
| 12> H         -6.55749       -0.94096       -2.24382
| 13> H         -8.27114       -1.18777       -2.00810
| 14> *
| 15> %MaxCore 64000
| 16>
| 17> %pal nprocs 4
| 18> end
| 19>
| 20> %scf
| 21>   MaxIter 150
| 22> end
| 23>
| 24>
| 25>                          ****END OF INPUT****

CARTESIAN COORDINATES (ANGSTROEM)
---------------------------------
  C     -7.330440   -2.678990   -3.206810
  S     -6.019660   -2.926970   -4.419130
  O     -5.645830   -1.588380   -4.919310
  F     -4.881960   -3.503700   -3.667240
  O     -6.549270   -3.805150   -5.425070
  C     -7.469000   -1.246150   -2.713830
  H     -7.118250   -3.379820   -2.398050
  H     -8.241840   -3.004740   -3.706510
  H     -7.675800   -0.602140   -3.542920
  H     -6.557490   -0.940960   -2.243820
  H     -8.271140   -1.187770   -2.008100

 Total Charge           Charge          ....    0
 Multiplicity           Mult            ....    1
 Number of Electrons    NEL             ....   58
 Basis Dimension        Dim             ....  222

ORBITAL ENERGIES
----------------

  NO   OCC          E(Eh)            E(eV)
   0   2.0000     -89.259385     -2428.8713
   1   2.0000     -24.872688      -676.8203
   2   2.0000     -19.220137      -523.0065
   3   2.0000     -19.208844      -522.6992
   4   2.0000     -10.285608      -279.8856
   5   2.0000     -10.237686      -278.5816
   6   2.0000      -8.205487      -223.2826
   7   2.0000      -6.145846      -167.2370
   8   2.0000      -6.139746      -167.0710
   9   2.0000      -6.139100      -167.0534
  10   2.0000      -1.384023       -37.6612
  11   2.0000      -1.135590       -30.9010
  12   2.0000      -1.038422       -28.2569
  13   2.0000      -0.847879       -23.0720
  14   2.0000      -0.745991       -20.2994
  15   2.0000      -0.688945       -18.7471
  16   2.0000      -0.593289       -16.1442
  17   2.0000      -0.581072       -15.8118
  18   2.0000      -0.568216       -15.4619
  19   2.0000      -0.508479       -13.8364
  20   2.0000      -0.496471       -13.5097
  21   2.0000      -0.469392       -12.7728
  22   2.0000      -0.443019       -12.0552
  23   2.0000      -0.417260       -11.3542
  24   2.0000      -0.411069       -11.1858
  25   2.0000      -0.396707       -10.7950
  26   2.0000      -0.348042        -9.4707
  27   2.0000      -0.341224        -9.2852
  28   2.0000      -0.325726        -8.8635
  29   0.0000       0.025513         0.6942
  30   0.0000       0.034810         0.9472
  31   0.0000       0.060729         1.6525
  32   0.0000       0.083142         2.2624
  33   0.0000       0.084199         2.2912

MULLIKEN ATOMIC CHARGES
-----------------------
   0 C :   -0.273686
   1 S :    0.841818
   2 O :   -0.437755
   3 F :   -0.117940
   4 O :   -0.399981
   5 C :   -0.337055
   6 H :    0.142418
   7 H :    0.166814
   8 H :    0.153058
   9 H :    0.130419
  10 H :    0.131892
Sum of atomic charges:    0.0000000

LOEWDIN ATOMIC CHARGES
----------------------
   0 C :   -0.394857
   1 S :    0.545676
   2 O :   -0.296845
   3 F :    0.050535
   4 O :   -0.255605
   5 C :   -0.313789
   6 H :    0.136972
   7 H :    0.148846
   8 H :    0.129448
   9 H :    0.124656
  10 H :    0.124962

  Mayer bond orders larger than 0.100000
B(  0-C ,  1-S ) :   0.9016 B(  0-C ,  5-C ) :   1.0044 B(  0-C ,  6-H ) :   0.9407
B(  0-C ,  7-H ) :   0.9354 B(  1-S ,  2-O ) :   1.8967 B(  1-S ,  3-F ) :   1.1131
B(  1-S ,  4-O ) :   1.9582 B(  5-C ,  8-H ) :   0.9631 B(  5-C ,  9-H ) :   0.9669
B(  5-C , 10-H ) :   0.9506

Dispersion correction           -0.007860089
FINAL SINGLE POINT ENERGY      -727.362382865384

DIPOLE MOMENT
-------------
                                X             Y             Z
Electronic contribution:      6.99914      -4.98361      -4.29132
Nuclear contribution   :     -7.60849       4.87515       5.84588
                        -----------------------------------------
Total Dipole Moment    :     -0.60935      -0.10846       1.55456
                        -----------------------------------------
Magnitude (a.u.)       :      1.67324
Magnitude (Debye)      :      4.25304

Rotational constants in cm-1:     0.153704     0.080342     0.079431
Rotational constants in MHz :  4607.928650  2408.599360  2381.267225

                             ****ORCA TERMINATED NORMALLY****
TOTAL RUN TIME: 0 days 0 hours 0 minutes 29 seconds 122 msec
