                         Program Version 5.0.0 -  RELEASE  -
|  1> !PBE0 D3BJ RIJCOSX def2-TZVP def2/J TightSCF
|  2> *xyz 0 1
|  3> C         -7.33044       -2.67899       -3.20681
|  4> S         -6.01966       -2.92697       -4.41913
|  5> O         -5.64583       -1.58838       -4.91931
|  6> O         -4.88196       -3.50370       -3.66724
|  7> F         -6.54927       -3.80515       -5.42507
|  8> C         -7.46900       -1.24615       -2.71383
|  9> H         -7.11825       -3.37982       -2.39805
| 10> H         -8.24184       -3.00474       -3.70651
| 11> H         -7.67580       -0.60214       -3.54292
| 12> H         -6.55749       -0.94096       -2.24382
| 13> H         -8.27114       -1.18777       -2.00810
| 14> *
| 15> %MaxCore 64000
| 16>
| 17> %pal nprocs 4
| 18> end
| 19>
| 20> %scf
| 21>   MaxIter 150
| 22> end
| 23>
| 24>
| 25>                          ****END OF INPUT****

CARTESIAN COORDINATES (ANGSTROEM)
---------------------------------
  C     -7.330440   -2.678990   -3.206810
  S     -6.019660   -2.926970   -4.419130
  O     -5.645830   -1.588380   -4.919310
  O     -4.881960   -3.503700   -3.667240
  F     -6.549270   -3.805150   -5.425070
  C     -7.469000   -1.246150   -2.713830
  H     -7.118250   -3.379820   -2.398050
  H     -8.241840   -3.004740   -3.706510
  H     -7.675800   -0.602140   -3.542920
  H     -6.557490   -0.940960   -2.243820
  H     -8.271140   -1.187770   -2.008100

 Total Charge           Charge          ....    0
 Multiplicity           Mult            ....    1
 Number of Electrons    NEL             ....   58
 Basis Dimension        Dim             ....  222

ORBITAL ENERGIES
----------------

  NO   OCC          E(Eh)            E(eV)
   0   2.0000     -89.261666     -2428.9334
   1   2.0000     -24.895087      -677.4298
   2   2.0000     -19.209062      -522.7051
   3   2.0000     -19.205867      -522.6182
   4   2.0000     -10.286223      -279.9024
   5   2.0000     -10.237838      -278.5857
   6   2.0000      -8.207708      -223.3431
   7   2.0000      -6.148005      -167.2957
   8   2.0000      -6.141823      -167.1275
   9   2.0000      -6.141394      -167.1158
  10   2.0000      -1.421119       -38.6706
  11   2.0000      -1.119091       -30.4520
  12   2.0000      -1.021287       -27.7906
  13   2.0000      -0.848098       -23.0779
  14   2.0000      -0.760591       -20.6967
  15   2.0000      -0.696505       -18.9529
  16   2.0000      -0.609419       -16.5831
  17   2.0000      -0.607182       -16.5223
  18   2.0000      -0.572878       -15.5888
  19   2.0000      -0.509805       -13.8725
  20   2.0000      -0.495211       -13.4754
  21   2.0000      -0.458646       -12.4804
  22   2.0000      -0.439961       -11.9720
  23   2.0000      -0.419420       -11.4130
  24   2.0000      -0.402702       -10.9581
  25   2.0000      -0.391924       -10.6648
  26   2.0000      -0.339603        -9.2411
  27   2.0000      -0.332954        -9.0601
  28   2.0000      -0.311809        -8.4847
  29   0.0000       0.027900         0.7592
  30   0.0000       0.032529         0.8852
  31   0.0000       0.057081         1.5533
  32   0.0000       0.080940         2.2025
  33   0.0000       0.081566         2.2195

MULLIKEN ATOMIC CHARGES
-----------------------
   0 C :   -0.265357
   1 S :    0.837205
   2 O :   -0.430130
   3 O :   -0.435015
   4 F :   -0.087177
   5 C :   -0.340804
   6 H :    0.164237
   7 H :    0.134101
   8 H :    0.142857
   9 H :    0.147127
  10 H :    0.132957
Sum of atomic charges:   -0.0000000

LOEWDIN ATOMIC CHARGES
----------------------
   0 C :   -0.397269
   1 S :    0.537845
   2 O :   -0.293529
   3 O :   -0.306505
   4 F :    0.104587
   5 C :   -0.308122
   6 H :    0.145742
   7 H :    0.134092
   8 H :    0.127449
   9 H :    0.129862
  10 H :    0.125848

  Mayer bond orders larger than 0.100000
B(  0-C ,  1-S ) :   0.9053 B(  0-C ,  5-C ) :   1.0105 B(  0-C ,  6-H ) :   0.9344
B(  0-C ,  7-H ) :   0.9354 B(  1-S ,  2-O ) :   1.8991 B(  1-S ,  3-O ) :   1.9064
B(  1-S ,  4-F ) :   1.1565 B(  5-C ,  8-H ) :   0.9627 B(  5-C ,  9-H ) :   0.9656
B(  5-C , 10-H ) :   0.9500

Dispersion correction           -0.007873420
FINAL SINGLE POINT ENERGY      -727.344043323116

DIPOLE MOMENT
-------------
                                X             Y             Z
Electronic contribution:      4.16410      -5.47823      -7.28390
Nuclear contribution   :     -5.87110       5.18927       7.67759
                        -----------------------------------------
Total Dipole Moment    :     -1.70700      -0.28895       0.39370
                        -----------------------------------------
Magnitude (a.u.)       :      1.77548
Magnitude (Debye)      :      4.51292

Rotational constants in cm-1:     0.155988     0.080452     0.078187
Rotational constants in MHz :  4676.405251  2411.902056  2343.983816

                             ****ORCA TERMINATED NORMALLY****
TOTAL RUN TIME: 0 days 0 hours 0 minutes 27 seconds 255 msec
