                         Program Version 5.0.0 -  RELEASE  -
|  1> !wB97X-D3 RIJCOSX def2-TZVPD def2/J TightSCF
|  2> *xyz -1 1
|  3> C         -0.10608        1.76991       -4.08984
|  4> C         -0.25875        1.00432       -5.40983
|  5> C          0.39596       -0.37070       -5.33994
|  6> H          0.23915        1.56939       -6.20125
|  7> H         -1.30936        0.88869       -5.68245
|  8> O         -0.32633       -1.39040       -5.49128
|  9> O          1.61941       -0.40073       -5.03683
| 10> H         -0.57627        2.72718       -4.17630
| 11> H          0.93321        1.90140       -3.87192
| 12> H         -0.56868        1.21534       -3.30031
| 13> *
| 14> %MaxCore 64000
| 15>
| 16> %pal nprocs 4
| 17> end
| 18>
| 19> %scf
| 20>   MaxIter 150
| 21> end
| 22>
| 23>
| 24>                          ****END OF INPUT****

CARTESIAN COORDINATES (ANGSTROEM)
---------------------------------
  C     -0.106080    1.769910   -4.089840
  C     -0.258750    1.004320   -5.409830
  C      0.395960   -0.370700   -5.339940
  H      0.239150    1.569390   -6.201250
  H     -1.309360    0.888690   -5.682450
  O     -0.326330   -1.390400   -5.491280
  O      1.619410   -0.400730   -5.036830
  H     -0.576270    2.727180   -4.176300
  H      0.933210    1.901400   -3.871920
  H     -0.568680    1.215340   -3.300310

 Total Charge           Charge          ....   -1
 Multiplicity           Mult            ....    1
 Number of Electrons    NEL             ....   40
 Basis Dimension        Dim             ....  236

ORBITAL ENERGIES
----------------

  NO   OCC          E(Eh)            E(eV)
   0   2.0000     -18.963792      -516.0310
   1   2.0000     -18.962162      -515.9866
   2   2.0000     -10.157594      -276.4022
   3   2.0000     -10.110693      -275.1259
   4   2.0000     -10.101475      -274.8751
   5   2.0000      -0.933528       -25.4026
   6   2.0000      -0.837567       -22.7914
   7   2.0000      -0.722485       -19.6598
   8   2.0000      -0.587130       -15.9766
   9   2.0000      -0.425726       -11.5846
  10   2.0000      -0.394520       -10.7354
  11   2.0000      -0.361723        -9.8430
  12   2.0000      -0.328886        -8.9494
  13   2.0000      -0.311880        -8.4867
  14   2.0000      -0.305726        -8.3192
  15   2.0000      -0.272933        -7.4269
  16   2.0000      -0.256979        -6.9928
  17   2.0000      -0.139145        -3.7863
  18   2.0000      -0.135007        -3.6737
  19   2.0000      -0.121256        -3.2995
  20   0.0000       0.192561         5.2398
  21   0.0000       0.213499         5.8096
  22   0.0000       0.219852         5.9825
  23   0.0000       0.234089         6.3699
  24   0.0000       0.261471         7.1150

MULLIKEN ATOMIC CHARGES
-----------------------
   0 C :   -1.077262
   1 C :   -0.014279
   2 C :    0.373376
   3 H :    0.194125
   4 H :    0.207570
   5 O :   -0.765431
   6 O :   -0.769497
   7 H :    0.282368
   8 H :    0.267732
   9 H :    0.301298
Sum of atomic charges:   -1.0000000

LOEWDIN ATOMIC CHARGES
----------------------
   0 C :   -0.129941
   1 C :   -0.212077
   2 C :   -0.768314
   3 H :    0.094020
   4 H :    0.088910
   5 O :   -0.117597
   6 O :   -0.116855
   7 H :    0.043240
   8 H :    0.055810
   9 H :    0.062804

  Mayer bond orders larger than 0.100000
B(  0-C ,  1-C ) :   0.5690 B(  0-C ,  2-C ) :   0.1885 B(  0-C ,  7-H ) :   0.9334
B(  0-C ,  8-H ) :   1.0139 B(  0-C ,  9-H ) :   0.9566 B(  1-C ,  2-C ) :   0.9178
B(  1-C ,  3-H ) :   0.9561 B(  1-C ,  4-H ) :   1.0087 B(  2-C ,  5-O ) :   1.4455
B(  2-C ,  6-O ) :   1.4754

Dispersion correction           -0.001961723
FINAL SINGLE POINT ENERGY      -267.870712558702

DIPOLE MOMENT
-------------
                                X             Y             Z
Electronic contribution:      1.72736      -5.27305      -1.70013
Nuclear contribution   :     -2.46071       7.20791       1.95694
                        -----------------------------------------
Total Dipole Moment    :     -0.73336       1.93486       0.25681
                        -----------------------------------------
Magnitude (a.u.)       :      2.08506
Magnitude (Debye)      :      5.29979

Rotational constants in cm-1:     0.309435     0.135317     0.107436
Rotational constants in MHz :  9276.637721  4056.700783  3220.846587

                             ****ORCA TERMINATED NORMALLY****
TOTAL RUN TIME: 0 days 0 hours 0 minutes 46 seconds 529 msec
