                         Program Version 5.0.0 -  RELEASE  -
|  1> !wB97X-D3 RIJCOSX def2-TZVPD def2/J TightSCF
|  2> *xyz 0 1
|  3> C         -0.10608        1.76991       -4.08984
|  4> C         -0.25875        1.00432       -5.40983
|  5> C          0.39596       -0.37070       -5.33994
|  6> H          0.23915        1.56939       -6.20125
|  7> H         -1.30936        0.88869       -5.68245
|  8> F         -0.32633       -1.39040       -5.49128
|  9> O          1.61941       -0.40073       -5.03683
| 10> H         -0.57627        2.72718       -4.17630
| 11> H          0.93321        1.90140       -3.87192
| 12> H         -0.56868        1.21534       -3.30031
| 13> *
| 14> %MaxCore 64000
| 15>
| 16> %pal nprocs 4
| 17> end
| 18>
| 19> %scf
| 20>   MaxIter 150
| 21> end
| 22>
| 23>
| 24>                          ****END OF INPUT****

CARTESIAN COORDINATES (ANGSTROEM)
---------------------------------
  C     -0.106080    1.769910   -4.089840
  C     -0.258750    1.004320   -5.409830
  C      0.395960   -0.370700   -5.339940
  H      0.239150    1.569390   -6.201250
  H     -1.309360    0.888690   -5.682450
  F     -0.326330   -1.390400   -5.491280
  O      1.619410   -0.400730   -5.036830
  H     -0.576270    2.727180   -4.176300
  H      0.933210    1.901400   -3.871920
  H     -0.568680    1.215340   -3.300310

 Total Charge           Charge          ....    0
 Multiplicity           Mult            ....    1
 Number of Electrons    NEL             ....   40
 Basis Dimension        Dim             ....  236

ORBITAL ENERGIES
----------------

  NO   OCC          E(Eh)            E(eV)
   0   2.0000     -24.855767      -676.3598
   1   2.0000     -19.235371      -523.4211
   2   2.0000     -10.456102      -284.5250
   3   2.0000     -10.309076      -280.5242
   4   2.0000     -10.279285      -279.7136
   5   2.0000      -1.434284       -39.0289
   6   2.0000      -1.146279       -31.1918
   7   2.0000      -0.919069       -25.0091
   8   2.0000      -0.802414       -21.8348
   9   2.0000      -0.747628       -20.3440
  10   2.0000      -0.653455       -17.7814
  11   2.0000      -0.639348       -17.3975
  12   2.0000      -0.613858       -16.7039
  13   2.0000      -0.567718       -15.4484
  14   2.0000      -0.534728       -14.5507
  15   2.0000      -0.497059       -13.5257
  16   2.0000      -0.475379       -12.9357
  17   2.0000      -0.471266       -12.8238
  18   2.0000      -0.440430       -11.9847
  19   2.0000      -0.389643       -10.6027
  20   0.0000       0.049780         1.3546
  21   0.0000       0.065291         1.7767
  22   0.0000       0.088323         2.4034
  23   0.0000       0.094430         2.5696
  24   0.0000       0.104654         2.8478

MULLIKEN ATOMIC CHARGES
-----------------------
   0 C :   -1.139149
   1 C :   -0.123384
   2 C :    0.580818
   3 H :    0.249462
   4 H :    0.269563
   5 F :   -0.227056
   6 O :   -0.568038
   7 H :    0.304791
   8 H :    0.313090
   9 H :    0.339903
Sum of atomic charges:    0.0000000

LOEWDIN ATOMIC CHARGES
----------------------
   0 C :   -0.088223
   1 C :   -0.157032
   2 C :   -0.472431
   3 H :    0.121477
   4 H :    0.109643
   5 F :    0.201311
   6 O :    0.066846
   7 H :    0.069730
   8 H :    0.073235
   9 H :    0.075444

  Mayer bond orders larger than 0.100000
B(  0-C ,  1-C ) :   0.6420 B(  0-C ,  2-C ) :   0.1641 B(  0-C ,  7-H ) :   0.9437
B(  0-C ,  8-H ) :   0.9883 B(  0-C ,  9-H ) :   0.9148 B(  1-C ,  2-C ) :   0.9099
B(  1-C ,  3-H ) :   0.9421 B(  1-C ,  4-H ) :   0.9522 B(  2-C ,  5-F ) :   0.9621
B(  2-C ,  6-O ) :   1.6831

Dispersion correction           -0.001915525
FINAL SINGLE POINT ENERGY      -292.438009509468

DIPOLE MOMENT
-------------
                                X             Y             Z
Electronic contribution:      0.83008      -8.17735      -2.57285
Nuclear contribution   :     -1.80992       8.85192       2.42184
                        -----------------------------------------
Total Dipole Moment    :     -0.97984       0.67457      -0.15100
                        -----------------------------------------
Magnitude (a.u.)       :      1.19914
Magnitude (Debye)      :      3.04797

Rotational constants in cm-1:     0.298360     0.128849     0.102271
Rotational constants in MHz :  8944.606599  3862.796179  3066.020510

                             ****ORCA TERMINATED NORMALLY****
TOTAL RUN TIME: 0 days 0 hours 0 minutes 45 seconds 558 msec
