                         Program Version 5.0.0 -  RELEASE  -
|  1> !wB97X-D3 RIJCOSX def2-TZVPD def2/J TightSCF
|  2> *xyz 0 1
|  3> C          0.81607       -2.10149       -2.18655
|  4> H          1.69623       -2.36869       -1.60046
|  5> C          1.10055       -2.46749       -3.59927
|  6> C          0.51624       -0.61363       -2.03937
|  7> H         -0.02007       -2.71285       -1.84084
|  8> H          1.70061       -1.75723       -4.07838
|  9> H          0.29386       -2.35977       -4.25632
| 10> H          1.50132       -3.42848       -3.69491
| 11> H         -0.34841       -0.36504       -2.61858
| 12> H          1.35358       -0.04503       -2.38643
| 13> H          0.33317       -0.38682       -1.00984
| 14> *
| 15> %MaxCore 64000
| 16>
| 17> %pal nprocs 4
| 18> end
| 19>
| 20> %scf
| 21>   MaxIter 150
| 22> end
| 23>
| 24>
| 25>                          ****END OF INPUT****

CARTESIAN COORDINATES (ANGSTROEM)
---------------------------------
  C      0.816070   -2.101490   -2.186550
  H      1.696230   -2.368690   -1.600460
  C      1.100550   -2.467490   -3.599270
  C      0.516240   -0.613630   -2.039370
  H     -0.020070   -2.712850   -1.840840
  H      1.700610   -1.757230   -4.078380
  H      0.293860   -2.359770   -4.256320
  H      1.501320   -3.428480   -3.694910
  H     -0.348410   -0.365040   -2.618580
  H      1.353580   -0.045030   -2.386430
  H      0.333170   -0.386820   -1.009840

 Total Charge           Charge          ....    0
 Multiplicity           Mult            ....    1
 Number of Electrons    NEL             ....   26
 Basis Dimension        Dim             ....  183

ORBITAL ENERGIES
----------------

  NO   OCC          E(Eh)            E(eV)
   0   2.0000     -10.262343      -279.2525
   1   2.0000     -10.251208      -278.9496
   2   2.0000     -10.237716      -278.5824
   3   2.0000      -0.906864       -24.6770
   4   2.0000      -0.802147       -21.8275
   5   2.0000      -0.699456       -19.0332
   6   2.0000      -0.562219       -15.2988
   7   2.0000      -0.546790       -14.8789
   8   2.0000      -0.510266       -13.8851
   9   2.0000      -0.472516       -12.8578
  10   2.0000      -0.435247       -11.8437
  11   2.0000      -0.429928       -11.6989
  12   2.0000      -0.413675       -11.2567
  13   0.0000       0.077140         2.0991
  14   0.0000       0.095979         2.6117
  15   0.0000       0.097538         2.6542
  16   0.0000       0.130260         3.5446
  17   0.0000       0.150117         4.0849

MULLIKEN ATOMIC CHARGES
-----------------------
   0 C :    0.099784
   1 H :    0.252150
   2 C :   -1.409221
   3 C :   -1.192239
   4 H :    0.240564
   5 H :    0.362411
   6 H :    0.383193
   7 H :    0.321076
   8 H :    0.321247
   9 H :    0.327580
  10 H :    0.293455
Sum of atomic charges:   -0.0000000

LOEWDIN ATOMIC CHARGES
----------------------
   0 C :   -0.319070
   1 H :    0.102613
   2 C :   -0.142974
   3 C :   -0.119127
   4 H :    0.103754
   5 H :    0.058366
   6 H :    0.060462
   7 H :    0.060293
   8 H :    0.067675
   9 H :    0.066642
  10 H :    0.061367

  Mayer bond orders larger than 0.100000
B(  0-C ,  1-H ) :   0.9666 B(  0-C ,  2-C ) :   0.5566 B(  0-C ,  3-C ) :   0.5849
B(  0-C ,  4-H ) :   0.9618 B(  2-C ,  3-C ) :   0.2347 B(  2-C ,  5-H ) :   0.9364
B(  2-C ,  6-H ) :   0.9372 B(  2-C ,  7-H ) :   0.9516 B(  3-C ,  8-H ) :   0.9598
B(  3-C ,  9-H ) :   0.9659 B(  3-C , 10-H ) :   0.9788

Dispersion correction           -0.001479541
FINAL SINGLE POINT ENERGY      -119.141014314779

DIPOLE MOMENT
-------------
                                X             Y             Z
Electronic contribution:     -0.01878      -0.30730       0.46300
Nuclear contribution   :      0.01737       0.30387      -0.47422
                        -----------------------------------------
Total Dipole Moment    :     -0.00140      -0.00342      -0.01122
                        -----------------------------------------
Magnitude (a.u.)       :      0.01181
Magnitude (Debye)      :      0.03002

Rotational constants in cm-1:     1.006891     0.295208     0.258491
Rotational constants in MHz : 30185.831813  8850.104914  7749.351732

                             ****ORCA TERMINATED NORMALLY****
TOTAL RUN TIME: 0 days 0 hours 0 minutes 27 seconds 375 msec
