                         Program Version 5.0.0 -  RELEASE  -
|  1> !wB97X-D3 RIJCOSX def2-TZVPD def2/J TightSCF
|  2> *xyz 0 1
|  3> C         -0.10608        1.76991       -4.08984
|  4> C         -0.25875        1.00432       -5.40983
|  5> C          0.39596       -0.37070       -5.33994
|  6> H          0.23915        1.56939       -6.20125
|  7> H         -1.30936        0.88869       -5.68245
|  8> O         -0.32633       -1.39040       -5.49128
|  9> F          1.61941       -0.40073       -5.03683
| 10> H         -0.57627        2.72718       -4.17630
| 11> H          0.93321        1.90140       -3.87192
| 12> H         -0.56868        1.21534       -3.30031
| 13> *
| 14> %MaxCore 64000
| 15>
| 16> %pal nprocs 4
| 17> end
| 18>
| 19> %scf
| 20>   MaxIter 150
| 21> end
| 22>
| 23>
| 24>                          ****END OF INPUT****

CARTESIAN COORDINATES (ANGSTROEM)
---------------------------------
  C     -0.106080    1.769910   -4.089840
  C     -0.258750    1.004320   -5.409830
  C      0.395960   -0.370700   -5.339940
  H      0.239150    1.569390   -6.201250
  H     -1.309360    0.888690   -5.682450
  O     -0.326330   -1.390400   -5.491280
  F      1.619410   -0.400730   -5.036830
  H     -0.576270    2.727180   -4.176300
  H      0.933210    1.901400   -3.871920
  H     -0.568680    1.215340   -3.300310

 Total Charge           Charge          ....    0
 Multiplicity           Mult            ....    1
 Number of Electrons    NEL             ....   40
 Basis Dimension        Dim             ....  236

ORBITAL ENERGIES
----------------

  NO   OCC          E(Eh)            E(eV)
   0   2.0000     -24.854376      -676.3219
   1   2.0000     -19.236275      -523.4456
   2   2.0000     -10.455339      -284.5042
   3   2.0000     -10.308895      -280.5193
   4   2.0000     -10.284409      -279.8530
   5   2.0000      -1.432837       -38.9895
   6   2.0000      -1.146375       -31.1945
   7   2.0000      -0.923783       -25.1374
   8   2.0000      -0.799715       -21.7614
   9   2.0000      -0.751398       -20.4466
  10   2.0000      -0.654980       -17.8229
  11   2.0000      -0.643093       -17.4995
  12   2.0000      -0.606230       -16.4963
  13   2.0000      -0.568218       -15.4620
  14   2.0000      -0.535937       -14.5836
  15   2.0000      -0.500648       -13.6233
  16   2.0000      -0.481596       -13.1049
  17   2.0000      -0.474975       -12.9247
  18   2.0000      -0.445409       -12.1202
  19   2.0000      -0.386317       -10.5122
  20   0.0000       0.052502         1.4286
  21   0.0000       0.065290         1.7766
  22   0.0000       0.087280         2.3750
  23   0.0000       0.093674         2.5490
  24   0.0000       0.104726         2.8497

MULLIKEN ATOMIC CHARGES
-----------------------
   0 C :   -1.153932
   1 C :   -0.103904
   2 C :    0.580648
   3 H :    0.269478
   4 H :    0.238367
   5 O :   -0.567404
   6 F :   -0.233474
   7 H :    0.301135
   8 H :    0.321828
   9 H :    0.347258
Sum of atomic charges:   -0.0000000

LOEWDIN ATOMIC CHARGES
----------------------
   0 C :   -0.090564
   1 C :   -0.152742
   2 C :   -0.478856
   3 H :    0.117849
   4 H :    0.118956
   5 O :    0.069485
   6 F :    0.198527
   7 H :    0.070375
   8 H :    0.069873
   9 H :    0.077097

  Mayer bond orders larger than 0.100000
B(  0-C ,  1-C ) :   0.5971 B(  0-C ,  2-C ) :   0.1541 B(  0-C ,  7-H ) :   0.9559
B(  0-C ,  8-H ) :   0.9549 B(  0-C ,  9-H ) :   0.9348 B(  1-C ,  2-C ) :   0.9222
B(  1-C ,  3-H ) :   0.9302 B(  1-C ,  4-H ) :   0.9866 B(  2-C ,  5-O ) :   1.6596
B(  2-C ,  6-F ) :   0.9561

Dispersion correction           -0.001926137
FINAL SINGLE POINT ENERGY      -292.439419376581

DIPOLE MOMENT
-------------
                                X             Y             Z
Electronic contribution:      4.08277      -6.49074      -1.80567
Nuclear contribution   :     -3.93139       7.77287       1.92635
                        -----------------------------------------
Total Dipole Moment    :      0.15138       1.28213       0.12068
                        -----------------------------------------
Magnitude (a.u.)       :      1.29666
Magnitude (Debye)      :      3.29586

Rotational constants in cm-1:     0.286068     0.133630     0.103472
Rotational constants in MHz :  8576.109806  4006.118234  3102.010802

                             ****ORCA TERMINATED NORMALLY****
TOTAL RUN TIME: 0 days 0 hours 0 minutes 45 seconds 724 msec
