                         Program Version 5.0.0 -  RELEASE  -
|  1> !wB97X-D3 RIJCOSX def2-TZVPD def2/J TightSCF xyzfile
|  2>
|  3> *xyzfile 0 1 D2.xyz
|  4>
|  5> %MaxCore 64000
|  6>
|  7> %pal nprocs 18
|  8> end
|  9>
| 10> %scf
| 11>   MaxIter 150
| 12> end
| 13>
| 14>
| 15>                          ****END OF INPUT****

CARTESIAN COORDINATES (ANGSTROEM)
---------------------------------
  C      0.816067   -2.101491   -2.186546
  H      1.696232   -2.368691   -1.600457
  C      1.100552   -2.467492   -3.599269
  C      0.516243   -0.613634   -2.039373
  H     -0.020066   -2.712849   -1.840844
  C     -0.868621   -0.193925   -2.546303
  C     -0.984801    1.284739   -2.928686
  H     -0.764939    1.904116   -2.051568
  H     -2.032613    1.478953   -3.178952
  C     -0.106085    1.769914   -4.089836
  H     -0.347744    2.822196   -4.262942
  H      0.949683    1.745875   -3.808781
  C     -0.258747    1.004323   -5.409829
  C      0.395958   -0.370696   -5.339939
  H      0.239150    1.569393   -6.201253
  H     -1.309360    0.888694   -5.682455
  H      1.700606   -1.757225   -4.078378
  H      0.293855   -2.359766   -4.256324
  H      1.501324   -3.428479   -3.694915
  O     -0.326329   -1.390398   -5.491279
  F      1.619412   -0.400726   -5.036827
  H     -1.607271   -0.412651   -1.768955
  H     -1.157234   -0.796164   -3.409254
  H      1.299044   -0.056805   -2.558982
  H      0.612393   -0.365579   -0.979171

 Total Charge           Charge          ....    0
 Multiplicity           Mult            ....    1
 Number of Electrons    NEL             ....   80
 Basis Dimension        Dim             ....  511

ORBITAL ENERGIES
----------------

  NO   OCC          E(Eh)            E(eV)
   0   2.0000     -24.864031      -676.5847
   1   2.0000     -19.241971      -523.6007
   2   2.0000     -10.464124      -284.7433
   3   2.0000     -10.310236      -280.5558
   4   2.0000     -10.293997      -280.1139
   5   2.0000     -10.278110      -279.6816
   6   2.0000     -10.265019      -279.3254
   7   2.0000     -10.260497      -279.2023
   8   2.0000     -10.247923      -278.8602
   9   2.0000     -10.196828      -277.4698
  10   2.0000      -1.448044       -39.4033
  11   2.0000      -1.161352       -31.6020
  12   2.0000      -0.946828       -25.7645
  13   2.0000      -0.912596       -24.8330
  14   2.0000      -0.862270       -23.4636
  15   2.0000      -0.820443       -22.3254
  16   2.0000      -0.775540       -21.1035
  17   2.0000      -0.751029       -20.4365
  18   2.0000      -0.711036       -19.3483
  19   2.0000      -0.670986       -18.2585
  20   2.0000      -0.667049       -18.1513
  21   2.0000      -0.652060       -17.7434
  22   2.0000      -0.616700       -16.7813
  23   2.0000      -0.582082       -15.8393
  24   2.0000      -0.559438       -15.2231
  25   2.0000      -0.545493       -14.8436
  26   2.0000      -0.540694       -14.7130
  27   2.0000      -0.529292       -14.4028
  28   2.0000      -0.513896       -13.9838
  29   2.0000      -0.489756       -13.3269
  30   2.0000      -0.481733       -13.1086
  31   2.0000      -0.472919       -12.8688
  32   2.0000      -0.464240       -12.6326
  33   2.0000      -0.444492       -12.0952
  34   2.0000      -0.424727       -11.5574
  35   2.0000      -0.423124       -11.5138
  36   2.0000      -0.409237       -11.1359
  37   2.0000      -0.394142       -10.7251
  38   2.0000      -0.393518       -10.7082
  39   2.0000      -0.357770        -9.7354
  40   0.0000       0.041196         1.1210
  41   0.0000       0.063469         1.7271
  42   0.0000       0.078113         2.1255
  43   0.0000       0.079792         2.1713
  44   0.0000       0.085652         2.3307

MULLIKEN ATOMIC CHARGES
-----------------------
   0 C :   -0.188147
   1 H :    0.251169
   2 C :   -1.656265
   3 C :   -0.389574
   4 H :    0.234500
   5 C :   -0.523406
   6 C :   -0.653954
   7 H :    0.265325
   8 H :    0.307854
   9 C :   -0.590016
  10 H :    0.262994
  11 H :    0.305828
  12 C :   -0.385197
  13 C :    0.599458
  14 H :    0.333465
  15 H :    0.250160
  16 H :    0.434947
  17 H :    0.529979
  18 H :    0.408551
  19 O :   -0.641772
  20 F :   -0.303054
  21 H :    0.334828
  22 H :    0.294966
  23 H :    0.176738
  24 H :    0.340624
Sum of atomic charges:   -0.0000000

LOEWDIN ATOMIC CHARGES
----------------------
   0 C :   -0.242029
   1 H :    0.105608
   2 C :   -0.123356
   3 C :   -0.207544
   4 H :    0.112921
   5 C :   -0.199669
   6 C :   -0.200920
   7 H :    0.113818
   8 H :    0.111682
   9 C :   -0.199115
  10 H :    0.112326
  11 H :    0.106137
  12 C :   -0.082185
  13 C :   -0.454902
  14 H :    0.124759
  15 H :    0.130150
  16 H :    0.041178
  17 H :    0.021501
  18 H :    0.074243
  19 O :    0.050607
  20 F :    0.176431
  21 H :    0.116996
  22 H :    0.100406
  23 H :    0.099668
  24 H :    0.111288

  Mayer bond orders larger than 0.100000
B(  0-C ,  1-H ) :   0.9408 B(  0-C ,  2-C ) :   0.4470 B(  0-C ,  3-C ) :   0.9188
B(  0-C ,  4-H ) :   0.9392 B(  0-C ,  5-C ) :   0.3798 B(  2-C , 13-C ) :   0.1032
B(  2-C , 16-H ) :   0.9328 B(  2-C , 17-H ) :   0.8985 B(  2-C , 18-H ) :   0.8148
B(  3-C ,  5-C ) :   0.4479 B(  3-C ,  6-C ) :   0.3095 B(  3-C ,  9-C ) :   0.1139
B(  3-C , 23-H ) :   1.0424 B(  3-C , 24-H ) :   0.8622 B(  5-C ,  6-C ) :   0.9866
B(  5-C , 13-C ) :   0.1366 B(  5-C , 21-H ) :   0.9245 B(  5-C , 22-H ) :   0.9870
B(  6-C ,  7-H ) :   0.9769 B(  6-C ,  8-H ) :   0.9242 B(  6-C ,  9-C ) :   0.9241
B(  6-C , 12-C ) :   0.1126 B(  9-C , 10-H ) :   0.9654 B(  9-C , 11-H ) :   0.9048
B(  9-C , 12-C ) :   0.8433 B(  9-C , 13-C ) :   0.1603 B( 12-C , 13-C ) :   0.9435
B( 12-C , 14-H ) :   0.8603 B( 12-C , 15-H ) :   1.0156 B( 13-C , 19-O ) :   1.5920
B( 13-C , 20-F ) :   0.8223 B( 17-H , 19-O ) :  -0.1222

Dispersion correction           -0.010991985
FINAL SINGLE POINT ENERGY      -488.971020747448

DIPOLE MOMENT
-------------
                                X             Y             Z
Electronic contribution:      3.60075      -0.30710      -9.81421
Nuclear contribution   :     -3.57245       1.60200       9.69133
                        -----------------------------------------
Total Dipole Moment    :      0.02830       1.29490      -0.12287
                        -----------------------------------------
Magnitude (a.u.)       :      1.30103
Magnitude (Debye)      :      3.30695

Rotational constants in cm-1:     0.051520     0.042563     0.028962
Rotational constants in MHz :  1544.537298  1275.996546   868.258224

                             ****ORCA TERMINATED NORMALLY****
TOTAL RUN TIME: 0 days 0 hours 2 minutes 1 seconds 563 msec
