                         Program Version 5.0.0 -  RELEASE  -
|  1> !PBE0 D3BJ RIJCOSX def2-TZVP def2/J TightSCF
|  2> *xyz -1 1
|  3> C          4.90646       -3.10282       -5.95484
|  4> C          3.51177       -2.80621       -6.49228
|  5> H          2.73604       -3.37345       -5.97374
|  6> H          3.44490       -3.04083       -7.55528
|  7> S          3.00462       -1.09621       -6.38926
|  8> O          4.12886       -0.32965       -6.95372
|  9> O          1.78128       -1.00078       -7.13640
| 10> O          2.85155       -0.78368       -4.95679
| 11> H          5.62703       -2.52424       -6.49422
| 12> H          5.12164       -4.14387       -6.07654
| 13> H          4.95004       -2.84862       -4.91639
| 14> *
| 15>
| 16> %MaxCore 64000
| 17>
| 18> %pal nprocs 4
| 19> end
| 20>
| 21> %scf
| 22>   MaxIter 150
| 23> end
| 24>
| 25>
| 26>                          ****END OF INPUT****

CARTESIAN COORDINATES (ANGSTROEM)
---------------------------------
  C      4.906460   -3.102820   -5.954840
  C      3.511770   -2.806210   -6.492280
  H      2.736040   -3.373450   -5.973740
  H      3.444900   -3.040830   -7.555280
  S      3.004620   -1.096210   -6.389260
  O      4.128860   -0.329650   -6.953720
  O      1.781280   -1.000780   -7.136400
  O      2.851550   -0.783680   -4.956790
  H      5.627030   -2.524240   -6.494220
  H      5.121640   -4.143870   -6.076540
  H      4.950040   -2.848620   -4.916390

 Total Charge           Charge          ....   -1
 Multiplicity           Mult            ....    1
 Number of Electrons    NEL             ....   58
 Basis Dimension        Dim             ....  222

ORBITAL ENERGIES
----------------

  NO   OCC          E(Eh)            E(eV)
   0   2.0000     -88.992460     -2421.6080
   1   2.0000     -18.979468      -516.4576
   2   2.0000     -18.967407      -516.1294
   3   2.0000     -18.966825      -516.1135
   4   2.0000     -10.080266      -274.2980
   5   2.0000     -10.072023      -274.0737
   6   2.0000      -7.938019      -216.0045
   7   2.0000      -5.875255      -159.8738
   8   2.0000      -5.874148      -159.8437
   9   2.0000      -5.873907      -159.8371
  10   2.0000      -0.941662       -25.6239
  11   2.0000      -0.809802       -22.0358
  12   2.0000      -0.789368       -21.4798
  13   2.0000      -0.653554       -17.7841
  14   2.0000      -0.525378       -14.2963
  15   2.0000      -0.393168       -10.6986
  16   2.0000      -0.330006        -8.9799
  17   2.0000      -0.322958        -8.7881
  18   2.0000      -0.284814        -7.7502
  19   2.0000      -0.269476        -7.3328
  20   2.0000      -0.262395        -7.1401
  21   2.0000      -0.238563        -6.4916
  22   2.0000      -0.222232        -6.0472
  23   2.0000      -0.156649        -4.2626
  24   2.0000      -0.156069        -4.2469
  25   2.0000      -0.120957        -3.2914
  26   2.0000      -0.111985        -3.0473
  27   2.0000      -0.107115        -2.9147
  28   2.0000      -0.068303        -1.8586
  29   0.0000       0.183472         4.9925
  30   0.0000       0.225901         6.1471
  31   0.0000       0.241135         6.5616
  32   0.0000       0.246608         6.7106
  33   0.0000       0.273893         7.4530

MULLIKEN ATOMIC CHARGES
-----------------------
   0 C :   -0.341099
   1 C :   -0.235770
   2 H :    0.081388
   3 H :    0.083281
   4 S :    0.801725
   5 O :   -0.579219
   6 O :   -0.536140
   7 O :   -0.579261
   8 H :    0.121175
   9 H :    0.071290
  10 H :    0.112630
Sum of atomic charges:   -1.0000000

LOEWDIN ATOMIC CHARGES
----------------------
   0 C :   -0.344792
   1 C :   -0.436872
   2 H :    0.119276
   3 H :    0.120786
   4 S :    0.402910
   5 O :   -0.411495
   6 O :   -0.366352
   7 O :   -0.416620
   8 H :    0.116979
   9 H :    0.100389
  10 H :    0.115789

  Mayer bond orders larger than 0.100000
B(  0-C ,  1-C ) :   0.9869 B(  0-C ,  8-H ) :   0.9686 B(  0-C ,  9-H ) :   0.9612
B(  0-C , 10-H ) :   0.9710 B(  1-C ,  2-H ) :   0.9538 B(  1-C ,  3-H ) :   0.9520
B(  1-C ,  4-S ) :   0.8761 B(  4-S ,  5-O ) :   1.7451 B(  4-S ,  6-O ) :   1.8410
B(  4-S ,  7-O ) :   1.7679

Dispersion correction           -0.008269804
FINAL SINGLE POINT ENERGY      -702.842424332498

DIPOLE MOMENT
-------------
                                X             Y             Z
Electronic contribution:     -4.39228       6.45606      -0.66344
Nuclear contribution   :      5.05690      -8.21735       0.57889
                        -----------------------------------------
Total Dipole Moment    :      0.66463      -1.76130      -0.08454
                        -----------------------------------------
Magnitude (a.u.)       :      1.88442
Magnitude (Debye)      :      4.78982

Rotational constants in cm-1:     0.162547     0.083494     0.081672
Rotational constants in MHz :  4873.033504  2503.090885  2448.458543

                             ****ORCA TERMINATED NORMALLY****
TOTAL RUN TIME: 0 days 0 hours 0 minutes 18 seconds 26 msec
