                         Program Version 5.0.0 -  RELEASE  -
|  1> !PBE0 D3BJ RIJCOSX def2-TZVP def2/J TightSCF
|  2> *xyz 1 1
|  3> C          4.49059        1.15590       -2.46929
|  4> N          4.30539        1.22276       -3.90832
|  5> C          4.63192        2.24637       -4.67096
|  6> N          4.54169        2.14399       -5.98714
|  7> N          5.08409        3.39358       -4.11855
|  8> H          4.92067        3.57050       -3.13587
|  9> H          5.25465        4.19739       -4.70696
| 10> H          3.82453        0.44911       -4.35093
| 11> H          4.34337        1.24932       -6.41665
| 12> H          4.67671        2.95662       -6.57411
| 13> C          5.94213        0.93950       -2.03689
| 14> H          3.86431        0.32853       -2.13661
| 15> H          4.07623        2.04999       -1.98901
| 16> H          6.32982        0.06401       -2.51451
| 17> H          5.98308        0.81426       -0.97504
| 18> H          6.52865        1.78889       -2.31873
| 19> *
| 20>
| 21> %MaxCore 64000
| 22>
| 23> %pal nprocs 4
| 24> end
| 25>
| 26> %scf
| 27>   MaxIter 150
| 28> end
| 29>
| 30>
| 31>                          ****END OF INPUT****

CARTESIAN COORDINATES (ANGSTROEM)
---------------------------------
  C      4.490590    1.155900   -2.469290
  N      4.305390    1.222760   -3.908320
  C      4.631920    2.246370   -4.670960
  N      4.541690    2.143990   -5.987140
  N      5.084090    3.393580   -4.118550
  H      4.920670    3.570500   -3.135870
  H      5.254650    4.197390   -4.706960
  H      3.824530    0.449110   -4.350930
  H      4.343370    1.249320   -6.416650
  H      4.676710    2.956620   -6.574110
  C      5.942130    0.939500   -2.036890
  H      3.864310    0.328530   -2.136610
  H      4.076230    2.049990   -1.989010
  H      6.329820    0.064010   -2.514510
  H      5.983080    0.814260   -0.975040
  H      6.528650    1.788890   -2.318730

 Total Charge           Charge          ....    1
 Multiplicity           Mult            ....    1
 Number of Electrons    NEL             ....   48
 Basis Dimension        Dim             ....  246

ORBITAL ENERGIES
----------------

  NO   OCC          E(Eh)            E(eV)
   0   2.0000     -14.608154      -397.5081
   1   2.0000     -14.605935      -397.4477
   2   2.0000     -14.603392      -397.3785
   3   2.0000     -10.553792      -287.1833
   4   2.0000     -10.427881      -283.7571
   5   2.0000     -10.352508      -281.7061
   6   2.0000      -1.243047       -33.8250
   7   2.0000      -1.131773       -30.7971
   8   2.0000      -1.115673       -30.3590
   9   2.0000      -0.952402       -25.9162
  10   2.0000      -0.864591       -23.5267
  11   2.0000      -0.818824       -22.2813
  12   2.0000      -0.802053       -21.8250
  13   2.0000      -0.758929       -20.6515
  14   2.0000      -0.705972       -19.2105
  15   2.0000      -0.703372       -19.1397
  16   2.0000      -0.673587       -18.3292
  17   2.0000      -0.639102       -17.3908
  18   2.0000      -0.616241       -16.7688
  19   2.0000      -0.570675       -15.5288
  20   2.0000      -0.542654       -14.7664
  21   2.0000      -0.522362       -14.2142
  22   2.0000      -0.488231       -13.2855
  23   2.0000      -0.461746       -12.5647
  24   0.0000      -0.157610        -4.2888
  25   0.0000      -0.143846        -3.9143
  26   0.0000      -0.109820        -2.9884
  27   0.0000      -0.102657        -2.7934
  28   0.0000      -0.081334        -2.2132

MULLIKEN ATOMIC CHARGES
-----------------------
   0 C :   -0.217345
   1 N :   -0.240417
   2 C :    0.431128
   3 N :   -0.407921
   4 N :   -0.419815
   5 H :    0.291734
   6 H :    0.279988
   7 H :    0.265604
   8 H :    0.291069
   9 H :    0.290558
  10 C :   -0.323962
  11 H :    0.166348
  12 H :    0.150468
  13 H :    0.141263
  14 H :    0.166996
  15 H :    0.134304
Sum of atomic charges:    1.0000000

LOEWDIN ATOMIC CHARGES
----------------------
   0 C :   -0.290661
   1 N :    0.173348
   2 C :   -0.408350
   3 N :    0.071158
   4 N :    0.057010
   5 H :    0.195330
   6 H :    0.195202
   7 H :    0.213160
   8 H :    0.200026
   9 H :    0.199540
  10 C :   -0.285276
  11 H :    0.152861
  12 H :    0.138813
  13 H :    0.128776
  14 H :    0.137449
  15 H :    0.121614

  Mayer bond orders larger than 0.100000
B(  0-C ,  1-N ) :   0.9048 B(  0-C , 10-C ) :   0.9993 B(  0-C , 11-H ) :   0.9421
B(  0-C , 12-H ) :   0.9716 B(  1-N ,  2-C ) :   1.3987 B(  1-N ,  7-H ) :   0.8964
B(  2-C ,  3-N ) :   1.3569 B(  2-C ,  4-N ) :   1.3339 B(  3-N ,  8-H ) :   0.8906
B(  3-N ,  9-H ) :   0.8882 B(  4-N ,  5-H ) :   0.8805 B(  4-N ,  6-H ) :   0.8959
B( 10-C , 13-H ) :   0.9588 B( 10-C , 14-H ) :   0.9594 B( 10-C , 15-H ) :   0.9642

Dispersion correction           -0.010484929
FINAL SINGLE POINT ENERGY      -284.182985750846

DIPOLE MOMENT
-------------
                                X             Y             Z
Electronic contribution:     -1.81600       1.58140      -4.48458
Nuclear contribution   :      1.34333      -1.11039       3.43667
                        -----------------------------------------
Total Dipole Moment    :     -0.47268       0.47100      -1.04792
                        -----------------------------------------
Magnitude (a.u.)       :      1.24234
Magnitude (Debye)      :      3.15777

Rotational constants in cm-1:     0.227161     0.075356     0.065003
Rotational constants in MHz :  6810.114531  2259.122204  1948.738523

                             ****ORCA TERMINATED NORMALLY****
TOTAL RUN TIME: 0 days 0 hours 0 minutes 27 seconds 125 msec
