                         Program Version 5.0.0 -  RELEASE  -
|  1> !PBE0 D3BJ RIJCOSX def2-TZVP def2/J TightSCF
|  2> *xyz 0 1
|  3> C          4.90646       -3.10282       -5.95484
|  4> C          3.51177       -2.80621       -6.49228
|  5> H          2.73604       -3.37345       -5.97374
|  6> H          3.44490       -3.04083       -7.55528
|  7> S          3.00462       -1.09621       -6.38926
|  8> F          4.12886       -0.32965       -6.95372
|  9> O          1.78128       -1.00078       -7.13640
| 10> O          2.85155       -0.78368       -4.95679
| 11> H          5.62703       -2.52424       -6.49422
| 12> H          5.12164       -4.14387       -6.07654
| 13> H          4.95004       -2.84862       -4.91639
| 14> *
| 15>
| 16> %MaxCore 64000
| 17>
| 18> %pal nprocs 4
| 19> end
| 20>
| 21> %scf
| 22>   MaxIter 150
| 23> end
| 24>
| 25>
| 26>                          ****END OF INPUT****

CARTESIAN COORDINATES (ANGSTROEM)
---------------------------------
  C      4.906460   -3.102820   -5.954840
  C      3.511770   -2.806210   -6.492280
  H      2.736040   -3.373450   -5.973740
  H      3.444900   -3.040830   -7.555280
  S      3.004620   -1.096210   -6.389260
  F      4.128860   -0.329650   -6.953720
  O      1.781280   -1.000780   -7.136400
  O      2.851550   -0.783680   -4.956790
  H      5.627030   -2.524240   -6.494220
  H      5.121640   -4.143870   -6.076540
  H      4.950040   -2.848620   -4.916390

 Total Charge           Charge          ....    0
 Multiplicity           Mult            ....    1
 Number of Electrons    NEL             ....   58
 Basis Dimension        Dim             ....  222

ORBITAL ENERGIES
----------------

  NO   OCC          E(Eh)            E(eV)
   0   2.0000     -89.258875     -2428.8575
   1   2.0000     -24.876789      -676.9318
   2   2.0000     -19.219684      -522.9942
   3   2.0000     -19.207601      -522.6654
   4   2.0000     -10.285143      -279.8730
   5   2.0000     -10.242999      -278.7262
   6   2.0000      -8.205041      -223.2705
   7   2.0000      -6.145496      -167.2274
   8   2.0000      -6.139133      -167.0543
   9   2.0000      -6.138743      -167.0437
  10   2.0000      -1.390541       -37.8386
  11   2.0000      -1.136123       -30.9155
  12   2.0000      -1.037811       -28.2403
  13   2.0000      -0.851824       -23.1793
  14   2.0000      -0.746635       -20.3170
  15   2.0000      -0.695774       -18.9330
  16   2.0000      -0.601258       -16.3611
  17   2.0000      -0.586208       -15.9515
  18   2.0000      -0.563268       -15.3273
  19   2.0000      -0.511205       -13.9106
  20   2.0000      -0.492016       -13.3884
  21   2.0000      -0.469052       -12.7636
  22   2.0000      -0.451847       -12.2954
  23   2.0000      -0.425102       -11.5676
  24   2.0000      -0.413202       -11.2438
  25   2.0000      -0.394878       -10.7452
  26   2.0000      -0.350870        -9.5476
  27   2.0000      -0.339314        -9.2332
  28   2.0000      -0.324318        -8.8251
  29   0.0000       0.019398         0.5278
  30   0.0000       0.053196         1.4475
  31   0.0000       0.070075         1.9068
  32   0.0000       0.079067         2.1515
  33   0.0000       0.083227         2.2647

MULLIKEN ATOMIC CHARGES
-----------------------
   0 C :   -0.368466
   1 C :   -0.247906
   2 H :    0.164148
   3 H :    0.147950
   4 S :    0.832060
   5 F :   -0.115072
   6 O :   -0.394767
   7 O :   -0.438497
   8 H :    0.131336
   9 H :    0.136700
  10 H :    0.152514
Sum of atomic charges:    0.0000000

LOEWDIN ATOMIC CHARGES
----------------------
   0 C :   -0.317354
   1 C :   -0.396756
   2 H :    0.152757
   3 H :    0.141857
   4 S :    0.533015
   5 F :    0.063918
   6 O :   -0.253279
   7 O :   -0.301063
   8 H :    0.121575
   9 H :    0.127003
  10 H :    0.128328

  Mayer bond orders larger than 0.100000
B(  0-C ,  1-C ) :   0.9933 B(  0-C ,  8-H ) :   0.9672 B(  0-C ,  9-H ) :   0.9576
B(  0-C , 10-H ) :   0.9631 B(  1-C ,  2-H ) :   0.9354 B(  1-C ,  3-H ) :   0.9359
B(  1-C ,  4-S ) :   0.9125 B(  4-S ,  5-F ) :   1.1102 B(  4-S ,  6-O ) :   1.9703
B(  4-S ,  7-O ) :   1.9050

Dispersion correction           -0.007860972
FINAL SINGLE POINT ENERGY      -727.363795145188

DIPOLE MOMENT
-------------
                                X             Y             Z
Electronic contribution:     -2.99681       8.20801      -1.74849
Nuclear contribution   :      4.18919      -9.36357       1.23251
                        -----------------------------------------
Total Dipole Moment    :      1.19238      -1.15556      -0.51598
                        -----------------------------------------
Magnitude (a.u.)       :      1.73877
Magnitude (Debye)      :      4.41961

Rotational constants in cm-1:     0.153152     0.082513     0.079874
Rotational constants in MHz :  4591.373714  2473.673397  2394.575279

                             ****ORCA TERMINATED NORMALLY****
TOTAL RUN TIME: 0 days 0 hours 0 minutes 19 seconds 435 msec
