                         Program Version 5.0.0 -  RELEASE  -
|  1> !PBE0 D3BJ RIJCOSX def2-TZVP def2/J TightSCF
|  2> *xyz 0 1
|  3> C          4.49059        1.15590       -2.46929
|  4> C          4.30539        1.22276       -3.90832
|  5> C          4.63192        2.24637       -4.67096
|  6> N          4.54169        2.14399       -5.98714
|  7> N          5.08409        3.39358       -4.11855
|  8> H          4.92067        3.57050       -3.13587
|  9> H          5.25465        4.19739       -4.70696
| 10> H          3.82453        0.44911       -4.35093
| 11> H          4.34337        1.24932       -6.41665
| 12> H          4.67671        2.95662       -6.57411
| 13> C          5.94213        0.93950       -2.03689
| 14> H          3.86431        0.32853       -2.13661
| 15> H          4.07623        2.04999       -1.98901
| 16> H          6.32982        0.06401       -2.51451
| 17> H          5.98308        0.81426       -0.97504
| 18> H          6.52865        1.78889       -2.31873
| 19> *
| 20>
| 21> %MaxCore 64000
| 22>
| 23> %pal nprocs 4
| 24> end
| 25>
| 26> %scf
| 27>   MaxIter 150
| 28> end
| 29>
| 30>
| 31>                          ****END OF INPUT****

CARTESIAN COORDINATES (ANGSTROEM)
---------------------------------
  C      4.490590    1.155900   -2.469290
  C      4.305390    1.222760   -3.908320
  C      4.631920    2.246370   -4.670960
  N      4.541690    2.143990   -5.987140
  N      5.084090    3.393580   -4.118550
  H      4.920670    3.570500   -3.135870
  H      5.254650    4.197390   -4.706960
  H      3.824530    0.449110   -4.350930
  H      4.343370    1.249320   -6.416650
  H      4.676710    2.956620   -6.574110
  C      5.942130    0.939500   -2.036890
  H      3.864310    0.328530   -2.136610
  H      4.076230    2.049990   -1.989010
  H      6.329820    0.064010   -2.514510
  H      5.983080    0.814260   -0.975040
  H      6.528650    1.788890   -2.318730

 Total Charge           Charge          ....    0
 Multiplicity           Mult            ....    1
 Number of Electrons    NEL             ....   48
 Basis Dimension        Dim             ....  246

ORBITAL ENERGIES
----------------

  NO   OCC          E(Eh)            E(eV)
   0   2.0000     -14.381476      -391.3399
   1   2.0000     -14.379177      -391.2773
   2   2.0000     -10.260060      -279.1904
   3   2.0000     -10.192046      -277.3397
   4   2.0000     -10.178539      -276.9721
   5   2.0000     -10.137484      -275.8550
   6   2.0000      -0.984760       -26.7967
   7   2.0000      -0.893415       -24.3111
   8   2.0000      -0.792964       -21.5776
   9   2.0000      -0.713378       -19.4120
  10   2.0000      -0.634822       -17.2744
  11   2.0000      -0.591880       -16.1059
  12   2.0000      -0.555289       -15.1102
  13   2.0000      -0.522112       -14.2074
  14   2.0000      -0.487068       -13.2538
  15   2.0000      -0.448122       -12.1940
  16   2.0000      -0.431722       -11.7477
  17   2.0000      -0.400996       -10.9116
  18   2.0000      -0.394633       -10.7385
  19   2.0000      -0.359674        -9.7872
  20   2.0000      -0.337135        -9.1739
  21   2.0000      -0.325105        -8.8466
  22   2.0000      -0.275025        -7.4838
  23   2.0000      -0.167065        -4.5461
  24   0.0000       0.029432         0.8009
  25   0.0000       0.058983         1.6050
  26   0.0000       0.072409         1.9703
  27   0.0000       0.087249         2.3742
  28   0.0000       0.095254         2.5920

MULLIKEN ATOMIC CHARGES
-----------------------
   0 C :   -0.209848
   1 C :   -0.338081
   2 C :    0.316047
   3 N :   -0.474947
   4 N :   -0.492491
   5 H :    0.249027
   6 H :    0.218024
   7 H :    0.093031
   8 H :    0.247821
   9 H :    0.220074
  10 C :   -0.312098
  11 H :    0.093094
  12 H :    0.073183
  13 H :    0.105601
  14 H :    0.102870
  15 H :    0.108696
Sum of atomic charges:   -0.0000000

LOEWDIN ATOMIC CHARGES
----------------------
   0 C :   -0.313678
   1 C :   -0.287305
   2 C :   -0.460184
   3 N :   -0.010104
   4 N :   -0.019915
   5 H :    0.174250
   6 H :    0.160448
   7 H :    0.120861
   8 H :    0.179091
   9 H :    0.161632
  10 C :   -0.307275
  11 H :    0.141290
  12 H :    0.124341
  13 H :    0.115358
  14 H :    0.108555
  15 H :    0.112637

  Mayer bond orders larger than 0.100000
B(  0-C ,  1-C ) :   1.0457 B(  0-C , 10-C ) :   0.9818 B(  0-C , 11-H ) :   0.9651
B(  0-C , 12-H ) :   0.9696 B(  1-C ,  2-C ) :   1.6934 B(  1-C ,  7-H ) :   0.9815
B(  2-C ,  3-N ) :   1.1619 B(  2-C ,  4-N ) :   1.1486 B(  3-N ,  8-H ) :   0.9141
B(  3-N ,  9-H ) :   0.9168 B(  4-N ,  5-H ) :   0.9061 B(  4-N ,  6-H ) :   0.9226
B( 10-C , 13-H ) :   0.9752 B( 10-C , 14-H ) :   0.9715 B( 10-C , 15-H ) :   0.9744

Dispersion correction           -0.010907523
FINAL SINGLE POINT ENERGY      -267.706725381854

DIPOLE MOMENT
-------------
                                X             Y             Z
Electronic contribution:     -1.25571       2.03652      -4.19666
Nuclear contribution   :      1.23062      -1.24683       3.43056
                        -----------------------------------------
Total Dipole Moment    :     -0.02510       0.78969      -0.76609
                        -----------------------------------------
Magnitude (a.u.)       :      1.10052
Magnitude (Debye)      :      2.79730

Rotational constants in cm-1:     0.231477     0.075416     0.065327
Rotational constants in MHz :  6939.497385  2260.912204  1958.442932

                             ****ORCA TERMINATED NORMALLY****
TOTAL RUN TIME: 0 days 0 hours 0 minutes 25 seconds 119 msec
