                         Program Version 5.0.0 -  RELEASE  -
|  1> !PBE0 D3BJ RIJCOSX def2-TZVP def2/J TightSCF
|  2> *xyz 0 1
|  3> C          4.90646       -3.10282       -5.95484
|  4> C          3.51177       -2.80621       -6.49228
|  5> H          2.73604       -3.37345       -5.97374
|  6> H          3.44490       -3.04083       -7.55528
|  7> S          3.00462       -1.09621       -6.38926
|  8> O          4.12886       -0.32965       -6.95372
|  9> F          1.78128       -1.00078       -7.13640
| 10> O          2.85155       -0.78368       -4.95679
| 11> H          5.62703       -2.52424       -6.49422
| 12> H          5.12164       -4.14387       -6.07654
| 13> H          4.95004       -2.84862       -4.91639
| 14> *
| 15>
| 16> %MaxCore 64000
| 17>
| 18> %pal nprocs 4
| 19> end
| 20>
| 21> %scf
| 22>   MaxIter 150
| 23> end
| 24>
| 25>
| 26>                          ****END OF INPUT****

CARTESIAN COORDINATES (ANGSTROEM)
---------------------------------
  C      4.906460   -3.102820   -5.954840
  C      3.511770   -2.806210   -6.492280
  H      2.736040   -3.373450   -5.973740
  H      3.444900   -3.040830   -7.555280
  S      3.004620   -1.096210   -6.389260
  O      4.128860   -0.329650   -6.953720
  F      1.781280   -1.000780   -7.136400
  O      2.851550   -0.783680   -4.956790
  H      5.627030   -2.524240   -6.494220
  H      5.121640   -4.143870   -6.076540
  H      4.950040   -2.848620   -4.916390

 Total Charge           Charge          ....    0
 Multiplicity           Mult            ....    1
 Number of Electrons    NEL             ....   58
 Basis Dimension        Dim             ....  222

ORBITAL ENERGIES
----------------

  NO   OCC          E(Eh)            E(eV)
   0   2.0000     -89.260848     -2428.9112
   1   2.0000     -24.895795      -677.4490
   2   2.0000     -19.207595      -522.6652
   3   2.0000     -19.207505      -522.6628
   4   2.0000     -10.285811      -279.8912
   5   2.0000     -10.238450      -278.6024
   6   2.0000      -8.206956      -223.3226
   7   2.0000      -6.147230      -167.2746
   8   2.0000      -6.141034      -167.1060
   9   2.0000      -6.140726      -167.0976
  10   2.0000      -1.421545       -38.6822
  11   2.0000      -1.122002       -30.5312
  12   2.0000      -1.024187       -27.8695
  13   2.0000      -0.848684       -23.0939
  14   2.0000      -0.761446       -20.7200
  15   2.0000      -0.697396       -18.9771
  16   2.0000      -0.608926       -16.5697
  17   2.0000      -0.606755       -16.5106
  18   2.0000      -0.573062       -15.5938
  19   2.0000      -0.511481       -13.9181
  20   2.0000      -0.494169       -13.4470
  21   2.0000      -0.453913       -12.3516
  22   2.0000      -0.445420       -12.1205
  23   2.0000      -0.422500       -11.4968
  24   2.0000      -0.402343       -10.9483
  25   2.0000      -0.391973       -10.6661
  26   2.0000      -0.338371        -9.2075
  27   2.0000      -0.337487        -9.1835
  28   2.0000      -0.312786        -8.5113
  29   0.0000       0.032319         0.8794
  30   0.0000       0.037947         1.0326
  31   0.0000       0.070271         1.9122
  32   0.0000       0.074989         2.0406
  33   0.0000       0.083123         2.2619

MULLIKEN ATOMIC CHARGES
-----------------------
   0 C :   -0.364627
   1 C :   -0.237436
   2 H :    0.144257
   3 H :    0.137824
   4 S :    0.828016
   5 O :   -0.431426
   6 F :   -0.083882
   7 O :   -0.430482
   8 H :    0.153694
   9 H :    0.134487
  10 H :    0.149574
Sum of atomic charges:    0.0000000

LOEWDIN ATOMIC CHARGES
----------------------
   0 C :   -0.302643
   1 C :   -0.403506
   2 H :    0.139956
   3 H :    0.138761
   4 S :    0.526509
   5 O :   -0.294737
   6 F :    0.107383
   7 O :   -0.298312
   8 H :    0.129897
   9 H :    0.126946
  10 H :    0.129747

  Mayer bond orders larger than 0.100000
B(  0-C ,  1-C ) :   1.0083 B(  0-C ,  8-H ) :   0.9629 B(  0-C ,  9-H ) :   0.9543
B(  0-C , 10-H ) :   0.9648 B(  1-C ,  2-H ) :   0.9305 B(  1-C ,  3-H ) :   0.9296
B(  1-C ,  4-S ) :   0.9197 B(  4-S ,  5-O ) :   1.8958 B(  4-S ,  6-F ) :   1.1586
B(  4-S ,  7-O ) :   1.9100

Dispersion correction           -0.007906816
FINAL SINGLE POINT ENERGY      -727.348478917954

DIPOLE MOMENT
-------------
                                X             Y             Z
Electronic contribution:     -6.97110       7.09168      -2.05643
Nuclear contribution   :      6.63544      -8.66423       1.42287
                        -----------------------------------------
Total Dipole Moment    :     -0.33566      -1.57255      -0.63356
                        -----------------------------------------
Magnitude (a.u.)       :      1.72829
Magnitude (Debye)      :      4.39297

Rotational constants in cm-1:     0.158118     0.080978     0.078216
Rotational constants in MHz :  4740.271775  2427.649826  2344.849020

                             ****ORCA TERMINATED NORMALLY****
TOTAL RUN TIME: 0 days 0 hours 0 minutes 19 seconds 304 msec
