                         Program Version 5.0.0 -  RELEASE  -
|  1> !PBE0 D3BJ RIJCOSX def2-TZVP def2/J TightSCF
|  2> *xyz 0 1
|  3> C          4.49059        1.15590       -2.46929
|  4> N          4.30539        1.22276       -3.90832
|  5> C          4.63192        2.24637       -4.67096
|  6> C          4.54169        2.14399       -5.98714
|  7> N          5.08409        3.39358       -4.11855
|  8> H          4.92067        3.57050       -3.13587
|  9> H          5.25465        4.19739       -4.70696
| 10> H          3.82453        0.44911       -4.35093
| 11> H          4.34337        1.24932       -6.41665
| 12> H          4.67671        2.95662       -6.57411
| 13> C          5.94213        0.93950       -2.03689
| 14> H          3.86431        0.32853       -2.13661
| 15> H          4.07623        2.04999       -1.98901
| 16> H          6.32982        0.06401       -2.51451
| 17> H          5.98308        0.81426       -0.97504
| 18> H          6.52865        1.78889       -2.31873
| 19> *
| 20>
| 21> %MaxCore 64000
| 22>
| 23> %pal nprocs 4
| 24> end
| 25>
| 26> %scf
| 27>   MaxIter 150
| 28> end
| 29>
| 30>
| 31>                          ****END OF INPUT****

CARTESIAN COORDINATES (ANGSTROEM)
---------------------------------
  C      4.490590    1.155900   -2.469290
  N      4.305390    1.222760   -3.908320
  C      4.631920    2.246370   -4.670960
  C      4.541690    2.143990   -5.987140
  N      5.084090    3.393580   -4.118550
  H      4.920670    3.570500   -3.135870
  H      5.254650    4.197390   -4.706960
  H      3.824530    0.449110   -4.350930
  H      4.343370    1.249320   -6.416650
  H      4.676710    2.956620   -6.574110
  C      5.942130    0.939500   -2.036890
  H      3.864310    0.328530   -2.136610
  H      4.076230    2.049990   -1.989010
  H      6.329820    0.064010   -2.514510
  H      5.983080    0.814260   -0.975040
  H      6.528650    1.788890   -2.318730

 Total Charge           Charge          ....    0
 Multiplicity           Mult            ....    1
 Number of Electrons    NEL             ....   48
 Basis Dimension        Dim             ....  246

ORBITAL ENERGIES
----------------

  NO   OCC          E(Eh)            E(eV)
   0   2.0000     -14.383398      -391.3922
   1   2.0000     -14.379840      -391.2953
   2   2.0000     -10.262536      -279.2578
   3   2.0000     -10.260760      -279.2095
   4   2.0000     -10.205835      -277.7149
   5   2.0000     -10.127517      -275.5838
   6   2.0000      -0.993832       -27.0435
   7   2.0000      -0.905653       -24.6441
   8   2.0000      -0.792589       -21.5674
   9   2.0000      -0.722323       -19.6554
  10   2.0000      -0.648942       -17.6586
  11   2.0000      -0.613713       -16.7000
  12   2.0000      -0.549525       -14.9533
  13   2.0000      -0.511921       -13.9301
  14   2.0000      -0.493233       -13.4215
  15   2.0000      -0.460557       -12.5324
  16   2.0000      -0.436127       -11.8676
  17   2.0000      -0.414510       -11.2794
  18   2.0000      -0.392901       -10.6914
  19   2.0000      -0.385822       -10.4987
  20   2.0000      -0.370395       -10.0789
  21   2.0000      -0.363630        -9.8949
  22   2.0000      -0.264920        -7.2088
  23   2.0000      -0.170587        -4.6419
  24   0.0000       0.030468         0.8291
  25   0.0000       0.055650         1.5143
  26   0.0000       0.068944         1.8761
  27   0.0000       0.082512         2.2453
  28   0.0000       0.099074         2.6959

MULLIKEN ATOMIC CHARGES
-----------------------
   0 C :   -0.190965
   1 N :   -0.293245
   2 C :    0.368327
   3 C :   -0.557530
   4 N :   -0.494658
   5 H :    0.229305
   6 H :    0.241565
   7 H :    0.228193
   8 H :    0.099927
   9 H :    0.094555
  10 C :   -0.289500
  11 H :    0.115847
  12 H :    0.104815
  13 H :    0.110255
  14 H :    0.111880
  15 H :    0.121230
Sum of atomic charges:   -0.0000000

LOEWDIN ATOMIC CHARGES
----------------------
   0 C :   -0.323045
   1 N :    0.122593
   2 C :   -0.465441
   3 C :   -0.342829
   4 N :   -0.018322
   5 H :    0.160472
   6 H :    0.175839
   7 H :    0.196321
   8 H :    0.097564
   9 H :    0.096848
  10 C :   -0.307591
  11 H :    0.133495
  12 H :    0.122303
  13 H :    0.118308
  14 H :    0.116335
  15 H :    0.117149

  Mayer bond orders larger than 0.100000
B(  0-C ,  1-N ) :   0.9884 B(  0-C , 10-C ) :   0.9788 B(  0-C , 11-H ) :   0.9636
B(  0-C , 12-H ) :   0.9783 B(  1-N ,  2-C ) :   1.2066 B(  1-N ,  7-H ) :   0.9195
B(  2-C ,  3-C ) :   1.6288 B(  2-C ,  4-N ) :   1.1399 B(  3-C ,  8-H ) :   1.0056
B(  3-C ,  9-H ) :   0.9900 B(  4-N ,  5-H ) :   0.9111 B(  4-N ,  6-H ) :   0.9182
B( 10-C , 13-H ) :   0.9667 B( 10-C , 14-H ) :   0.9625 B( 10-C , 15-H ) :   0.9681

Dispersion correction           -0.010814643
FINAL SINGLE POINT ENERGY      -267.698875950979

DIPOLE MOMENT
-------------
                                X             Y             Z
Electronic contribution:     -1.42509       1.09228      -1.93654
Nuclear contribution   :      1.28075      -1.05140       2.98955
                        -----------------------------------------
Total Dipole Moment    :     -0.14434       0.04088       1.05302
                        -----------------------------------------
Magnitude (a.u.)       :      1.06365
Magnitude (Debye)      :      2.70358

Rotational constants in cm-1:     0.229858     0.078444     0.067377
Rotational constants in MHz :  6890.979812  2351.691803  2019.910665

                             ****ORCA TERMINATED NORMALLY****
TOTAL RUN TIME: 0 days 0 hours 0 minutes 27 seconds 324 msec
