                         Program Version 5.0.0 -  RELEASE  -
|  1> !PBE0 D3BJ RIJCOSX def2-TZVP def2/J TightSCF
|  2> *xyz 0 1
|  3> C          4.90646       -3.10282       -5.95484
|  4> C          3.51177       -2.80621       -6.49228
|  5> H          2.73604       -3.37345       -5.97374
|  6> H          3.44490       -3.04083       -7.55528
|  7> S          3.00462       -1.09621       -6.38926
|  8> O          4.12886       -0.32965       -6.95372
|  9> O          1.78128       -1.00078       -7.13640
| 10> F          2.85155       -0.78368       -4.95679
| 11> H          5.62703       -2.52424       -6.49422
| 12> H          5.12164       -4.14387       -6.07654
| 13> H          4.95004       -2.84862       -4.91639
| 14> *
| 15>
| 16> %MaxCore 64000
| 17>
| 18> %pal nprocs 4
| 19> end
| 20>
| 21> %scf
| 22>   MaxIter 150
| 23> end
| 24>
| 25>
| 26>                          ****END OF INPUT****

CARTESIAN COORDINATES (ANGSTROEM)
---------------------------------
  C      4.906460   -3.102820   -5.954840
  C      3.511770   -2.806210   -6.492280
  H      2.736040   -3.373450   -5.973740
  H      3.444900   -3.040830   -7.555280
  S      3.004620   -1.096210   -6.389260
  O      4.128860   -0.329650   -6.953720
  O      1.781280   -1.000780   -7.136400
  F      2.851550   -0.783680   -4.956790
  H      5.627030   -2.524240   -6.494220
  H      5.121640   -4.143870   -6.076540
  H      4.950040   -2.848620   -4.916390

 Total Charge           Charge          ....    0
 Multiplicity           Mult            ....    1
 Number of Electrons    NEL             ....   58
 Basis Dimension        Dim             ....  222

ORBITAL ENERGIES
----------------

  NO   OCC          E(Eh)            E(eV)
   0   2.0000     -89.258983     -2428.8604
   1   2.0000     -24.876544      -676.9252
   2   2.0000     -19.219907      -523.0003
   3   2.0000     -19.208063      -522.6780
   4   2.0000     -10.284988      -279.8687
   5   2.0000     -10.239894      -278.6417
   6   2.0000      -8.205143      -223.2733
   7   2.0000      -6.145545      -167.2288
   8   2.0000      -6.139348      -167.0601
   9   2.0000      -6.138785      -167.0448
  10   2.0000      -1.389680       -37.8151
  11   2.0000      -1.136350       -30.9217
  12   2.0000      -1.039496       -28.2861
  13   2.0000      -0.849481       -23.1155
  14   2.0000      -0.746051       -20.3011
  15   2.0000      -0.694609       -18.9013
  16   2.0000      -0.598539       -16.2871
  17   2.0000      -0.585242       -15.9252
  18   2.0000      -0.565051       -15.3758
  19   2.0000      -0.509679       -13.8691
  20   2.0000      -0.494460       -13.4550
  21   2.0000      -0.470432       -12.8011
  22   2.0000      -0.447666       -12.1816
  23   2.0000      -0.421202       -11.4615
  24   2.0000      -0.413689       -11.2571
  25   2.0000      -0.392418       -10.6782
  26   2.0000      -0.351154        -9.5554
  27   2.0000      -0.339861        -9.2481
  28   2.0000      -0.325942        -8.8693
  29   0.0000       0.020636         0.5615
  30   0.0000       0.049371         1.3435
  31   0.0000       0.067838         1.8460
  32   0.0000       0.080319         2.1856
  33   0.0000       0.088468         2.4073

MULLIKEN ATOMIC CHARGES
-----------------------
   0 C :   -0.361567
   1 C :   -0.252790
   2 H :    0.143847
   3 H :    0.164396
   4 S :    0.834079
   5 O :   -0.439359
   6 O :   -0.396345
   7 F :   -0.113729
   8 H :    0.158719
   9 H :    0.134574
  10 H :    0.128174
Sum of atomic charges:    0.0000000

LOEWDIN ATOMIC CHARGES
----------------------
   0 C :   -0.315792
   1 C :   -0.398668
   2 H :    0.139243
   3 H :    0.153848
   4 S :    0.533773
   5 O :   -0.297090
   6 O :   -0.253864
   7 F :    0.060875
   8 H :    0.129422
   9 H :    0.126077
  10 H :    0.122175

  Mayer bond orders larger than 0.100000
B(  0-C ,  1-C ) :   0.9934 B(  0-C ,  8-H ) :   0.9616 B(  0-C ,  9-H ) :   0.9564
B(  0-C , 10-H ) :   0.9675 B(  1-C ,  2-H ) :   0.9375 B(  1-C ,  3-H ) :   0.9342
B(  1-C ,  4-S ) :   0.9141 B(  4-S ,  5-O ) :   1.8913 B(  4-S ,  6-O ) :   1.9688
B(  4-S ,  7-F ) :   1.1152

Dispersion correction           -0.007873002
FINAL SINGLE POINT ENERGY      -727.364154231364

DIPOLE MOMENT
-------------
                                X             Y             Z
Electronic contribution:     -5.16782       7.45263       1.64229
Nuclear contribution   :      5.52019      -8.89046      -0.84835
                        -----------------------------------------
Total Dipole Moment    :      0.35237      -1.43782       0.79394
                        -----------------------------------------
Magnitude (a.u.)       :      1.67983
Magnitude (Debye)      :      4.26980

Rotational constants in cm-1:     0.153332     0.082132     0.079755
Rotational constants in MHz :  4596.775407  2462.251277  2391.008596

                             ****ORCA TERMINATED NORMALLY****
TOTAL RUN TIME: 0 days 0 hours 0 minutes 19 seconds 647 msec
