                         Program Version 5.0.0 -  RELEASE  -
|  1> !PBE0 D3BJ RIJCOSX def2-TZVP def2/J TightSCF
|  2> *xyz 0 1
|  3> C          4.49059        1.15590       -2.46929
|  4> N          4.30539        1.22276       -3.90832
|  5> C          4.63192        2.24637       -4.67096
|  6> N          4.54169        2.14399       -5.98714
|  7> C          5.08409        3.39358       -4.11855
|  8> H          4.92067        3.57050       -3.13587
|  9> H          5.25465        4.19739       -4.70696
| 10> H          3.82453        0.44911       -4.35093
| 11> H          4.34337        1.24932       -6.41665
| 12> H          4.67671        2.95662       -6.57411
| 13> C          5.94213        0.93950       -2.03689
| 14> H          3.86431        0.32853       -2.13661
| 15> H          4.07623        2.04999       -1.98901
| 16> H          6.32982        0.06401       -2.51451
| 17> H          5.98308        0.81426       -0.97504
| 18> H          6.52865        1.78889       -2.31873
| 19> *
| 20>
| 21> %MaxCore 64000
| 22>
| 23> %pal nprocs 4
| 24> end
| 25>
| 26> %scf
| 27>   MaxIter 150
| 28> end
| 29>
| 30>
| 31>                          ****END OF INPUT****

CARTESIAN COORDINATES (ANGSTROEM)
---------------------------------
  C      4.490590    1.155900   -2.469290
  N      4.305390    1.222760   -3.908320
  C      4.631920    2.246370   -4.670960
  N      4.541690    2.143990   -5.987140
  C      5.084090    3.393580   -4.118550
  H      4.920670    3.570500   -3.135870
  H      5.254650    4.197390   -4.706960
  H      3.824530    0.449110   -4.350930
  H      4.343370    1.249320   -6.416650
  H      4.676710    2.956620   -6.574110
  C      5.942130    0.939500   -2.036890
  H      3.864310    0.328530   -2.136610
  H      4.076230    2.049990   -1.989010
  H      6.329820    0.064010   -2.514510
  H      5.983080    0.814260   -0.975040
  H      6.528650    1.788890   -2.318730

 Total Charge           Charge          ....    0
 Multiplicity           Mult            ....    1
 Number of Electrons    NEL             ....   48
 Basis Dimension        Dim             ....  246

ORBITAL ENERGIES
----------------

  NO   OCC          E(Eh)            E(eV)
   0   2.0000     -14.386821      -391.4853
   1   2.0000     -14.382043      -391.3553
   2   2.0000     -10.265016      -279.3253
   3   2.0000     -10.252279      -278.9787
   4   2.0000     -10.195299      -277.4282
   5   2.0000     -10.127706      -275.5889
   6   2.0000      -0.997690       -27.1485
   7   2.0000      -0.912549       -24.8317
   8   2.0000      -0.773305       -21.0427
   9   2.0000      -0.726504       -19.7692
  10   2.0000      -0.657885       -17.9020
  11   2.0000      -0.578159       -15.7325
  12   2.0000      -0.566956       -15.4277
  13   2.0000      -0.535628       -14.5752
  14   2.0000      -0.482826       -13.1384
  15   2.0000      -0.450906       -12.2698
  16   2.0000      -0.425089       -11.5673
  17   2.0000      -0.407257       -11.0820
  18   2.0000      -0.391522       -10.6538
  19   2.0000      -0.375031       -10.2051
  20   2.0000      -0.371873       -10.1192
  21   2.0000      -0.355006        -9.6602
  22   2.0000      -0.260544        -7.0898
  23   2.0000      -0.171101        -4.6559
  24   0.0000       0.030282         0.8240
  25   0.0000       0.058763         1.5990
  26   0.0000       0.069683         1.8962
  27   0.0000       0.084263         2.2929
  28   0.0000       0.100124         2.7245

MULLIKEN ATOMIC CHARGES
-----------------------
   0 C :   -0.140565
   1 N :   -0.305665
   2 C :    0.345756
   3 N :   -0.480202
   4 C :   -0.550658
   5 H :    0.108075
   6 H :    0.081902
   7 H :    0.200215
   8 H :    0.220852
   9 H :    0.251102
  10 C :   -0.313476
  11 H :    0.107770
  12 H :    0.115957
  13 H :    0.097622
  14 H :    0.112069
  15 H :    0.149247
Sum of atomic charges:    0.0000000

LOEWDIN ATOMIC CHARGES
----------------------
   0 C :   -0.305688
   1 N :    0.119651
   2 C :   -0.473685
   3 N :   -0.006067
   4 C :   -0.358084
   5 H :    0.098099
   6 H :    0.093231
   7 H :    0.179201
   8 H :    0.161912
   9 H :    0.179907
  10 C :   -0.305383
  11 H :    0.130090
  12 H :    0.131136
  13 H :    0.114387
  14 H :    0.116687
  15 H :    0.124606

  Mayer bond orders larger than 0.100000
B(  0-C ,  1-N ) :   0.9833 B(  0-C , 10-C ) :   0.9953 B(  0-C , 11-H ) :   0.9617
B(  0-C , 12-H ) :   0.9690 B(  1-N ,  2-C ) :   1.1918 B(  1-N ,  7-H ) :   0.9223
B(  2-C ,  3-N ) :   1.1603 B(  2-C ,  4-C ) :   1.6348 B(  3-N ,  8-H ) :   0.9185
B(  3-N ,  9-H ) :   0.9123 B(  4-C ,  5-H ) :   0.9855 B(  4-C ,  6-H ) :   0.9935
B( 10-C , 13-H ) :   0.9680 B( 10-C , 14-H ) :   0.9657 B( 10-C , 15-H ) :   0.9684

Dispersion correction           -0.010882335
FINAL SINGLE POINT ENERGY      -267.697883729080

DIPOLE MOMENT
-------------
                                X             Y             Z
Electronic contribution:     -1.92046      -0.17737      -3.89240
Nuclear contribution   :      1.39581      -0.78630       3.38596
                        -----------------------------------------
Total Dipole Moment    :     -0.52464      -0.96368      -0.50644
                        -----------------------------------------
Magnitude (a.u.)       :      1.20847
Magnitude (Debye)      :      3.07168

Rotational constants in cm-1:     0.239249     0.075811     0.066261
Rotational constants in MHz :  7172.504830  2272.756282  1986.457543

                             ****ORCA TERMINATED NORMALLY****
TOTAL RUN TIME: 0 days 0 hours 0 minutes 26 seconds 594 msec
