                         Program Version 5.0.0 -  RELEASE  -
|  1> !PBE0 D3BJ RIJCOSX def2-TZVP def2/J TightSCF xyzfile
|  2>
|  3> *xyzfile 0 1 D6.xyz
|  4>
|  5> %MaxCore 64000
|  6>
|  7> %pal nprocs 18
|  8> end
|  9>
| 10> %scf
| 11>   MaxIter 150
| 12> end
| 13>
| 14>
| 15>                          ****END OF INPUT****

CARTESIAN COORDINATES (ANGSTROEM)
---------------------------------
  C      4.490588    1.155899   -2.469290
  N      4.305394    1.222762   -3.908317
  C      4.906458   -3.102816   -5.954844
  C      3.511771   -2.806215   -6.492283
  H      2.736044   -3.373445   -5.973736
  H      3.444904   -3.040831   -7.555281
  S      3.004618   -1.096206   -6.389259
  C      4.631918    2.246365   -4.670958
  N      4.541686    2.143990   -5.987139
  C      5.084086    3.393584   -4.118545
  H      4.920675    3.570501   -3.135870
  H      5.254652    4.197390   -4.706956
  H      3.824530    0.449113   -4.350926
  H      4.343373    1.249318   -6.416646
  H      4.676712    2.956624   -6.574113
  O      4.128856   -0.329647   -6.953717
  F      1.781285   -1.000779   -7.136399
  C      5.942129    0.939500   -2.036893
  H      3.864305    0.328532   -2.136611
  H      4.076233    2.049994   -1.989010
  C      6.462677   -3.117775   -3.944671
  C      5.024977   -3.025679   -4.437625
  H      4.423321   -3.818693   -3.977648
  H      4.579350   -2.087131   -4.108727
  H      5.201533   -4.100207   -6.296905
  H      5.605922   -2.397822   -6.413368
  C      6.559957   -0.356290   -2.559086
  H      5.967976    0.952567   -0.942444
  H      6.547184    1.788331   -2.368849
  C      6.006283   -1.615917   -1.899301
  H      7.642360   -0.318000   -2.402059
  H      6.414855   -0.403433   -3.642587
  C      6.608718   -2.917014   -2.435655
  H      6.190324   -1.561115   -0.820948
  H      4.919250   -1.651245   -2.016586
  H      7.066975   -2.374258   -4.475514
  H      6.887808   -4.089747   -4.215332
  H      6.135197   -3.755573   -1.915159
  H      7.671142   -2.955503   -2.172291
  O      2.851546   -0.783683   -4.956789

 Total Charge           Charge          ....    0
 Multiplicity           Mult            ....    1
 Number of Electrons    NEL             ....  144
 Basis Dimension        Dim             ....  671

ORBITAL ENERGIES
----------------

  NO   OCC          E(Eh)            E(eV)
   0   2.0000     -89.296419     -2429.8791
   1   2.0000     -24.923978      -678.2159
   2   2.0000     -19.246154      -523.7145
   3   2.0000     -19.245630      -523.7002
   4   2.0000     -14.345594      -390.3635
   5   2.0000     -14.338456      -390.1692
   6   2.0000     -10.304930      -280.4114
   7   2.0000     -10.261110      -279.2190
   8   2.0000     -10.233513      -278.4681
   9   2.0000     -10.229655      -278.3631
  10   2.0000     -10.227280      -278.2984
  11   2.0000     -10.221797      -278.1492
  12   2.0000     -10.215037      -277.9653
  13   2.0000     -10.206656      -277.7372
  14   2.0000     -10.198275      -277.5092
  15   2.0000     -10.191865      -277.3347
  16   2.0000     -10.099700      -274.8268
  17   2.0000      -8.242738      -224.2963
  18   2.0000      -6.182892      -168.2450
  19   2.0000      -6.176946      -168.0833
  20   2.0000      -6.176477      -168.0705
  21   2.0000      -1.449657       -39.4472
  22   2.0000      -1.163964       -31.6731
  23   2.0000      -1.067521       -29.0487
  24   2.0000      -0.963118       -26.2078
  25   2.0000      -0.880891       -23.9703
  26   2.0000      -0.878203       -23.8971
  27   2.0000      -0.837026       -22.7766
  28   2.0000      -0.805560       -21.9204
  29   2.0000      -0.778868       -21.1941
  30   2.0000      -0.749514       -20.3953
  31   2.0000      -0.712852       -19.3977
  32   2.0000      -0.697889       -18.9905
  33   2.0000      -0.674542       -18.3552
  34   2.0000      -0.647881       -17.6297
  35   2.0000      -0.639577       -17.4038
  36   2.0000      -0.623487       -16.9660
  37   2.0000      -0.609769       -16.5927
  38   2.0000      -0.604000       -16.4357
  39   2.0000      -0.572411       -15.5761
  40   2.0000      -0.551046       -14.9947
  41   2.0000      -0.539880       -14.6909
  42   2.0000      -0.531770       -14.4702
  43   2.0000      -0.517067       -14.0701
  44   2.0000      -0.509082       -13.8528
  45   2.0000      -0.492705       -13.4072
  46   2.0000      -0.487364       -13.2618
  47   2.0000      -0.475423       -12.9369
  48   2.0000      -0.465641       -12.6707
  49   2.0000      -0.450952       -12.2710
  50   2.0000      -0.443698       -12.0736
  51   2.0000      -0.440780       -11.9942
  52   2.0000      -0.432461       -11.7679
  53   2.0000      -0.417680       -11.3657
  54   2.0000      -0.403215       -10.9720
  55   2.0000      -0.397584       -10.8188
  56   2.0000      -0.394898       -10.7457
  57   2.0000      -0.383898       -10.4464
  58   2.0000      -0.377452       -10.2710
  59   2.0000      -0.369087       -10.0434
  60   2.0000      -0.363977        -9.9043
  61   2.0000      -0.359494        -9.7823
  62   2.0000      -0.353495        -9.6191
  63   2.0000      -0.348872        -9.4933
  64   2.0000      -0.343792        -9.3551
  65   2.0000      -0.339844        -9.2476
  66   2.0000      -0.333516        -9.0754
  67   2.0000      -0.318521        -8.6674
  68   2.0000      -0.316559        -8.6140
  69   2.0000      -0.307620        -8.3708
  70   2.0000      -0.226357        -6.1595
  71   2.0000      -0.142582        -3.8798
  72   0.0000       0.003904         0.1062
  73   0.0000       0.017924         0.4877
  74   0.0000       0.039819         1.0835
  75   0.0000       0.045458         1.2370
  76   0.0000       0.048431         1.3179

MULLIKEN ATOMIC CHARGES
-----------------------
   0 C :   -0.202123
   1 N :   -0.283146
   2 C :   -0.198247
   3 C :   -0.216649
   4 H :    0.152096
   5 H :    0.162892
   6 S :    0.862849
   7 C :    0.336926
   8 N :   -0.495485
   9 C :   -0.578659
  10 H :    0.101766
  11 H :    0.072466
  12 H :    0.207902
  13 H :    0.239777
  14 H :    0.231455
  15 O :   -0.445085
  16 F :   -0.074105
  17 C :   -0.093248
  18 H :    0.121376
  19 H :    0.119432
  20 C :   -0.216745
  21 C :   -0.301762
  22 H :    0.096939
  23 H :    0.139189
  24 H :    0.127149
  25 H :    0.147692
  26 C :   -0.248930
  27 H :    0.079606
  28 H :    0.132486
  29 C :   -0.260427
  30 H :    0.099811
  31 H :    0.117419
  32 C :   -0.129817
  33 H :    0.102247
  34 H :    0.111695
  35 H :    0.123093
  36 H :    0.102223
  37 H :    0.095486
  38 H :    0.103200
  39 O :   -0.442745
Sum of atomic charges:   -0.0000000

LOEWDIN ATOMIC CHARGES
----------------------
   0 C :   -0.285395
   1 N :    0.122087
   2 C :   -0.275060
   3 C :   -0.366901
   4 H :    0.146884
   5 H :    0.145441
   6 S :    0.558716
   7 C :   -0.476160
   8 N :   -0.014507
   9 C :   -0.379167
  10 H :    0.094509
  11 H :    0.089086
  12 H :    0.157436
  13 H :    0.136429
  14 H :    0.171327
  15 O :   -0.267676
  16 F :    0.120189
  17 C :   -0.269917
  18 H :    0.130643
  19 H :    0.131871
  20 C :   -0.272457
  21 C :   -0.274053
  22 H :    0.138719
  23 H :    0.143350
  24 H :    0.150454
  25 H :    0.152945
  26 C :   -0.272740
  27 H :    0.135273
  28 H :    0.146260
  29 C :   -0.275748
  30 H :    0.137351
  31 H :    0.138328
  32 C :   -0.270100
  33 H :    0.137707
  34 H :    0.132952
  35 H :    0.140653
  36 H :    0.136117
  37 H :    0.136307
  38 H :    0.138989
  39 O :   -0.270145

  Mayer bond orders larger than 0.100000
B(  0-C ,  1-N ) :   0.9773 B(  0-C , 17-C ) :   0.9843 B(  0-C , 18-H ) :   0.9766
B(  0-C , 19-H ) :   0.9593 B(  1-N ,  7-C ) :   1.1954 B(  1-N , 12-H ) :   0.8804
B(  2-C ,  3-C ) :   0.9931 B(  2-C , 21-C ) :   1.0161 B(  2-C , 24-H ) :   0.9387
B(  2-C , 25-H ) :   0.9512 B(  3-C ,  4-H ) :   0.9280 B(  3-C ,  5-H ) :   0.9310
B(  3-C ,  6-S ) :   0.9285 B(  6-S , 15-O ) :   1.8038 B(  6-S , 16-F ) :   1.1782
B(  6-S , 39-O ) :   1.8024 B(  7-C ,  8-N ) :   1.1804 B(  7-C ,  9-C ) :   1.6257
B(  8-N , 13-H ) :   0.8654 B(  8-N , 14-H ) :   0.9213 B(  9-C , 10-H ) :   0.9886
B(  9-C , 11-H ) :   0.9921 B( 17-C , 26-C ) :   1.0062 B( 17-C , 27-H ) :   0.9567
B( 17-C , 28-H ) :   0.9411 B( 20-C , 21-C ) :   1.0118 B( 20-C , 32-C ) :   1.0015
B( 20-C , 35-H ) :   0.9674 B( 20-C , 36-H ) :   0.9539 B( 21-C , 22-H ) :   0.9527
B( 21-C , 23-H ) :   0.9596 B( 26-C , 29-C ) :   0.9970 B( 26-C , 30-H ) :   0.9548
B( 26-C , 31-H ) :   0.9571 B( 29-C , 32-C ) :   0.9972 B( 29-C , 33-H ) :   0.9516
B( 29-C , 34-H ) :   0.9747 B( 32-C , 37-H ) :   0.9626 B( 32-C , 38-H ) :   0.9579

Dispersion correction           -0.042837941
FINAL SINGLE POINT ENERGY     -1190.260492086609

DIPOLE MOMENT
-------------
                                X             Y             Z
Electronic contribution:    -21.16805       1.30896     -21.93366
Nuclear contribution   :     20.11362      -4.34709      20.52383
                        -----------------------------------------
Total Dipole Moment    :     -1.05443      -3.03813      -1.40983
                        -----------------------------------------
Magnitude (a.u.)       :      3.51136
Magnitude (Debye)      :      8.92517

Rotational constants in cm-1:     0.014449     0.012108     0.007447
Rotational constants in MHz :   433.168496   362.988632   223.260798

                             ****ORCA TERMINATED NORMALLY****
TOTAL RUN TIME: 0 days 0 hours 1 minutes 52 seconds 530 msec
