                         Program Version 5.0.0 -  RELEASE  -
|  1> !PBE0 D3BJ RIJCOSX def2-TZVP def2/J TightSCF xyzfile
|  2>
|  3> *xyzfile 0 1 D7.xyz
|  4>
|  5> %MaxCore 64000
|  6>
|  7> %pal nprocs 18
|  8> end
|  9>
| 10> %scf
| 11>   MaxIter 150
| 12> end
| 13>
| 14>
| 15>                          ****END OF INPUT****

CARTESIAN COORDINATES (ANGSTROEM)
---------------------------------
  C      4.490588    1.155899   -2.469290
  C      4.305394    1.222762   -3.908317
  C      4.906458   -3.102816   -5.954844
  C      3.511771   -2.806215   -6.492283
  H      2.736044   -3.373445   -5.973736
  H      3.444904   -3.040831   -7.555281
  S      3.004618   -1.096206   -6.389259
  C      4.631918    2.246365   -4.670958
  N      4.541686    2.143990   -5.987139
  N      5.084086    3.393584   -4.118545
  H      4.920675    3.570501   -3.135870
  H      5.254652    4.197390   -4.706956
  H      3.824530    0.449113   -4.350926
  H      4.343373    1.249318   -6.416646
  H      4.676712    2.956624   -6.574113
  O      4.128856   -0.329647   -6.953717
  O      1.781285   -1.000779   -7.136399
  C      5.942129    0.939500   -2.036893
  H      3.864305    0.328532   -2.136611
  H      4.076233    2.049994   -1.989010
  C      6.462677   -3.117775   -3.944671
  C      5.024977   -3.025679   -4.437625
  H      4.423321   -3.818693   -3.977648
  H      4.579350   -2.087131   -4.108727
  H      5.201533   -4.100207   -6.296905
  H      5.605922   -2.397822   -6.413368
  C      6.559957   -0.356290   -2.559086
  H      5.967976    0.952567   -0.942444
  H      6.547184    1.788331   -2.368849
  C      6.006283   -1.615917   -1.899301
  H      7.642360   -0.318000   -2.402059
  H      6.414855   -0.403433   -3.642587
  C      6.608718   -2.917014   -2.435655
  H      6.190324   -1.561115   -0.820948
  H      4.919250   -1.651245   -2.016586
  H      7.066975   -2.374258   -4.475514
  H      6.887808   -4.089747   -4.215332
  H      6.135197   -3.755573   -1.915159
  H      7.671142   -2.955503   -2.172291
  F      2.851546   -0.783683   -4.956789

 Total Charge           Charge          ....    0
 Multiplicity           Mult            ....    1
 Number of Electrons    NEL             ....  144
 Basis Dimension        Dim             ....  671

ORBITAL ENERGIES
----------------

  NO   OCC          E(Eh)            E(eV)
   0   2.0000     -89.270898     -2429.1846
   1   2.0000     -24.882514      -677.0876
   2   2.0000     -19.229286      -523.2555
   3   2.0000     -19.226232      -523.1724
   4   2.0000     -14.370716      -391.0471
   5   2.0000     -14.348576      -390.4446
   6   2.0000     -10.286622      -279.9132
   7   2.0000     -10.247667      -278.8532
   8   2.0000     -10.247228      -278.8413
   9   2.0000     -10.228415      -278.3293
  10   2.0000     -10.218957      -278.0720
  11   2.0000     -10.212707      -277.9019
  12   2.0000     -10.204521      -277.6791
  13   2.0000     -10.195351      -277.4296
  14   2.0000     -10.190724      -277.3037
  15   2.0000     -10.187099      -277.2050
  16   2.0000     -10.121948      -275.4322
  17   2.0000      -8.217223      -223.6020
  18   2.0000      -6.157551      -167.5555
  19   2.0000      -6.151414      -167.3885
  20   2.0000      -6.150915      -167.3749
  21   2.0000      -1.399887       -38.0929
  22   2.0000      -1.149897       -31.2903
  23   2.0000      -1.057405       -28.7734
  24   2.0000      -0.968406       -26.3517
  25   2.0000      -0.876378       -23.8474
  26   2.0000      -0.867321       -23.6010
  27   2.0000      -0.832183       -22.6448
  28   2.0000      -0.803652       -21.8685
  29   2.0000      -0.777641       -21.1607
  30   2.0000      -0.742384       -20.2013
  31   2.0000      -0.727458       -19.7951
  32   2.0000      -0.690335       -18.7850
  33   2.0000      -0.662450       -18.0262
  34   2.0000      -0.640277       -17.4228
  35   2.0000      -0.611051       -16.6275
  36   2.0000      -0.604765       -16.4565
  37   2.0000      -0.595512       -16.2047
  38   2.0000      -0.590541       -16.0694
  39   2.0000      -0.570397       -15.5213
  40   2.0000      -0.560927       -15.2636
  41   2.0000      -0.539734       -14.6869
  42   2.0000      -0.513898       -13.9839
  43   2.0000      -0.503230       -13.6936
  44   2.0000      -0.498401       -13.5622
  45   2.0000      -0.492308       -13.3964
  46   2.0000      -0.489580       -13.3221
  47   2.0000      -0.471466       -12.8292
  48   2.0000      -0.463496       -12.6124
  49   2.0000      -0.454909       -12.3787
  50   2.0000      -0.441810       -12.0223
  51   2.0000      -0.436031       -11.8650
  52   2.0000      -0.433444       -11.7946
  53   2.0000      -0.417351       -11.3567
  54   2.0000      -0.407963       -11.1012
  55   2.0000      -0.394861       -10.7447
  56   2.0000      -0.388432       -10.5698
  57   2.0000      -0.383291       -10.4299
  58   2.0000      -0.376868       -10.2551
  59   2.0000      -0.366849        -9.9825
  60   2.0000      -0.359885        -9.7930
  61   2.0000      -0.354317        -9.6414
  62   2.0000      -0.350205        -9.5296
  63   2.0000      -0.343020        -9.3341
  64   2.0000      -0.338628        -9.2145
  65   2.0000      -0.337484        -9.1834
  66   2.0000      -0.330334        -8.9888
  67   2.0000      -0.314587        -8.5604
  68   2.0000      -0.308187        -8.3862
  69   2.0000      -0.303286        -8.2528
  70   2.0000      -0.257742        -7.0135
  71   2.0000      -0.155941        -4.2434
  72   0.0000       0.018536         0.5044
  73   0.0000       0.037301         1.0150
  74   0.0000       0.042792         1.1644
  75   0.0000       0.054260         1.4765
  76   0.0000       0.054703         1.4885

MULLIKEN ATOMIC CHARGES
-----------------------
   0 C :   -0.271773
   1 C :   -0.376706
   2 C :   -0.173504
   3 C :   -0.240947
   4 H :    0.150071
   5 H :    0.177285
   6 S :    0.845350
   7 C :    0.297547
   8 N :   -0.469505
   9 N :   -0.489766
  10 H :    0.244708
  11 H :    0.216720
  12 H :    0.101438
  13 H :    0.261052
  14 H :    0.206564
  15 O :   -0.463044
  16 O :   -0.393709
  17 C :   -0.090913
  18 H :    0.091034
  19 H :    0.089509
  20 C :   -0.213697
  21 C :   -0.306443
  22 H :    0.101878
  23 H :    0.115680
  24 H :    0.118140
  25 H :    0.143470
  26 C :   -0.210292
  27 H :    0.071797
  28 H :    0.099195
  29 C :   -0.263595
  30 H :    0.093141
  31 H :    0.126701
  32 C :   -0.129209
  33 H :    0.101084
  34 H :    0.109111
  35 H :    0.121933
  36 H :    0.103435
  37 H :    0.095075
  38 H :    0.100952
  39 F :   -0.089768
Sum of atomic charges:    0.0000000

LOEWDIN ATOMIC CHARGES
----------------------
   0 C :   -0.294684
   1 C :   -0.307092
   2 C :   -0.285793
   3 C :   -0.364095
   4 H :    0.144716
   5 H :    0.156813
   6 S :    0.558321
   7 C :   -0.461079
   8 N :   -0.009117
   9 N :   -0.020476
  10 H :    0.171713
  11 H :    0.159404
  12 H :    0.106640
  13 H :    0.147881
  14 H :    0.157210
  15 O :   -0.274130
  16 O :   -0.244306
  17 C :   -0.267580
  18 H :    0.139538
  19 H :    0.127520
  20 C :   -0.271423
  21 C :   -0.277254
  22 H :    0.138749
  23 H :    0.137471
  24 H :    0.146531
  25 H :    0.150906
  26 C :   -0.271048
  27 H :    0.129466
  28 H :    0.135374
  29 C :   -0.274450
  30 H :    0.135065
  31 H :    0.140413
  32 C :   -0.270845
  33 H :    0.137349
  34 H :    0.132277
  35 H :    0.140873
  36 H :    0.136904
  37 H :    0.136044
  38 H :    0.138345
  39 F :    0.087853

  Mayer bond orders larger than 0.100000
B(  0-C ,  1-C ) :   1.0146 B(  0-C , 17-C ) :   0.9774 B(  0-C , 18-H ) :   0.9797
B(  0-C , 19-H ) :   0.9683 B(  1-C ,  7-C ) :   1.6499 B(  1-C , 12-H ) :   0.9824
B(  2-C ,  3-C ) :   0.9772 B(  2-C , 21-C ) :   1.0123 B(  2-C , 24-H ) :   0.9381
B(  2-C , 25-H ) :   0.9493 B(  3-C ,  4-H ) :   0.9409 B(  3-C ,  5-H ) :   0.9370
B(  3-C ,  6-S ) :   0.9177 B(  6-S , 15-O ) :   1.7661 B(  6-S , 16-O ) :   1.9989
B(  6-S , 39-F ) :   1.1137 B(  7-C ,  8-N ) :   1.2310 B(  7-C ,  9-N ) :   1.1656
B(  8-N , 13-H ) :   0.8520 B(  8-N , 14-H ) :   0.9213 B(  9-N , 10-H ) :   0.9068
B(  9-N , 11-H ) :   0.9222 B( 17-C , 26-C ) :   1.0152 B( 17-C , 27-H ) :   0.9554
B( 17-C , 28-H ) :   0.9507 B( 20-C , 21-C ) :   1.0153 B( 20-C , 32-C ) :   1.0013
B( 20-C , 35-H ) :   0.9669 B( 20-C , 36-H ) :   0.9549 B( 21-C , 22-H ) :   0.9517
B( 21-C , 23-H ) :   0.9620 B( 26-C , 29-C ) :   0.9946 B( 26-C , 30-H ) :   0.9562
B( 26-C , 31-H ) :   0.9552 B( 29-C , 32-C ) :   0.9952 B( 29-C , 33-H ) :   0.9514
B( 29-C , 34-H ) :   0.9773 B( 32-C , 37-H ) :   0.9633 B( 32-C , 38-H ) :   0.9574

Dispersion correction           -0.042751257
FINAL SINGLE POINT ENERGY     -1190.272648455206

DIPOLE MOMENT
-------------
                                X             Y             Z
Electronic contribution:    -18.43568       4.13729     -18.09006
Nuclear contribution   :     18.74089      -4.92611      17.99644
                        -----------------------------------------
Total Dipole Moment    :      0.30521      -0.78882      -0.09362
                        -----------------------------------------
Magnitude (a.u.)       :      0.85097
Magnitude (Debye)      :      2.16300

Rotational constants in cm-1:     0.014210     0.012324     0.007480
Rotational constants in MHz :   425.991442   369.455467   224.259162

                             ****ORCA TERMINATED NORMALLY****
TOTAL RUN TIME: 0 days 0 hours 1 minutes 41 seconds 59 msec
