                         Program Version 5.0.0 -  RELEASE  -
|  1> !PBE0 D3BJ RIJCOSX def2-TZVP def2/J TightSCF xyzfile
|  2>
|  3> *xyzfile 0 1 D8.xyz
|  4>
|  5> %MaxCore 64000
|  6>
|  7> %pal nprocs 18
|  8> end
|  9>
| 10> %scf
| 11>   MaxIter 150
| 12> end
| 13>
| 14>
| 15>                          ****END OF INPUT****

CARTESIAN COORDINATES (ANGSTROEM)
---------------------------------
  C      4.490588    1.155899   -2.469290
  N      4.305394    1.222762   -3.908317
  C      4.906458   -3.102816   -5.954844
  C      3.511771   -2.806215   -6.492283
  H      2.736044   -3.373445   -5.973736
  H      3.444904   -3.040831   -7.555281
  S      3.004618   -1.096206   -6.389259
  C      4.631918    2.246365   -4.670958
  C      4.541686    2.143990   -5.987139
  N      5.084086    3.393584   -4.118545
  H      4.920675    3.570501   -3.135870
  H      5.254652    4.197390   -4.706956
  H      3.824530    0.449113   -4.350926
  H      4.343373    1.249318   -6.416646
  H      4.676712    2.956624   -6.574113
  O      4.128856   -0.329647   -6.953717
  O      1.781285   -1.000779   -7.136399
  C      5.942129    0.939500   -2.036893
  H      3.864305    0.328532   -2.136611
  H      4.076233    2.049994   -1.989010
  C      6.462677   -3.117775   -3.944671
  C      5.024977   -3.025679   -4.437625
  H      4.423321   -3.818693   -3.977648
  H      4.579350   -2.087131   -4.108727
  H      5.201533   -4.100207   -6.296905
  H      5.605922   -2.397822   -6.413368
  C      6.559957   -0.356290   -2.559086
  H      5.967976    0.952567   -0.942444
  H      6.547184    1.788331   -2.368849
  C      6.006283   -1.615917   -1.899301
  H      7.642360   -0.318000   -2.402059
  H      6.414855   -0.403433   -3.642587
  C      6.608718   -2.917014   -2.435655
  H      6.190324   -1.561115   -0.820948
  H      4.919250   -1.651245   -2.016586
  H      7.066975   -2.374258   -4.475514
  H      6.887808   -4.089747   -4.215332
  H      6.135197   -3.755573   -1.915159
  H      7.671142   -2.955503   -2.172291
  F      2.851546   -0.783683   -4.956789

 Total Charge           Charge          ....    0
 Multiplicity           Mult            ....    1
 Number of Electrons    NEL             ....  144
 Basis Dimension        Dim             ....  671

ORBITAL ENERGIES
----------------

  NO   OCC          E(Eh)            E(eV)
   0   2.0000     -89.266119     -2429.0546
   1   2.0000     -24.894549      -677.4151
   2   2.0000     -19.225971      -523.1653
   3   2.0000     -19.213971      -522.8387
   4   2.0000     -14.368374      -390.9833
   5   2.0000     -14.365473      -390.9044
   6   2.0000     -10.286094      -279.8988
   7   2.0000     -10.252449      -278.9833
   8   2.0000     -10.249547      -278.9044
   9   2.0000     -10.244197      -278.7588
  10   2.0000     -10.235985      -278.5353
  11   2.0000     -10.226636      -278.2809
  12   2.0000     -10.222926      -278.1799
  13   2.0000     -10.219386      -278.0836
  14   2.0000     -10.214169      -277.9417
  15   2.0000     -10.213538      -277.9245
  16   2.0000     -10.099082      -274.8100
  17   2.0000      -8.212765      -223.4807
  18   2.0000      -6.153352      -167.4412
  19   2.0000      -6.146690      -167.2599
  20   2.0000      -6.146282      -167.2488
  21   2.0000      -1.410763       -38.3888
  22   2.0000      -1.144588       -31.1458
  23   2.0000      -1.048846       -28.5406
  24   2.0000      -0.981093       -26.6969
  25   2.0000      -0.894118       -24.3302
  26   2.0000      -0.870610       -23.6905
  27   2.0000      -0.840229       -22.8638
  28   2.0000      -0.811216       -22.0743
  29   2.0000      -0.775833       -21.1115
  30   2.0000      -0.752304       -20.4712
  31   2.0000      -0.729970       -19.8635
  32   2.0000      -0.696708       -18.9584
  33   2.0000      -0.671768       -18.2797
  34   2.0000      -0.649392       -17.6708
  35   2.0000      -0.627635       -17.0788
  36   2.0000      -0.615968       -16.7613
  37   2.0000      -0.605298       -16.4710
  38   2.0000      -0.589388       -16.0381
  39   2.0000      -0.578036       -15.7291
  40   2.0000      -0.573661       -15.6101
  41   2.0000      -0.532462       -14.4890
  42   2.0000      -0.516966       -14.0674
  43   2.0000      -0.504178       -13.7194
  44   2.0000      -0.497719       -13.5436
  45   2.0000      -0.496572       -13.5124
  46   2.0000      -0.485859       -13.2209
  47   2.0000      -0.481984       -13.1155
  48   2.0000      -0.475598       -12.9417
  49   2.0000      -0.458432       -12.4746
  50   2.0000      -0.455376       -12.3914
  51   2.0000      -0.445818       -12.1313
  52   2.0000      -0.430159       -11.7052
  53   2.0000      -0.417184       -11.3521
  54   2.0000      -0.406527       -11.0622
  55   2.0000      -0.404200       -10.9988
  56   2.0000      -0.397701       -10.8220
  57   2.0000      -0.389806       -10.6072
  58   2.0000      -0.381822       -10.3899
  59   2.0000      -0.376037       -10.2325
  60   2.0000      -0.375301       -10.2125
  61   2.0000      -0.359530        -9.7833
  62   2.0000      -0.358371        -9.7518
  63   2.0000      -0.352066        -9.5802
  64   2.0000      -0.348557        -9.4847
  65   2.0000      -0.334155        -9.0928
  66   2.0000      -0.332465        -9.0468
  67   2.0000      -0.330286        -8.9876
  68   2.0000      -0.324406        -8.8275
  69   2.0000      -0.307506        -8.3677
  70   2.0000      -0.252656        -6.8751
  71   2.0000      -0.153052        -4.1647
  72   0.0000       0.014059         0.3826
  73   0.0000       0.033748         0.9183
  74   0.0000       0.038223         1.0401
  75   0.0000       0.049091         1.3358
  76   0.0000       0.050302         1.3688

MULLIKEN ATOMIC CHARGES
-----------------------
   0 C :   -0.264052
   1 N :   -0.283216
   2 C :   -0.175580
   3 C :   -0.242142
   4 H :    0.145748
   5 H :    0.179618
   6 S :    0.828440
   7 C :    0.366552
   8 C :   -0.610965
   9 N :   -0.501196
  10 H :    0.223726
  11 H :    0.238444
  12 H :    0.198787
  13 H :    0.173581
  14 H :    0.085408
  15 O :   -0.413491
  16 O :   -0.389914
  17 C :   -0.070171
  18 H :    0.124959
  19 H :    0.122178
  20 C :   -0.219842
  21 C :   -0.291523
  22 H :    0.105541
  23 H :    0.085784
  24 H :    0.118627
  25 H :    0.149259
  26 C :   -0.264982
  27 H :    0.083984
  28 H :    0.115399
  29 C :   -0.256266
  30 H :    0.105615
  31 H :    0.137926
  32 C :   -0.132289
  33 H :    0.106137
  34 H :    0.104904
  35 H :    0.127271
  36 H :    0.108049
  37 H :    0.099411
  38 H :    0.105695
  39 F :   -0.125415
Sum of atomic charges:    0.0000000

LOEWDIN ATOMIC CHARGES
----------------------
   0 C :   -0.303914
   1 N :    0.115456
   2 C :   -0.285386
   3 C :   -0.366293
   4 H :    0.142455
   5 H :    0.158017
   6 S :    0.548056
   7 C :   -0.475471
   8 C :   -0.340135
   9 N :   -0.024274
  10 H :    0.156711
  11 H :    0.173822
  12 H :    0.167865
  13 H :    0.086710
  14 H :    0.093598
  15 O :   -0.249418
  16 O :   -0.242445
  17 C :   -0.273969
  18 H :    0.132288
  19 H :    0.125871
  20 C :   -0.270618
  21 C :   -0.278053
  22 H :    0.139398
  23 H :    0.131476
  24 H :    0.146912
  25 H :    0.152514
  26 C :   -0.271464
  27 H :    0.136443
  28 H :    0.139739
  29 C :   -0.275859
  30 H :    0.139600
  31 H :    0.142717
  32 C :   -0.269508
  33 H :    0.138405
  34 H :    0.130547
  35 H :    0.141819
  36 H :    0.138758
  37 H :    0.137460
  38 H :    0.139715
  39 F :    0.070454

  Mayer bond orders larger than 0.100000
B(  0-C ,  1-N ) :   0.9726 B(  0-C , 17-C ) :   0.9549 B(  0-C , 18-H ) :   0.9768
B(  0-C , 19-H ) :   0.9774 B(  1-N ,  7-C ) :   1.1897 B(  1-N , 12-H ) :   0.9155
B(  2-C ,  3-C ) :   0.9761 B(  2-C , 21-C ) :   1.0164 B(  2-C , 24-H ) :   0.9375
B(  2-C , 25-H ) :   0.9472 B(  3-C ,  4-H ) :   0.9411 B(  3-C ,  5-H ) :   0.9360
B(  3-C ,  6-S ) :   0.9191 B(  6-S , 15-O ) :   1.8352 B(  6-S , 16-O ) :   1.9977
B(  6-S , 39-F ) :   1.0504 B(  7-C ,  8-C ) :   1.6206 B(  7-C ,  9-N ) :   1.1254
B(  8-C , 13-H ) :   0.9874 B(  8-C , 14-H ) :   0.9911 B(  9-N , 10-H ) :   0.9130
B(  9-N , 11-H ) :   0.9184 B( 17-C , 26-C ) :   0.9956 B( 17-C , 27-H ) :   0.9491
B( 17-C , 28-H ) :   0.9466 B( 20-C , 21-C ) :   1.0141 B( 20-C , 32-C ) :   0.9957
B( 20-C , 35-H ) :   0.9689 B( 20-C , 36-H ) :   0.9544 B( 21-C , 22-H ) :   0.9519
B( 21-C , 23-H ) :   0.9621 B( 26-C , 29-C ) :   0.9945 B( 26-C , 30-H ) :   0.9543
B( 26-C , 31-H ) :   0.9604 B( 29-C , 32-C ) :   0.9985 B( 29-C , 33-H ) :   0.9506
B( 29-C , 34-H ) :   0.9760 B( 32-C , 37-H ) :   0.9633 B( 32-C , 38-H ) :   0.9584

Dispersion correction           -0.042549925
FINAL SINGLE POINT ENERGY     -1190.249859701102

DIPOLE MOMENT
-------------
                                X             Y             Z
Electronic contribution:    -18.46500       3.21840     -16.20010
Nuclear contribution   :     18.77618      -4.78855      17.68602
                        -----------------------------------------
Total Dipole Moment    :      0.31118      -1.57014       1.48592
                        -----------------------------------------
Magnitude (a.u.)       :      2.18406
Magnitude (Debye)      :      5.55145

Rotational constants in cm-1:     0.014368     0.012319     0.007509
Rotational constants in MHz :   430.738566   369.302170   225.105103

                             ****ORCA TERMINATED NORMALLY****
TOTAL RUN TIME: 0 days 0 hours 1 minutes 43 seconds 214 msec
