                         Program Version 5.0.0 -  RELEASE  -
|  1> !PBE0 D3BJ RIJCOSX def2-TZVP def2/J TightSCF xyzfile
|  2>
|  3> *xyzfile 0 1 D9.xyz
|  4>
|  5> %MaxCore 64000
|  6>
|  7> %pal nprocs 18
|  8> end
|  9>
| 10> %scf
| 11>   MaxIter 150
| 12> end
| 13>
| 14>
| 15>                          ****END OF INPUT****

CARTESIAN COORDINATES (ANGSTROEM)
---------------------------------
  C      4.490588    1.155899   -2.469290
  N      4.305394    1.222762   -3.908317
  C      4.906458   -3.102816   -5.954844
  C      3.511771   -2.806215   -6.492283
  H      2.736044   -3.373445   -5.973736
  H      3.444904   -3.040831   -7.555281
  S      3.004618   -1.096206   -6.389259
  C      4.631918    2.246365   -4.670958
  N      4.541686    2.143990   -5.987139
  C      5.084086    3.393584   -4.118545
  H      4.920675    3.570501   -3.135870
  H      5.254652    4.197390   -4.706956
  H      3.824530    0.449113   -4.350926
  H      4.343373    1.249318   -6.416646
  H      4.676712    2.956624   -6.574113
  O      4.128856   -0.329647   -6.953717
  O      1.781285   -1.000779   -7.136399
  C      5.942129    0.939500   -2.036893
  H      3.864305    0.328532   -2.136611
  H      4.076233    2.049994   -1.989010
  C      6.462677   -3.117775   -3.944671
  C      5.024977   -3.025679   -4.437625
  H      4.423321   -3.818693   -3.977648
  H      4.579350   -2.087131   -4.108727
  H      5.201533   -4.100207   -6.296905
  H      5.605922   -2.397822   -6.413368
  C      6.559957   -0.356290   -2.559086
  H      5.967976    0.952567   -0.942444
  H      6.547184    1.788331   -2.368849
  C      6.006283   -1.615917   -1.899301
  H      7.642360   -0.318000   -2.402059
  H      6.414855   -0.403433   -3.642587
  C      6.608718   -2.917014   -2.435655
  H      6.190324   -1.561115   -0.820948
  H      4.919250   -1.651245   -2.016586
  H      7.066975   -2.374258   -4.475514
  H      6.887808   -4.089747   -4.215332
  H      6.135197   -3.755573   -1.915159
  H      7.671142   -2.955503   -2.172291
  F      2.851546   -0.783683   -4.956789

 Total Charge           Charge          ....    0
 Multiplicity           Mult            ....    1
 Number of Electrons    NEL             ....  144
 Basis Dimension        Dim             ....  671

ORBITAL ENERGIES
----------------

  NO   OCC          E(Eh)            E(eV)
   0   2.0000     -89.286619     -2429.6124
   1   2.0000     -24.909884      -677.8324
   2   2.0000     -19.244223      -523.6619
   3   2.0000     -19.241549      -523.5892
   4   2.0000     -14.371675      -391.0732
   5   2.0000     -14.347542      -390.4165
   6   2.0000     -10.299934      -280.2755
   7   2.0000     -10.259318      -279.1702
   8   2.0000     -10.247595      -278.8512
   9   2.0000     -10.244708      -278.7727
  10   2.0000     -10.242114      -278.7021
  11   2.0000     -10.230155      -278.3767
  12   2.0000     -10.223644      -278.1995
  13   2.0000     -10.217660      -278.0367
  14   2.0000     -10.209702      -277.8201
  15   2.0000     -10.204680      -277.6835
  16   2.0000     -10.112718      -275.1810
  17   2.0000      -8.233254      -224.0382
  18   2.0000      -6.173801      -167.9977
  19   2.0000      -6.167257      -167.8196
  20   2.0000      -6.166760      -167.8061
  21   2.0000      -1.426357       -38.8131
  22   2.0000      -1.165616       -31.7180
  23   2.0000      -1.072463       -29.1832
  24   2.0000      -0.981120       -26.6976
  25   2.0000      -0.893439       -24.3117
  26   2.0000      -0.880911       -23.9708
  27   2.0000      -0.843076       -22.9413
  28   2.0000      -0.809983       -22.0408
  29   2.0000      -0.778722       -21.1901
  30   2.0000      -0.755740       -20.5647
  31   2.0000      -0.722216       -19.6525
  32   2.0000      -0.708902       -19.2902
  33   2.0000      -0.682585       -18.5741
  34   2.0000      -0.657871       -17.9016
  35   2.0000      -0.633084       -17.2271
  36   2.0000      -0.622715       -16.9449
  37   2.0000      -0.614397       -16.7186
  38   2.0000      -0.598495       -16.2859
  39   2.0000      -0.582413       -15.8483
  40   2.0000      -0.554289       -15.0830
  41   2.0000      -0.541930       -14.7467
  42   2.0000      -0.529793       -14.4164
  43   2.0000      -0.523965       -14.2578
  44   2.0000      -0.508571       -13.8389
  45   2.0000      -0.505550       -13.7567
  46   2.0000      -0.491308       -13.3692
  47   2.0000      -0.486005       -13.2249
  48   2.0000      -0.469237       -12.7686
  49   2.0000      -0.464253       -12.6330
  50   2.0000      -0.452145       -12.3035
  51   2.0000      -0.450555       -12.2602
  52   2.0000      -0.432914       -11.7802
  53   2.0000      -0.424948       -11.5634
  54   2.0000      -0.411105       -11.1867
  55   2.0000      -0.405235       -11.0270
  56   2.0000      -0.398323       -10.8389
  57   2.0000      -0.389486       -10.5985
  58   2.0000      -0.383486       -10.4352
  59   2.0000      -0.376792       -10.2530
  60   2.0000      -0.372725       -10.1424
  61   2.0000      -0.368637       -10.0311
  62   2.0000      -0.362679        -9.8690
  63   2.0000      -0.357714        -9.7339
  64   2.0000      -0.355397        -9.6708
  65   2.0000      -0.350044        -9.5252
  66   2.0000      -0.346587        -9.4311
  67   2.0000      -0.330239        -8.9863
  68   2.0000      -0.328598        -8.9416
  69   2.0000      -0.319843        -8.7034
  70   2.0000      -0.242331        -6.5942
  71   2.0000      -0.155949        -4.2436
  72   0.0000       0.000917         0.0250
  73   0.0000       0.025136         0.6840
  74   0.0000       0.039189         1.0664
  75   0.0000       0.043971         1.1965
  76   0.0000       0.048259         1.3132

MULLIKEN ATOMIC CHARGES
-----------------------
   0 C :   -0.207128
   1 N :   -0.290720
   2 C :   -0.179958
   3 C :   -0.237899
   4 H :    0.154189
   5 H :    0.183226
   6 S :    0.838754
   7 C :    0.344246
   8 N :   -0.491775
   9 C :   -0.569459
  10 H :    0.103930
  11 H :    0.079271
  12 H :    0.173369
  13 H :    0.245852
  14 H :    0.236237
  15 O :   -0.451163
  16 O :   -0.381285
  17 C :   -0.092095
  18 H :    0.117690
  19 H :    0.129933
  20 C :   -0.218306
  21 C :   -0.296873
  22 H :    0.108263
  23 H :    0.087930
  24 H :    0.123469
  25 H :    0.148687
  26 C :   -0.257979
  27 H :    0.085799
  28 H :    0.138283
  29 C :   -0.257605
  30 H :    0.105849
  31 H :    0.121169
  32 C :   -0.132911
  33 H :    0.107209
  34 H :    0.103833
  35 H :    0.126469
  36 H :    0.108771
  37 H :    0.099262
  38 H :    0.106759
  39 F :   -0.113292
Sum of atomic charges:   -0.0000000

LOEWDIN ATOMIC CHARGES
----------------------
   0 C :   -0.285521
   1 N :    0.114565
   2 C :   -0.284930
   3 C :   -0.362484
   4 H :    0.145793
   5 H :    0.159219
   6 S :    0.552154
   7 C :   -0.476290
   8 N :   -0.009100
   9 C :   -0.367743
  10 H :    0.095232
  11 H :    0.091775
  12 H :    0.156140
  13 H :    0.136844
  14 H :    0.174447
  15 O :   -0.269844
  16 O :   -0.235392
  17 C :   -0.268537
  18 H :    0.128794
  19 H :    0.134804
  20 C :   -0.270572
  21 C :   -0.278176
  22 H :    0.140226
  23 H :    0.131781
  24 H :    0.148653
  25 H :    0.151812
  26 C :   -0.272704
  27 H :    0.137313
  28 H :    0.147804
  29 C :   -0.276210
  30 H :    0.139416
  31 H :    0.138079
  32 C :   -0.269574
  33 H :    0.139066
  34 H :    0.129815
  35 H :    0.141633
  36 H :    0.138798
  37 H :    0.137210
  38 H :    0.140213
  39 F :    0.075492

  Mayer bond orders larger than 0.100000
B(  0-C ,  1-N ) :   0.9702 B(  0-C , 17-C ) :   0.9819 B(  0-C , 18-H ) :   0.9761
B(  0-C , 19-H ) :   0.9630 B(  1-N ,  7-C ) :   1.1717 B(  1-N , 12-H ) :   0.9155
B(  2-C ,  3-C ) :   0.9758 B(  2-C , 21-C ) :   1.0107 B(  2-C , 24-H ) :   0.9370
B(  2-C , 25-H ) :   0.9500 B(  3-C ,  4-H ) :   0.9397 B(  3-C ,  5-H ) :   0.9349
B(  3-C ,  6-S ) :   0.9166 B(  6-S , 15-O ) :   1.7820 B(  6-S , 16-O ) :   2.0055
B(  6-S , 39-F ) :   1.0674 B(  7-C ,  8-N ) :   1.1917 B(  7-C ,  9-C ) :   1.6323
B(  8-N , 13-H ) :   0.8602 B(  8-N , 14-H ) :   0.9194 B(  9-C , 10-H ) :   0.9860
B(  9-C , 11-H ) :   0.9918 B( 17-C , 26-C ) :   1.0034 B( 17-C , 27-H ) :   0.9565
B( 17-C , 28-H ) :   0.9412 B( 20-C , 21-C ) :   1.0143 B( 20-C , 32-C ) :   0.9966
B( 20-C , 35-H ) :   0.9683 B( 20-C , 36-H ) :   0.9543 B( 21-C , 22-H ) :   0.9516
B( 21-C , 23-H ) :   0.9633 B( 26-C , 29-C ) :   0.9924 B( 26-C , 30-H ) :   0.9550
B( 26-C , 31-H ) :   0.9600 B( 29-C , 32-C ) :   0.9961 B( 29-C , 33-H ) :   0.9509
B( 29-C , 34-H ) :   0.9768 B( 32-C , 37-H ) :   0.9636 B( 32-C , 38-H ) :   0.9579

Dispersion correction           -0.042479932
FINAL SINGLE POINT ENERGY     -1190.266275568480

DIPOLE MOMENT
-------------
                                X             Y             Z
Electronic contribution:    -18.99479       1.85880     -17.89662
Nuclear contribution   :     18.85717      -4.60195      17.96505
                        -----------------------------------------
Total Dipole Moment    :     -0.13761      -2.74315       0.06843
                        -----------------------------------------
Magnitude (a.u.)       :      2.74745
Magnitude (Debye)      :      6.98346

Rotational constants in cm-1:     0.014436     0.012382     0.007563
Rotational constants in MHz :   432.785702   371.214592   226.743759

                             ****ORCA TERMINATED NORMALLY****
TOTAL RUN TIME: 0 days 0 hours 1 minutes 29 seconds 274 msec
