                         Program Version 5.0.0 -  RELEASE  -
|  1> !BLYP D3BJ RIJCOSX def2-SVP def2/J TightSCF
|  2> *xyz -1 1
|  3> C         -7.33044       -2.67899       -3.20681
|  4> S         -6.01966       -2.92697       -4.41913
|  5> O         -5.64583       -1.58838       -4.91931
|  6> O         -4.88196       -3.50370       -3.66724
|  7> O         -6.54927       -3.80515       -5.42507
|  8> C         -7.46900       -1.24615       -2.71383
|  9> H         -7.11825       -3.37982       -2.39805
| 10> H         -8.24184       -3.00474       -3.70651
| 11> H         -7.67580       -0.60214       -3.54292
| 12> H         -6.55749       -0.94096       -2.24382
| 13> H         -8.27114       -1.18777       -2.00810
| 14> *
| 15> %MaxCore 64000
| 16>
| 17> %pal nprocs 4
| 18> end
| 19>
| 20> %scf
| 21>   MaxIter 150
| 22> end
| 23>
| 24>
| 25>                          ****END OF INPUT****

CARTESIAN COORDINATES (ANGSTROEM)
---------------------------------
  C     -7.330440   -2.678990   -3.206810
  S     -6.019660   -2.926970   -4.419130
  O     -5.645830   -1.588380   -4.919310
  O     -4.881960   -3.503700   -3.667240
  O     -6.549270   -3.805150   -5.425070
  C     -7.469000   -1.246150   -2.713830
  H     -7.118250   -3.379820   -2.398050
  H     -8.241840   -3.004740   -3.706510
  H     -7.675800   -0.602140   -3.542920
  H     -6.557490   -0.940960   -2.243820
  H     -8.271140   -1.187770   -2.008100

 Total Charge           Charge          ....   -1
 Multiplicity           Mult            ....    1
 Number of Electrons    NEL             ....   58
 Basis Dimension        Dim             ....  113

ORBITAL ENERGIES
----------------

  NO   OCC          E(Eh)            E(eV)
   0   2.0000     -88.078294     -2396.7322
   1   2.0000     -18.526662      -504.1361
   2   2.0000     -18.517142      -503.8771
   3   2.0000     -18.510553      -503.6977
   4   2.0000      -9.769942      -265.8536
   5   2.0000      -9.762009      -265.6378
   6   2.0000      -7.622064      -207.4069
   7   2.0000      -5.656616      -153.9244
   8   2.0000      -5.656520      -153.9217
   9   2.0000      -5.656261      -153.9147
  10   2.0000      -0.790945       -21.5227
  11   2.0000      -0.654527       -17.8106
  12   2.0000      -0.631542       -17.1851
  13   2.0000      -0.534215       -14.5367
  14   2.0000      -0.417224       -11.3532
  15   2.0000      -0.293006        -7.9731
  16   2.0000      -0.251428        -6.8417
  17   2.0000      -0.229912        -6.2562
  18   2.0000      -0.199042        -5.4162
  19   2.0000      -0.177274        -4.8239
  20   2.0000      -0.171377        -4.6634
  21   2.0000      -0.152996        -4.1632
  22   2.0000      -0.148883        -4.0513
  23   2.0000      -0.054921        -1.4945
  24   2.0000      -0.053185        -1.4472
  25   2.0000      -0.029991        -0.8161
  26   2.0000      -0.020421        -0.5557
  27   2.0000      -0.007814        -0.2126
  28   2.0000       0.027457         0.7471
  29   0.0000       0.182396         4.9632
  30   0.0000       0.233991         6.3672
  31   0.0000       0.236408         6.4330
  32   0.0000       0.243764         6.6332
  33   0.0000       0.266698         7.2572

MULLIKEN ATOMIC CHARGES
-----------------------
   0 C :   -0.022610
   1 S :    0.761502
   2 O :   -0.553995
   3 O :   -0.574081
   4 O :   -0.523609
   5 C :    0.126066
   6 H :   -0.037237
   7 H :   -0.045597
   8 H :   -0.028715
   9 H :   -0.026888
  10 H :   -0.074835
Sum of atomic charges:   -1.0000000

LOEWDIN ATOMIC CHARGES
----------------------
   0 C :   -0.181085
   1 S :    1.064072
   2 O :   -0.613949
   3 O :   -0.630423
   4 O :   -0.582167
   5 C :   -0.059885
   6 H :   -0.000333
   7 H :   -0.004306
   8 H :    0.007369
   9 H :    0.009636
  10 H :   -0.008928

  Mayer bond orders larger than 0.100000
B(  0-C ,  1-S ) :   0.8588 B(  0-C ,  5-C ) :   1.1093 B(  0-C ,  6-H ) :   0.9284
B(  0-C ,  7-H ) :   0.9261 B(  1-S ,  2-O ) :   1.6121 B(  1-S ,  3-O ) :   1.6018
B(  1-S ,  4-O ) :   1.6555 B(  5-C ,  8-H ) :   0.9521 B(  5-C ,  9-H ) :   0.9575
B(  5-C , 10-H ) :   0.9361

Dispersion correction           -0.020460062
FINAL SINGLE POINT ENERGY      -702.637352171877

DIPOLE MOMENT
-------------
                                X             Y             Z
Electronic contribution:      4.91503      -3.60154      -5.31317
Nuclear contribution   :     -6.18165       4.01759       6.33106
                        -----------------------------------------
Total Dipole Moment    :     -1.26662       0.41606       1.01789
                        -----------------------------------------
Magnitude (a.u.)       :      1.67736
Magnitude (Debye)      :      4.26351

Rotational constants in cm-1:     0.161711     0.082788     0.081165
Rotational constants in MHz :  4847.971521  2481.906910  2433.276832

                             ****ORCA TERMINATED NORMALLY****
TOTAL RUN TIME: 0 days 0 hours 0 minutes 7 seconds 740 msec
