                         Program Version 5.0.0 -  RELEASE  -
|  1> !BLYP D3BJ RIJCOSX def2-SVP def2/J TightSCF
|  2> *xyz 1 1
|  3> C         -2.16038       -1.36949       -3.46710
|  4> N         -3.03011       -1.91086       -4.54107
|  5> C         -2.04772        0.14658       -3.51177
|  6> H         -3.47744       -2.79151       -4.25710
|  7> H         -2.53801       -2.01786       -5.43808
|  8> H         -3.89159       -1.37604       -4.71437
|  9> H         -1.18444       -1.84400       -3.56639
| 10> H         -2.59819       -1.70838       -2.52848
| 11> H         -1.61525        0.44478       -4.44395
| 12> H         -1.42718        0.48198       -2.70720
| 13> H         -3.02145        0.57958       -3.41560
| 14> *
| 15> %MaxCore 64000
| 16>
| 17> %pal nprocs 4
| 18> end
| 19>
| 20> %scf
| 21>   MaxIter 150
| 22> end
| 23>
| 24>
| 25>                          ****END OF INPUT****

CARTESIAN COORDINATES (ANGSTROEM)
---------------------------------
  C     -2.160380   -1.369490   -3.467100
  N     -3.030110   -1.910860   -4.541070
  C     -2.047720    0.146580   -3.511770
  H     -3.477440   -2.791510   -4.257100
  H     -2.538010   -2.017860   -5.438080
  H     -3.891590   -1.376040   -4.714370
  H     -1.184440   -1.844000   -3.566390
  H     -2.598190   -1.708380   -2.528480
  H     -1.615250    0.444780   -4.443950
  H     -1.427180    0.481980   -2.707200
  H     -3.021450    0.579580   -3.415600

 Total Charge           Charge          ....    1
 Multiplicity           Mult            ....    1
 Number of Electrons    NEL             ....   26
 Basis Dimension        Dim             ....   82

ORBITAL ENERGIES
----------------

  NO   OCC          E(Eh)            E(eV)
   0   2.0000     -14.360275      -390.7630
   1   2.0000     -10.175975      -276.9024
   2   2.0000     -10.098699      -274.7996
   3   2.0000      -1.123807       -30.5803
   4   2.0000      -0.885753       -24.1026
   5   2.0000      -0.776827       -21.1385
   6   2.0000      -0.754892       -20.5417
   7   2.0000      -0.715349       -19.4656
   8   2.0000      -0.647640       -17.6232
   9   2.0000      -0.590418       -16.0661
  10   2.0000      -0.533836       -14.5264
  11   2.0000      -0.519914       -14.1476
  12   2.0000      -0.502863       -13.6836
  13   0.0000      -0.213090        -5.7985
  14   0.0000      -0.157387        -4.2827
  15   0.0000      -0.155537        -4.2324
  16   0.0000      -0.116425        -3.1681
  17   0.0000      -0.078836        -2.1452

MULLIKEN ATOMIC CHARGES
-----------------------
   0 C :    0.006886
   1 N :    0.082905
   2 C :    0.055780
   3 H :    0.190972
   4 H :    0.201580
   5 H :    0.180518
   6 H :    0.075298
   7 H :    0.067486
   8 H :    0.035214
   9 H :    0.069182
  10 H :    0.034178
Sum of atomic charges:    1.0000000

LOEWDIN ATOMIC CHARGES
----------------------
   0 C :    0.056014
   1 N :    0.305304
   2 C :   -0.025294
   3 H :    0.145336
   4 H :    0.143946
   5 H :    0.139099
   6 H :    0.052852
   7 H :    0.049499
   8 H :    0.036772
   9 H :    0.060788
  10 H :    0.035683

  Mayer bond orders larger than 0.100000
B(  0-C ,  1-N ) :   0.9538 B(  0-C ,  2-C ) :   1.1330 B(  0-C ,  6-H ) :   0.9438
B(  0-C ,  7-H ) :   0.9465 B(  1-N ,  3-H ) :   0.9375 B(  1-N ,  4-H ) :   0.9383
B(  1-N ,  5-H ) :   0.9355 B(  2-C ,  8-H ) :   0.9659 B(  2-C ,  9-H ) :   0.9499
B(  2-C , 10-H ) :   0.9618

Dispersion correction           -0.012374211
FINAL SINGLE POINT ENERGY      -135.355416221495

DIPOLE MOMENT
-------------
                                X             Y             Z
Electronic contribution:     -0.66982      -1.51300      -0.80540
Nuclear contribution   :     -0.15215       0.37393      -0.04773
                        -----------------------------------------
Total Dipole Moment    :     -0.82197      -1.13907      -0.85314
                        -----------------------------------------
Magnitude (a.u.)       :      1.64346
Magnitude (Debye)      :      4.17733

Rotational constants in cm-1:     1.020762     0.277172     0.247319
Rotational constants in MHz : 30601.664035  8309.399682  7414.438136

                             ****ORCA TERMINATED NORMALLY****
TOTAL RUN TIME: 0 days 0 hours 0 minutes 5 seconds 808 msec
