                         Program Version 5.0.0 -  RELEASE  -
|  1> !BLYP D3BJ RIJCOSX def2-SVP def2/J TightSCF
|  2> *xyz 0 1
|  3> C         -7.33044       -2.67899       -3.20681
|  4> S         -6.01966       -2.92697       -4.41913
|  5> F         -5.64583       -1.58838       -4.91931
|  6> O         -4.88196       -3.50370       -3.66724
|  7> O         -6.54927       -3.80515       -5.42507
|  8> C         -7.46900       -1.24615       -2.71383
|  9> H         -7.11825       -3.37982       -2.39805
| 10> H         -8.24184       -3.00474       -3.70651
| 11> H         -7.67580       -0.60214       -3.54292
| 12> H         -6.55749       -0.94096       -2.24382
| 13> H         -8.27114       -1.18777       -2.00810
| 14> *
| 15> %MaxCore 64000
| 16>
| 17> %pal nprocs 4
| 18> end
| 19>
| 20> %scf
| 21>   MaxIter 150
| 22> end
| 23>
| 24>
| 25>                          ****END OF INPUT****

CARTESIAN COORDINATES (ANGSTROEM)
---------------------------------
  C     -7.330440   -2.678990   -3.206810
  S     -6.019660   -2.926970   -4.419130
  F     -5.645830   -1.588380   -4.919310
  O     -4.881960   -3.503700   -3.667240
  O     -6.549270   -3.805150   -5.425070
  C     -7.469000   -1.246150   -2.713830
  H     -7.118250   -3.379820   -2.398050
  H     -8.241840   -3.004740   -3.706510
  H     -7.675800   -0.602140   -3.542920
  H     -6.557490   -0.940960   -2.243820
  H     -8.271140   -1.187770   -2.008100

 Total Charge           Charge          ....    0
 Multiplicity           Mult            ....    1
 Number of Electrons    NEL             ....   58
 Basis Dimension        Dim             ....  113

ORBITAL ENERGIES
----------------

  NO   OCC          E(Eh)            E(eV)
   0   2.0000     -88.348175     -2404.0761
   1   2.0000     -24.379448      -663.3985
   2   2.0000     -18.779116      -511.0057
   3   2.0000     -18.763617      -510.5840
   4   2.0000      -9.974137      -271.4101
   5   2.0000      -9.948164      -270.7033
   6   2.0000      -7.894466      -214.8193
   7   2.0000      -5.933200      -161.4506
   8   2.0000      -5.926779      -161.2758
   9   2.0000      -5.925430      -161.2392
  10   2.0000      -1.220154       -33.2021
  11   2.0000      -0.994824       -27.0705
  12   2.0000      -0.894200       -24.3324
  13   2.0000      -0.738350       -20.0915
  14   2.0000      -0.637383       -17.3441
  15   2.0000      -0.596185       -16.2230
  16   2.0000      -0.510956       -13.9038
  17   2.0000      -0.483077       -13.1452
  18   2.0000      -0.462058       -12.5732
  19   2.0000      -0.438258       -11.9256
  20   2.0000      -0.406393       -11.0585
  21   2.0000      -0.388501       -10.5717
  22   2.0000      -0.370939       -10.0938
  23   2.0000      -0.361441        -9.8353
  24   2.0000      -0.344374        -9.3709
  25   2.0000      -0.315696        -8.5905
  26   2.0000      -0.270048        -7.3484
  27   2.0000      -0.253433        -6.8962
  28   2.0000      -0.238897        -6.5007
  29   0.0000      -0.007371        -0.2006
  30   0.0000       0.036380         0.9899
  31   0.0000       0.052964         1.4412
  32   0.0000       0.059609         1.6220
  33   0.0000       0.074831         2.0363

MULLIKEN ATOMIC CHARGES
-----------------------
   0 C :   -0.061019
   1 S :    0.847708
   2 F :   -0.169786
   3 O :   -0.436646
   4 O :   -0.386082
   5 C :    0.070036
   6 H :    0.058212
   7 H :    0.039775
   8 H :    0.007616
   9 H :    0.016468
  10 H :    0.013718
Sum of atomic charges:    0.0000000

LOEWDIN ATOMIC CHARGES
----------------------
   0 C :   -0.138422
   1 S :    1.123481
   2 F :   -0.137100
   3 O :   -0.500352
   4 O :   -0.451988
   5 C :   -0.050023
   6 H :    0.043382
   7 H :    0.032117
   8 H :    0.021261
   9 H :    0.025118
  10 H :    0.032527

  Mayer bond orders larger than 0.100000
B(  0-C ,  1-S ) :   0.9075 B(  0-C ,  5-C ) :   1.0957 B(  0-C ,  6-H ) :   0.9302
B(  0-C ,  7-H ) :   0.9296 B(  1-S ,  2-F ) :   1.0043 B(  1-S ,  3-O ) :   1.7572
B(  1-S ,  4-O ) :   1.8031 B(  5-C ,  8-H ) :   0.9666 B(  5-C ,  9-H ) :   0.9665
B(  5-C , 10-H ) :   0.9518

Dispersion correction           -0.019416574
FINAL SINGLE POINT ENERGY      -727.166817586597

DIPOLE MOMENT
-------------
                                X             Y             Z
Electronic contribution:      5.76565      -1.78909      -6.47906
Nuclear contribution   :     -6.81251       2.87933       7.15058
                        -----------------------------------------
Total Dipole Moment    :     -1.04686       1.09024       0.67151
                        -----------------------------------------
Magnitude (a.u.)       :      1.65392
Magnitude (Debye)      :      4.20394

Rotational constants in cm-1:     0.152543     0.082494     0.078987
Rotational constants in MHz :  4573.135887  2473.116216  2367.980829

                             ****ORCA TERMINATED NORMALLY****
TOTAL RUN TIME: 0 days 0 hours 0 minutes 7 seconds 558 msec
