                         Program Version 5.0.0 -  RELEASE  -
|  1> !BLYP D3BJ RIJCOSX def2-SVP def2/J TightSCF
|  2> *xyz 0 1
|  3> C         -2.16038       -1.36949       -3.46710
|  4> C         -3.03011       -1.91086       -4.54107
|  5> C         -2.04772        0.14658       -3.51177
|  6> H         -3.47744       -2.79151       -4.25710
|  7> H         -2.53801       -2.01786       -5.43808
|  8> H         -3.89159       -1.37604       -4.71437
|  9> H         -1.18444       -1.84400       -3.56639
| 10> H         -2.59819       -1.70838       -2.52848
| 11> H         -1.61525        0.44478       -4.44395
| 12> H         -1.42718        0.48198       -2.70720
| 13> H         -3.02145        0.57958       -3.41560
| 14> *
| 15> %MaxCore 64000
| 16>
| 17> %pal nprocs 4
| 18> end
| 19>
| 20> %scf
| 21>   MaxIter 150
| 22> end
| 23>
| 24>
| 25>                          ****END OF INPUT****

CARTESIAN COORDINATES (ANGSTROEM)
---------------------------------
  C     -2.160380   -1.369490   -3.467100
  C     -3.030110   -1.910860   -4.541070
  C     -2.047720    0.146580   -3.511770
  H     -3.477440   -2.791510   -4.257100
  H     -2.538010   -2.017860   -5.438080
  H     -3.891590   -1.376040   -4.714370
  H     -1.184440   -1.844000   -3.566390
  H     -2.598190   -1.708380   -2.528480
  H     -1.615250    0.444780   -4.443950
  H     -1.427180    0.481980   -2.707200
  H     -3.021450    0.579580   -3.415600

 Total Charge           Charge          ....    0
 Multiplicity           Mult            ....    1
 Number of Electrons    NEL             ....   26
 Basis Dimension        Dim             ....   82

ORBITAL ENERGIES
----------------

  NO   OCC          E(Eh)            E(eV)
   0   2.0000      -9.907817      -269.6054
   1   2.0000      -9.901165      -269.4244
   2   2.0000      -9.884895      -268.9817
   3   2.0000      -0.700562       -19.0632
   4   2.0000      -0.609192       -16.5770
   5   2.0000      -0.514970       -14.0130
   6   2.0000      -0.411379       -11.1942
   7   2.0000      -0.383256       -10.4289
   8   2.0000      -0.348801        -9.4914
   9   2.0000      -0.341005        -9.2792
  10   2.0000      -0.291709        -7.9378
  11   2.0000      -0.280110        -7.6222
  12   2.0000      -0.279525        -7.6063
  13   0.0000       0.042412         1.1541
  14   0.0000       0.086867         2.3638
  15   0.0000       0.090399         2.4599
  16   0.0000       0.092458         2.5159
  17   0.0000       0.122835         3.3425

MULLIKEN ATOMIC CHARGES
-----------------------
   0 C :    0.013699
   1 C :    0.141599
   2 C :    0.090515
   3 H :   -0.049547
   4 H :   -0.030938
   5 H :   -0.053177
   6 H :   -0.024952
   7 H :   -0.029755
   8 H :   -0.018573
   9 H :   -0.020473
  10 H :   -0.018399
Sum of atomic charges:    0.0000000

LOEWDIN ATOMIC CHARGES
----------------------
   0 C :   -0.027843
   1 C :   -0.039454
   2 C :   -0.038545
   3 H :    0.013366
   4 H :    0.009515
   5 H :    0.009642
   6 H :    0.015352
   7 H :    0.014026
   8 H :    0.014570
   9 H :    0.014909
  10 H :    0.014464

  Mayer bond orders larger than 0.100000
B(  0-C ,  1-C ) :   1.1454 B(  0-C ,  2-C ) :   1.1334 B(  0-C ,  6-H ) :   0.9410
B(  0-C ,  7-H ) :   0.9412 B(  1-C ,  3-H ) :   0.9421 B(  1-C ,  4-H ) :   0.9626
B(  1-C ,  5-H ) :   0.9456 B(  2-C ,  8-H ) :   0.9686 B(  2-C ,  9-H ) :   0.9587
B(  2-C , 10-H ) :   0.9652

Dispersion correction           -0.012458250
FINAL SINGLE POINT ENERGY      -118.947493800931

DIPOLE MOMENT
-------------
                                X             Y             Z
Electronic contribution:      0.31971      -0.12080       0.27060
Nuclear contribution   :     -0.34625       0.09603      -0.26933
                        -----------------------------------------
Total Dipole Moment    :     -0.02654      -0.02477       0.00127
                        -----------------------------------------
Magnitude (a.u.)       :      0.03632
Magnitude (Debye)      :      0.09233

Rotational constants in cm-1:     1.028617     0.291238     0.258956
Rotational constants in MHz : 30837.159054  8731.095379  7763.318586

                             ****ORCA TERMINATED NORMALLY****
TOTAL RUN TIME: 0 days 0 hours 0 minutes 6 seconds 345 msec
