                         Program Version 5.0.0 -  RELEASE  -
|  1> !BLYP D3BJ RIJCOSX def2-SVP def2/J TightSCF
|  2> *xyz 0 1
|  3> C         -7.33044       -2.67899       -3.20681
|  4> S         -6.01966       -2.92697       -4.41913
|  5> O         -5.64583       -1.58838       -4.91931
|  6> F         -4.88196       -3.50370       -3.66724
|  7> O         -6.54927       -3.80515       -5.42507
|  8> C         -7.46900       -1.24615       -2.71383
|  9> H         -7.11825       -3.37982       -2.39805
| 10> H         -8.24184       -3.00474       -3.70651
| 11> H         -7.67580       -0.60214       -3.54292
| 12> H         -6.55749       -0.94096       -2.24382
| 13> H         -8.27114       -1.18777       -2.00810
| 14> *
| 15> %MaxCore 64000
| 16>
| 17> %pal nprocs 4
| 18> end
| 19>
| 20> %scf
| 21>   MaxIter 150
| 22> end
| 23>
| 24>
| 25>                          ****END OF INPUT****

CARTESIAN COORDINATES (ANGSTROEM)
---------------------------------
  C     -7.330440   -2.678990   -3.206810
  S     -6.019660   -2.926970   -4.419130
  O     -5.645830   -1.588380   -4.919310
  F     -4.881960   -3.503700   -3.667240
  O     -6.549270   -3.805150   -5.425070
  C     -7.469000   -1.246150   -2.713830
  H     -7.118250   -3.379820   -2.398050
  H     -8.241840   -3.004740   -3.706510
  H     -7.675800   -0.602140   -3.542920
  H     -6.557490   -0.940960   -2.243820
  H     -8.271140   -1.187770   -2.008100

 Total Charge           Charge          ....    0
 Multiplicity           Mult            ....    1
 Number of Electrons    NEL             ....   58
 Basis Dimension        Dim             ....  113

ORBITAL ENERGIES
----------------

  NO   OCC          E(Eh)            E(eV)
   0   2.0000     -88.349005     -2404.0986
   1   2.0000     -24.375441      -663.2895
   2   2.0000     -18.779597      -511.0188
   3   2.0000     -18.769123      -510.7338
   4   2.0000      -9.974648      -271.4240
   5   2.0000      -9.939381      -270.4643
   6   2.0000      -7.895239      -214.8404
   7   2.0000      -5.933847      -161.4682
   8   2.0000      -5.927613      -161.2985
   9   2.0000      -5.926303      -161.2629
  10   2.0000      -1.215691       -33.0806
  11   2.0000      -0.996501       -27.1162
  12   2.0000      -0.898940       -24.4614
  13   2.0000      -0.734030       -19.9740
  14   2.0000      -0.638193       -17.3661
  15   2.0000      -0.588972       -16.0267
  16   2.0000      -0.502417       -13.6715
  17   2.0000      -0.478333       -13.0161
  18   2.0000      -0.470862       -12.8128
  19   2.0000      -0.431943       -11.7538
  20   2.0000      -0.411764       -11.2047
  21   2.0000      -0.385636       -10.4937
  22   2.0000      -0.365180        -9.9370
  23   2.0000      -0.349938        -9.5223
  24   2.0000      -0.342641        -9.3237
  25   2.0000      -0.316467        -8.6115
  26   2.0000      -0.270528        -7.3614
  27   2.0000      -0.260736        -7.0950
  28   2.0000      -0.243133        -6.6160
  29   0.0000       0.004563         0.1242
  30   0.0000       0.021089         0.5739
  31   0.0000       0.052069         1.4169
  32   0.0000       0.060586         1.6486
  33   0.0000       0.074702         2.0327

MULLIKEN ATOMIC CHARGES
-----------------------
   0 C :   -0.078395
   1 S :    0.850834
   2 O :   -0.424618
   3 F :   -0.177606
   4 O :   -0.388272
   5 C :    0.104403
   6 H :    0.028967
   7 H :    0.051173
   8 H :    0.024453
   9 H :    0.005907
  10 H :    0.003153
Sum of atomic charges:   -0.0000000

LOEWDIN ATOMIC CHARGES
----------------------
   0 C :   -0.144801
   1 S :    1.123890
   2 O :   -0.488315
   3 F :   -0.145284
   4 O :   -0.452860
   5 C :   -0.041640
   6 H :    0.025964
   7 H :    0.040296
   8 H :    0.029888
   9 H :    0.024284
  10 H :    0.028576

  Mayer bond orders larger than 0.100000
B(  0-C ,  1-S ) :   0.8912 B(  0-C ,  5-C ) :   1.1056 B(  0-C ,  6-H ) :   0.9262
B(  0-C ,  7-H ) :   0.9307 B(  1-S ,  2-O ) :   1.7686 B(  1-S ,  3-F ) :   0.9978
B(  1-S ,  4-O ) :   1.8047 B(  5-C ,  8-H ) :   0.9611 B(  5-C ,  9-H ) :   0.9648
B(  5-C , 10-H ) :   0.9465

Dispersion correction           -0.019521601
FINAL SINGLE POINT ENERGY      -727.170857143838

DIPOLE MOMENT
-------------
                                X             Y             Z
Electronic contribution:      7.07911      -5.00506      -4.41375
Nuclear contribution   :     -7.60849       4.87515       5.84588
                        -----------------------------------------
Total Dipole Moment    :     -0.52938      -0.12991       1.43213
                        -----------------------------------------
Magnitude (a.u.)       :      1.53235
Magnitude (Debye)      :      3.89493

Rotational constants in cm-1:     0.153704     0.080342     0.079431
Rotational constants in MHz :  4607.928650  2408.599360  2381.267225

                             ****ORCA TERMINATED NORMALLY****
TOTAL RUN TIME: 0 days 0 hours 0 minutes 7 seconds 583 msec
