                         Program Version 5.0.0 -  RELEASE  -
|  1> !BLYP D3BJ RIJCOSX def2-SVP def2/J TightSCF
|  2> *xyz 0 1
|  3> C         -7.33044       -2.67899       -3.20681
|  4> S         -6.01966       -2.92697       -4.41913
|  5> O         -5.64583       -1.58838       -4.91931
|  6> O         -4.88196       -3.50370       -3.66724
|  7> F         -6.54927       -3.80515       -5.42507
|  8> C         -7.46900       -1.24615       -2.71383
|  9> H         -7.11825       -3.37982       -2.39805
| 10> H         -8.24184       -3.00474       -3.70651
| 11> H         -7.67580       -0.60214       -3.54292
| 12> H         -6.55749       -0.94096       -2.24382
| 13> H         -8.27114       -1.18777       -2.00810
| 14> *
| 15> %MaxCore 64000
| 16>
| 17> %pal nprocs 4
| 18> end
| 19>
| 20> %scf
| 21>   MaxIter 150
| 22> end
| 23>
| 24>
| 25>                          ****END OF INPUT****

CARTESIAN COORDINATES (ANGSTROEM)
---------------------------------
  C     -7.330440   -2.678990   -3.206810
  S     -6.019660   -2.926970   -4.419130
  O     -5.645830   -1.588380   -4.919310
  O     -4.881960   -3.503700   -3.667240
  F     -6.549270   -3.805150   -5.425070
  C     -7.469000   -1.246150   -2.713830
  H     -7.118250   -3.379820   -2.398050
  H     -8.241840   -3.004740   -3.706510
  H     -7.675800   -0.602140   -3.542920
  H     -6.557490   -0.940960   -2.243820
  H     -8.271140   -1.187770   -2.008100

 Total Charge           Charge          ....    0
 Multiplicity           Mult            ....    1
 Number of Electrons    NEL             ....   58
 Basis Dimension        Dim             ....  113

ORBITAL ENERGIES
----------------

  NO   OCC          E(Eh)            E(eV)
   0   2.0000     -88.350472     -2404.1386
   1   2.0000     -24.397401      -663.8870
   2   2.0000     -18.768529      -510.7176
   3   2.0000     -18.764152      -510.5985
   4   2.0000      -9.975265      -271.4408
   5   2.0000      -9.939426      -270.4655
   6   2.0000      -7.896762      -214.8818
   7   2.0000      -5.935629      -161.5167
   8   2.0000      -5.928886      -161.3332
   9   2.0000      -5.927576      -161.2975
  10   2.0000      -1.252785       -34.0900
  11   2.0000      -0.980734       -26.6871
  12   2.0000      -0.880888       -23.9702
  13   2.0000      -0.734053       -19.9746
  14   2.0000      -0.650708       -17.7067
  15   2.0000      -0.597192       -16.2504
  16   2.0000      -0.512853       -13.9554
  17   2.0000      -0.504875       -13.7384
  18   2.0000      -0.478226       -13.0132
  19   2.0000      -0.434729       -11.8296
  20   2.0000      -0.409915       -11.1544
  21   2.0000      -0.379565       -10.3285
  22   2.0000      -0.361130        -9.8268
  23   2.0000      -0.351965        -9.5775
  24   2.0000      -0.337403        -9.1812
  25   2.0000      -0.307981        -8.3806
  26   2.0000      -0.261609        -7.1187
  27   2.0000      -0.250691        -6.8216
  28   2.0000      -0.228494        -6.2176
  29   0.0000       0.006330         0.1722
  30   0.0000       0.019242         0.5236
  31   0.0000       0.047278         1.2865
  32   0.0000       0.061709         1.6792
  33   0.0000       0.072123         1.9626

MULLIKEN ATOMIC CHARGES
-----------------------
   0 C :   -0.071960
   1 S :    0.841394
   2 O :   -0.419839
   3 O :   -0.432332
   4 F :   -0.132088
   5 C :    0.107233
   6 H :    0.046678
   7 H :    0.018879
   8 H :    0.014154
   9 H :    0.022800
  10 H :    0.005082
Sum of atomic charges:   -0.0000000

LOEWDIN ATOMIC CHARGES
----------------------
   0 C :   -0.143767
   1 S :    1.116248
   2 O :   -0.485146
   3 O :   -0.495498
   4 F :   -0.100422
   5 C :   -0.036302
   6 H :    0.036094
   7 H :    0.021283
   8 H :    0.026748
   9 H :    0.031049
  10 H :    0.029712

  Mayer bond orders larger than 0.100000
B(  0-C ,  1-S ) :   0.8928 B(  0-C ,  5-C ) :   1.1156 B(  0-C ,  6-H ) :   0.9267
B(  0-C ,  7-H ) :   0.9232 B(  1-S ,  2-O ) :   1.7629 B(  1-S ,  3-O ) :   1.7513
B(  1-S ,  4-F ) :   1.0489 B(  5-C ,  8-H ) :   0.9582 B(  5-C ,  9-H ) :   0.9655
B(  5-C , 10-H ) :   0.9475

Dispersion correction           -0.019550833
FINAL SINGLE POINT ENERGY      -727.151602145978

DIPOLE MOMENT
-------------
                                X             Y             Z
Electronic contribution:      4.28709      -5.49469      -7.36234
Nuclear contribution   :     -5.87110       5.18927       7.67759
                        -----------------------------------------
Total Dipole Moment    :     -1.58401      -0.30542       0.31525
                        -----------------------------------------
Magnitude (a.u.)       :      1.64370
Magnitude (Debye)      :      4.17795

Rotational constants in cm-1:     0.155988     0.080452     0.078187
Rotational constants in MHz :  4676.405251  2411.902056  2343.983816

                             ****ORCA TERMINATED NORMALLY****
TOTAL RUN TIME: 0 days 0 hours 0 minutes 7 seconds 807 msec
