                         Program Version 5.0.0 -  RELEASE  -
|  1> !BLYP D3BJ RIJCOSX def2-TZVP def2/J TightSCF xyzfile
|  2>
|  3> *xyzfile 0 1 D2.xyz
|  4>
|  5> %MaxCore 64000
|  6>
|  7> %pal nprocs 18
|  8> end
|  9>
| 10> %scf
| 11>   MaxIter 150
| 12> end
| 13>
| 14>
| 15>                          ****END OF INPUT****

CARTESIAN COORDINATES (ANGSTROEM)
---------------------------------
  C     -2.160376   -1.369486   -3.467104
  C     -3.030108   -1.910857   -4.541074
  C     -2.047717    0.146583   -3.511774
  C     -7.330440   -2.678991   -3.206811
  S     -6.019659   -2.926965   -4.419128
  H     -3.477443   -2.791513   -4.257096
  H     -2.538013   -2.017860   -5.438075
  H     -3.891589   -1.376039   -4.714365
  O     -5.645830   -1.588384   -4.919307
  F     -4.881961   -3.503697   -3.667235
  H     -1.184438   -1.843997   -3.566393
  H     -2.598195   -1.708376   -2.528477
  O     -6.549267   -3.805150   -5.425071
  C     -3.328755    0.875037   -3.103669
  H     -1.740034    0.452343   -4.517126
  H     -1.232611    0.434938   -2.842208
  C     -3.628487    0.771601   -1.609363
  H     -4.175106    0.490791   -3.682203
  H     -3.237812    1.928663   -3.381480
  C     -4.975718    1.361432   -1.190644
  H     -2.830700    1.276234   -1.054766
  H     -3.594312   -0.275838   -1.294603
  C     -6.184720    0.784347   -1.926464
  H     -4.956292    2.445725   -1.342200
  H     -5.097256    1.205252   -0.114136
  C     -6.286921   -0.735882   -1.893531
  H     -6.163994    1.100199   -2.974250
  H     -7.094530    1.223459   -1.504509
  C     -7.468999   -1.246153   -2.713833
  H     -6.360641   -1.090347   -0.859176
  H     -5.369848   -1.171853   -2.295982
  H     -7.601914   -0.601349   -3.585329
  H     -8.389791   -1.173436   -2.126922
  H     -7.118254   -3.379818   -2.398055
  H     -8.241838   -3.004745   -3.706513

 Total Charge           Charge          ....    0
 Multiplicity           Mult            ....    1
 Number of Electrons    NEL             ....  122
 Basis Dimension        Dim             ....  566

ORBITAL ENERGIES
----------------

  NO   OCC          E(Eh)            E(eV)
   0   2.0000     -88.337128     -2403.7754
   1   2.0000     -24.384460      -663.5349
   2   2.0000     -18.787900      -511.2448
   3   2.0000     -18.777115      -510.9513
   4   2.0000      -9.963664      -271.1251
   5   2.0000      -9.928192      -270.1598
   6   2.0000      -9.911431      -269.7038
   7   2.0000      -9.902048      -269.4484
   8   2.0000      -9.897318      -269.3197
   9   2.0000      -9.891548      -269.1627
  10   2.0000      -9.886354      -269.0214
  11   2.0000      -9.883611      -268.9467
  12   2.0000      -9.877433      -268.7786
  13   2.0000      -9.831949      -267.5409
  14   2.0000      -7.868917      -214.1241
  15   2.0000      -5.901132      -160.5780
  16   2.0000      -5.894503      -160.3976
  17   2.0000      -5.894126      -160.3873
  18   2.0000      -1.247963       -33.9588
  19   2.0000      -1.015504       -27.6333
  20   2.0000      -0.925462       -25.1831
  21   2.0000      -0.758962       -20.6524
  22   2.0000      -0.731038       -19.8926
  23   2.0000      -0.706157       -19.2155
  24   2.0000      -0.682761       -18.5789
  25   2.0000      -0.646058       -17.5801
  26   2.0000      -0.632257       -17.2046
  27   2.0000      -0.596120       -16.2213
  28   2.0000      -0.565248       -15.3812
  29   2.0000      -0.551462       -15.0061
  30   2.0000      -0.513997       -13.9866
  31   2.0000      -0.508658       -13.8413
  32   2.0000      -0.504822       -13.7369
  33   2.0000      -0.492678       -13.4065
  34   2.0000      -0.481355       -13.0983
  35   2.0000      -0.444228       -12.0881
  36   2.0000      -0.430838       -11.7237
  37   2.0000      -0.419044       -11.4028
  38   2.0000      -0.414692       -11.2843
  39   2.0000      -0.406642       -11.0653
  40   2.0000      -0.391443       -10.6517
  41   2.0000      -0.380763       -10.3611
  42   2.0000      -0.378829       -10.3085
  43   2.0000      -0.375143       -10.2081
  44   2.0000      -0.355729        -9.6799
  45   2.0000      -0.345664        -9.4060
  46   2.0000      -0.339083        -9.2269
  47   2.0000      -0.333530        -9.0758
  48   2.0000      -0.325650        -8.8614
  49   2.0000      -0.316582        -8.6146
  50   2.0000      -0.310725        -8.4553
  51   2.0000      -0.299364        -8.1461
  52   2.0000      -0.292775        -7.9668
  53   2.0000      -0.286418        -7.7938
  54   2.0000      -0.285387        -7.7658
  55   2.0000      -0.276101        -7.5131
  56   2.0000      -0.274458        -7.4684
  57   2.0000      -0.268827        -7.3151
  58   2.0000      -0.259067        -7.0496
  59   2.0000      -0.257873        -7.0171
  60   2.0000      -0.241652        -6.5757
  61   0.0000      -0.014829        -0.4035
  62   0.0000      -0.001070        -0.0291
  63   0.0000       0.019444         0.5291
  64   0.0000       0.021978         0.5980
  65   0.0000       0.027409         0.7458

MULLIKEN ATOMIC CHARGES
-----------------------
   0 C :   -0.117446
   1 C :   -0.398912
   2 C :   -0.061626
   3 C :   -0.244234
   4 S :    0.834875
   5 H :    0.085494
   6 H :    0.091430
   7 H :    0.160967
   8 O :   -0.424465
   9 F :   -0.109632
  10 H :    0.064292
  11 H :    0.052851
  12 O :   -0.383344
  13 C :   -0.206017
  14 H :    0.065115
  15 H :    0.056169
  16 C :   -0.185361
  17 H :    0.116910
  18 H :    0.067211
  19 C :   -0.098691
  20 H :    0.073662
  21 H :    0.084528
  22 C :   -0.169360
  23 H :    0.072287
  24 H :    0.070739
  25 C :   -0.233995
  26 H :    0.102209
  27 H :    0.073712
  28 C :   -0.079286
  29 H :    0.076293
  30 H :    0.095327
  31 H :    0.105006
  32 H :    0.093140
  33 H :    0.116822
  34 H :    0.153329
Sum of atomic charges:    0.0000000

LOEWDIN ATOMIC CHARGES
----------------------
   0 C :   -0.296816
   1 C :   -0.333334
   2 C :   -0.258475
   3 C :   -0.361595
   4 S :    0.539194
   5 H :    0.091457
   6 H :    0.102359
   7 H :    0.102732
   8 O :   -0.251054
   9 F :    0.078135
  10 H :    0.129469
  11 H :    0.124661
  12 O :   -0.235777
  13 C :   -0.259601
  14 H :    0.132857
  15 H :    0.129854
  16 C :   -0.264509
  17 H :    0.136080
  18 H :    0.131191
  19 C :   -0.261125
  20 H :    0.132455
  21 H :    0.128223
  22 C :   -0.263073
  23 H :    0.133578
  24 H :    0.131475
  25 C :   -0.264638
  26 H :    0.136869
  27 H :    0.132945
  28 C :   -0.274612
  29 H :    0.131690
  30 H :    0.132584
  31 H :    0.145237
  32 H :    0.140871
  33 H :    0.134650
  34 H :    0.146045

  Mayer bond orders larger than 0.100000
B(  0-C ,  1-C ) :   0.9315 B(  0-C ,  2-C ) :   0.9716 B(  0-C , 10-H ) :   0.9636
B(  0-C , 11-H ) :   0.9783 B(  1-C ,  5-H ) :   0.9765 B(  1-C ,  6-H ) :   0.9656
B(  1-C ,  7-H ) :   0.9781 B(  2-C , 13-C ) :   0.9787 B(  2-C , 14-H ) :   0.9568
B(  2-C , 15-H ) :   0.9585 B(  3-C ,  4-S ) :   0.8942 B(  3-C , 28-C ) :   0.9398
B(  3-C , 33-H ) :   0.9428 B(  3-C , 34-H ) :   0.9471 B(  4-S ,  8-O ) :   1.8091
B(  4-S ,  9-F ) :   1.0733 B(  4-S , 12-O ) :   1.9842 B( 13-C , 16-C ) :   0.9636
B( 13-C , 17-H ) :   0.9744 B( 13-C , 18-H ) :   0.9550 B( 16-C , 19-C ) :   0.9622
B( 16-C , 20-H ) :   0.9569 B( 16-C , 21-H ) :   0.9742 B( 19-C , 22-C ) :   0.9703
B( 19-C , 23-H ) :   0.9616 B( 19-C , 24-H ) :   0.9647 B( 22-C , 25-C ) :   0.9613
B( 22-C , 26-H ) :   0.9717 B( 22-C , 27-H ) :   0.9602 B( 25-C , 28-C ) :   0.9518
B( 25-C , 29-H ) :   0.9526 B( 25-C , 30-H ) :   0.9832 B( 28-C , 31-H ) :   0.9563
B( 28-C , 32-H ) :   0.9400

Dispersion correction           -0.082274701
FINAL SINGLE POINT ENERGY     -1042.186876396635

DIPOLE MOMENT
-------------
                                X             Y             Z
Electronic contribution:     -9.50510     -19.52448     -11.18074
Nuclear contribution   :      8.71934      19.48829      12.54264
                        -----------------------------------------
Total Dipole Moment    :     -0.78576      -0.03620       1.36190
                        -----------------------------------------
Magnitude (a.u.)       :      1.57273
Magnitude (Debye)      :      3.99757

Rotational constants in cm-1:     0.025810     0.015137     0.010647
Rotational constants in MHz :   773.773140   453.802427   319.195213

                             ****ORCA TERMINATED NORMALLY****
TOTAL RUN TIME: 0 days 0 hours 0 minutes 25 seconds 10 msec
