                         Program Version 5.0.0 -  RELEASE  -
|  1> !LC-PBE RIJCOSX def2-SVPD def2/J TightSCF
|  2> *xyz -1 1
|  3> C         -0.46129        2.23469       -4.98962
|  4> C          0.84888        2.66797       -4.30235
|  5> C          2.09343        1.86104       -4.65684
|  6> H          2.44481        2.04157       -5.67499
|  7> H          2.90175        2.13786       -3.98034
|  8> S          1.87964        0.07859       -4.46297
|  9> O          3.20757       -0.46611       -4.42026
| 10> O          1.07506       -0.05616       -3.26876
| 11> O          1.13166       -0.31996       -5.67903
| 12> H          0.66843        2.55943       -3.23285
| 13> H          1.03407        3.72943       -4.49708
| 14> H         -0.35183        2.31783       -6.05075
| 15> H         -1.26108        2.86600       -4.66300
| 16> H         -0.68032        1.21949       -4.73211
| 17> *
| 18>
| 19> %MaxCore 64000
| 20>
| 21> %pal nprocs 8
| 22> end
| 23>
| 24> %scf
| 25>   MaxIter 150
| 26> end
| 27>
| 28>
| 29>                          ****END OF INPUT****

CARTESIAN COORDINATES (ANGSTROEM)
---------------------------------
  C     -0.461290    2.234690   -4.989620
  C      0.848880    2.667970   -4.302350
  C      2.093430    1.861040   -4.656840
  H      2.444810    2.041570   -5.674990
  H      2.901750    2.137860   -3.980340
  S      1.879640    0.078590   -4.462970
  O      3.207570   -0.466110   -4.420260
  O      1.075060   -0.056160   -3.268760
  O      1.131660   -0.319960   -5.679030
  H      0.668430    2.559430   -3.232850
  H      1.034070    3.729430   -4.497080
  H     -0.351830    2.317830   -6.050750
  H     -1.261080    2.866000   -4.663000
  H     -0.680320    1.219490   -4.732110

 Total Charge           Charge          ....   -1
 Multiplicity           Mult            ....    1
 Number of Electrons    NEL             ....   66
 Basis Dimension        Dim             ....  212

ORBITAL ENERGIES
----------------

  NO   OCC          E(Eh)            E(eV)
   0   2.0000     -88.317795     -2403.2494
   1   2.0000     -18.780780      -511.0510
   2   2.0000     -18.778356      -510.9850
   3   2.0000     -18.764356      -510.6041
   4   2.0000      -9.997290      -272.0401
   5   2.0000      -9.991639      -271.8863
   6   2.0000      -9.972872      -271.3756
   7   2.0000      -7.939462      -216.0437
   8   2.0000      -5.961839      -162.2299
   9   2.0000      -5.961616      -162.2238
  10   2.0000      -5.961430      -162.2188
  11   2.0000      -1.115755       -30.3612
  12   2.0000      -0.963048       -26.2059
  13   2.0000      -0.936540       -25.4845
  14   2.0000      -0.828082       -22.5333
  15   2.0000      -0.730233       -19.8707
  16   2.0000      -0.625648       -17.0248
  17   2.0000      -0.533184       -14.5087
  18   2.0000      -0.485311       -13.2060
  19   2.0000      -0.464560       -12.6413
  20   2.0000      -0.444795       -12.1035
  21   2.0000      -0.428481       -11.6596
  22   2.0000      -0.410971       -11.1831
  23   2.0000      -0.393884       -10.7181
  24   2.0000      -0.357505        -9.7282
  25   2.0000      -0.347228        -9.4485
  26   2.0000      -0.325678        -8.8622
  27   2.0000      -0.299104        -8.1390
  28   2.0000      -0.295915        -8.0523
  29   2.0000      -0.259846        -7.0708
  30   2.0000      -0.246377        -6.7043
  31   2.0000      -0.231762        -6.3066
  32   2.0000      -0.204463        -5.5637
  33   0.0000       0.202447         5.5089
  34   0.0000       0.220214         5.9923
  35   0.0000       0.223766         6.0890
  36   0.0000       0.229118         6.2346
  37   0.0000       0.249477         6.7886

MULLIKEN ATOMIC CHARGES
-----------------------
   0 C :    0.519393
   1 C :   -0.377656
   2 C :   -0.077950
   3 H :    0.052582
   4 H :    0.061027
   5 S :    1.173955
   6 O :   -0.769137
   7 O :   -0.770342
   8 O :   -0.782680
   9 H :    0.122821
  10 H :   -0.117762
  11 H :   -0.007439
  12 H :   -0.039419
  13 H :    0.012606
Sum of atomic charges:   -1.0000000

LOEWDIN ATOMIC CHARGES
----------------------
   0 C :    0.088101
   1 C :   -0.117532
   2 C :   -0.115612
   3 H :    0.021452
   4 H :    0.013250
   5 S :    0.838620
   6 O :   -0.564277
   7 O :   -0.561909
   8 O :   -0.585675
   9 H :    0.021921
  10 H :    0.017189
  11 H :   -0.008266
  12 H :   -0.022600
  13 H :   -0.024661

  Mayer bond orders larger than 0.100000
B(  0-C ,  1-C ) :   1.2851 B(  0-C , 11-H ) :   0.8129 B(  0-C , 12-H ) :   0.8185
B(  0-C , 13-H ) :   0.8525 B(  1-C ,  2-C ) :   1.2395 B(  1-C ,  3-H ) :   0.1112
B(  1-C ,  4-H ) :   0.1153 B(  1-C ,  9-H ) :   0.8811 B(  1-C , 10-H ) :   0.9773
B(  1-C , 11-H ) :   0.1740 B(  1-C , 12-H ) :   0.1670 B(  1-C , 13-H ) :   0.1741
B(  2-C ,  3-H ) :   0.9524 B(  2-C ,  4-H ) :   0.9334 B(  2-C ,  5-S ) :   0.9353
B(  2-C ,  9-H ) :   0.1036 B(  5-S ,  6-O ) :   1.4235 B(  5-S ,  7-O ) :   1.3270
B(  5-S ,  8-O ) :   1.3008

FINAL SINGLE POINT ENERGY      -740.726269716108

DIPOLE MOMENT
-------------
                                X             Y             Z
Electronic contribution:      4.87827      -8.95181       1.03612
Nuclear contribution   :     -5.21326      11.14780      -1.06438
                        -----------------------------------------
Total Dipole Moment    :     -0.33499       2.19599      -0.02826
                        -----------------------------------------
Magnitude (a.u.)       :      2.22158
Magnitude (Debye)      :      5.64680

Rotational constants in cm-1:     0.135673     0.057896     0.054396
Rotational constants in MHz :  4067.361083  1735.682437  1630.763840

                             ****ORCA TERMINATED NORMALLY****
TOTAL RUN TIME: 0 days 0 hours 0 minutes 14 seconds 767 msec
