                         Program Version 5.0.0 -  RELEASE  -
|  1> !LC-PBE RIJCOSX def2-SVPD def2/J TightSCF
|  2> *xyz 1 1
|  3> C         -0.46129        2.23469       -4.98962
|  4> C          0.84888        2.66797       -4.30235
|  5> C          2.09343        1.86104       -4.65684
|  6> C         -0.42384        2.39877       -6.47432
|  7> N         -0.95947        3.49265       -7.00740
|  8> N          0.14558        1.48689       -7.20399
|  9> H          0.56537        0.69681       -6.72386
| 10> H          0.22068        1.58177       -8.20752
| 11> H         -1.40624        4.18151       -6.40326
| 12> H         -0.93421        3.68160       -7.99947
| 13> H          0.66843        2.55943       -3.23285
| 14> H          1.03407        3.72943       -4.49708
| 15> H         -1.28888        2.82674       -4.59500
| 16> H         -0.65170        1.18634       -4.75655
| 17> H          2.29129        1.95234       -5.70442
| 18> H          1.93270        0.83176       -4.41261
| 19> H          2.92953        2.23285       -4.10223
| 20> *
| 21>
| 22> %MaxCore 64000
| 23>
| 24> %pal nprocs 8
| 25> end
| 26>
| 27> %scf
| 28>   MaxIter 150
| 29> end
| 30>
| 31>
| 32>                          ****END OF INPUT****

CARTESIAN COORDINATES (ANGSTROEM)
---------------------------------
  C     -0.461290    2.234690   -4.989620
  C      0.848880    2.667970   -4.302350
  C      2.093430    1.861040   -4.656840
  C     -0.423840    2.398770   -6.474320
  N     -0.959470    3.492650   -7.007400
  N      0.145580    1.486890   -7.203990
  H      0.565370    0.696810   -6.723860
  H      0.220680    1.581770   -8.207520
  H     -1.406240    4.181510   -6.403260
  H     -0.934210    3.681600   -7.999470
  H      0.668430    2.559430   -3.232850
  H      1.034070    3.729430   -4.497080
  H     -1.288880    2.826740   -4.595000
  H     -0.651700    1.186340   -4.756550
  H      2.291290    1.952340   -5.704420
  H      1.932700    0.831760   -4.412610
  H      2.929530    2.232850   -4.102230

 Total Charge           Charge          ....    1
 Multiplicity           Mult            ....    1
 Number of Electrons    NEL             ....   48
 Basis Dimension        Dim             ....  208

ORBITAL ENERGIES
----------------

  NO   OCC          E(Eh)            E(eV)
   0   2.0000     -14.475387      -393.8953
   1   2.0000     -14.471124      -393.7793
   2   2.0000     -10.456401      -284.5331
   3   2.0000     -10.322838      -280.8987
   4   2.0000     -10.289692      -279.9968
   5   2.0000     -10.255091      -279.0552
   6   2.0000      -1.373329       -37.3702
   7   2.0000      -1.267944       -34.5025
   8   2.0000      -1.147009       -31.2117
   9   2.0000      -1.055396       -28.7188
  10   2.0000      -0.986912       -26.8553
  11   2.0000      -0.942055       -25.6346
  12   2.0000      -0.923005       -25.1163
  13   2.0000      -0.881501       -23.9869
  14   2.0000      -0.839129       -22.8339
  15   2.0000      -0.804476       -21.8909
  16   2.0000      -0.768140       -20.9022
  17   2.0000      -0.748214       -20.3599
  18   2.0000      -0.714165       -19.4334
  19   2.0000      -0.697534       -18.9809
  20   2.0000      -0.640803       -17.4371
  21   2.0000      -0.628662       -17.1068
  22   2.0000      -0.625861       -17.0306
  23   2.0000      -0.612775       -16.6745
  24   0.0000      -0.114928        -3.1273
  25   0.0000      -0.073853        -2.0096
  26   0.0000      -0.035208        -0.9581
  27   0.0000      -0.031400        -0.8544
  28   0.0000      -0.008612        -0.2343

MULLIKEN ATOMIC CHARGES
-----------------------
   0 C :   -0.154090
   1 C :   -0.437817
   2 C :    0.510345
   3 C :    0.759104
   4 N :   -0.105727
   5 N :   -0.014626
   6 H :    0.149106
   7 H :   -0.073411
   8 H :    0.108752
   9 H :   -0.064123
  10 H :    0.071884
  11 H :    0.027664
  12 H :    0.073609
  13 H :    0.131783
  14 H :   -0.036703
  15 H :    0.048678
  16 H :    0.005571
Sum of atomic charges:    1.0000000

LOEWDIN ATOMIC CHARGES
----------------------
   0 C :    0.021635
   1 C :   -0.062691
   2 C :    0.102774
   3 C :   -0.042351
   4 N :    0.264786
   5 N :    0.275746
   6 H :    0.058474
   7 H :    0.064010
   8 H :    0.062668
   9 H :    0.052441
  10 H :    0.049243
  11 H :    0.044896
  12 H :    0.051327
  13 H :    0.058847
  14 H :   -0.019502
  15 H :    0.004594
  16 H :    0.013103

  Mayer bond orders larger than 0.100000
B(  0-C ,  1-C ) :   1.1952 B(  0-C ,  3-C ) :   1.0667 B(  0-C ,  4-N ) :   0.1159
B(  0-C ,  5-N ) :   0.1079 B(  0-C , 12-H ) :   0.9235 B(  0-C , 13-H ) :   0.8677
B(  1-C ,  2-C ) :   1.3161 B(  1-C , 10-H ) :   0.9334 B(  1-C , 11-H ) :   1.0014
B(  1-C , 13-H ) :   0.1103 B(  1-C , 14-H ) :   0.1704 B(  1-C , 15-H ) :   0.1701
B(  1-C , 16-H ) :   0.1710 B(  2-C , 14-H ) :   0.8425 B(  2-C , 15-H ) :   0.8237
B(  2-C , 16-H ) :   0.8478 B(  3-C ,  4-N ) :   1.0428 B(  3-C ,  5-N ) :   1.1405
B(  3-C ,  7-H ) :  -0.1804 B(  3-C ,  9-H ) :  -0.1627 B(  4-N ,  5-N ) :   0.1528
B(  4-N ,  8-H ) :   1.0672 B(  4-N ,  9-H ) :   1.2833 B(  5-N ,  6-H ) :   0.9969
B(  5-N ,  7-H ) :   1.3256 B(  6-H ,  7-H ) :  -0.1789 B(  8-H ,  9-H ) :  -0.1675

FINAL SINGLE POINT ENERGY      -267.287623080800

DIPOLE MOMENT
-------------
                                X             Y             Z
Electronic contribution:     -3.55987       0.62656      -4.30600
Nuclear contribution   :      2.80679      -0.44323       2.95915
                        -----------------------------------------
Total Dipole Moment    :     -0.75308       0.18333      -1.34685
                        -----------------------------------------
Magnitude (a.u.)       :      1.55395
Magnitude (Debye)      :      3.94982

Rotational constants in cm-1:     0.187834     0.079484     0.065778
Rotational constants in MHz :  5631.136036  2382.861517  1971.985559

                             ****ORCA TERMINATED NORMALLY****
TOTAL RUN TIME: 0 days 0 hours 0 minutes 14 seconds 590 msec
