                         Program Version 5.0.0 -  RELEASE  -
|  1> !LC-PBE RIJCOSX def2-SVPD def2/J TightSCF
|  2> *xyz 0 1
|  3> C         -0.46129        2.23469       -4.98962
|  4> C          0.84888        2.66797       -4.30235
|  5> C          2.09343        1.86104       -4.65684
|  6> H          2.44481        2.04157       -5.67499
|  7> H          2.90175        2.13786       -3.98034
|  8> S          1.87964        0.07859       -4.46297
|  9> F          3.20757       -0.46611       -4.42026
| 10> O          1.07506       -0.05616       -3.26876
| 11> O          1.13166       -0.31996       -5.67903
| 12> H          0.66843        2.55943       -3.23285
| 13> H          1.03407        3.72943       -4.49708
| 14> H         -0.35183        2.31783       -6.05075
| 15> H         -1.26108        2.86600       -4.66300
| 16> H         -0.68032        1.21949       -4.73211
| 17> *
| 18>
| 19> %MaxCore 64000
| 20>
| 21> %pal nprocs 8
| 22> end
| 23>
| 24> %scf
| 25>   MaxIter 150
| 26> end
| 27>
| 28>
| 29>                          ****END OF INPUT****

CARTESIAN COORDINATES (ANGSTROEM)
---------------------------------
  C     -0.461290    2.234690   -4.989620
  C      0.848880    2.667970   -4.302350
  C      2.093430    1.861040   -4.656840
  H      2.444810    2.041570   -5.674990
  H      2.901750    2.137860   -3.980340
  S      1.879640    0.078590   -4.462970
  F      3.207570   -0.466110   -4.420260
  O      1.075060   -0.056160   -3.268760
  O      1.131660   -0.319960   -5.679030
  H      0.668430    2.559430   -3.232850
  H      1.034070    3.729430   -4.497080
  H     -0.351830    2.317830   -6.050750
  H     -1.261080    2.866000   -4.663000
  H     -0.680320    1.219490   -4.732110

 Total Charge           Charge          ....    0
 Multiplicity           Mult            ....    1
 Number of Electrons    NEL             ....   66
 Basis Dimension        Dim             ....  212

ORBITAL ENERGIES
----------------

  NO   OCC          E(Eh)            E(eV)
   0   2.0000     -88.577374     -2410.3129
   1   2.0000     -24.637498      -670.4204
   2   2.0000     -19.011164      -517.3201
   3   2.0000     -18.997533      -516.9492
   4   2.0000     -10.192273      -277.3458
   5   2.0000     -10.155541      -276.3463
   6   2.0000     -10.114333      -275.2250
   7   2.0000      -8.199967      -223.1324
   8   2.0000      -6.226954      -169.4440
   9   2.0000      -6.219800      -169.2494
  10   2.0000      -6.218542      -169.2151
  11   2.0000      -1.550346       -42.1871
  12   2.0000      -1.284245       -34.9461
  13   2.0000      -1.170416       -31.8486
  14   2.0000      -1.005077       -27.3495
  15   2.0000      -0.923711       -25.1355
  16   2.0000      -0.872247       -23.7350
  17   2.0000      -0.798578       -21.7304
  18   2.0000      -0.754206       -20.5230
  19   2.0000      -0.739079       -20.1114
  20   2.0000      -0.708585       -19.2816
  21   2.0000      -0.645251       -17.5582
  22   2.0000      -0.632826       -17.2201
  23   2.0000      -0.601694       -16.3729
  24   2.0000      -0.594449       -16.1758
  25   2.0000      -0.563207       -15.3256
  26   2.0000      -0.533631       -14.5208
  27   2.0000      -0.507145       -13.8001
  28   2.0000      -0.502856       -13.6834
  29   2.0000      -0.480241       -13.0680
  30   2.0000      -0.473390       -12.8816
  31   2.0000      -0.450689       -12.2639
  32   2.0000      -0.445612       -12.1257
  33   0.0000       0.062424         1.6986
  34   0.0000       0.084689         2.3045
  35   0.0000       0.090017         2.4495
  36   0.0000       0.096570         2.6278
  37   0.0000       0.118713         3.2303

MULLIKEN ATOMIC CHARGES
-----------------------
   0 C :    0.522145
   1 C :   -0.386444
   2 C :   -0.123735
   3 H :    0.110178
   4 H :    0.121374
   5 S :    1.377484
   6 F :   -0.399895
   7 O :   -0.631389
   8 O :   -0.646444
   9 H :    0.142371
  10 H :   -0.075809
  11 H :    0.009736
  12 H :   -0.011023
  13 H :   -0.008550
Sum of atomic charges:   -0.0000000

LOEWDIN ATOMIC CHARGES
----------------------
   0 C :    0.109516
   1 C :   -0.087920
   2 C :   -0.078551
   3 H :    0.039491
   4 H :    0.029098
   5 S :    1.101207
   6 F :   -0.237078
   7 O :   -0.457008
   8 O :   -0.477889
   9 H :    0.035128
  10 H :    0.042972
  11 H :    0.002672
  12 H :   -0.001987
  13 H :   -0.019649

  Mayer bond orders larger than 0.100000
B(  0-C ,  1-C ) :   1.2988 B(  0-C , 11-H ) :   0.8154 B(  0-C , 12-H ) :   0.8249
B(  0-C , 13-H ) :   0.8582 B(  1-C ,  2-C ) :   1.2879 B(  1-C ,  3-H ) :   0.1066
B(  1-C ,  4-H ) :   0.1242 B(  1-C ,  9-H ) :   0.8757 B(  1-C , 10-H ) :   0.9800
B(  1-C , 11-H ) :   0.1678 B(  1-C , 12-H ) :   0.1601 B(  1-C , 13-H ) :   0.1591
B(  2-C ,  3-H ) :   0.9439 B(  2-C ,  4-H ) :   0.8850 B(  2-C ,  5-S ) :   0.9740
B(  2-C ,  9-H ) :   0.1010 B(  5-S ,  6-F ) :   0.7503 B(  5-S ,  7-O ) :   1.5301
B(  5-S ,  8-O ) :   1.5002

FINAL SINGLE POINT ENERGY      -765.175340401670

DIPOLE MOMENT
-------------
                                X             Y             Z
Electronic contribution:      8.13731     -11.15961       1.23386
Nuclear contribution   :     -7.07796      12.41139      -1.18012
                        -----------------------------------------
Total Dipole Moment    :      1.05935       1.25178       0.05374
                        -----------------------------------------
Magnitude (a.u.)       :      1.64075
Magnitude (Debye)      :      4.17046

Rotational constants in cm-1:     0.134396     0.055628     0.052255
Rotational constants in MHz :  4029.100214  1667.685325  1566.551712

                             ****ORCA TERMINATED NORMALLY****
TOTAL RUN TIME: 0 days 0 hours 0 minutes 15 seconds 836 msec
