                         Program Version 5.0.0 -  RELEASE  -
|  1> !LC-PBE RIJCOSX def2-SVPD def2/J TightSCF
|  2> *xyz 0 1
|  3> C         -0.46129        2.23469       -4.98962
|  4> C          0.84888        2.66797       -4.30235
|  5> C          2.09343        1.86104       -4.65684
|  6> C         -0.42384        2.39877       -6.47432
|  7> C         -0.95947        3.49265       -7.00740
|  8> N          0.14558        1.48689       -7.20399
|  9> H          0.56537        0.69681       -6.72386
| 10> H          0.22068        1.58177       -8.20752
| 11> H         -1.40624        4.18151       -6.40326
| 12> H         -0.93421        3.68160       -7.99947
| 13> H          0.66843        2.55943       -3.23285
| 14> H          1.03407        3.72943       -4.49708
| 15> H         -1.28888        2.82674       -4.59500
| 16> H         -0.65170        1.18634       -4.75655
| 17> H          2.29129        1.95234       -5.70442
| 18> H          1.93270        0.83176       -4.41261
| 19> H          2.92953        2.23285       -4.10223
| 20> *
| 21>
| 22> %MaxCore 64000
| 23>
| 24> %pal nprocs 8
| 25> end
| 26>
| 27> %scf
| 28>   MaxIter 150
| 29> end
| 30>
| 31>
| 32>                          ****END OF INPUT****

CARTESIAN COORDINATES (ANGSTROEM)
---------------------------------
  C     -0.461290    2.234690   -4.989620
  C      0.848880    2.667970   -4.302350
  C      2.093430    1.861040   -4.656840
  C     -0.423840    2.398770   -6.474320
  C     -0.959470    3.492650   -7.007400
  N      0.145580    1.486890   -7.203990
  H      0.565370    0.696810   -6.723860
  H      0.220680    1.581770   -8.207520
  H     -1.406240    4.181510   -6.403260
  H     -0.934210    3.681600   -7.999470
  H      0.668430    2.559430   -3.232850
  H      1.034070    3.729430   -4.497080
  H     -1.288880    2.826740   -4.595000
  H     -0.651700    1.186340   -4.756550
  H      2.291290    1.952340   -5.704420
  H      1.932700    0.831760   -4.412610
  H      2.929530    2.232850   -4.102230

 Total Charge           Charge          ....    0
 Multiplicity           Mult            ....    1
 Number of Electrons    NEL             ....   48
 Basis Dimension        Dim             ....  208

ORBITAL ENERGIES
----------------

  NO   OCC          E(Eh)            E(eV)
   0   2.0000     -14.230502      -387.2316
   1   2.0000     -10.151924      -276.2479
   2   2.0000     -10.126154      -275.5467
   3   2.0000     -10.124817      -275.5103
   4   2.0000     -10.110586      -275.1230
   5   2.0000     -10.057006      -273.6650
   6   2.0000      -1.103740       -30.0343
   7   2.0000      -0.966477       -26.2992
   8   2.0000      -0.901964       -24.5437
   9   2.0000      -0.843727       -22.9590
  10   2.0000      -0.763046       -20.7635
  11   2.0000      -0.715256       -19.4631
  12   2.0000      -0.673006       -18.3134
  13   2.0000      -0.634975       -17.2786
  14   2.0000      -0.597413       -16.2564
  15   2.0000      -0.575503       -15.6602
  16   2.0000      -0.549900       -14.9636
  17   2.0000      -0.526349       -14.3227
  18   2.0000      -0.511208       -13.9107
  19   2.0000      -0.495984       -13.4964
  20   2.0000      -0.469004       -12.7622
  21   2.0000      -0.457341       -12.4449
  22   2.0000      -0.450563       -12.2604
  23   2.0000      -0.305413        -8.3107
  24   0.0000       0.088196         2.3999
  25   0.0000       0.114223         3.1082
  26   0.0000       0.115979         3.1560
  27   0.0000       0.121718         3.3121
  28   0.0000       0.143524         3.9055

MULLIKEN ATOMIC CHARGES
-----------------------
   0 C :    0.075581
   1 C :   -0.445441
   2 C :    0.504674
   3 C :   -0.057242
   4 C :    0.273806
   5 N :    0.139054
   6 H :    0.003002
   7 H :   -0.142060
   8 H :   -0.089471
   9 H :   -0.417329
  10 H :    0.028564
  11 H :   -0.018077
  12 H :    0.135536
  13 H :    0.024422
  14 H :   -0.021052
  15 H :    0.033741
  16 H :   -0.027709
Sum of atomic charges:    0.0000000

LOEWDIN ATOMIC CHARGES
----------------------
   0 C :   -0.017819
   1 C :   -0.084410
   2 C :    0.082508
   3 C :   -0.271204
   4 C :    0.147451
   5 N :    0.158233
   6 H :    0.011148
   7 H :    0.025234
   8 H :   -0.069497
   9 H :   -0.077958
  10 H :    0.026579
  11 H :    0.036319
  12 H :    0.035825
  13 H :    0.033596
  14 H :   -0.021100
  15 H :   -0.007656
  16 H :   -0.007248

  Mayer bond orders larger than 0.100000
B(  0-C ,  1-C ) :   1.1789 B(  0-C ,  3-C ) :   1.1574 B(  0-C ,  4-C ) :   0.1572
B(  0-C ,  5-N ) :   0.1161 B(  0-C , 11-H ) :   0.1032 B(  0-C , 12-H ) :   0.8599
B(  0-C , 13-H ) :   0.8027 B(  1-C ,  2-C ) :   1.2949 B(  1-C , 10-H ) :   0.9325
B(  1-C , 11-H ) :   1.0200 B(  1-C , 13-H ) :   0.1257 B(  1-C , 14-H ) :   0.1784
B(  1-C , 15-H ) :   0.1783 B(  1-C , 16-H ) :   0.1775 B(  2-C , 14-H ) :   0.8570
B(  2-C , 15-H ) :   0.8164 B(  2-C , 16-H ) :   0.8317 B(  3-C ,  4-C ) :   1.7843
B(  3-C ,  5-N ) :   1.1435 B(  3-C ,  7-H ) :  -0.1202 B(  3-C ,  9-H ) :   0.1500
B(  3-C , 12-H ) :   0.1166 B(  3-C , 13-H ) :   0.1515 B(  4-C ,  5-N ) :   0.2648
B(  4-C ,  8-H ) :   0.9595 B(  4-C ,  9-H ) :   0.7654 B(  5-N ,  6-H ) :   1.0139
B(  5-N ,  7-H ) :   1.2874 B(  6-H ,  7-H ) :  -0.1632

FINAL SINGLE POINT ENERGY      -250.845022305473

DIPOLE MOMENT
-------------
                                X             Y             Z
Electronic contribution:     -2.08128      -0.44495      -2.61193
Nuclear contribution   :      2.52905      -0.17478       2.67366
                        -----------------------------------------
Total Dipole Moment    :      0.44777      -0.61972       0.06173
                        -----------------------------------------
Magnitude (a.u.)       :      0.76705
Magnitude (Debye)      :      1.94969

Rotational constants in cm-1:     0.190920     0.082419     0.067855
Rotational constants in MHz :  5723.626725  2470.870287  2034.242308

                             ****ORCA TERMINATED NORMALLY****
TOTAL RUN TIME: 0 days 0 hours 0 minutes 15 seconds 417 msec
