                         Program Version 5.0.0 -  RELEASE  -
|  1> !LC-PBE RIJCOSX def2-SVPD def2/J TightSCF
|  2> *xyz 0 1
|  3> C         -0.46129        2.23469       -4.98962
|  4> C          0.84888        2.66797       -4.30235
|  5> C          2.09343        1.86104       -4.65684
|  6> H          2.44481        2.04157       -5.67499
|  7> H          2.90175        2.13786       -3.98034
|  8> S          1.87964        0.07859       -4.46297
|  9> O          3.20757       -0.46611       -4.42026
| 10> F          1.07506       -0.05616       -3.26876
| 11> O          1.13166       -0.31996       -5.67903
| 12> H          0.66843        2.55943       -3.23285
| 13> H          1.03407        3.72943       -4.49708
| 14> H         -0.35183        2.31783       -6.05075
| 15> H         -1.26108        2.86600       -4.66300
| 16> H         -0.68032        1.21949       -4.73211
| 17> *
| 18>
| 19> %MaxCore 64000
| 20>
| 21> %pal nprocs 8
| 22> end
| 23>
| 24> %scf
| 25>   MaxIter 150
| 26> end
| 27>
| 28>
| 29>                          ****END OF INPUT****

CARTESIAN COORDINATES (ANGSTROEM)
---------------------------------
  C     -0.461290    2.234690   -4.989620
  C      0.848880    2.667970   -4.302350
  C      2.093430    1.861040   -4.656840
  H      2.444810    2.041570   -5.674990
  H      2.901750    2.137860   -3.980340
  S      1.879640    0.078590   -4.462970
  O      3.207570   -0.466110   -4.420260
  F      1.075060   -0.056160   -3.268760
  O      1.131660   -0.319960   -5.679030
  H      0.668430    2.559430   -3.232850
  H      1.034070    3.729430   -4.497080
  H     -0.351830    2.317830   -6.050750
  H     -1.261080    2.866000   -4.663000
  H     -0.680320    1.219490   -4.732110

 Total Charge           Charge          ....    0
 Multiplicity           Mult            ....    1
 Number of Electrons    NEL             ....   66
 Basis Dimension        Dim             ....  212

ORBITAL ENERGIES
----------------

  NO   OCC          E(Eh)            E(eV)
   0   2.0000     -88.576304     -2410.2838
   1   2.0000     -24.632023      -670.2714
   2   2.0000     -19.013720      -517.3896
   3   2.0000     -18.996153      -516.9116
   4   2.0000     -10.191818      -277.3335
   5   2.0000     -10.162874      -276.5459
   6   2.0000     -10.126599      -275.5588
   7   2.0000      -8.198795      -223.1006
   8   2.0000      -6.226013      -169.4184
   9   2.0000      -6.218526      -169.2147
  10   2.0000      -6.217326      -169.1820
  11   2.0000      -1.541485       -41.9459
  12   2.0000      -1.286703       -35.0130
  13   2.0000      -1.172967       -31.9181
  14   2.0000      -1.012484       -27.5511
  15   2.0000      -0.920619       -25.0513
  16   2.0000      -0.874849       -23.8059
  17   2.0000      -0.800093       -21.7716
  18   2.0000      -0.754233       -20.5237
  19   2.0000      -0.747664       -20.3450
  20   2.0000      -0.696948       -18.9649
  21   2.0000      -0.642580       -17.4855
  22   2.0000      -0.632242       -17.2042
  23   2.0000      -0.612495       -16.6668
  24   2.0000      -0.591711       -16.1013
  25   2.0000      -0.574642       -15.6368
  26   2.0000      -0.537831       -14.6351
  27   2.0000      -0.522664       -14.2224
  28   2.0000      -0.512702       -13.9513
  29   2.0000      -0.491223       -13.3669
  30   2.0000      -0.470688       -12.8081
  31   2.0000      -0.453755       -12.3473
  32   2.0000      -0.443695       -12.0735
  33   0.0000       0.062323         1.6959
  34   0.0000       0.085355         2.3226
  35   0.0000       0.092818         2.5257
  36   0.0000       0.093796         2.5523
  37   0.0000       0.119942         3.2638

MULLIKEN ATOMIC CHARGES
-----------------------
   0 C :    0.545973
   1 C :   -0.368726
   2 C :   -0.098929
   3 H :    0.109668
   4 H :    0.109793
   5 S :    1.323060
   6 O :   -0.623090
   7 F :   -0.365024
   8 O :   -0.646875
   9 H :    0.111895
  10 H :   -0.079340
  11 H :    0.013997
  12 H :   -0.006782
  13 H :   -0.025620
Sum of atomic charges:    0.0000000

LOEWDIN ATOMIC CHARGES
----------------------
   0 C :    0.105432
   1 C :   -0.101499
   2 C :   -0.066146
   3 H :    0.051568
   4 H :    0.033053
   5 S :    1.093178
   6 O :   -0.452600
   7 F :   -0.238474
   8 O :   -0.476625
   9 H :    0.030311
  10 H :    0.041722
  11 H :    0.006292
  12 H :   -0.001627
  13 H :   -0.024587

  Mayer bond orders larger than 0.100000
B(  0-C ,  1-C ) :   1.2980 B(  0-C , 11-H ) :   0.8177 B(  0-C , 12-H ) :   0.8262
B(  0-C , 13-H ) :   0.8520 B(  1-C ,  2-C ) :   1.2261 B(  1-C ,  3-H ) :   0.1085
B(  1-C ,  4-H ) :   0.1112 B(  1-C ,  9-H ) :   0.8920 B(  1-C , 10-H ) :   0.9844
B(  1-C , 11-H ) :   0.1740 B(  1-C , 12-H ) :   0.1602 B(  1-C , 13-H ) :   0.1623
B(  2-C ,  3-H ) :   0.9380 B(  2-C ,  4-H ) :   0.9335 B(  2-C ,  5-S ) :   1.0083
B(  5-S ,  6-O ) :   1.6334 B(  5-S ,  7-F ) :   0.7123 B(  5-S ,  8-O ) :   1.5296

FINAL SINGLE POINT ENERGY      -765.179344483560

DIPOLE MOMENT
-------------
                                X             Y             Z
Electronic contribution:      4.39568     -10.38038       3.19877
Nuclear contribution   :     -4.78457      11.97051      -2.41849
                        -----------------------------------------
Total Dipole Moment    :     -0.38889       1.59013       0.78028
                        -----------------------------------------
Magnitude (a.u.)       :      1.81345
Magnitude (Debye)      :      4.60942

Rotational constants in cm-1:     0.129206     0.056639     0.054229
Rotational constants in MHz :  3873.509495  1697.990779  1625.734877

                             ****ORCA TERMINATED NORMALLY****
TOTAL RUN TIME: 0 days 0 hours 0 minutes 15 seconds 42 msec
