                         Program Version 5.0.0 -  RELEASE  -
|  1> !LC-PBE RIJCOSX def2-SVPD def2/J TightSCF
|  2> *xyz 0 1
|  3> C         -0.46129        2.23469       -4.98962
|  4> C          0.84888        2.66797       -4.30235
|  5> C          2.09343        1.86104       -4.65684
|  6> C         -0.42384        2.39877       -6.47432
|  7> N         -0.95947        3.49265       -7.00740
|  8> C          0.14558        1.48689       -7.20399
|  9> H          0.56537        0.69681       -6.72386
| 10> H          0.22068        1.58177       -8.20752
| 11> H         -1.40624        4.18151       -6.40326
| 12> H         -0.93421        3.68160       -7.99947
| 13> H          0.66843        2.55943       -3.23285
| 14> H          1.03407        3.72943       -4.49708
| 15> H         -1.28888        2.82674       -4.59500
| 16> H         -0.65170        1.18634       -4.75655
| 17> H          2.29129        1.95234       -5.70442
| 18> H          1.93270        0.83176       -4.41261
| 19> H          2.92953        2.23285       -4.10223
| 20> *
| 21>
| 22> %MaxCore 64000
| 23>
| 24> %pal nprocs 8
| 25> end
| 26>
| 27> %scf
| 28>   MaxIter 150
| 29> end
| 30>
| 31>
| 32>                          ****END OF INPUT****

CARTESIAN COORDINATES (ANGSTROEM)
---------------------------------
  C     -0.461290    2.234690   -4.989620
  C      0.848880    2.667970   -4.302350
  C      2.093430    1.861040   -4.656840
  C     -0.423840    2.398770   -6.474320
  N     -0.959470    3.492650   -7.007400
  C      0.145580    1.486890   -7.203990
  H      0.565370    0.696810   -6.723860
  H      0.220680    1.581770   -8.207520
  H     -1.406240    4.181510   -6.403260
  H     -0.934210    3.681600   -7.999470
  H      0.668430    2.559430   -3.232850
  H      1.034070    3.729430   -4.497080
  H     -1.288880    2.826740   -4.595000
  H     -0.651700    1.186340   -4.756550
  H      2.291290    1.952340   -5.704420
  H      1.932700    0.831760   -4.412610
  H      2.929530    2.232850   -4.102230

 Total Charge           Charge          ....    0
 Multiplicity           Mult            ....    1
 Number of Electrons    NEL             ....   48
 Basis Dimension        Dim             ....  208

ORBITAL ENERGIES
----------------

  NO   OCC          E(Eh)            E(eV)
   0   2.0000     -14.227433      -387.1481
   1   2.0000     -10.149196      -276.1737
   2   2.0000     -10.125622      -275.5322
   3   2.0000     -10.123466      -275.4735
   4   2.0000     -10.100546      -274.8498
   5   2.0000     -10.056848      -273.6608
   6   2.0000      -1.091502       -29.7013
   7   2.0000      -0.966506       -26.3000
   8   2.0000      -0.897365       -24.4185
   9   2.0000      -0.850724       -23.1494
  10   2.0000      -0.752992       -20.4900
  11   2.0000      -0.714265       -19.4361
  12   2.0000      -0.666272       -18.1302
  13   2.0000      -0.627447       -17.0737
  14   2.0000      -0.597082       -16.2474
  15   2.0000      -0.579728       -15.7752
  16   2.0000      -0.532743       -14.4967
  17   2.0000      -0.528499       -14.3812
  18   2.0000      -0.510067       -13.8796
  19   2.0000      -0.498675       -13.5696
  20   2.0000      -0.462947       -12.5974
  21   2.0000      -0.455054       -12.3827
  22   2.0000      -0.445479       -12.1221
  23   2.0000      -0.311638        -8.4801
  24   0.0000       0.089442         2.4338
  25   0.0000       0.114360         3.1119
  26   0.0000       0.115770         3.1503
  27   0.0000       0.123654         3.3648
  28   0.0000       0.142173         3.8687

MULLIKEN ATOMIC CHARGES
-----------------------
   0 C :    0.053592
   1 C :   -0.434880
   2 C :    0.475760
   3 C :    0.072571
   4 N :   -0.009029
   5 C :    0.281500
   6 H :    0.062126
   7 H :   -0.483517
   8 H :   -0.031314
   9 H :   -0.122556
  10 H :    0.031569
  11 H :   -0.015408
  12 H :   -0.021747
  13 H :    0.143160
  14 H :    0.016632
  15 H :    0.036031
  16 H :   -0.054489
Sum of atomic charges:    0.0000000

LOEWDIN ATOMIC CHARGES
----------------------
   0 C :   -0.017979
   1 C :   -0.086465
   2 C :    0.086160
   3 C :   -0.260942
   4 N :    0.151351
   5 C :    0.142077
   6 H :   -0.062644
   7 H :   -0.065878
   8 H :    0.009779
   9 H :    0.012546
  10 H :    0.026071
  11 H :    0.032741
  12 H :    0.026143
  13 H :    0.040150
  14 H :   -0.020357
  15 H :   -0.003850
  16 H :   -0.008904

  Mayer bond orders larger than 0.100000
B(  0-C ,  1-C ) :   1.1935 B(  0-C ,  3-C ) :   1.0289 B(  0-C ,  4-N ) :   0.1292
B(  0-C ,  5-C ) :   0.1933 B(  0-C , 10-H ) :   0.1011 B(  0-C , 12-H ) :   0.8877
B(  0-C , 13-H ) :   0.8327 B(  1-C ,  2-C ) :   1.3109 B(  1-C , 10-H ) :   0.9020
B(  1-C , 11-H ) :   0.9987 B(  1-C , 12-H ) :   0.1100 B(  1-C , 13-H ) :   0.1217
B(  1-C , 14-H ) :   0.1781 B(  1-C , 15-H ) :   0.1761 B(  1-C , 16-H ) :   0.1869
B(  2-C , 14-H ) :   0.8487 B(  2-C , 15-H ) :   0.8217 B(  2-C , 16-H ) :   0.8468
B(  3-C ,  4-N ) :   1.0952 B(  3-C ,  5-C ) :   1.9371 B(  3-C ,  6-H ) :   0.1899
B(  3-C ,  7-H ) :   0.1861 B(  3-C ,  9-H ) :  -0.1041 B(  3-C , 12-H ) :   0.1004
B(  4-N ,  5-C ) :   0.2380 B(  4-N ,  8-H ) :   1.1161 B(  4-N ,  9-H ) :   1.2650
B(  5-C ,  6-H ) :   0.7468 B(  5-C ,  7-H ) :   0.8280 B(  6-H ,  7-H ) :  -0.1030
B(  8-H ,  9-H ) :  -0.1548

FINAL SINGLE POINT ENERGY      -250.845177449234

DIPOLE MOMENT
-------------
                                X             Y             Z
Electronic contribution:     -3.06793       1.27689      -2.47767
Nuclear contribution   :      2.79043      -0.64920       2.62716
                        -----------------------------------------
Total Dipole Moment    :     -0.27750       0.62768       0.14949
                        -----------------------------------------
Magnitude (a.u.)       :      0.70238
Magnitude (Debye)      :      1.78531

Rotational constants in cm-1:     0.196182     0.080190     0.067215
Rotational constants in MHz :  5881.393438  2404.041106  2015.067205

                             ****ORCA TERMINATED NORMALLY****
TOTAL RUN TIME: 0 days 0 hours 0 minutes 15 seconds 717 msec
