                         Program Version 5.0.0 -  RELEASE  -
|  1> !LC-PBE RIJCOSX def2-SVPD def2/J TightSCF
|  2> *xyz 0 1
|  3> C         -0.46129        2.23469       -4.98962
|  4> C          0.84888        2.66797       -4.30235
|  5> C          2.09343        1.86104       -4.65684
|  6> H          2.44481        2.04157       -5.67499
|  7> H          2.90175        2.13786       -3.98034
|  8> S          1.87964        0.07859       -4.46297
|  9> O          3.20757       -0.46611       -4.42026
| 10> O          1.07506       -0.05616       -3.26876
| 11> F          1.13166       -0.31996       -5.67903
| 12> H          0.66843        2.55943       -3.23285
| 13> H          1.03407        3.72943       -4.49708
| 14> H         -0.35183        2.31783       -6.05075
| 15> H         -1.26108        2.86600       -4.66300
| 16> H         -0.68032        1.21949       -4.73211
| 17> *
| 18>
| 19> %MaxCore 64000
| 20>
| 21> %pal nprocs 8
| 22> end
| 23>
| 24> %scf
| 25>   MaxIter 150
| 26> end
| 27>
| 28>
| 29>                          ****END OF INPUT****

CARTESIAN COORDINATES (ANGSTROEM)
---------------------------------
  C     -0.461290    2.234690   -4.989620
  C      0.848880    2.667970   -4.302350
  C      2.093430    1.861040   -4.656840
  H      2.444810    2.041570   -5.674990
  H      2.901750    2.137860   -3.980340
  S      1.879640    0.078590   -4.462970
  O      3.207570   -0.466110   -4.420260
  O      1.075060   -0.056160   -3.268760
  F      1.131660   -0.319960   -5.679030
  H      0.668430    2.559430   -3.232850
  H      1.034070    3.729430   -4.497080
  H     -0.351830    2.317830   -6.050750
  H     -1.261080    2.866000   -4.663000
  H     -0.680320    1.219490   -4.732110

 Total Charge           Charge          ....    0
 Multiplicity           Mult            ....    1
 Number of Electrons    NEL             ....   66
 Basis Dimension        Dim             ....  212

ORBITAL ENERGIES
----------------

  NO   OCC          E(Eh)            E(eV)
   0   2.0000     -88.574935     -2410.2465
   1   2.0000     -24.612539      -669.7412
   2   2.0000     -19.013646      -517.3876
   3   2.0000     -19.009957      -517.2872
   4   2.0000     -10.191166      -277.3157
   5   2.0000     -10.157564      -276.4014
   6   2.0000     -10.129214      -275.6299
   7   2.0000      -8.197291      -223.0596
   8   2.0000      -6.224249      -169.3704
   9   2.0000      -6.217284      -169.1809
  10   2.0000      -6.216029      -169.1467
  11   2.0000      -1.510840       -41.1120
  12   2.0000      -1.294435       -35.2234
  13   2.0000      -1.192380       -32.4463
  14   2.0000      -1.009291       -27.4642
  15   2.0000      -0.917829       -24.9754
  16   2.0000      -0.862883       -23.4802
  17   2.0000      -0.797796       -21.7091
  18   2.0000      -0.729656       -19.8549
  19   2.0000      -0.725468       -19.7410
  20   2.0000      -0.703857       -19.1529
  21   2.0000      -0.652138       -17.7456
  22   2.0000      -0.626176       -17.0391
  23   2.0000      -0.607723       -16.5370
  24   2.0000      -0.598467       -16.2851
  25   2.0000      -0.577678       -15.7194
  26   2.0000      -0.543708       -14.7950
  27   2.0000      -0.520800       -14.1717
  28   2.0000      -0.509233       -13.8569
  29   2.0000      -0.488308       -13.2875
  30   2.0000      -0.480871       -13.0852
  31   2.0000      -0.461853       -12.5677
  32   2.0000      -0.459846       -12.5130
  33   0.0000       0.067548         1.8381
  34   0.0000       0.085837         2.3357
  35   0.0000       0.092307         2.5118
  36   0.0000       0.094538         2.5725
  37   0.0000       0.122818         3.3420

MULLIKEN ATOMIC CHARGES
-----------------------
   0 C :    0.514612
   1 C :   -0.343005
   2 C :   -0.124256
   3 H :    0.111674
   4 H :    0.120347
   5 S :    1.328513
   6 O :   -0.630113
   7 O :   -0.642811
   8 F :   -0.366267
   9 H :    0.145411
  10 H :   -0.074457
  11 H :    0.002497
  12 H :   -0.004717
  13 H :   -0.037428
Sum of atomic charges:   -0.0000000

LOEWDIN ATOMIC CHARGES
----------------------
   0 C :    0.104823
   1 C :   -0.096743
   2 C :   -0.068685
   3 H :    0.038313
   4 H :    0.043257
   5 S :    1.090517
   6 O :   -0.453058
   7 O :   -0.455056
   8 F :   -0.257577
   9 H :    0.035979
  10 H :    0.041261
  11 H :   -0.000644
  12 H :    0.000539
  13 H :   -0.022927

  Mayer bond orders larger than 0.100000
B(  0-C ,  1-C ) :   1.2936 B(  0-C , 11-H ) :   0.8177 B(  0-C , 12-H ) :   0.8326
B(  0-C , 13-H ) :   0.8643 B(  1-C ,  2-C ) :   1.2726 B(  1-C ,  3-H ) :   0.1097
B(  1-C ,  4-H ) :   0.1045 B(  1-C ,  9-H ) :   0.8836 B(  1-C , 10-H ) :   0.9744
B(  1-C , 11-H ) :   0.1666 B(  1-C , 12-H ) :   0.1585 B(  1-C , 13-H ) :   0.1558
B(  2-C ,  3-H ) :   0.9402 B(  2-C ,  4-H ) :   0.9147 B(  2-C ,  5-S ) :   1.0036
B(  2-C ,  9-H ) :   0.1029 B(  5-S ,  6-O ) :   1.6305 B(  5-S ,  7-O ) :   1.5595
B(  5-S ,  8-F ) :   0.6671

FINAL SINGLE POINT ENERGY      -765.196642778803

DIPOLE MOMENT
-------------
                                X             Y             Z
Electronic contribution:      4.47929     -10.85128      -0.96623
Nuclear contribution   :     -4.84544      12.25421       0.17361
                        -----------------------------------------
Total Dipole Moment    :     -0.36615       1.40293      -0.79262
                        -----------------------------------------
Magnitude (a.u.)       :      1.65243
Magnitude (Debye)      :      4.20015

Rotational constants in cm-1:     0.128954     0.057447     0.053381
Rotational constants in MHz :  3865.954571  1722.226669  1600.330369

                             ****ORCA TERMINATED NORMALLY****
TOTAL RUN TIME: 0 days 0 hours 0 minutes 15 seconds 296 msec
