                         Program Version 5.0.0 -  RELEASE  -
|  1> !LC-BLYP RIJCOSX def2-TZVPD def2/J TightSCF
|  2> *xyz -1 1
|  3> C          2.49556        1.81615       -2.13636
|  4> C          1.87218        0.42790       -2.07750
|  5> H          2.61427       -0.36583       -2.19889
|  6> H          1.38995        0.27309       -1.11236
|  7> S          0.57902        0.14047       -3.29794
|  8> O          0.22886       -1.24687       -3.12787
|  9> O         -0.43927        1.11897       -3.01455
| 10> O          1.24788        0.40347       -4.59565
| 11> H          2.96535        1.95613       -3.08747
| 12> H          3.22581        1.91242       -1.36024
| 13> H          1.73350        2.55528       -2.00274
| 14> *
| 15>
| 16> %MaxCore 64000
| 17>
| 18> %pal nprocs 4
| 19> end
| 20>
| 21> %scf
| 22>   MaxIter 150
| 23> end
| 24>
| 25>
| 26>                          ****END OF INPUT****

CARTESIAN COORDINATES (ANGSTROEM)
---------------------------------
  C      2.495560    1.816150   -2.136360
  C      1.872180    0.427900   -2.077500
  H      2.614270   -0.365830   -2.198890
  H      1.389950    0.273090   -1.112360
  S      0.579020    0.140470   -3.297940
  O      0.228860   -1.246870   -3.127870
  O     -0.439270    1.118970   -3.014550
  O      1.247880    0.403470   -4.595650
  H      2.965350    1.956130   -3.087470
  H      3.225810    1.912420   -1.360240
  H      1.733500    2.555280   -2.002740

 Total Charge           Charge          ....   -1
 Multiplicity           Mult            ....    1
 Number of Electrons    NEL             ....   58
 Basis Dimension        Dim             ....  285

ORBITAL ENERGIES
----------------

  NO   OCC          E(Eh)            E(eV)
   0   2.0000     -88.259358     -2401.6592
   1   2.0000     -18.722716      -509.4710
   2   2.0000     -18.722642      -509.4690
   3   2.0000     -18.708233      -509.0769
   4   2.0000      -9.928800      -270.1764
   5   2.0000      -9.920879      -269.9609
   6   2.0000      -7.801714      -212.2954
   7   2.0000      -5.829857      -158.6385
   8   2.0000      -5.828726      -158.6077
   9   2.0000      -5.828422      -158.5994
  10   2.0000      -1.025653       -27.9094
  11   2.0000      -0.892720       -24.2921
  12   2.0000      -0.867024       -23.5929
  13   2.0000      -0.742002       -20.1909
  14   2.0000      -0.613510       -16.6945
  15   2.0000      -0.486673       -13.2431
  16   2.0000      -0.424020       -11.5382
  17   2.0000      -0.422620       -11.5001
  18   2.0000      -0.380688       -10.3590
  19   2.0000      -0.367807       -10.0085
  20   2.0000      -0.356846        -9.7103
  21   2.0000      -0.331376        -9.0172
  22   2.0000      -0.310220        -8.4415
  23   2.0000      -0.259140        -7.0515
  24   2.0000      -0.257700        -7.0124
  25   2.0000      -0.221352        -6.0233
  26   2.0000      -0.209992        -5.7142
  27   2.0000      -0.201305        -5.4778
  28   2.0000      -0.165893        -4.5142
  29   0.0000       0.163195         4.4408
  30   0.0000       0.175566         4.7774
  31   0.0000       0.176039         4.7903
  32   0.0000       0.182907         4.9772
  33   0.0000       0.207972         5.6592

MULLIKEN ATOMIC CHARGES
-----------------------
   0 C :   -1.275023
   1 C :   -0.690575
   2 H :    0.381525
   3 H :    0.380550
   4 S :    1.064208
   5 O :   -0.645159
   6 O :   -0.651591
   7 O :   -0.703572
   8 H :    0.366277
   9 H :    0.414245
  10 H :    0.359116
Sum of atomic charges:   -1.0000000

LOEWDIN ATOMIC CHARGES
----------------------
   0 C :   -0.161587
   1 C :   -0.347932
   2 H :    0.091180
   3 H :    0.086848
   4 S :    0.299301
   5 O :   -0.375892
   6 O :   -0.369408
   7 O :   -0.404008
   8 H :    0.062908
   9 H :    0.054173
  10 H :    0.064417

  Mayer bond orders larger than 0.100000
B(  0-C ,  1-C ) :   0.4872 B(  0-C ,  8-H ) :   0.9482 B(  0-C ,  9-H ) :   0.8707
B(  0-C , 10-H ) :   0.9471 B(  1-C ,  2-H ) :   0.8987 B(  1-C ,  3-H ) :   0.9054
B(  1-C ,  4-S ) :   0.9524 B(  1-C ,  5-O ) :   0.1150 B(  4-S ,  5-O ) :   1.5193
B(  4-S ,  6-O ) :   1.5182 B(  4-S ,  7-O ) :   1.4760

FINAL SINGLE POINT ENERGY      -702.486329403282

DIPOLE MOMENT
-------------
                                X             Y             Z
Electronic contribution:     -5.64610      -3.57962      -4.04526
Nuclear contribution   :      6.89220       4.11756       5.35566
                        -----------------------------------------
Total Dipole Moment    :      1.24610       0.53795       1.31040
                        -----------------------------------------
Magnitude (a.u.)       :      1.88661
Magnitude (Debye)      :      4.79538

Rotational constants in cm-1:     0.162183     0.084017     0.082390
Rotational constants in MHz :  4862.117324  2518.774315  2469.980309

                             ****ORCA TERMINATED NORMALLY****
TOTAL RUN TIME: 0 days 0 hours 0 minutes 39 seconds 810 msec
