                         Program Version 5.0.0 -  RELEASE  -
|  1> !LC-BLYP RIJCOSX def2-TZVPD def2/J TightSCF
|  2> *xyz 1 1
|  3> C          3.38093        2.08304       -3.35013
|  4> N          4.53592        1.18245       -3.42852
|  5> C          2.49556        1.81615       -2.13636
|  6> C          4.67196        0.12227       -4.22060
|  7> N          5.86602       -0.50785       -4.22428
|  8> N          3.69888       -0.31284       -4.98699
|  9> H          2.73141       -0.05009       -4.84900
| 10> H          3.89005       -1.05517       -5.64373
| 11> H          5.25193        1.30346       -2.72101
| 12> H          6.69516       -0.06232       -3.85160
| 13> H          5.97538       -1.39688       -4.69141
| 14> H          2.80646        1.98651       -4.26848
| 15> H          3.77871        3.09828       -3.30738
| 16> H          2.11090        0.81901       -2.18783
| 17> H          1.68276        2.51198       -2.12786
| 18> H          3.07216        1.93031       -1.24227
| 19> *
| 20>
| 21> %MaxCore 64000
| 22>
| 23> %pal nprocs 4
| 24> end
| 25>
| 26> %scf
| 27>   MaxIter 150
| 28> end
| 29>
| 30>
| 31>                          ****END OF INPUT****

CARTESIAN COORDINATES (ANGSTROEM)
---------------------------------
  C      3.380930    2.083040   -3.350130
  N      4.535920    1.182450   -3.428520
  C      2.495560    1.816150   -2.136360
  C      4.671960    0.122270   -4.220600
  N      5.866020   -0.507850   -4.224280
  N      3.698880   -0.312840   -4.986990
  H      2.731410   -0.050090   -4.849000
  H      3.890050   -1.055170   -5.643730
  H      5.251930    1.303460   -2.721010
  H      6.695160   -0.062320   -3.851600
  H      5.975380   -1.396880   -4.691410
  H      2.806460    1.986510   -4.268480
  H      3.778710    3.098280   -3.307380
  H      2.110900    0.819010   -2.187830
  H      1.682760    2.511980   -2.127860
  H      3.072160    1.930310   -1.242270

 Total Charge           Charge          ....    1
 Multiplicity           Mult            ....    1
 Number of Electrons    NEL             ....   48
 Basis Dimension        Dim             ....  312

ORBITAL ENERGIES
----------------

  NO   OCC          E(Eh)            E(eV)
   0   2.0000     -14.395965      -391.7341
   1   2.0000     -14.391964      -391.6252
   2   2.0000     -14.387752      -391.5106
   3   2.0000     -10.407497      -283.2024
   4   2.0000     -10.273780      -279.5638
   5   2.0000     -10.201552      -277.5983
   6   2.0000      -1.315055       -35.7845
   7   2.0000      -1.205527       -32.8041
   8   2.0000      -1.190423       -32.3931
   9   2.0000      -1.038689       -28.2642
  10   2.0000      -0.946833       -25.7646
  11   2.0000      -0.909922       -24.7602
  12   2.0000      -0.892553       -24.2876
  13   2.0000      -0.846454       -23.0332
  14   2.0000      -0.798288       -21.7225
  15   2.0000      -0.793501       -21.5923
  16   2.0000      -0.746624       -20.3167
  17   2.0000      -0.738609       -20.0986
  18   2.0000      -0.707211       -19.2442
  19   2.0000      -0.660718       -17.9791
  20   2.0000      -0.629588       -17.1320
  21   2.0000      -0.612156       -16.6576
  22   2.0000      -0.577696       -15.7199
  23   2.0000      -0.543769       -14.7967
  24   0.0000      -0.106991        -2.9114
  25   0.0000      -0.091843        -2.4992
  26   0.0000      -0.074431        -2.0254
  27   0.0000      -0.066283        -1.8037
  28   0.0000      -0.041513        -1.1296

MULLIKEN ATOMIC CHARGES
-----------------------
   0 C :   -0.709458
   1 N :   -0.196295
   2 C :   -1.142327
   3 C :    0.708652
   4 N :   -0.372774
   5 N :   -0.303077
   6 H :    0.223234
   7 H :    0.207608
   8 H :    0.192755
   9 H :    0.214579
  10 H :    0.201200
  11 H :    0.418331
  12 H :    0.376414
  13 H :    0.365058
  14 H :    0.413975
  15 H :    0.402124
Sum of atomic charges:    1.0000000

LOEWDIN ATOMIC CHARGES
----------------------
   0 C :   -0.215289
   1 N :    0.088451
   2 C :   -0.072879
   3 C :   -0.448693
   4 N :    0.200699
   5 N :    0.227741
   6 H :    0.137138
   7 H :    0.142703
   8 H :    0.169599
   9 H :    0.136828
  10 H :    0.132888
  11 H :    0.119756
  12 H :    0.134682
  13 H :    0.077163
  14 H :    0.087531
  15 H :    0.081682

  Mayer bond orders larger than 0.100000
B(  0-C ,  1-N ) :   0.7668 B(  0-C ,  2-C ) :   0.4968 B(  0-C ,  3-C ) :  -0.1500
B(  0-C , 11-H ) :   0.8592 B(  0-C , 12-H ) :   0.9242 B(  1-N ,  3-C ) :   1.2324
B(  1-N ,  4-N ) :   0.1031 B(  1-N ,  8-H ) :   1.0312 B(  2-C , 13-H ) :   0.9278
B(  2-C , 14-H ) :   0.9226 B(  2-C , 15-H ) :   0.8806 B(  3-C ,  4-N ) :   0.9910
B(  3-C ,  5-N ) :   1.1241 B(  4-N ,  9-H ) :   0.9852 B(  4-N , 10-H ) :   1.0194
B(  5-N ,  6-H ) :   0.9506 B(  5-N ,  7-H ) :   1.0122

FINAL SINGLE POINT ENERGY      -283.782445800449

DIPOLE MOMENT
-------------
                                X             Y             Z
Electronic contribution:      3.55504      -2.64565      -2.81928
Nuclear contribution   :     -2.93277       1.85779       2.25966
                        -----------------------------------------
Total Dipole Moment    :      0.62227      -0.78785      -0.55962
                        -----------------------------------------
Magnitude (a.u.)       :      1.14940
Magnitude (Debye)      :      2.92154

Rotational constants in cm-1:     0.245511     0.068839     0.059711
Rotational constants in MHz :  7360.233487  2063.743353  1790.088408

                             ****ORCA TERMINATED NORMALLY****
TOTAL RUN TIME: 0 days 0 hours 0 minutes 50 seconds 179 msec
