                         Program Version 5.0.0 -  RELEASE  -
|  1> !LC-BLYP RIJCOSX def2-TZVPD def2/J TightSCF xyzfile
|  2>
|  3> *xyzfile 0 1 B.xyz
|  4>
|  5> %MaxCore 64000
|  6>
|  7> %pal nprocs 4
|  8> end
|  9>
| 10> %scf
| 11>   MaxIter 150
| 12> end
| 13>
| 14>
| 15>                          ****END OF INPUT****

CARTESIAN COORDINATES (ANGSTROEM)
---------------------------------
  C      3.380928    2.083045   -3.350127
  N      4.535924    1.182447   -3.428518
  C      2.495557    1.816150   -2.136364
  C      1.872181    0.427903   -2.077497
  H      2.614270   -0.365825   -2.198894
  H      1.389953    0.273087   -1.112360
  S      0.579024    0.140472   -3.297943
  C      4.671956    0.122273   -4.220598
  N      5.866023   -0.507849   -4.224284
  N      3.698881   -0.312844   -4.986988
  H      2.731405   -0.050091   -4.849000
  H      3.890046   -1.055172   -5.643730
  H      5.251933    1.303459   -2.721014
  H      6.695165   -0.062322   -3.851596
  H      5.975383   -1.396884   -4.691414
  O      0.228860   -1.246868   -3.127871
  O     -0.439269    1.118966   -3.014550
  O      1.247881    0.403474   -4.595647
  H      1.697003    2.561969   -2.141109
  H      3.080787    1.987436   -1.225838
  H      2.806463    1.986511   -4.268484
  H      3.778714    3.098282   -3.307383

 Total Charge           Charge          ....    0
 Multiplicity           Mult            ....    1
 Number of Electrons    NEL             ....   96
 Basis Dimension        Dim             ....  524

ORBITAL ENERGIES
----------------

  NO   OCC          E(Eh)            E(eV)
   0   2.0000     -88.405490     -2405.6357
   1   2.0000     -18.873831      -513.5830
   2   2.0000     -18.858975      -513.1788
   3   2.0000     -18.858816      -513.1745
   4   2.0000     -14.265286      -388.1782
   5   2.0000     -14.260501      -388.0480
   6   2.0000     -14.229931      -387.2161
   7   2.0000     -10.269444      -279.4458
   8   2.0000     -10.133379      -275.7433
   9   2.0000     -10.084617      -274.4164
  10   2.0000     -10.071359      -274.0556
  11   2.0000      -7.947941      -216.2745
  12   2.0000      -5.976412      -162.6264
  13   2.0000      -5.975274      -162.5955
  14   2.0000      -5.973973      -162.5601
  15   2.0000      -1.179381       -32.0926
  16   2.0000      -1.171485       -31.8777
  17   2.0000      -1.070663       -29.1342
  18   2.0000      -1.054147       -28.6848
  19   2.0000      -1.029020       -28.0011
  20   2.0000      -1.028449       -27.9855
  21   2.0000      -0.920468       -25.0472
  22   2.0000      -0.848690       -23.0940
  23   2.0000      -0.793293       -21.5866
  24   2.0000      -0.758908       -20.6509
  25   2.0000      -0.749011       -20.3816
  26   2.0000      -0.711546       -19.3621
  27   2.0000      -0.670095       -18.2342
  28   2.0000      -0.654607       -17.8128
  29   2.0000      -0.635986       -17.3061
  30   2.0000      -0.619252       -16.8507
  31   2.0000      -0.592385       -16.1196
  32   2.0000      -0.580832       -15.8052
  33   2.0000      -0.558590       -15.2000
  34   2.0000      -0.541165       -14.7258
  35   2.0000      -0.523837       -14.2543
  36   2.0000      -0.502769       -13.6810
  37   2.0000      -0.482619       -13.1327
  38   2.0000      -0.475874       -12.9492
  39   2.0000      -0.463224       -12.6050
  40   2.0000      -0.441193       -12.0055
  41   2.0000      -0.410980       -11.1833
  42   2.0000      -0.406608       -11.0644
  43   2.0000      -0.399761       -10.8780
  44   2.0000      -0.365479        -9.9452
  45   2.0000      -0.356483        -9.7004
  46   2.0000      -0.347743        -9.4626
  47   2.0000      -0.315293        -8.5795
  48   0.0000      -0.001686        -0.0459
  49   0.0000       0.030529         0.8307
  50   0.0000       0.037342         1.0161
  51   0.0000       0.048648         1.3238
  52   0.0000       0.062402         1.6980

MULLIKEN ATOMIC CHARGES
-----------------------
   0 C :   -0.908186
   1 N :   -0.205180
   2 C :   -0.702837
   3 C :   -0.913729
   4 H :    0.365080
   5 H :    0.454094
   6 S :    1.154298
   7 C :    0.621211
   8 N :   -0.387643
   9 N :   -0.208733
  10 H :    0.251492
  11 H :    0.187907
  12 H :    0.190711
  13 H :    0.197212
  14 H :    0.194082
  15 O :   -0.639889
  16 O :   -0.620841
  17 O :   -0.810926
  18 H :    0.433910
  19 H :    0.407131
  20 H :    0.560854
  21 H :    0.379983
Sum of atomic charges:   -0.0000000

LOEWDIN ATOMIC CHARGES
----------------------
   0 C :   -0.173760
   1 N :    0.090187
   2 C :   -0.214628
   3 C :   -0.265937
   4 H :    0.095924
   5 H :    0.108234
   6 S :    0.377408
   7 C :   -0.459700
   8 N :    0.174860
   9 N :    0.238610
  10 H :    0.019180
  11 H :    0.138983
  12 H :    0.160105
  13 H :    0.121255
  14 H :    0.121201
  15 O :   -0.325394
  16 O :   -0.314866
  17 O :   -0.379556
  18 H :    0.124859
  19 H :    0.116370
  20 H :    0.116907
  21 H :    0.129761

  Mayer bond orders larger than 0.100000
B(  0-C ,  1-N ) :   0.7223 B(  0-C ,  2-C ) :   0.6012 B(  0-C ,  7-C ) :  -0.1332
B(  0-C , 20-H ) :   0.7735 B(  0-C , 21-H ) :   0.9201 B(  1-N ,  7-C ) :   1.2343
B(  1-N ,  8-N ) :   0.1140 B(  1-N , 12-H ) :   1.0163 B(  2-C ,  3-C ) :   0.7282
B(  2-C , 18-H ) :   0.9248 B(  2-C , 19-H ) :   0.8595 B(  3-C ,  4-H ) :   0.8746
B(  3-C ,  5-H ) :   0.8618 B(  3-C ,  6-S ) :   0.9472 B(  3-C , 15-O ) :   0.1282
B(  6-S , 15-O ) :   1.5236 B(  6-S , 16-O ) :   1.5282 B(  6-S , 17-O ) :   1.2954
B(  7-C ,  8-N ) :   0.9408 B(  7-C ,  9-N ) :   1.2030 B(  8-N , 13-H ) :   0.9973
B(  8-N , 14-H ) :   1.0173 B(  9-N , 10-H ) :   0.7727 B(  9-N , 11-H ) :   1.0301
B(  9-N , 17-O ) :  -0.1237 B( 10-H , 17-O ) :   0.1430

FINAL SINGLE POINT ENERGY      -946.029955187074

DIPOLE MOMENT
-------------
                                X             Y             Z
Electronic contribution:     -7.04721      -3.18304      -2.41545
Nuclear contribution   :     13.40759       3.44219       2.21042
                        -----------------------------------------
Total Dipole Moment    :      6.36038       0.25915      -0.20503
                        -----------------------------------------
Magnitude (a.u.)       :      6.36896
Magnitude (Debye)      :     16.18862

Rotational constants in cm-1:     0.059860     0.020817     0.017914
Rotational constants in MHz :  1794.564877   624.092098   537.039275

                             ****ORCA TERMINATED NORMALLY****
TOTAL RUN TIME: 0 days 0 hours 3 minutes 39 seconds 724 msec
