                         Program Version 5.0.0 -  RELEASE  -
|  1> !LC-BLYP RIJCOSX def2-TZVPD def2/J TightSCF
|  2> *xyz 0 1
|  3> C          2.49556        1.81615       -2.13636
|  4> C          1.87218        0.42790       -2.07750
|  5> H          2.61427       -0.36583       -2.19889
|  6> H          1.38995        0.27309       -1.11236
|  7> S          0.57902        0.14047       -3.29794
|  8> F          0.22886       -1.24687       -3.12787
|  9> O         -0.43927        1.11897       -3.01455
| 10> O          1.24788        0.40347       -4.59565
| 11> H          2.96535        1.95613       -3.08747
| 12> H          3.22581        1.91242       -1.36024
| 13> H          1.73350        2.55528       -2.00274
| 14> *
| 15>
| 16> %MaxCore 64000
| 17>
| 18> %pal nprocs 4
| 19> end
| 20>
| 21> %scf
| 22>   MaxIter 150
| 23> end
| 24>
| 25>
| 26>                          ****END OF INPUT****

CARTESIAN COORDINATES (ANGSTROEM)
---------------------------------
  C      2.495560    1.816150   -2.136360
  C      1.872180    0.427900   -2.077500
  H      2.614270   -0.365830   -2.198890
  H      1.389950    0.273090   -1.112360
  S      0.579020    0.140470   -3.297940
  F      0.228860   -1.246870   -3.127870
  O     -0.439270    1.118970   -3.014550
  O      1.247880    0.403470   -4.595650
  H      2.965350    1.956130   -3.087470
  H      3.225810    1.912420   -1.360240
  H      1.733500    2.555280   -2.002740

 Total Charge           Charge          ....    0
 Multiplicity           Mult            ....    1
 Number of Electrons    NEL             ....   58
 Basis Dimension        Dim             ....  285

ORBITAL ENERGIES
----------------

  NO   OCC          E(Eh)            E(eV)
   0   2.0000     -88.520239     -2408.7582
   1   2.0000     -24.579640      -668.8460
   2   2.0000     -18.956033      -515.8199
   3   2.0000     -18.941243      -515.4174
   4   2.0000     -10.130223      -275.6574
   5   2.0000     -10.084139      -274.4034
   6   2.0000      -8.063102      -219.4082
   7   2.0000      -6.094757      -165.8468
   8   2.0000      -6.087889      -165.6599
   9   2.0000      -6.087761      -165.6564
  10   2.0000      -1.469453       -39.9858
  11   2.0000      -1.204464       -32.7751
  12   2.0000      -1.100802       -29.9543
  13   2.0000      -0.932196       -25.3664
  14   2.0000      -0.844614       -22.9831
  15   2.0000      -0.783303       -21.3148
  16   2.0000      -0.695619       -18.9288
  17   2.0000      -0.694505       -18.8985
  18   2.0000      -0.661287       -17.9945
  19   2.0000      -0.601416       -16.3654
  20   2.0000      -0.589117       -16.0307
  21   2.0000      -0.546276       -14.8649
  22   2.0000      -0.533354       -14.5133
  23   2.0000      -0.511168       -13.9096
  24   2.0000      -0.491903       -13.3854
  25   2.0000      -0.486615       -13.2415
  26   2.0000      -0.437440       -11.9033
  27   2.0000      -0.423541       -11.5251
  28   2.0000      -0.408113       -11.1053
  29   0.0000       0.032867         0.8944
  30   0.0000       0.050884         1.3846
  31   0.0000       0.056625         1.5408
  32   0.0000       0.059693         1.6243
  33   0.0000       0.087197         2.3728

MULLIKEN ATOMIC CHARGES
-----------------------
   0 C :   -1.301417
   1 C :   -0.719188
   2 H :    0.444110
   3 H :    0.445782
   4 S :    1.053059
   5 F :   -0.086749
   6 O :   -0.508889
   7 O :   -0.554572
   8 H :    0.404639
   9 H :    0.419001
  10 H :    0.404223
Sum of atomic charges:    0.0000000

LOEWDIN ATOMIC CHARGES
----------------------
   0 C :   -0.116371
   1 C :   -0.303981
   2 H :    0.108342
   3 H :    0.104196
   4 S :    0.547471
   5 F :   -0.034858
   6 O :   -0.255885
   7 O :   -0.288665
   8 H :    0.079172
   9 H :    0.080202
  10 H :    0.080377

  Mayer bond orders larger than 0.100000
B(  0-C ,  1-C ) :   0.5564 B(  0-C ,  8-H ) :   0.9049 B(  0-C ,  9-H ) :   0.8752
B(  0-C , 10-H ) :   0.8982 B(  1-C ,  2-H ) :   0.8214 B(  1-C ,  3-H ) :   0.8266
B(  1-C ,  4-S ) :   0.9252 B(  4-S ,  5-F ) :   1.0235 B(  4-S ,  6-O ) :   1.7159
B(  4-S ,  7-O ) :   1.6725

FINAL SINGLE POINT ENERGY      -726.986453628900

DIPOLE MOMENT
-------------
                                X             Y             Z
Electronic contribution:     -6.80120      -6.40897      -4.06884
Nuclear contribution   :      7.60530       5.82028       5.38743
                        -----------------------------------------
Total Dipole Moment    :      0.80410      -0.58869       1.31859
                        -----------------------------------------
Magnitude (a.u.)       :      1.65282
Magnitude (Debye)      :      4.20114

Rotational constants in cm-1:     0.157861     0.081452     0.078859
Rotational constants in MHz :  4732.562506  2441.865430  2364.129821

                             ****ORCA TERMINATED NORMALLY****
TOTAL RUN TIME: 0 days 0 hours 0 minutes 39 seconds 614 msec
