                         Program Version 5.0.0 -  RELEASE  -
|  1> !LC-BLYP RIJCOSX def2-TZVPD def2/J TightSCF
|  2> *xyz 0 1
|  3> C          3.38093        2.08304       -3.35013
|  4> C          4.53592        1.18245       -3.42852
|  5> C          2.49556        1.81615       -2.13636
|  6> C          4.67196        0.12227       -4.22060
|  7> N          5.86602       -0.50785       -4.22428
|  8> N          3.69888       -0.31284       -4.98699
|  9> H          2.73141       -0.05009       -4.84900
| 10> H          3.89005       -1.05517       -5.64373
| 11> H          5.25193        1.30346       -2.72101
| 12> H          6.69516       -0.06232       -3.85160
| 13> H          5.97538       -1.39688       -4.69141
| 14> H          2.80646        1.98651       -4.26848
| 15> H          3.77871        3.09828       -3.30738
| 16> H          2.11090        0.81901       -2.18783
| 17> H          1.68276        2.51198       -2.12786
| 18> H          3.07216        1.93031       -1.24227
| 19> *
| 20>
| 21> %MaxCore 64000
| 22>
| 23> %pal nprocs 4
| 24> end
| 25>
| 26> %scf
| 27>   MaxIter 150
| 28> end
| 29>
| 30>
| 31>                          ****END OF INPUT****

CARTESIAN COORDINATES (ANGSTROEM)
---------------------------------
  C      3.380930    2.083040   -3.350130
  C      4.535920    1.182450   -3.428520
  C      2.495560    1.816150   -2.136360
  C      4.671960    0.122270   -4.220600
  N      5.866020   -0.507850   -4.224280
  N      3.698880   -0.312840   -4.986990
  H      2.731410   -0.050090   -4.849000
  H      3.890050   -1.055170   -5.643730
  H      5.251930    1.303460   -2.721010
  H      6.695160   -0.062320   -3.851600
  H      5.975380   -1.396880   -4.691410
  H      2.806460    1.986510   -4.268480
  H      3.778710    3.098280   -3.307380
  H      2.110900    0.819010   -2.187830
  H      1.682760    2.511980   -2.127860
  H      3.072160    1.930310   -1.242270

 Total Charge           Charge          ....    0
 Multiplicity           Mult            ....    1
 Number of Electrons    NEL             ....   48
 Basis Dimension        Dim             ....  312

ORBITAL ENERGIES
----------------

  NO   OCC          E(Eh)            E(eV)
   0   2.0000     -14.173445      -385.6790
   1   2.0000     -14.165884      -385.4733
   2   2.0000     -10.114519      -275.2301
   3   2.0000     -10.040987      -273.2291
   4   2.0000     -10.031619      -272.9742
   5   2.0000      -9.991047      -271.8702
   6   2.0000      -1.063188       -28.9308
   7   2.0000      -0.970321       -26.4038
   8   2.0000      -0.880230       -23.9523
   9   2.0000      -0.801634       -21.8136
  10   2.0000      -0.723467       -19.6865
  11   2.0000      -0.684456       -18.6250
  12   2.0000      -0.649558       -17.6754
  13   2.0000      -0.611115       -16.6293
  14   2.0000      -0.581078       -15.8119
  15   2.0000      -0.545936       -14.8557
  16   2.0000      -0.520018       -14.1504
  17   2.0000      -0.500722       -13.6253
  18   2.0000      -0.479345       -13.0436
  19   2.0000      -0.452167       -12.3041
  20   2.0000      -0.424346       -11.5470
  21   2.0000      -0.417433       -11.3589
  22   2.0000      -0.365373        -9.9423
  23   2.0000      -0.251951        -6.8559
  24   0.0000       0.046790         1.2732
  25   0.0000       0.070908         1.9295
  26   0.0000       0.078155         2.1267
  27   0.0000       0.088863         2.4181
  28   0.0000       0.102304         2.7838

MULLIKEN ATOMIC CHARGES
-----------------------
   0 C :   -0.897188
   1 C :   -0.431188
   2 C :   -1.121888
   3 C :    0.480324
   4 N :   -0.408781
   5 N :   -0.339287
   6 H :    0.166514
   7 H :    0.152225
   8 H :    0.293198
   9 H :    0.168579
  10 H :    0.149726
  11 H :    0.387856
  12 H :    0.317990
  13 H :    0.341904
  14 H :    0.368501
  15 H :    0.371517
Sum of atomic charges:    0.0000000

LOEWDIN ATOMIC CHARGES
----------------------
   0 C :   -0.294363
   1 C :   -0.149403
   2 C :   -0.121620
   3 C :   -0.560346
   4 N :    0.106352
   5 N :    0.135208
   6 H :    0.108533
   7 H :    0.102286
   8 H :    0.072037
   9 H :    0.105661
  10 H :    0.090714
  11 H :    0.098320
  12 H :    0.107063
  13 H :    0.067619
  14 H :    0.062416
  15 H :    0.069522

  Mayer bond orders larger than 0.100000
B(  0-C ,  1-C ) :   0.4620 B(  0-C ,  2-C ) :   0.4563 B(  0-C , 11-H ) :   0.9049
B(  0-C , 12-H ) :   1.0879 B(  1-C ,  2-C ) :  -0.1484 B(  1-C ,  3-C ) :   1.2640
B(  1-C ,  4-N ) :   0.1738 B(  1-C ,  5-N ) :   0.1337 B(  1-C ,  8-H ) :   1.0875
B(  1-C , 12-H ) :  -0.1088 B(  2-C , 13-H ) :   0.9605 B(  2-C , 14-H ) :   0.9310
B(  2-C , 15-H ) :   0.9393 B(  3-C ,  4-N ) :   0.7894 B(  3-C ,  5-N ) :   0.8654
B(  3-C ,  8-H ) :  -0.1684 B(  4-N ,  9-H ) :   1.0259 B(  4-N , 10-H ) :   1.0745
B(  5-N ,  6-H ) :   1.0003 B(  5-N ,  7-H ) :   1.0625 B( 11-H , 12-H ) :   0.1087

FINAL SINGLE POINT ENERGY      -267.303343576408

DIPOLE MOMENT
-------------
                                X             Y             Z
Electronic contribution:      2.97910      -2.76222      -2.87463
Nuclear contribution   :     -2.84307       1.95814       2.32378
                        -----------------------------------------
Total Dipole Moment    :      0.13602      -0.80409      -0.55085
                        -----------------------------------------
Magnitude (a.u.)       :      0.98412
Magnitude (Debye)      :      2.50144

Rotational constants in cm-1:     0.248902     0.068887     0.059904
Rotational constants in MHz :  7461.898926  2065.183281  1795.882140

                             ****ORCA TERMINATED NORMALLY****
TOTAL RUN TIME: 0 days 0 hours 0 minutes 55 seconds 994 msec
