                         Program Version 5.0.0 -  RELEASE  -
|  1> !LC-BLYP RIJCOSX def2-TZVPD def2/J TightSCF
|  2> *xyz 0 1
|  3> C          2.49556        1.81615       -2.13636
|  4> C          1.87218        0.42790       -2.07750
|  5> H          2.61427       -0.36583       -2.19889
|  6> H          1.38995        0.27309       -1.11236
|  7> S          0.57902        0.14047       -3.29794
|  8> O          0.22886       -1.24687       -3.12787
|  9> F         -0.43927        1.11897       -3.01455
| 10> O          1.24788        0.40347       -4.59565
| 11> H          2.96535        1.95613       -3.08747
| 12> H          3.22581        1.91242       -1.36024
| 13> H          1.73350        2.55528       -2.00274
| 14> *
| 15>
| 16> %MaxCore 64000
| 17>
| 18> %pal nprocs 4
| 19> end
| 20>
| 21> %scf
| 22>   MaxIter 150
| 23> end
| 24>
| 25>
| 26>                          ****END OF INPUT****

CARTESIAN COORDINATES (ANGSTROEM)
---------------------------------
  C      2.495560    1.816150   -2.136360
  C      1.872180    0.427900   -2.077500
  H      2.614270   -0.365830   -2.198890
  H      1.389950    0.273090   -1.112360
  S      0.579020    0.140470   -3.297940
  O      0.228860   -1.246870   -3.127870
  F     -0.439270    1.118970   -3.014550
  O      1.247880    0.403470   -4.595650
  H      2.965350    1.956130   -3.087470
  H      3.225810    1.912420   -1.360240
  H      1.733500    2.555280   -2.002740

 Total Charge           Charge          ....    0
 Multiplicity           Mult            ....    1
 Number of Electrons    NEL             ....   58
 Basis Dimension        Dim             ....  285

ORBITAL ENERGIES
----------------

  NO   OCC          E(Eh)            E(eV)
   0   2.0000     -88.520329     -2408.7606
   1   2.0000     -24.579596      -668.8448
   2   2.0000     -18.956301      -515.8272
   3   2.0000     -18.941801      -515.4326
   4   2.0000     -10.130075      -275.6534
   5   2.0000     -10.087342      -274.4905
   6   2.0000      -8.063148      -219.4094
   7   2.0000      -6.094960      -165.8523
   8   2.0000      -6.087938      -165.6612
   9   2.0000      -6.087675      -165.6541
  10   2.0000      -1.469788       -39.9950
  11   2.0000      -1.203905       -32.7599
  12   2.0000      -1.101757       -29.9803
  13   2.0000      -0.935175       -25.4474
  14   2.0000      -0.840422       -22.8690
  15   2.0000      -0.787897       -21.4398
  16   2.0000      -0.705993       -19.2110
  17   2.0000      -0.693847       -18.8805
  18   2.0000      -0.653728       -17.7888
  19   2.0000      -0.601214       -16.3599
  20   2.0000      -0.584773       -15.9125
  21   2.0000      -0.557330       -15.1657
  22   2.0000      -0.536814       -14.6074
  23   2.0000      -0.511513       -13.9190
  24   2.0000      -0.500886       -13.6298
  25   2.0000      -0.481070       -13.0906
  26   2.0000      -0.436700       -11.8832
  27   2.0000      -0.423379       -11.5207
  28   2.0000      -0.410240       -11.1632
  29   0.0000       0.033211         0.9037
  30   0.0000       0.050761         1.3813
  31   0.0000       0.056326         1.5327
  32   0.0000       0.059685         1.6241
  33   0.0000       0.086264         2.3474

MULLIKEN ATOMIC CHARGES
-----------------------
   0 C :   -1.284599
   1 C :   -0.700423
   2 H :    0.425231
   3 H :    0.445075
   4 S :    1.043058
   5 O :   -0.503368
   6 F :   -0.101224
   7 O :   -0.552566
   8 H :    0.402531
   9 H :    0.422287
  10 H :    0.403999
Sum of atomic charges:    0.0000000

LOEWDIN ATOMIC CHARGES
----------------------
   0 C :   -0.127153
   1 C :   -0.296010
   2 H :    0.119125
   3 H :    0.104680
   4 S :    0.545562
   5 O :   -0.259645
   6 F :   -0.031060
   7 O :   -0.286432
   8 H :    0.077156
   9 H :    0.078798
  10 H :    0.074980

  Mayer bond orders larger than 0.100000
B(  0-C ,  1-C ) :   0.4765 B(  0-C ,  8-H ) :   0.9368 B(  0-C ,  9-H ) :   0.8876
B(  0-C , 10-H ) :   0.8797 B(  1-C ,  2-H ) :   0.8527 B(  1-C ,  3-H ) :   0.8459
B(  1-C ,  4-S ) :   0.9409 B(  4-S ,  5-O ) :   1.7214 B(  4-S ,  6-F ) :   1.0250
B(  4-S ,  7-O ) :   1.6771

FINAL SINGLE POINT ENERGY      -726.986510501004

DIPOLE MOMENT
-------------
                                X             Y             Z
Electronic contribution:     -7.91898      -2.39987      -3.87045
Nuclear contribution   :      8.30151       3.35500       5.26935
                        -----------------------------------------
Total Dipole Moment    :      0.38253       0.95513       1.39890
                        -----------------------------------------
Magnitude (a.u.)       :      1.73653
Magnitude (Debye)      :      4.41390

Rotational constants in cm-1:     0.152913     0.083043     0.080351
Rotational constants in MHz :  4584.227971  2489.580280  2408.872860

                             ****ORCA TERMINATED NORMALLY****
TOTAL RUN TIME: 0 days 0 hours 0 minutes 39 seconds 285 msec
