                         Program Version 5.0.0 -  RELEASE  -
|  1> !LC-BLYP RIJCOSX def2-TZVPD def2/J TightSCF
|  2> *xyz 0 1
|  3> C          3.38093        2.08304       -3.35013
|  4> N          4.53592        1.18245       -3.42852
|  5> C          2.49556        1.81615       -2.13636
|  6> C          4.67196        0.12227       -4.22060
|  7> C          5.86602       -0.50785       -4.22428
|  8> N          3.69888       -0.31284       -4.98699
|  9> H          2.73141       -0.05009       -4.84900
| 10> H          3.89005       -1.05517       -5.64373
| 11> H          5.25193        1.30346       -2.72101
| 12> H          6.69516       -0.06232       -3.85160
| 13> H          5.97538       -1.39688       -4.69141
| 14> H          2.80646        1.98651       -4.26848
| 15> H          3.77871        3.09828       -3.30738
| 16> H          2.11090        0.81901       -2.18783
| 17> H          1.68276        2.51198       -2.12786
| 18> H          3.07216        1.93031       -1.24227
| 19> *
| 20>
| 21> %MaxCore 64000
| 22>
| 23> %pal nprocs 4
| 24> end
| 25>
| 26> %scf
| 27>   MaxIter 150
| 28> end
| 29>
| 30>
| 31>                          ****END OF INPUT****

CARTESIAN COORDINATES (ANGSTROEM)
---------------------------------
  C      3.380930    2.083040   -3.350130
  N      4.535920    1.182450   -3.428520
  C      2.495560    1.816150   -2.136360
  C      4.671960    0.122270   -4.220600
  C      5.866020   -0.507850   -4.224280
  N      3.698880   -0.312840   -4.986990
  H      2.731410   -0.050090   -4.849000
  H      3.890050   -1.055170   -5.643730
  H      5.251930    1.303460   -2.721010
  H      6.695160   -0.062320   -3.851600
  H      5.975380   -1.396880   -4.691410
  H      2.806460    1.986510   -4.268480
  H      3.778710    3.098280   -3.307380
  H      2.110900    0.819010   -2.187830
  H      1.682760    2.511980   -2.127860
  H      3.072160    1.930310   -1.242270

 Total Charge           Charge          ....    0
 Multiplicity           Mult            ....    1
 Number of Electrons    NEL             ....   48
 Basis Dimension        Dim             ....  312

ORBITAL ENERGIES
----------------

  NO   OCC          E(Eh)            E(eV)
   0   2.0000     -14.173389      -385.6775
   1   2.0000     -14.169969      -385.5845
   2   2.0000     -10.119243      -275.3586
   3   2.0000     -10.108460      -275.0652
   4   2.0000     -10.060371      -273.7566
   5   2.0000      -9.976292      -271.4687
   6   2.0000      -1.070733       -29.1361
   7   2.0000      -0.989623       -26.9290
   8   2.0000      -0.880862       -23.9695
   9   2.0000      -0.804548       -21.8929
  10   2.0000      -0.735171       -20.0050
  11   2.0000      -0.709593       -19.3090
  12   2.0000      -0.650032       -17.6883
  13   2.0000      -0.602786       -16.4026
  14   2.0000      -0.584368       -15.9015
  15   2.0000      -0.550496       -14.9798
  16   2.0000      -0.533747       -14.5240
  17   2.0000      -0.505355       -13.7514
  18   2.0000      -0.490579       -13.3493
  19   2.0000      -0.467555       -12.7228
  20   2.0000      -0.462562       -12.5869
  21   2.0000      -0.453870       -12.3504
  22   2.0000      -0.353034        -9.6065
  23   2.0000      -0.251861        -6.8535
  24   0.0000       0.045420         1.2360
  25   0.0000       0.071340         1.9413
  26   0.0000       0.076229         2.0743
  27   0.0000       0.077424         2.1068
  28   0.0000       0.104198         2.8354

MULLIKEN ATOMIC CHARGES
-----------------------
   0 C :   -0.723180
   1 N :   -0.251869
   2 C :   -1.112575
   3 C :    0.661346
   4 C :   -1.147840
   5 N :   -0.350849
   6 H :    0.178315
   7 H :    0.167381
   8 H :    0.151259
   9 H :    0.272735
  10 H :    0.278394
  11 H :    0.405457
  12 H :    0.368418
  13 H :    0.339248
  14 H :    0.403956
  15 H :    0.359805
Sum of atomic charges:    0.0000000

LOEWDIN ATOMIC CHARGES
----------------------
   0 C :   -0.252788
   1 N :    0.022628
   2 C :   -0.101242
   3 C :   -0.581235
   4 C :   -0.013679
   5 N :    0.131494
   6 H :    0.099196
   7 H :    0.114100
   8 H :    0.145962
   9 H :    0.004628
  10 H :   -0.000022
  11 H :    0.107613
  12 H :    0.114850
  13 H :    0.069894
  14 H :    0.068732
  15 H :    0.069869

  Mayer bond orders larger than 0.100000
B(  0-C ,  1-N ) :   0.7639 B(  0-C ,  2-C ) :   0.4634 B(  0-C ,  3-C ) :  -0.1647
B(  0-C , 11-H ) :   0.8976 B(  0-C , 12-H ) :   0.9394 B(  1-N ,  3-C ) :   1.0411
B(  1-N ,  4-C ) :   0.1517 B(  1-N ,  8-H ) :   1.0534 B(  2-C , 13-H ) :   0.9657
B(  2-C , 14-H ) :   0.9242 B(  2-C , 15-H ) :   0.9167 B(  3-C ,  4-C ) :   0.9399
B(  3-C ,  5-N ) :   0.9521 B(  3-C , 10-H ) :  -0.1579 B(  4-C ,  5-N ) :   0.1005
B(  4-C ,  9-H ) :   0.9979 B(  4-C , 10-H ) :   1.1288 B(  5-N ,  6-H ) :   1.0130
B(  5-N ,  7-H ) :   1.0212

FINAL SINGLE POINT ENERGY      -267.292287376464

DIPOLE MOMENT
-------------
                                X             Y             Z
Electronic contribution:      1.48470      -1.08461      -2.03389
Nuclear contribution   :     -2.56090       1.59955       2.15496
                        -----------------------------------------
Total Dipole Moment    :     -1.07620       0.51494       0.12107
                        -----------------------------------------
Magnitude (a.u.)       :      1.19918
Magnitude (Debye)      :      3.04808

Rotational constants in cm-1:     0.249834     0.071381     0.061833
Rotational constants in MHz :  7489.842787  2139.945635  1853.706310

                             ****ORCA TERMINATED NORMALLY****
TOTAL RUN TIME: 0 days 0 hours 0 minutes 57 seconds 120 msec
