                         Program Version 5.0.0 -  RELEASE  -
|  1> !LC-BLYP RIJCOSX def2-TZVPD def2/J TightSCF
|  2> *xyz 0 1
|  3> C          2.49556        1.81615       -2.13636
|  4> C          1.87218        0.42790       -2.07750
|  5> H          2.61427       -0.36583       -2.19889
|  6> H          1.38995        0.27309       -1.11236
|  7> S          0.57902        0.14047       -3.29794
|  8> O          0.22886       -1.24687       -3.12787
|  9> O         -0.43927        1.11897       -3.01455
| 10> F          1.24788        0.40347       -4.59565
| 11> H          2.96535        1.95613       -3.08747
| 12> H          3.22581        1.91242       -1.36024
| 13> H          1.73350        2.55528       -2.00274
| 14> *
| 15>
| 16> %MaxCore 64000
| 17>
| 18> %pal nprocs 4
| 19> end
| 20>
| 21> %scf
| 22>   MaxIter 150
| 23> end
| 24>
| 25>
| 26>                          ****END OF INPUT****

CARTESIAN COORDINATES (ANGSTROEM)
---------------------------------
  C      2.495560    1.816150   -2.136360
  C      1.872180    0.427900   -2.077500
  H      2.614270   -0.365830   -2.198890
  H      1.389950    0.273090   -1.112360
  S      0.579020    0.140470   -3.297940
  O      0.228860   -1.246870   -3.127870
  O     -0.439270    1.118970   -3.014550
  F      1.247880    0.403470   -4.595650
  H      2.965350    1.956130   -3.087470
  H      3.225810    1.912420   -1.360240
  H      1.733500    2.555280   -2.002740

 Total Charge           Charge          ....    0
 Multiplicity           Mult            ....    1
 Number of Electrons    NEL             ....   58
 Basis Dimension        Dim             ....  285

ORBITAL ENERGIES
----------------

  NO   OCC          E(Eh)            E(eV)
   0   2.0000     -88.517777     -2408.6912
   1   2.0000     -24.557329      -668.2389
   2   2.0000     -18.955915      -515.8167
   3   2.0000     -18.955650      -515.8095
   4   2.0000     -10.128959      -275.6230
   5   2.0000     -10.087839      -274.5041
   6   2.0000      -8.060635      -219.3410
   7   2.0000      -6.092516      -165.7858
   8   2.0000      -6.085553      -165.5963
   9   2.0000      -6.085109      -165.5842
  10   2.0000      -1.434358       -39.0309
  11   2.0000      -1.213914       -33.0323
  12   2.0000      -1.122063       -30.5329
  13   2.0000      -0.934556       -25.4306
  14   2.0000      -0.827642       -22.5213
  15   2.0000      -0.780425       -21.2364
  16   2.0000      -0.689115       -18.7518
  17   2.0000      -0.669239       -18.2109
  18   2.0000      -0.651148       -17.7186
  19   2.0000      -0.602476       -16.3942
  20   2.0000      -0.581383       -15.8202
  21   2.0000      -0.560271       -15.2458
  22   2.0000      -0.541338       -14.7306
  23   2.0000      -0.513754       -13.9800
  24   2.0000      -0.505948       -13.7675
  25   2.0000      -0.482538       -13.1305
  26   2.0000      -0.445427       -12.1207
  27   2.0000      -0.432780       -11.7765
  28   2.0000      -0.425084       -11.5671
  29   0.0000       0.035964         0.9786
  30   0.0000       0.051681         1.4063
  31   0.0000       0.057202         1.5566
  32   0.0000       0.058929         1.6035
  33   0.0000       0.087851         2.3905

MULLIKEN ATOMIC CHARGES
-----------------------
   0 C :   -1.292332
   1 C :   -0.694032
   2 H :    0.442998
   3 H :    0.426465
   4 S :    1.058306
   5 O :   -0.508939
   6 O :   -0.514493
   7 F :   -0.147823
   8 H :    0.406828
   9 H :    0.420475
  10 H :    0.402548
Sum of atomic charges:   -0.0000000

LOEWDIN ATOMIC CHARGES
----------------------
   0 C :   -0.126914
   1 C :   -0.294898
   2 H :    0.109895
   3 H :    0.114718
   4 S :    0.546282
   5 O :   -0.260114
   6 O :   -0.254616
   7 F :   -0.065255
   8 H :    0.074353
   9 H :    0.078842
  10 H :    0.077706

  Mayer bond orders larger than 0.100000
B(  0-C ,  1-C ) :   0.4707 B(  0-C ,  8-H ) :   0.8842 B(  0-C ,  9-H ) :   0.8880
B(  0-C , 10-H ) :   0.9291 B(  1-C ,  2-H ) :   0.8464 B(  1-C ,  3-H ) :   0.8580
B(  1-C ,  4-S ) :   0.9360 B(  4-S ,  5-O ) :   1.7140 B(  4-S ,  6-O ) :   1.7123
B(  4-S ,  7-F ) :   0.9883

FINAL SINGLE POINT ENERGY      -727.004857105900

DIPOLE MOMENT
-------------
                                X             Y             Z
Electronic contribution:     -5.05296      -3.60316      -6.56260
Nuclear contribution   :      6.54345       4.10057       6.91691
                        -----------------------------------------
Total Dipole Moment    :      1.49049       0.49741       0.35431
                        -----------------------------------------
Magnitude (a.u.)       :      1.61075
Magnitude (Debye)      :      4.09420

Rotational constants in cm-1:     0.152835     0.082826     0.080611
Rotational constants in MHz :  4581.878371  2483.049050  2416.647141

                             ****ORCA TERMINATED NORMALLY****
TOTAL RUN TIME: 0 days 0 hours 0 minutes 39 seconds 123 msec
