                         Program Version 5.0.0 -  RELEASE  -
|  1> !LC-BLYP RIJCOSX def2-TZVPD def2/J TightSCF
|  2> *xyz 0 1
|  3> C          3.38093        2.08304       -3.35013
|  4> N          4.53592        1.18245       -3.42852
|  5> C          2.49556        1.81615       -2.13636
|  6> C          4.67196        0.12227       -4.22060
|  7> N          5.86602       -0.50785       -4.22428
|  8> C          3.69888       -0.31284       -4.98699
|  9> H          2.73141       -0.05009       -4.84900
| 10> H          3.89005       -1.05517       -5.64373
| 11> H          5.25193        1.30346       -2.72101
| 12> H          6.69516       -0.06232       -3.85160
| 13> H          5.97538       -1.39688       -4.69141
| 14> H          2.80646        1.98651       -4.26848
| 15> H          3.77871        3.09828       -3.30738
| 16> H          2.11090        0.81901       -2.18783
| 17> H          1.68276        2.51198       -2.12786
| 18> H          3.07216        1.93031       -1.24227
| 19> *
| 20>
| 21> %MaxCore 64000
| 22>
| 23> %pal nprocs 4
| 24> end
| 25>
| 26> %scf
| 27>   MaxIter 150
| 28> end
| 29>
| 30>
| 31>                          ****END OF INPUT****

CARTESIAN COORDINATES (ANGSTROEM)
---------------------------------
  C      3.380930    2.083040   -3.350130
  N      4.535920    1.182450   -3.428520
  C      2.495560    1.816150   -2.136360
  C      4.671960    0.122270   -4.220600
  N      5.866020   -0.507850   -4.224280
  C      3.698880   -0.312840   -4.986990
  H      2.731410   -0.050090   -4.849000
  H      3.890050   -1.055170   -5.643730
  H      5.251930    1.303460   -2.721010
  H      6.695160   -0.062320   -3.851600
  H      5.975380   -1.396880   -4.691410
  H      2.806460    1.986510   -4.268480
  H      3.778710    3.098280   -3.307380
  H      2.110900    0.819010   -2.187830
  H      1.682760    2.511980   -2.127860
  H      3.072160    1.930310   -1.242270

 Total Charge           Charge          ....    0
 Multiplicity           Mult            ....    1
 Number of Electrons    NEL             ....   48
 Basis Dimension        Dim             ....  312

ORBITAL ENERGIES
----------------

  NO   OCC          E(Eh)            E(eV)
   0   2.0000     -14.170539      -385.6000
   1   2.0000     -14.166705      -385.4956
   2   2.0000     -10.116469      -275.2831
   3   2.0000     -10.100117      -274.8382
   4   2.0000     -10.052767      -273.5497
   5   2.0000      -9.981226      -271.6030
   6   2.0000      -1.064362       -28.9628
   7   2.0000      -0.981179       -26.6992
   8   2.0000      -0.865146       -23.5418
   9   2.0000      -0.819374       -22.2963
  10   2.0000      -0.747260       -20.3340
  11   2.0000      -0.670636       -18.2489
  12   2.0000      -0.650092       -17.6899
  13   2.0000      -0.618955       -16.8426
  14   2.0000      -0.560920       -15.2634
  15   2.0000      -0.554364       -15.0850
  16   2.0000      -0.527456       -14.3528
  17   2.0000      -0.503272       -13.6947
  18   2.0000      -0.481597       -13.1049
  19   2.0000      -0.475045       -12.9266
  20   2.0000      -0.455743       -12.4014
  21   2.0000      -0.448115       -12.1938
  22   2.0000      -0.345581        -9.4037
  23   2.0000      -0.265017        -7.2115
  24   0.0000       0.049752         1.3538
  25   0.0000       0.068072         1.8523
  26   0.0000       0.078311         2.1310
  27   0.0000       0.081090         2.2066
  28   0.0000       0.104354         2.8396

MULLIKEN ATOMIC CHARGES
-----------------------
   0 C :   -0.721870
   1 N :   -0.270712
   2 C :   -1.142582
   3 C :    0.759607
   4 N :   -0.388882
   5 C :   -1.190525
   6 H :    0.282872
   7 H :    0.284301
   8 H :    0.159929
   9 H :    0.170268
  10 H :    0.162582
  11 H :    0.424111
  12 H :    0.362247
  13 H :    0.339381
  14 H :    0.398445
  15 H :    0.370828
Sum of atomic charges:    0.0000000

LOEWDIN ATOMIC CHARGES
----------------------
   0 C :   -0.248798
   1 N :    0.014652
   2 C :   -0.098422
   3 C :   -0.574250
   4 N :    0.110693
   5 C :   -0.001791
   6 H :    0.012380
   7 H :    0.014465
   8 H :    0.138278
   9 H :    0.095671
  10 H :    0.103260
  11 H :    0.110573
  12 H :    0.114503
  13 H :    0.072491
  14 H :    0.069192
  15 H :    0.067103

  Mayer bond orders larger than 0.100000
B(  0-C ,  1-N ) :   0.7547 B(  0-C ,  2-C ) :   0.4603 B(  0-C ,  3-C ) :  -0.1086
B(  0-C ,  5-C ) :   0.1695 B(  0-C , 11-H ) :   0.8976 B(  0-C , 12-H ) :   0.9057
B(  1-N ,  3-C ) :   0.9777 B(  1-N ,  5-C ) :   0.1064 B(  1-N ,  8-H ) :   1.0723
B(  2-C , 13-H ) :   0.9741 B(  2-C , 14-H ) :   0.9193 B(  2-C , 15-H ) :   0.9040
B(  3-C ,  4-N ) :   0.8389 B(  3-C ,  5-C ) :   1.0699 B(  3-C ,  7-H ) :  -0.1516
B(  4-N ,  9-H ) :   1.0386 B(  4-N , 10-H ) :   1.0352 B(  5-C ,  6-H ) :   0.9560
B(  5-C ,  7-H ) :   1.1487

FINAL SINGLE POINT ENERGY      -267.297940476184

DIPOLE MOMENT
-------------
                                X             Y             Z
Electronic contribution:      3.64718      -1.31220      -1.35306
Nuclear contribution   :     -3.02065       1.64092       1.99316
                        -----------------------------------------
Total Dipole Moment    :      0.62654       0.32872       0.64010
                        -----------------------------------------
Magnitude (a.u.)       :      0.95411
Magnitude (Debye)      :      2.42516

Rotational constants in cm-1:     0.259304     0.069422     0.060943
Rotational constants in MHz :  7773.747720  2081.225169  1827.013389

                             ****ORCA TERMINATED NORMALLY****
TOTAL RUN TIME: 0 days 0 hours 0 minutes 56 seconds 159 msec
