                         Program Version 5.0.0 -  RELEASE  -
|  1> !LC-BLYP RIJCOSX def2-TZVPD def2/J TightSCF xyzfile
|  2>
|  3> *xyzfile 0 1 D1.xyz
|  4>
|  5> %MaxCore 64000
|  6>
|  7> %pal nprocs 4
|  8> end
|  9>
| 10> %scf
| 11>   MaxIter 150
| 12> end
| 13>
| 14>
| 15>                          ****END OF INPUT****

CARTESIAN COORDINATES (ANGSTROEM)
---------------------------------
  C      3.380928    2.083045   -3.350127
  C      4.535924    1.182447   -3.428518
  C      2.495557    1.816150   -2.136364
  C      1.872181    0.427903   -2.077497
  H      2.614270   -0.365825   -2.198894
  H      1.389953    0.273087   -1.112360
  S      0.579024    0.140472   -3.297943
  C      4.671956    0.122273   -4.220598
  N      5.866023   -0.507849   -4.224284
  N      3.698881   -0.312844   -4.986988
  H      2.731405   -0.050091   -4.849000
  H      3.890046   -1.055172   -5.643730
  H      5.251933    1.303459   -2.721014
  H      6.695165   -0.062322   -3.851596
  H      5.975383   -1.396884   -4.691414
  F      0.228860   -1.246868   -3.127871
  O     -0.439269    1.118966   -3.014550
  O      1.247881    0.403474   -4.595647
  H      1.697003    2.561969   -2.141109
  H      3.080787    1.987436   -1.225838
  H      2.806463    1.986511   -4.268484
  H      3.778714    3.098282   -3.307383

 Total Charge           Charge          ....    0
 Multiplicity           Mult            ....    1
 Number of Electrons    NEL             ....   96
 Basis Dimension        Dim             ....  524

ORBITAL ENERGIES
----------------

  NO   OCC          E(Eh)            E(eV)
   0   2.0000     -88.530006     -2409.0239
   1   2.0000     -24.586595      -669.0353
   2   2.0000     -18.963606      -516.0259
   3   2.0000     -18.957893      -515.8705
   4   2.0000     -14.163733      -385.4148
   5   2.0000     -14.147027      -384.9602
   6   2.0000     -10.122750      -275.4540
   7   2.0000     -10.112113      -275.1646
   8   2.0000     -10.078732      -274.2562
   9   2.0000     -10.044762      -273.3319
  10   2.0000      -9.990252      -271.8486
  11   2.0000      -8.073147      -219.6815
  12   2.0000      -6.104772      -166.1193
  13   2.0000      -6.098263      -165.9422
  14   2.0000      -6.097448      -165.9200
  15   2.0000      -1.476761       -40.1847
  16   2.0000      -1.216859       -33.1124
  17   2.0000      -1.120286       -30.4845
  18   2.0000      -1.054414       -28.6921
  19   2.0000      -0.961525       -26.1644
  20   2.0000      -0.936524       -25.4841
  21   2.0000      -0.874074       -23.7848
  22   2.0000      -0.833853       -22.6903
  23   2.0000      -0.790230       -21.5033
  24   2.0000      -0.737127       -20.0583
  25   2.0000      -0.706495       -19.2247
  26   2.0000      -0.697460       -18.9788
  27   2.0000      -0.685889       -18.6640
  28   2.0000      -0.658950       -17.9309
  29   2.0000      -0.642783       -17.4910
  30   2.0000      -0.621496       -16.9118
  31   2.0000      -0.595007       -16.1910
  32   2.0000      -0.592479       -16.1222
  33   2.0000      -0.572699       -15.5839
  34   2.0000      -0.557585       -15.1727
  35   2.0000      -0.539564       -14.6823
  36   2.0000      -0.510887       -13.9020
  37   2.0000      -0.509727       -13.8704
  38   2.0000      -0.497638       -13.5414
  39   2.0000      -0.486076       -13.2268
  40   2.0000      -0.460410       -12.5284
  41   2.0000      -0.454665       -12.3721
  42   2.0000      -0.438624       -11.9356
  43   2.0000      -0.435169       -11.8415
  44   2.0000      -0.418742       -11.3946
  45   2.0000      -0.409576       -11.1451
  46   2.0000      -0.355529        -9.6744
  47   2.0000      -0.252340        -6.8665
  48   0.0000       0.030082         0.8186
  49   0.0000       0.048891         1.3304
  50   0.0000       0.051768         1.4087
  51   0.0000       0.060363         1.6425
  52   0.0000       0.074819         2.0359

MULLIKEN ATOMIC CHARGES
-----------------------
   0 C :   -1.021243
   1 C :   -0.624693
   2 C :   -0.739183
   3 C :   -0.966490
   4 H :    0.507875
   5 H :    0.469975
   6 S :    1.108558
   7 C :    0.611383
   8 N :   -0.413160
   9 N :   -0.282523
  10 H :    0.224603
  11 H :    0.133562
  12 H :    0.262143
  13 H :    0.178373
  14 H :    0.153264
  15 F :   -0.103361
  16 O :   -0.518862
  17 O :   -0.674790
  18 H :    0.388284
  19 H :    0.438915
  20 H :    0.495153
  21 H :    0.372218
Sum of atomic charges:   -0.0000000

LOEWDIN ATOMIC CHARGES
----------------------
   0 C :   -0.232335
   1 C :   -0.141084
   2 C :   -0.219435
   3 C :   -0.232388
   4 H :    0.112112
   5 H :    0.110079
   6 S :    0.601611
   7 C :   -0.553960
   8 N :    0.109872
   9 N :    0.149340
  10 H :    0.007861
  11 H :    0.107773
  12 H :    0.071948
  13 H :    0.104296
  14 H :    0.091088
  15 F :   -0.023061
  16 O :   -0.237822
  17 O :   -0.293154
  18 H :    0.117416
  19 H :    0.128595
  20 H :    0.103398
  21 H :    0.117849

  Mayer bond orders larger than 0.100000
B(  0-C ,  1-C ) :   0.2949 B(  0-C ,  2-C ) :   0.5773 B(  0-C , 20-H ) :   0.8528
B(  0-C , 21-H ) :   1.0303 B(  1-C ,  2-C ) :  -0.1093 B(  1-C ,  7-C ) :   1.1796
B(  1-C ,  8-N ) :   0.1842 B(  1-C ,  9-N ) :   0.1412 B(  1-C , 12-H ) :   1.1841
B(  2-C ,  3-C ) :   0.7872 B(  2-C , 18-H ) :   0.8836 B(  2-C , 19-H ) :   0.8736
B(  3-C ,  4-H ) :   0.7522 B(  3-C ,  5-H ) :   0.8312 B(  3-C ,  6-S ) :   0.9102
B(  6-S , 15-F ) :   0.9928 B(  6-S , 16-O ) :   1.7082 B(  6-S , 17-O ) :   1.5706
B(  7-C ,  8-N ) :   0.7686 B(  7-C ,  9-N ) :   0.7997 B(  7-C , 10-H ) :  -0.1080
B(  7-C , 12-H ) :  -0.2085 B(  8-N , 13-H ) :   1.0130 B(  8-N , 14-H ) :   1.0724
B(  9-N , 10-H ) :   0.8833 B(  9-N , 11-H ) :   1.0781 B( 20-H , 21-H ) :   0.1086

FINAL SINGLE POINT ENERGY      -953.913564010933

DIPOLE MOMENT
-------------
                                X             Y             Z
Electronic contribution:    -15.29792      -6.68269      -1.11507
Nuclear contribution   :     15.92508       5.34175       1.81950
                        -----------------------------------------
Total Dipole Moment    :      0.62716      -1.34094       0.70443
                        -----------------------------------------
Magnitude (a.u.)       :      1.63942
Magnitude (Debye)      :      4.16706

Rotational constants in cm-1:     0.058561     0.020662     0.017762
Rotational constants in MHz :  1755.621534   619.433801   532.501507

                             ****ORCA TERMINATED NORMALLY****
TOTAL RUN TIME: 0 days 0 hours 3 minutes 40 seconds 526 msec
