                         Program Version 5.0.0 -  RELEASE  -
|  1> !LC-BLYP RIJCOSX def2-TZVPD def2/J TightSCF xyzfile
|  2>
|  3> *xyzfile 0 1 D2.xyz
|  4>
|  5> %MaxCore 64000
|  6>
|  7> %pal nprocs 4
|  8> end
|  9>
| 10> %scf
| 11>   MaxIter 150
| 12> end
| 13>
| 14>
| 15>                          ****END OF INPUT****

CARTESIAN COORDINATES (ANGSTROEM)
---------------------------------
  C      3.380928    2.083045   -3.350127
  N      4.535924    1.182447   -3.428518
  C      2.495557    1.816150   -2.136364
  C      1.872181    0.427903   -2.077497
  H      2.614270   -0.365825   -2.198894
  H      1.389953    0.273087   -1.112360
  S      0.579024    0.140472   -3.297943
  C      4.671956    0.122273   -4.220598
  C      5.866023   -0.507849   -4.224284
  N      3.698881   -0.312844   -4.986988
  H      2.731405   -0.050091   -4.849000
  H      3.890046   -1.055172   -5.643730
  H      5.251933    1.303459   -2.721014
  H      6.695165   -0.062322   -3.851596
  H      5.975383   -1.396884   -4.691414
  F      0.228860   -1.246868   -3.127871
  O     -0.439269    1.118966   -3.014550
  O      1.247881    0.403474   -4.595647
  H      1.697003    2.561969   -2.141109
  H      3.080787    1.987436   -1.225838
  H      2.806463    1.986511   -4.268484
  H      3.778714    3.098282   -3.307383

 Total Charge           Charge          ....    0
 Multiplicity           Mult            ....    1
 Number of Electrons    NEL             ....   96
 Basis Dimension        Dim             ....  524

ORBITAL ENERGIES
----------------

  NO   OCC          E(Eh)            E(eV)
   0   2.0000     -88.543694     -2409.3964
   1   2.0000     -24.597947      -669.3442
   2   2.0000     -18.976415      -516.3745
   3   2.0000     -18.969812      -516.1948
   4   2.0000     -14.171829      -385.6351
   5   2.0000     -14.144447      -384.8900
   6   2.0000     -10.141434      -275.9624
   7   2.0000     -10.112360      -275.1713
   8   2.0000     -10.112005      -275.1616
   9   2.0000     -10.106233      -275.0046
  10   2.0000      -9.970492      -271.3109
  11   2.0000      -8.086664      -220.0493
  12   2.0000      -6.118224      -166.4853
  13   2.0000      -6.111776      -166.3099
  14   2.0000      -6.111105      -166.2916
  15   2.0000      -1.487978       -40.4899
  16   2.0000      -1.229623       -33.4598
  17   2.0000      -1.132714       -30.8227
  18   2.0000      -1.065065       -28.9819
  19   2.0000      -0.984275       -26.7835
  20   2.0000      -0.946473       -25.7548
  21   2.0000      -0.880413       -23.9572
  22   2.0000      -0.834683       -22.7129
  23   2.0000      -0.797036       -21.6884
  24   2.0000      -0.746789       -20.3212
  25   2.0000      -0.715973       -19.4826
  26   2.0000      -0.705412       -19.1952
  27   2.0000      -0.703075       -19.1316
  28   2.0000      -0.688710       -18.7407
  29   2.0000      -0.653155       -17.7733
  30   2.0000      -0.618189       -16.8218
  31   2.0000      -0.597005       -16.2453
  32   2.0000      -0.592772       -16.1301
  33   2.0000      -0.586909       -15.9706
  34   2.0000      -0.567827       -15.4514
  35   2.0000      -0.549688       -14.9578
  36   2.0000      -0.522120       -14.2076
  37   2.0000      -0.513985       -13.9862
  38   2.0000      -0.509014       -13.8510
  39   2.0000      -0.491121       -13.3641
  40   2.0000      -0.485613       -13.2142
  41   2.0000      -0.470862       -12.8128
  42   2.0000      -0.458281       -12.4705
  43   2.0000      -0.449642       -12.2354
  44   2.0000      -0.439391       -11.9564
  45   2.0000      -0.426277       -11.5996
  46   2.0000      -0.347010        -9.4426
  47   2.0000      -0.246843        -6.7169
  48   0.0000       0.024348         0.6626
  49   0.0000       0.041587         1.1316
  50   0.0000       0.050114         1.3637
  51   0.0000       0.052354         1.4246
  52   0.0000       0.072122         1.9625

MULLIKEN ATOMIC CHARGES
-----------------------
   0 C :   -0.961785
   1 N :   -0.239985
   2 C :   -0.679502
   3 C :   -0.958551
   4 H :    0.480178
   5 H :    0.474545
   6 S :    1.118615
   7 C :    0.559955
   8 C :   -1.150383
   9 N :   -0.295433
  10 H :    0.276516
  11 H :    0.137432
  12 H :    0.162857
  13 H :    0.277477
  14 H :    0.296189
  15 F :   -0.098685
  16 O :   -0.517677
  17 O :   -0.674275
  18 H :    0.415298
  19 H :    0.430099
  20 H :    0.529746
  21 H :    0.417368
Sum of atomic charges:    0.0000000

LOEWDIN ATOMIC CHARGES
----------------------
   0 C :   -0.190325
   1 N :    0.035851
   2 C :   -0.203871
   3 C :   -0.229758
   4 H :    0.115188
   5 H :    0.112213
   6 S :    0.602933
   7 C :   -0.581175
   8 C :   -0.017371
   9 N :    0.145515
  10 H :    0.003078
  11 H :    0.119014
  12 H :    0.146970
  13 H :    0.000727
  14 H :   -0.001322
  15 F :   -0.016820
  16 O :   -0.235592
  17 O :   -0.293365
  18 H :    0.122033
  19 H :    0.128041
  20 H :    0.111965
  21 H :    0.126073

  Mayer bond orders larger than 0.100000
B(  0-C ,  1-N ) :   0.7131 B(  0-C ,  2-C ) :   0.6053 B(  0-C ,  7-C ) :  -0.1467
B(  0-C , 20-H ) :   0.8195 B(  0-C , 21-H ) :   0.9055 B(  1-N ,  7-C ) :   1.0283
B(  1-N ,  8-C ) :   0.1832 B(  1-N , 12-H ) :   1.0341 B(  2-C ,  3-C ) :   0.7578
B(  2-C , 18-H ) :   0.9284 B(  2-C , 19-H ) :   0.8413 B(  3-C ,  4-H ) :   0.7568
B(  3-C ,  5-H ) :   0.8250 B(  3-C ,  6-S ) :   0.9172 B(  6-S , 15-F ) :   1.0010
B(  6-S , 16-O ) :   1.7082 B(  6-S , 17-O ) :   1.5708 B(  7-C ,  8-C ) :   0.9647
B(  7-C ,  9-N ) :   0.9427 B(  7-C , 10-H ) :  -0.1055 B(  7-C , 14-H ) :  -0.1405
B(  8-C ,  9-N ) :   0.1128 B(  8-C , 13-H ) :   1.0501 B(  8-C , 14-H ) :   1.0908
B(  9-N , 10-H ) :   0.8338 B(  9-N , 11-H ) :   1.0524

FINAL SINGLE POINT ENERGY      -953.897942674030

DIPOLE MOMENT
-------------
                                X             Y             Z
Electronic contribution:    -16.76862      -5.23084      -0.35153
Nuclear contribution   :     16.05479       5.17692       1.74190
                        -----------------------------------------
Total Dipole Moment    :     -0.71383      -0.05393       1.39037
                        -----------------------------------------
Magnitude (a.u.)       :      1.56384
Magnitude (Debye)      :      3.97496

Rotational constants in cm-1:     0.058652     0.021107     0.018077
Rotational constants in MHz :  1758.344290   632.763813   541.920558

                             ****ORCA TERMINATED NORMALLY****
TOTAL RUN TIME: 0 days 0 hours 3 minutes 43 seconds 951 msec
