                         Program Version 5.0.0 -  RELEASE  -
|  1> !LC-BLYP RIJCOSX def2-TZVPD def2/J TightSCF xyzfile
|  2>
|  3> *xyzfile 0 1 D3.xyz
|  4>
|  5> %MaxCore 64000
|  6>
|  7> %pal nprocs 4
|  8> end
|  9>
| 10> %scf
| 11>   MaxIter 150
| 12> end
| 13>
| 14>
| 15>                          ****END OF INPUT****

CARTESIAN COORDINATES (ANGSTROEM)
---------------------------------
  C      3.380928    2.083045   -3.350127
  N      4.535924    1.182447   -3.428518
  C      2.495557    1.816150   -2.136364
  C      1.872181    0.427903   -2.077497
  H      2.614270   -0.365825   -2.198894
  H      1.389953    0.273087   -1.112360
  S      0.579024    0.140472   -3.297943
  C      4.671956    0.122273   -4.220598
  N      5.866023   -0.507849   -4.224284
  C      3.698881   -0.312844   -4.986988
  H      2.731405   -0.050091   -4.849000
  H      3.890046   -1.055172   -5.643730
  H      5.251933    1.303459   -2.721014
  H      6.695165   -0.062322   -3.851596
  H      5.975383   -1.396884   -4.691414
  F      0.228860   -1.246868   -3.127871
  O     -0.439269    1.118966   -3.014550
  O      1.247881    0.403474   -4.595647
  H      1.697003    2.561969   -2.141109
  H      3.080787    1.987436   -1.225838
  H      2.806463    1.986511   -4.268484
  H      3.778714    3.098282   -3.307383

 Total Charge           Charge          ....    0
 Multiplicity           Mult            ....    1
 Number of Electrons    NEL             ....   96
 Basis Dimension        Dim             ....  524

ORBITAL ENERGIES
----------------

  NO   OCC          E(Eh)            E(eV)
   0   2.0000     -88.521598     -2408.7951
   1   2.0000     -24.579161      -668.8330
   2   2.0000     -18.956474      -515.8319
   3   2.0000     -18.940387      -515.3941
   4   2.0000     -14.172600      -385.6560
   5   2.0000     -14.162542      -385.3824
   6   2.0000     -10.126987      -275.5693
   7   2.0000     -10.108743      -275.0729
   8   2.0000     -10.105341      -274.9803
   9   2.0000     -10.097644      -274.7709
  10   2.0000      -9.959491      -271.0115
  11   2.0000      -8.064585      -219.4485
  12   2.0000      -6.096224      -165.8867
  13   2.0000      -6.089419      -165.7015
  14   2.0000      -6.089208      -165.6958
  15   2.0000      -1.469023       -39.9741
  16   2.0000      -1.207275       -32.8516
  17   2.0000      -1.107395       -30.1337
  18   2.0000      -1.063864       -28.9492
  19   2.0000      -0.983522       -26.7630
  20   2.0000      -0.933174       -25.3930
  21   2.0000      -0.861972       -23.4554
  22   2.0000      -0.824081       -22.4244
  23   2.0000      -0.803142       -21.8546
  24   2.0000      -0.752757       -20.4836
  25   2.0000      -0.696293       -18.9471
  26   2.0000      -0.693834       -18.8802
  27   2.0000      -0.678639       -18.4667
  28   2.0000      -0.661464       -17.9993
  29   2.0000      -0.643435       -17.5087
  30   2.0000      -0.622123       -16.9288
  31   2.0000      -0.602236       -16.3877
  32   2.0000      -0.595895       -16.2151
  33   2.0000      -0.558341       -15.1932
  34   2.0000      -0.556283       -15.1372
  35   2.0000      -0.550453       -14.9786
  36   2.0000      -0.510955       -13.9038
  37   2.0000      -0.501479       -13.6459
  38   2.0000      -0.494861       -13.4659
  39   2.0000      -0.483605       -13.1596
  40   2.0000      -0.479987       -13.0611
  41   2.0000      -0.470318       -12.7980
  42   2.0000      -0.451925       -12.2975
  43   2.0000      -0.437300       -11.8995
  44   2.0000      -0.418739       -11.3945
  45   2.0000      -0.380889       -10.3645
  46   2.0000      -0.347107        -9.4453
  47   2.0000      -0.258049        -7.0219
  48   0.0000       0.032154         0.8749
  49   0.0000       0.045637         1.2418
  50   0.0000       0.054436         1.4813
  51   0.0000       0.058158         1.5826
  52   0.0000       0.073757         2.0070

MULLIKEN ATOMIC CHARGES
-----------------------
   0 C :   -0.986021
   1 N :   -0.237942
   2 C :   -0.701901
   3 C :   -0.946603
   4 H :    0.502224
   5 H :    0.475162
   6 S :    1.092550
   7 C :    0.914833
   8 N :   -0.411088
   9 C :   -1.077379
  10 H :    0.045402
  11 H :    0.269874
  12 H :    0.156720
  13 H :    0.162040
  14 H :    0.171751
  15 F :   -0.108329
  16 O :   -0.532525
  17 O :   -0.559894
  18 H :    0.407657
  19 H :    0.424327
  20 H :    0.543639
  21 H :    0.395502
Sum of atomic charges:    0.0000000

LOEWDIN ATOMIC CHARGES
----------------------
   0 C :   -0.185480
   1 N :    0.027493
   2 C :   -0.203431
   3 C :   -0.230993
   4 H :    0.112100
   5 H :    0.109537
   6 S :    0.592945
   7 C :   -0.566873
   8 N :    0.108513
   9 C :    0.013415
  10 H :   -0.058543
  11 H :    0.028480
  12 H :    0.138936
  13 H :    0.092580
  14 H :    0.102174
  15 F :   -0.021580
  16 O :   -0.246798
  17 O :   -0.301204
  18 H :    0.121771
  19 H :    0.124784
  20 H :    0.116266
  21 H :    0.125909

  Mayer bond orders larger than 0.100000
B(  0-C ,  1-N ) :   0.7672 B(  0-C ,  2-C ) :   0.6053 B(  0-C ,  7-C ) :  -0.1244
B(  0-C ,  9-C ) :   0.1262 B(  0-C , 20-H ) :   0.8079 B(  0-C , 21-H ) :   0.9230
B(  1-N ,  7-C ) :   0.9307 B(  1-N , 12-H ) :   1.0552 B(  2-C ,  3-C ) :   0.7551
B(  2-C , 18-H ) :   0.9203 B(  2-C , 19-H ) :   0.8493 B(  3-C ,  4-H ) :   0.7604
B(  3-C ,  5-H ) :   0.8364 B(  3-C ,  6-S ) :   0.8929 B(  6-S , 15-F ) :   0.9815
B(  6-S , 16-O ) :   1.7024 B(  6-S , 17-O ) :   1.6357 B(  7-C ,  8-N ) :   0.8173
B(  7-C ,  9-C ) :   0.7914 B(  7-C , 10-H ) :  -0.1773 B(  7-C , 11-H ) :  -0.1978
B(  8-N , 13-H ) :   1.0502 B(  8-N , 14-H ) :   1.0267 B(  9-C , 10-H ) :   1.3884
B(  9-C , 11-H ) :   1.2292 B(  9-C , 17-O ) :   0.1723 B( 10-H , 17-O ) :  -0.4195

FINAL SINGLE POINT ENERGY      -953.882310667605

DIPOLE MOMENT
-------------
                                X             Y             Z
Electronic contribution:    -14.70138      -5.48257       0.05980
Nuclear contribution   :     15.84345       5.19593       1.66752
                        -----------------------------------------
Total Dipole Moment    :      1.14208      -0.28663       1.72732
                        -----------------------------------------
Magnitude (a.u.)       :      2.09049
Magnitude (Debye)      :      5.31359

Rotational constants in cm-1:     0.059060     0.020573     0.017713
Rotational constants in MHz :  1770.576058   616.749938   531.036486

                             ****ORCA TERMINATED NORMALLY****
TOTAL RUN TIME: 0 days 0 hours 3 minutes 40 seconds 727 msec
