                         Program Version 5.0.0 -  RELEASE  -
|  1> !LC-BLYP RIJCOSX def2-TZVPD def2/J TightSCF xyzfile
|  2>
|  3> *xyzfile 0 1 D4.xyz
|  4>
|  5> %MaxCore 64000
|  6>
|  7> %pal nprocs 4
|  8> end
|  9>
| 10> %scf
| 11>   MaxIter 150
| 12> end
| 13>
| 14>
| 15>                          ****END OF INPUT****

CARTESIAN COORDINATES (ANGSTROEM)
---------------------------------
  C      3.380928    2.083045   -3.350127
  C      4.535924    1.182447   -3.428518
  C      2.495557    1.816150   -2.136364
  C      1.872181    0.427903   -2.077497
  H      2.614270   -0.365825   -2.198894
  H      1.389953    0.273087   -1.112360
  S      0.579024    0.140472   -3.297943
  C      4.671956    0.122273   -4.220598
  N      5.866023   -0.507849   -4.224284
  N      3.698881   -0.312844   -4.986988
  H      2.731405   -0.050091   -4.849000
  H      3.890046   -1.055172   -5.643730
  H      5.251933    1.303459   -2.721014
  H      6.695165   -0.062322   -3.851596
  H      5.975383   -1.396884   -4.691414
  O      0.228860   -1.246868   -3.127871
  F     -0.439269    1.118966   -3.014550
  O      1.247881    0.403474   -4.595647
  H      1.697003    2.561969   -2.141109
  H      3.080787    1.987436   -1.225838
  H      2.806463    1.986511   -4.268484
  H      3.778714    3.098282   -3.307383

 Total Charge           Charge          ....    0
 Multiplicity           Mult            ....    1
 Number of Electrons    NEL             ....   96
 Basis Dimension        Dim             ....  524

ORBITAL ENERGIES
----------------

  NO   OCC          E(Eh)            E(eV)
   0   2.0000     -88.530291     -2409.0317
   1   2.0000     -24.586249      -669.0258
   2   2.0000     -18.964041      -516.0378
   3   2.0000     -18.957324      -515.8550
   4   2.0000     -14.162904      -385.3922
   5   2.0000     -14.146109      -384.9352
   6   2.0000     -10.122144      -275.4375
   7   2.0000     -10.112208      -275.1672
   8   2.0000     -10.081196      -274.3233
   9   2.0000     -10.046841      -273.3884
  10   2.0000      -9.990295      -271.8497
  11   2.0000      -8.073294      -219.6855
  12   2.0000      -6.105022      -166.1261
  13   2.0000      -6.098433      -165.9468
  14   2.0000      -6.097514      -165.9218
  15   2.0000      -1.476463       -40.1766
  16   2.0000      -1.216499       -33.1026
  17   2.0000      -1.120402       -30.4877
  18   2.0000      -1.053500       -28.6672
  19   2.0000      -0.960510       -26.1368
  20   2.0000      -0.939243       -25.5581
  21   2.0000      -0.871858       -23.7245
  22   2.0000      -0.833285       -22.6748
  23   2.0000      -0.792304       -21.5597
  24   2.0000      -0.735748       -20.0207
  25   2.0000      -0.710686       -19.3388
  26   2.0000      -0.699915       -19.0456
  27   2.0000      -0.687139       -18.6980
  28   2.0000      -0.654753       -17.8167
  29   2.0000      -0.639479       -17.4011
  30   2.0000      -0.620446       -16.8832
  31   2.0000      -0.594596       -16.1798
  32   2.0000      -0.585619       -15.9355
  33   2.0000      -0.579907       -15.7801
  34   2.0000      -0.559025       -15.2118
  35   2.0000      -0.542965       -14.7748
  36   2.0000      -0.513561       -13.9747
  37   2.0000      -0.507087       -13.7985
  38   2.0000      -0.504154       -13.7187
  39   2.0000      -0.483709       -13.1624
  40   2.0000      -0.462274       -12.5791
  41   2.0000      -0.449582       -12.2337
  42   2.0000      -0.441505       -12.0140
  43   2.0000      -0.434508       -11.8236
  44   2.0000      -0.426532       -11.6065
  45   2.0000      -0.406409       -11.0590
  46   2.0000      -0.354244        -9.6395
  47   2.0000      -0.252275        -6.8647
  48   0.0000       0.032312         0.8793
  49   0.0000       0.050067         1.3624
  50   0.0000       0.051509         1.4016
  51   0.0000       0.059689         1.6242
  52   0.0000       0.075344         2.0502

MULLIKEN ATOMIC CHARGES
-----------------------
   0 C :   -1.012496
   1 C :   -0.650766
   2 C :   -0.670099
   3 C :   -0.947112
   4 H :    0.465918
   5 H :    0.475942
   6 S :    1.098996
   7 C :    0.631698
   8 N :   -0.413996
   9 N :   -0.269846
  10 H :    0.191909
  11 H :    0.134611
  12 H :    0.261392
  13 H :    0.178460
  14 H :    0.155184
  15 O :   -0.536639
  16 F :   -0.089425
  17 O :   -0.668176
  18 H :    0.375733
  19 H :    0.426999
  20 H :    0.492355
  21 H :    0.369358
Sum of atomic charges:   -0.0000000

LOEWDIN ATOMIC CHARGES
----------------------
   0 C :   -0.237982
   1 C :   -0.141736
   2 C :   -0.230379
   3 C :   -0.226505
   4 H :    0.122108
   5 H :    0.110439
   6 S :    0.599187
   7 C :   -0.550480
   8 N :    0.111409
   9 N :    0.155505
  10 H :    0.013852
  11 H :    0.110483
  12 H :    0.071649
  13 H :    0.104428
  14 H :    0.092416
  15 O :   -0.243658
  16 F :   -0.017710
  17 O :   -0.298013
  18 H :    0.111765
  19 H :    0.126332
  20 H :    0.100335
  21 H :    0.116556

  Mayer bond orders larger than 0.100000
B(  0-C ,  1-C ) :   0.3250 B(  0-C ,  2-C ) :   0.6008 B(  0-C , 20-H ) :   0.8550
B(  0-C , 21-H ) :   1.0425 B(  1-C ,  2-C ) :  -0.1090 B(  1-C ,  7-C ) :   1.1746
B(  1-C ,  8-N ) :   0.1828 B(  1-C ,  9-N ) :   0.1441 B(  1-C , 12-H ) :   1.1842
B(  2-C ,  3-C ) :   0.6939 B(  2-C , 18-H ) :   0.8798 B(  2-C , 19-H ) :   0.8912
B(  3-C ,  4-H ) :   0.8095 B(  3-C ,  5-H ) :   0.8457 B(  3-C ,  6-S ) :   0.9178
B(  6-S , 15-O ) :   1.7004 B(  6-S , 16-F ) :   1.0307 B(  6-S , 17-O ) :   1.5730
B(  7-C ,  8-N ) :   0.7727 B(  7-C ,  9-N ) :   0.8023 B(  7-C , 10-H ) :  -0.1132
B(  7-C , 12-H ) :  -0.2074 B(  8-N , 13-H ) :   1.0129 B(  8-N , 14-H ) :   1.0707
B(  9-N , 10-H ) :   0.8845 B(  9-N , 11-H ) :   1.0732 B( 20-H , 21-H ) :   0.1047

FINAL SINGLE POINT ENERGY      -953.913898556706

DIPOLE MOMENT
-------------
                                X             Y             Z
Electronic contribution:    -16.41756      -2.62925      -0.93874
Nuclear contribution   :     16.65743       2.74852       1.69529
                        -----------------------------------------
Total Dipole Moment    :      0.23987       0.11927       0.75655
                        -----------------------------------------
Magnitude (a.u.)       :      0.80258
Magnitude (Debye)      :      2.03999

Rotational constants in cm-1:     0.059907     0.020458     0.017675
Rotational constants in MHz :  1795.978106   613.328205   529.885290

                             ****ORCA TERMINATED NORMALLY****
TOTAL RUN TIME: 0 days 0 hours 3 minutes 42 seconds 772 msec
