                         Program Version 5.0.0 -  RELEASE  -
|  1> !LC-BLYP RIJCOSX def2-TZVPD def2/J TightSCF xyzfile
|  2>
|  3> *xyzfile 0 1 D5.xyz
|  4>
|  5> %MaxCore 64000
|  6>
|  7> %pal nprocs 4
|  8> end
|  9>
| 10> %scf
| 11>   MaxIter 150
| 12> end
| 13>
| 14>
| 15>                          ****END OF INPUT****

CARTESIAN COORDINATES (ANGSTROEM)
---------------------------------
  C      3.380928    2.083045   -3.350127
  N      4.535924    1.182447   -3.428518
  C      2.495557    1.816150   -2.136364
  C      1.872181    0.427903   -2.077497
  H      2.614270   -0.365825   -2.198894
  H      1.389953    0.273087   -1.112360
  S      0.579024    0.140472   -3.297943
  C      4.671956    0.122273   -4.220598
  C      5.866023   -0.507849   -4.224284
  N      3.698881   -0.312844   -4.986988
  H      2.731405   -0.050091   -4.849000
  H      3.890046   -1.055172   -5.643730
  H      5.251933    1.303459   -2.721014
  H      6.695165   -0.062322   -3.851596
  H      5.975383   -1.396884   -4.691414
  O      0.228860   -1.246868   -3.127871
  F     -0.439269    1.118966   -3.014550
  O      1.247881    0.403474   -4.595647
  H      1.697003    2.561969   -2.141109
  H      3.080787    1.987436   -1.225838
  H      2.806463    1.986511   -4.268484
  H      3.778714    3.098282   -3.307383

 Total Charge           Charge          ....    0
 Multiplicity           Mult            ....    1
 Number of Electrons    NEL             ....   96
 Basis Dimension        Dim             ....  524

ORBITAL ENERGIES
----------------

  NO   OCC          E(Eh)            E(eV)
   0   2.0000     -88.543291     -2409.3854
   1   2.0000     -24.598788      -669.3670
   2   2.0000     -18.975540      -516.3507
   3   2.0000     -18.969617      -516.1895
   4   2.0000     -14.172520      -385.6539
   5   2.0000     -14.143066      -384.8524
   6   2.0000     -10.141072      -275.9526
   7   2.0000     -10.114233      -275.2223
   8   2.0000     -10.111296      -275.1423
   9   2.0000     -10.108911      -275.0775
  10   2.0000      -9.969248      -271.2770
  11   2.0000      -8.086198      -220.0366
  12   2.0000      -6.117890      -166.4762
  13   2.0000      -6.111309      -166.2972
  14   2.0000      -6.110526      -166.2759
  15   2.0000      -1.489064       -40.5195
  16   2.0000      -1.228356       -33.4253
  17   2.0000      -1.132291       -30.8112
  18   2.0000      -1.064799       -28.9747
  19   2.0000      -0.984340       -26.7853
  20   2.0000      -0.948380       -25.8067
  21   2.0000      -0.878026       -23.8923
  22   2.0000      -0.836110       -22.7517
  23   2.0000      -0.798300       -21.7228
  24   2.0000      -0.745790       -20.2940
  25   2.0000      -0.719322       -19.5738
  26   2.0000      -0.716997       -19.5105
  27   2.0000      -0.702787       -19.1238
  28   2.0000      -0.679589       -18.4926
  29   2.0000      -0.648061       -17.6346
  30   2.0000      -0.617614       -16.8061
  31   2.0000      -0.602873       -16.4050
  32   2.0000      -0.593831       -16.1590
  33   2.0000      -0.583941       -15.8898
  34   2.0000      -0.564381       -15.3576
  35   2.0000      -0.554315       -15.0837
  36   2.0000      -0.525662       -14.3040
  37   2.0000      -0.517376       -14.0785
  38   2.0000      -0.509655       -13.8684
  39   2.0000      -0.493365       -13.4251
  40   2.0000      -0.485753       -13.2180
  41   2.0000      -0.466858       -12.7038
  42   2.0000      -0.455203       -12.3867
  43   2.0000      -0.443591       -12.0707
  44   2.0000      -0.439494       -11.9592
  45   2.0000      -0.432726       -11.7751
  46   2.0000      -0.346425        -9.4267
  47   2.0000      -0.245695        -6.6857
  48   0.0000       0.022135         0.6023
  49   0.0000       0.042260         1.1500
  50   0.0000       0.048014         1.3065
  51   0.0000       0.053099         1.4449
  52   0.0000       0.071184         1.9370

MULLIKEN ATOMIC CHARGES
-----------------------
   0 C :   -0.952104
   1 N :   -0.247243
   2 C :   -0.627884
   3 C :   -0.945556
   4 H :    0.444097
   5 H :    0.479669
   6 S :    1.112723
   7 C :    0.570564
   8 C :   -1.159935
   9 N :   -0.283706
  10 H :    0.247471
  11 H :    0.137765
  12 H :    0.164926
  13 H :    0.278883
  14 H :    0.297507
  15 O :   -0.529959
  16 F :   -0.091328
  17 O :   -0.667849
  18 H :    0.405196
  19 H :    0.424056
  20 H :    0.524720
  21 H :    0.417986
Sum of atomic charges:   -0.0000000

LOEWDIN ATOMIC CHARGES
----------------------
   0 C :   -0.195606
   1 N :    0.036180
   2 C :   -0.214332
   3 C :   -0.223565
   4 H :    0.125206
   5 H :    0.112610
   6 S :    0.599259
   7 C :   -0.579048
   8 C :   -0.016000
   9 N :    0.150877
  10 H :    0.008733
  11 H :    0.121225
  12 H :    0.147011
  13 H :    0.000770
  14 H :   -0.000122
  15 O :   -0.235481
  16 F :   -0.016404
  17 O :   -0.297743
  18 H :    0.116740
  19 H :    0.125892
  20 H :    0.108838
  21 H :    0.124958

  Mayer bond orders larger than 0.100000
B(  0-C ,  1-N ) :   0.7214 B(  0-C ,  2-C ) :   0.6283 B(  0-C ,  7-C ) :  -0.1414
B(  0-C , 20-H ) :   0.8294 B(  0-C , 21-H ) :   0.9086 B(  1-N ,  7-C ) :   1.0183
B(  1-N ,  8-C ) :   0.1847 B(  1-N , 12-H ) :   1.0346 B(  2-C ,  3-C ) :   0.6598
B(  2-C , 18-H ) :   0.9276 B(  2-C , 19-H ) :   0.8562 B(  3-C ,  4-H ) :   0.8050
B(  3-C ,  5-H ) :   0.8417 B(  3-C ,  6-S ) :   0.9326 B(  6-S , 15-O ) :   1.7078
B(  6-S , 16-F ) :   1.0327 B(  6-S , 17-O ) :   1.5699 B(  7-C ,  8-C ) :   0.9584
B(  7-C ,  9-N ) :   0.9434 B(  7-C , 10-H ) :  -0.1051 B(  7-C , 14-H ) :  -0.1399
B(  8-C ,  9-N ) :   0.1145 B(  8-C , 13-H ) :   1.0518 B(  8-C , 14-H ) :   1.0888
B(  9-N , 10-H ) :   0.8331 B(  9-N , 11-H ) :   1.0471

FINAL SINGLE POINT ENERGY      -953.896876291459

DIPOLE MOMENT
-------------
                                X             Y             Z
Electronic contribution:    -17.89151      -1.17248      -0.16200
Nuclear contribution   :     16.78714       2.58368       1.61768
                        -----------------------------------------
Total Dipole Moment    :     -1.10438       1.41120       1.45569
                        -----------------------------------------
Magnitude (a.u.)       :      2.30872
Magnitude (Debye)      :      5.86829

Rotational constants in cm-1:     0.059928     0.020911     0.017993
Rotational constants in MHz :  1796.610847   626.896941   539.414615

                             ****ORCA TERMINATED NORMALLY****
TOTAL RUN TIME: 0 days 0 hours 3 minutes 40 seconds 658 msec
