                         Program Version 5.0.0 -  RELEASE  -
|  1> !LC-BLYP RIJCOSX def2-TZVPD def2/J TightSCF xyzfile
|  2>
|  3> *xyzfile 0 1 D6.xyz
|  4>
|  5> %MaxCore 64000
|  6>
|  7> %pal nprocs 4
|  8> end
|  9>
| 10> %scf
| 11>   MaxIter 150
| 12> end
| 13>
| 14>
| 15>                          ****END OF INPUT****

CARTESIAN COORDINATES (ANGSTROEM)
---------------------------------
  C      3.380928    2.083045   -3.350127
  N      4.535924    1.182447   -3.428518
  C      2.495557    1.816150   -2.136364
  C      1.872181    0.427903   -2.077497
  H      2.614270   -0.365825   -2.198894
  H      1.389953    0.273087   -1.112360
  S      0.579024    0.140472   -3.297943
  C      4.671956    0.122273   -4.220598
  N      5.866023   -0.507849   -4.224284
  C      3.698881   -0.312844   -4.986988
  H      2.731405   -0.050091   -4.849000
  H      3.890046   -1.055172   -5.643730
  H      5.251933    1.303459   -2.721014
  H      6.695165   -0.062322   -3.851596
  H      5.975383   -1.396884   -4.691414
  O      0.228860   -1.246868   -3.127871
  F     -0.439269    1.118966   -3.014550
  O      1.247881    0.403474   -4.595647
  H      1.697003    2.561969   -2.141109
  H      3.080787    1.987436   -1.225838
  H      2.806463    1.986511   -4.268484
  H      3.778714    3.098282   -3.307383

 Total Charge           Charge          ....    0
 Multiplicity           Mult            ....    1
 Number of Electrons    NEL             ....   96
 Basis Dimension        Dim             ....  524

ORBITAL ENERGIES
----------------

  NO   OCC          E(Eh)            E(eV)
   0   2.0000     -88.520608     -2408.7682
   1   2.0000     -24.579084      -668.8309
   2   2.0000     -18.955866      -515.8153
   3   2.0000     -18.941941      -515.4364
   4   2.0000     -14.172860      -385.6631
   5   2.0000     -14.160856      -385.3365
   6   2.0000     -10.126740      -275.5626
   7   2.0000     -10.107527      -275.0398
   8   2.0000     -10.107044      -275.0267
   9   2.0000     -10.100428      -274.8466
  10   2.0000      -9.958878      -270.9949
  11   2.0000      -8.063641      -219.4228
  12   2.0000      -6.095433      -165.8652
  13   2.0000      -6.088398      -165.6737
  14   2.0000      -6.088206      -165.6685
  15   2.0000      -1.469664       -39.9916
  16   2.0000      -1.205953       -32.8157
  17   2.0000      -1.107714       -30.1424
  18   2.0000      -1.063340       -28.9350
  19   2.0000      -0.983307       -26.7572
  20   2.0000      -0.935753       -25.4631
  21   2.0000      -0.858760       -23.3680
  22   2.0000      -0.825588       -22.4654
  23   2.0000      -0.803373       -21.8609
  24   2.0000      -0.753271       -20.4975
  25   2.0000      -0.706496       -19.2247
  26   2.0000      -0.696502       -18.9528
  27   2.0000      -0.673899       -18.3377
  28   2.0000      -0.660393       -17.9702
  29   2.0000      -0.638796       -17.3825
  30   2.0000      -0.620547       -16.8859
  31   2.0000      -0.602878       -16.4052
  32   2.0000      -0.591618       -16.0987
  33   2.0000      -0.568319       -15.4647
  34   2.0000      -0.553936       -15.0734
  35   2.0000      -0.546824       -14.8798
  36   2.0000      -0.521660       -14.1951
  37   2.0000      -0.503244       -13.6940
  38   2.0000      -0.495093       -13.4722
  39   2.0000      -0.487542       -13.2667
  40   2.0000      -0.476757       -12.9732
  41   2.0000      -0.469416       -12.7734
  42   2.0000      -0.453830       -12.3494
  43   2.0000      -0.424165       -11.5421
  44   2.0000      -0.410932       -11.1820
  45   2.0000      -0.395124       -10.7519
  46   2.0000      -0.346854        -9.4384
  47   2.0000      -0.256463        -6.9787
  48   0.0000       0.029982         0.8159
  49   0.0000       0.045633         1.2417
  50   0.0000       0.053745         1.4625
  51   0.0000       0.057382         1.5614
  52   0.0000       0.075181         2.0458

MULLIKEN ATOMIC CHARGES
-----------------------
   0 C :   -0.977094
   1 N :   -0.244648
   2 C :   -0.644563
   3 C :   -0.922427
   4 H :    0.456072
   5 H :    0.472061
   6 S :    1.083182
   7 C :    0.907458
   8 N :   -0.411710
   9 C :   -0.996804
  10 H :   -0.048442
  11 H :    0.276323
  12 H :    0.157248
  13 H :    0.160628
  14 H :    0.172344
  15 O :   -0.545485
  16 F :   -0.099094
  17 O :   -0.545996
  18 H :    0.396186
  19 H :    0.419436
  20 H :    0.538893
  21 H :    0.396431
Sum of atomic charges:   -0.0000000

LOEWDIN ATOMIC CHARGES
----------------------
   0 C :   -0.190853
   1 N :    0.027235
   2 C :   -0.213726
   3 C :   -0.224673
   4 H :    0.122213
   5 H :    0.110006
   6 S :    0.588601
   7 C :   -0.565081
   8 N :    0.108904
   9 C :    0.020488
  10 H :   -0.052642
  11 H :    0.031255
  12 H :    0.138823
  13 H :    0.092273
  14 H :    0.102925
  15 O :   -0.243396
  16 F :   -0.025262
  17 O :   -0.304274
  18 H :    0.116546
  19 H :    0.122728
  20 H :    0.113113
  21 H :    0.124797

  Mayer bond orders larger than 0.100000
B(  0-C ,  1-N ) :   0.7759 B(  0-C ,  2-C ) :   0.6305 B(  0-C ,  7-C ) :  -0.1151
B(  0-C ,  9-C ) :   0.1192 B(  0-C , 20-H ) :   0.8175 B(  0-C , 21-H ) :   0.9257
B(  1-N ,  7-C ) :   0.9159 B(  1-N , 12-H ) :   1.0573 B(  2-C ,  3-C ) :   0.6632
B(  2-C , 18-H ) :   0.9194 B(  2-C , 19-H ) :   0.8625 B(  3-C ,  4-H ) :   0.8184
B(  3-C ,  5-H ) :   0.8603 B(  3-C ,  6-S ) :   0.9061 B(  3-C , 15-O ) :   0.1032
B(  6-S , 15-O ) :   1.6770 B(  6-S , 16-F ) :   1.0295 B(  6-S , 17-O ) :   1.6191
B(  7-C ,  8-N ) :   0.8120 B(  7-C ,  9-C ) :   0.7943 B(  7-C , 10-H ) :  -0.1925
B(  7-C , 11-H ) :  -0.1920 B(  8-N ,  9-C ) :   0.1034 B(  8-N , 13-H ) :   1.0517
B(  8-N , 14-H ) :   1.0268 B(  9-C , 10-H ) :   1.3623 B(  9-C , 11-H ) :   1.2004
B( 10-H , 17-O ) :  -0.3015

FINAL SINGLE POINT ENERGY      -953.881869124836

DIPOLE MOMENT
-------------
                                X             Y             Z
Electronic contribution:    -15.83838      -1.41338       0.24679
Nuclear contribution   :     16.57580       2.60270       1.54331
                        -----------------------------------------
Total Dipole Moment    :      0.73742       1.18932       1.79010
                        -----------------------------------------
Magnitude (a.u.)       :      2.27216
Magnitude (Debye)      :      5.77538

Rotational constants in cm-1:     0.060402     0.020377     0.017632
Rotational constants in MHz :  1810.792194   610.900365   528.582827

                             ****ORCA TERMINATED NORMALLY****
TOTAL RUN TIME: 0 days 0 hours 3 minutes 54 seconds 876 msec
