                         Program Version 5.0.0 -  RELEASE  -
|  1> !LC-BLYP RIJCOSX def2-TZVPD def2/J TightSCF xyzfile
|  2>
|  3> *xyzfile 0 1 D7.xyz
|  4>
|  5> %MaxCore 64000
|  6>
|  7> %pal nprocs 4
|  8> end
|  9>
| 10> %scf
| 11>   MaxIter 150
| 12> end
| 13>
| 14>
| 15>                          ****END OF INPUT****

CARTESIAN COORDINATES (ANGSTROEM)
---------------------------------
  C      3.380928    2.083045   -3.350127
  C      4.535924    1.182447   -3.428518
  C      2.495557    1.816150   -2.136364
  C      1.872181    0.427903   -2.077497
  H      2.614270   -0.365825   -2.198894
  H      1.389953    0.273087   -1.112360
  S      0.579024    0.140472   -3.297943
  C      4.671956    0.122273   -4.220598
  N      5.866023   -0.507849   -4.224284
  N      3.698881   -0.312844   -4.986988
  H      2.731405   -0.050091   -4.849000
  H      3.890046   -1.055172   -5.643730
  H      5.251933    1.303459   -2.721014
  H      6.695165   -0.062322   -3.851596
  H      5.975383   -1.396884   -4.691414
  O      0.228860   -1.246868   -3.127871
  O     -0.439269    1.118966   -3.014550
  F      1.247881    0.403474   -4.595647
  H      1.697003    2.561969   -2.141109
  H      3.080787    1.987436   -1.225838
  H      2.806463    1.986511   -4.268484
  H      3.778714    3.098282   -3.307383

 Total Charge           Charge          ....    0
 Multiplicity           Mult            ....    1
 Number of Electrons    NEL             ....   96
 Basis Dimension        Dim             ....  524

ORBITAL ENERGIES
----------------

  NO   OCC          E(Eh)            E(eV)
   0   2.0000     -88.519736     -2408.7445
   1   2.0000     -24.573468      -668.6781
   2   2.0000     -18.958539      -515.8881
   3   2.0000     -18.957951      -515.8721
   4   2.0000     -14.176515      -385.7626
   5   2.0000     -14.176391      -385.7592
   6   2.0000     -10.128457      -275.6093
   7   2.0000     -10.118616      -275.3416
   8   2.0000     -10.080635      -274.3080
   9   2.0000     -10.061753      -273.7942
  10   2.0000     -10.005690      -272.2687
  11   2.0000      -8.063218      -219.4113
  12   2.0000      -6.095518      -165.8675
  13   2.0000      -6.087646      -165.6533
  14   2.0000      -6.087503      -165.6494
  15   2.0000      -1.454882       -39.5893
  16   2.0000      -1.218111       -33.1465
  17   2.0000      -1.124390       -30.5962
  18   2.0000      -1.073958       -29.2239
  19   2.0000      -0.981399       -26.7052
  20   2.0000      -0.940178       -25.5835
  21   2.0000      -0.876312       -23.8457
  22   2.0000      -0.838364       -22.8130
  23   2.0000      -0.797442       -21.6995
  24   2.0000      -0.754106       -20.5203
  25   2.0000      -0.706085       -19.2136
  26   2.0000      -0.695386       -18.9224
  27   2.0000      -0.679674       -18.4949
  28   2.0000      -0.659455       -17.9447
  29   2.0000      -0.652484       -17.7550
  30   2.0000      -0.620142       -16.8749
  31   2.0000      -0.600277       -16.3344
  32   2.0000      -0.583196       -15.8696
  33   2.0000      -0.578129       -15.7317
  34   2.0000      -0.564838       -15.3700
  35   2.0000      -0.557210       -15.1624
  36   2.0000      -0.516944       -14.0668
  37   2.0000      -0.515879       -14.0378
  38   2.0000      -0.511869       -13.9287
  39   2.0000      -0.493174       -13.4199
  40   2.0000      -0.465736       -12.6733
  41   2.0000      -0.453153       -12.3309
  42   2.0000      -0.445036       -12.1100
  43   2.0000      -0.438229       -11.9248
  44   2.0000      -0.429568       -11.6892
  45   2.0000      -0.421554       -11.4711
  46   2.0000      -0.374534       -10.1916
  47   2.0000      -0.267677        -7.2839
  48   0.0000       0.037964         1.0330
  49   0.0000       0.049348         1.3428
  50   0.0000       0.051416         1.3991
  51   0.0000       0.060423         1.6442
  52   0.0000       0.074448         2.0258

MULLIKEN ATOMIC CHARGES
-----------------------
   0 C :   -0.989320
   1 C :   -0.612039
   2 C :   -0.721583
   3 C :   -0.913564
   4 H :    0.464868
   5 H :    0.470089
   6 S :    1.056118
   7 C :    0.644862
   8 N :   -0.418044
   9 N :   -0.316596
  10 H :    0.260582
  11 H :    0.141159
  12 H :    0.267926
  13 H :    0.181798
  14 H :    0.156159
  15 O :   -0.535654
  16 O :   -0.515334
  17 F :   -0.262464
  18 H :    0.392825
  19 H :    0.444802
  20 H :    0.439672
  21 H :    0.363739
Sum of atomic charges:   -0.0000000

LOEWDIN ATOMIC CHARGES
----------------------
   0 C :   -0.233330
   1 C :   -0.136937
   2 C :   -0.229616
   3 C :   -0.228953
   4 H :    0.113099
   5 H :    0.120105
   6 S :    0.567381
   7 C :   -0.548884
   8 N :    0.114930
   9 N :    0.155683
  10 H :    0.041548
  11 H :    0.113677
  12 H :    0.076285
  13 H :    0.107445
  14 H :    0.094242
  15 O :   -0.249703
  16 O :   -0.241683
  17 F :   -0.099595
  18 H :    0.115211
  19 H :    0.127322
  20 H :    0.102088
  21 H :    0.119684

  Mayer bond orders larger than 0.100000
B(  0-C ,  1-C ) :   0.3084 B(  0-C ,  2-C ) :   0.5629 B(  0-C , 20-H ) :   0.8699
B(  0-C , 21-H ) :   1.0397 B(  1-C ,  2-C ) :  -0.1169 B(  1-C ,  7-C ) :   1.1919
B(  1-C ,  8-N ) :   0.1842 B(  1-C ,  9-N ) :   0.1486 B(  1-C , 12-H ) :   1.1696
B(  1-C , 20-H ) :  -0.1088 B(  2-C ,  3-C ) :   0.7481 B(  2-C , 18-H ) :   0.9175
B(  2-C , 19-H ) :   0.8634 B(  3-C ,  4-H ) :   0.8423 B(  3-C ,  5-H ) :   0.8246
B(  3-C ,  6-S ) :   0.8968 B(  6-S , 15-O ) :   1.6799 B(  6-S , 16-O ) :   1.6845
B(  6-S , 17-F ) :   0.9940 B(  7-C ,  8-N ) :   0.7651 B(  7-C ,  9-N ) :   0.7797
B(  7-C , 10-H ) :  -0.1069 B(  7-C , 12-H ) :  -0.1995 B(  8-N , 13-H ) :   1.0112
B(  8-N , 14-H ) :   1.0705 B(  9-N , 10-H ) :   0.8873 B(  9-N , 11-H ) :   1.0740
B( 20-H , 21-H ) :   0.1063

FINAL SINGLE POINT ENERGY      -953.919916298983

DIPOLE MOMENT
-------------
                                X             Y             Z
Electronic contribution:    -13.20448      -3.81928      -3.63001
Nuclear contribution   :     14.80811       3.53278       3.42836
                        -----------------------------------------
Total Dipole Moment    :      1.60363      -0.28649      -0.20165
                        -----------------------------------------
Magnitude (a.u.)       :      1.64146
Magnitude (Debye)      :      4.17225

Rotational constants in cm-1:     0.059173     0.020923     0.018056
Rotational constants in MHz :  1773.956621   627.264018   541.303397

                             ****ORCA TERMINATED NORMALLY****
TOTAL RUN TIME: 0 days 0 hours 3 minutes 56 seconds 968 msec
