                         Program Version 5.0.0 -  RELEASE  -
|  1> !LC-BLYP RIJCOSX def2-TZVPD def2/J TightSCF xyzfile
|  2>
|  3> *xyzfile 0 1 D8.xyz
|  4>
|  5> %MaxCore 64000
|  6>
|  7> %pal nprocs 4
|  8> end
|  9>
| 10> %scf
| 11>   MaxIter 150
| 12> end
| 13>
| 14>
| 15>                          ****END OF INPUT****

CARTESIAN COORDINATES (ANGSTROEM)
---------------------------------
  C      3.380928    2.083045   -3.350127
  N      4.535924    1.182447   -3.428518
  C      2.495557    1.816150   -2.136364
  C      1.872181    0.427903   -2.077497
  H      2.614270   -0.365825   -2.198894
  H      1.389953    0.273087   -1.112360
  S      0.579024    0.140472   -3.297943
  C      4.671956    0.122273   -4.220598
  C      5.866023   -0.507849   -4.224284
  N      3.698881   -0.312844   -4.986988
  H      2.731405   -0.050091   -4.849000
  H      3.890046   -1.055172   -5.643730
  H      5.251933    1.303459   -2.721014
  H      6.695165   -0.062322   -3.851596
  H      5.975383   -1.396884   -4.691414
  O      0.228860   -1.246868   -3.127871
  O     -0.439269    1.118966   -3.014550
  F      1.247881    0.403474   -4.595647
  H      1.697003    2.561969   -2.141109
  H      3.080787    1.987436   -1.225838
  H      2.806463    1.986511   -4.268484
  H      3.778714    3.098282   -3.307383

 Total Charge           Charge          ....    0
 Multiplicity           Mult            ....    1
 Number of Electrons    NEL             ....   96
 Basis Dimension        Dim             ....  524

ORBITAL ENERGIES
----------------

  NO   OCC          E(Eh)            E(eV)
   0   2.0000     -88.532607     -2409.0947
   1   2.0000     -24.584884      -668.9887
   2   2.0000     -18.970473      -516.2128
   3   2.0000     -18.969564      -516.1881
   4   2.0000     -14.185323      -386.0023
   5   2.0000     -14.174068      -385.6960
   6   2.0000     -10.136845      -275.8376
   7   2.0000     -10.128672      -275.6152
   8   2.0000     -10.127972      -275.5961
   9   2.0000     -10.107270      -275.0328
  10   2.0000      -9.985609      -271.7222
  11   2.0000      -8.075966      -219.7582
  12   2.0000      -6.108220      -166.2131
  13   2.0000      -6.100548      -166.0044
  14   2.0000      -6.100189      -165.9946
  15   2.0000      -1.466517       -39.9059
  16   2.0000      -1.229908       -33.4675
  17   2.0000      -1.136040       -30.9132
  18   2.0000      -1.083564       -29.4853
  19   2.0000      -1.003528       -27.3074
  20   2.0000      -0.949816       -25.8458
  21   2.0000      -0.882140       -24.0042
  22   2.0000      -0.834315       -22.7029
  23   2.0000      -0.813519       -22.1370
  24   2.0000      -0.753657       -20.5080
  25   2.0000      -0.724354       -19.7107
  26   2.0000      -0.717404       -19.5216
  27   2.0000      -0.700544       -19.0628
  28   2.0000      -0.669023       -18.2050
  29   2.0000      -0.644360       -17.5339
  30   2.0000      -0.624380       -16.9902
  31   2.0000      -0.605142       -16.4667
  32   2.0000      -0.598008       -16.2726
  33   2.0000      -0.589289       -16.0354
  34   2.0000      -0.573671       -15.6104
  35   2.0000      -0.562643       -15.3103
  36   2.0000      -0.535785       -14.5795
  37   2.0000      -0.514708       -14.0059
  38   2.0000      -0.511791       -13.9266
  39   2.0000      -0.496522       -13.5110
  40   2.0000      -0.488702       -13.2982
  41   2.0000      -0.481210       -13.0944
  42   2.0000      -0.465177       -12.6581
  43   2.0000      -0.457105       -12.4385
  44   2.0000      -0.443685       -12.0733
  45   2.0000      -0.437349       -11.9009
  46   2.0000      -0.365488        -9.9454
  47   2.0000      -0.262320        -7.1381
  48   0.0000       0.032854         0.8940
  49   0.0000       0.041747         1.1360
  50   0.0000       0.050262         1.3677
  51   0.0000       0.052897         1.4394
  52   0.0000       0.073585         2.0023

MULLIKEN ATOMIC CHARGES
-----------------------
   0 C :   -0.951604
   1 N :   -0.227668
   2 C :   -0.654474
   3 C :   -0.909026
   4 H :    0.441141
   5 H :    0.471338
   6 S :    1.072259
   7 C :    0.629606
   8 C :   -1.177780
   9 N :   -0.330765
  10 H :    0.312335
  11 H :    0.143744
  12 H :    0.164856
  13 H :    0.282794
  14 H :    0.300248
  15 O :   -0.529576
  16 O :   -0.514744
  17 F :   -0.269635
  18 H :    0.420032
  19 H :    0.436828
  20 H :    0.477378
  21 H :    0.412713
Sum of atomic charges:   -0.0000000

LOEWDIN ATOMIC CHARGES
----------------------
   0 C :   -0.192636
   1 N :    0.036741
   2 C :   -0.214866
   3 C :   -0.226915
   4 H :    0.115703
   5 H :    0.122022
   6 S :    0.568114
   7 C :   -0.575805
   8 C :   -0.006295
   9 N :    0.150917
  10 H :    0.035980
  11 H :    0.124139
  12 H :    0.150050
  13 H :    0.006293
  14 H :    0.003586
  15 O :   -0.241823
  16 O :   -0.239565
  17 F :   -0.100302
  18 H :    0.119638
  19 H :    0.126679
  20 H :    0.111001
  21 H :    0.127343

  Mayer bond orders larger than 0.100000
B(  0-C ,  1-N ) :   0.7268 B(  0-C ,  2-C ) :   0.5798 B(  0-C ,  7-C ) :  -0.1484
B(  0-C , 20-H ) :   0.8316 B(  0-C , 21-H ) :   0.9250 B(  1-N ,  7-C ) :   1.0150
B(  1-N ,  8-C ) :   0.1849 B(  1-N , 12-H ) :   1.0298 B(  2-C ,  3-C ) :   0.7092
B(  2-C , 18-H ) :   0.9634 B(  2-C , 19-H ) :   0.8325 B(  3-C ,  4-H ) :   0.8370
B(  3-C ,  5-H ) :   0.8254 B(  3-C ,  6-S ) :   0.9112 B(  6-S , 15-O ) :   1.6892
B(  6-S , 16-O ) :   1.6834 B(  6-S , 17-F ) :   0.9903 B(  7-C ,  8-C ) :   0.9101
B(  7-C ,  9-N ) :   0.9143 B(  7-C , 14-H ) :  -0.1494 B(  8-C ,  9-N ) :   0.1155
B(  8-C , 13-H ) :   1.0451 B(  8-C , 14-H ) :   1.0901 B(  9-N , 10-H ) :   0.8353
B(  9-N , 11-H ) :   1.0441

FINAL SINGLE POINT ENERGY      -953.903760460235

DIPOLE MOMENT
-------------
                                X             Y             Z
Electronic contribution:    -14.63427      -2.40849      -2.87796
Nuclear contribution   :     14.93782       3.36795       3.35075
                        -----------------------------------------
Total Dipole Moment    :      0.30355       0.95946       0.47280
                        -----------------------------------------
Magnitude (a.u.)       :      1.11186
Magnitude (Debye)      :      2.82613

Rotational constants in cm-1:     0.059219     0.021387     0.018380
Rotational constants in MHz :  1775.354399   641.172207   551.019443

                             ****ORCA TERMINATED NORMALLY****
TOTAL RUN TIME: 0 days 0 hours 3 minutes 40 seconds 999 msec
