                         Program Version 5.0.0 -  RELEASE  -
|  1> !LC-BLYP RIJCOSX def2-TZVPD def2/J TightSCF xyzfile
|  2>
|  3> *xyzfile 0 1 D9.xyz
|  4>
|  5> %MaxCore 64000
|  6>
|  7> %pal nprocs 4
|  8> end
|  9>
| 10> %scf
| 11>   MaxIter 150
| 12> end
| 13>
| 14>
| 15>                          ****END OF INPUT****

CARTESIAN COORDINATES (ANGSTROEM)
---------------------------------
  C      3.380928    2.083045   -3.350127
  N      4.535924    1.182447   -3.428518
  C      2.495557    1.816150   -2.136364
  C      1.872181    0.427903   -2.077497
  H      2.614270   -0.365825   -2.198894
  H      1.389953    0.273087   -1.112360
  S      0.579024    0.140472   -3.297943
  C      4.671956    0.122273   -4.220598
  N      5.866023   -0.507849   -4.224284
  C      3.698881   -0.312844   -4.986988
  H      2.731405   -0.050091   -4.849000
  H      3.890046   -1.055172   -5.643730
  H      5.251933    1.303459   -2.721014
  H      6.695165   -0.062322   -3.851596
  H      5.975383   -1.396884   -4.691414
  O      0.228860   -1.246868   -3.127871
  O     -0.439269    1.118966   -3.014550
  F      1.247881    0.403474   -4.595647
  H      1.697003    2.561969   -2.141109
  H      3.080787    1.987436   -1.225838
  H      2.806463    1.986511   -4.268484
  H      3.778714    3.098282   -3.307383

 Total Charge           Charge          ....    0
 Multiplicity           Mult            ....    1
 Number of Electrons    NEL             ....   96
 Basis Dimension        Dim             ....  524

ORBITAL ENERGIES
----------------

  NO   OCC          E(Eh)            E(eV)
   0   2.0000     -88.514956     -2408.6144
   1   2.0000     -24.554192      -668.1535
   2   2.0000     -18.953589      -515.7534
   3   2.0000     -18.952000      -515.7101
   4   2.0000     -14.187289      -386.0558
   5   2.0000     -14.176561      -385.7638
   6   2.0000     -10.127924      -275.5948
   7   2.0000     -10.123351      -275.4704
   8   2.0000     -10.121310      -275.4149
   9   2.0000     -10.099573      -274.8234
  10   2.0000      -9.985069      -271.7076
  11   2.0000      -8.058001      -219.2694
  12   2.0000      -6.089963      -165.7163
  13   2.0000      -6.082875      -165.5235
  14   2.0000      -6.082382      -165.5100
  15   2.0000      -1.437654       -39.1206
  16   2.0000      -1.211848       -32.9761
  17   2.0000      -1.119078       -30.4517
  18   2.0000      -1.079341       -29.3704
  19   2.0000      -0.997369       -27.1398
  20   2.0000      -0.936061       -25.4715
  21   2.0000      -0.859201       -23.3801
  22   2.0000      -0.840063       -22.8593
  23   2.0000      -0.802600       -21.8399
  24   2.0000      -0.762424       -20.7466
  25   2.0000      -0.697479       -18.9794
  26   2.0000      -0.690053       -18.7773
  27   2.0000      -0.670018       -18.2321
  28   2.0000      -0.662029       -18.0147
  29   2.0000      -0.648140       -17.6368
  30   2.0000      -0.622826       -16.9479
  31   2.0000      -0.605062       -16.4646
  32   2.0000      -0.586168       -15.9505
  33   2.0000      -0.572138       -15.5687
  34   2.0000      -0.566362       -15.4115
  35   2.0000      -0.549698       -14.9580
  36   2.0000      -0.524427       -14.2704
  37   2.0000      -0.513423       -13.9710
  38   2.0000      -0.505202       -13.7473
  39   2.0000      -0.486024       -13.2254
  40   2.0000      -0.481894       -13.1130
  41   2.0000      -0.474279       -12.9058
  42   2.0000      -0.458708       -12.4821
  43   2.0000      -0.441112       -12.0033
  44   2.0000      -0.428271       -11.6538
  45   2.0000      -0.420592       -11.4449
  46   2.0000      -0.360447        -9.8083
  47   2.0000      -0.277046        -7.5388
  48   0.0000       0.035493         0.9658
  49   0.0000       0.051171         1.3924
  50   0.0000       0.053295         1.4502
  51   0.0000       0.056221         1.5299
  52   0.0000       0.074415         2.0249

MULLIKEN ATOMIC CHARGES
-----------------------
   0 C :   -0.979251
   1 N :   -0.227436
   2 C :   -0.676121
   3 C :   -0.893391
   4 H :    0.464095
   5 H :    0.469844
   6 S :    1.075198
   7 C :    0.923595
   8 N :   -0.412395
   9 C :   -1.150212
  10 H :    0.124214
  11 H :    0.270961
  12 H :    0.160914
  13 H :    0.166628
  14 H :    0.174746
  15 O :   -0.543200
  16 O :   -0.529129
  17 F :   -0.157733
  18 H :    0.414184
  19 H :    0.429475
  20 H :    0.503703
  21 H :    0.391310
Sum of atomic charges:    0.0000000

LOEWDIN ATOMIC CHARGES
----------------------
   0 C :   -0.187778
   1 N :    0.030849
   2 C :   -0.213835
   3 C :   -0.227603
   4 H :    0.113411
   5 H :    0.119505
   6 S :    0.564809
   7 C :   -0.560098
   8 N :    0.116836
   9 C :    0.017958
  10 H :   -0.031637
  11 H :    0.031476
  12 H :    0.142771
  13 H :    0.096963
  14 H :    0.105852
  15 O :   -0.247059
  16 O :   -0.248003
  17 F :   -0.109704
  18 H :    0.119477
  19 H :    0.123595
  20 H :    0.114950
  21 H :    0.127265

  Mayer bond orders larger than 0.100000
B(  0-C ,  1-N ) :   0.7779 B(  0-C ,  2-C ) :   0.5880 B(  0-C ,  7-C ) :  -0.1156
B(  0-C ,  9-C ) :   0.1183 B(  0-C , 20-H ) :   0.8155 B(  0-C , 21-H ) :   0.9446
B(  1-N ,  7-C ) :   0.9335 B(  1-N ,  8-N ) :   0.1029 B(  1-N , 12-H ) :   1.0508
B(  2-C ,  3-C ) :   0.7092 B(  2-C , 18-H ) :   0.9529 B(  2-C , 19-H ) :   0.8435
B(  3-C ,  4-H ) :   0.8384 B(  3-C ,  5-H ) :   0.8394 B(  3-C ,  6-S ) :   0.8932
B(  3-C , 15-O ) :   0.1058 B(  6-S , 15-O ) :   1.6671 B(  6-S , 16-O ) :   1.6714
B(  6-S , 17-F ) :   1.0296 B(  7-C ,  8-N ) :   0.8109 B(  7-C ,  9-C ) :   0.8226
B(  7-C , 10-H ) :  -0.1276 B(  7-C , 11-H ) :  -0.1692 B(  8-N ,  9-C ) :   0.1081
B(  8-N , 13-H ) :   1.0443 B(  8-N , 14-H ) :   1.0231 B(  9-C , 10-H ) :   1.2143
B(  9-C , 11-H ) :   1.1966 B(  9-C , 17-F ) :   0.1525 B( 10-H , 17-F ) :  -0.2896

FINAL SINGLE POINT ENERGY      -953.901852338797

DIPOLE MOMENT
-------------
                                X             Y             Z
Electronic contribution:    -12.62841      -2.62804      -2.42087
Nuclear contribution   :     14.72648       3.38697       3.27638
                        -----------------------------------------
Total Dipole Moment    :      2.09807       0.75893       0.85551
                        -----------------------------------------
Magnitude (a.u.)       :      2.38951
Magnitude (Debye)      :      6.07366

Rotational constants in cm-1:     0.059651     0.020833     0.018010
Rotational constants in MHz :  1788.283887   624.555661   539.921162

                             ****ORCA TERMINATED NORMALLY****
TOTAL RUN TIME: 0 days 0 hours 3 minutes 40 seconds 506 msec
