                         Program Version 5.0.0 -  RELEASE  -
|  1> !B3LYP D3BJ RIJCOSX def2-SVPD def2/J TightSCF
|  2> *xyz -1 1
|  3> C         -1.36353       -1.98134       -2.29361
|  4> O         -0.35039       -2.74969       -1.79601
|  5> H         -2.22523       -2.59288       -2.46214
|  6> H         -1.05452       -1.53818       -3.21720
|  7> H         -1.60477       -1.21086       -1.59143
|  8> *
|  9>
| 10> %MaxCore 64000
| 11> %pal nprocs 4
| 12> end
| 13>
| 14> %scf
| 15>   MaxIter 150
| 16> end
| 17>
| 18>
| 19>                          ****END OF INPUT****

CARTESIAN COORDINATES (ANGSTROEM)
---------------------------------
  C     -1.363530   -1.981340   -2.293610
  O     -0.350390   -2.749690   -1.796010
  H     -2.225230   -2.592880   -2.462140
  H     -1.054520   -1.538180   -3.217200
  H     -1.604770   -1.210860   -1.591430

 Total Charge           Charge          ....   -1
 Multiplicity           Mult            ....    1
 Number of Electrons    NEL             ....   18
 Basis Dimension        Dim             ....   67

ORBITAL ENERGIES
----------------

  NO   OCC          E(Eh)            E(eV)
   0   2.0000     -18.785699      -511.1849
   1   2.0000      -9.969585      -271.2862
   2   2.0000      -0.649685       -17.6788
   3   2.0000      -0.389305       -10.5935
   4   2.0000      -0.195975        -5.3328
   5   2.0000      -0.195967        -5.3325
   6   2.0000      -0.098897        -2.6911
   7   2.0000       0.050965         1.3868
   8   2.0000       0.050972         1.3870
   9   0.0000       0.196966         5.3597
  10   0.0000       0.267891         7.2897
  11   0.0000       0.267894         7.2898
  12   0.0000       0.276523         7.5246
  13   0.0000       0.312970         8.5163

MULLIKEN ATOMIC CHARGES
-----------------------
   0 C :    1.032597
   1 O :   -1.021655
   2 H :   -0.337270
   3 H :   -0.337106
   4 H :   -0.336566
Sum of atomic charges:   -1.0000000

LOEWDIN ATOMIC CHARGES
----------------------
   0 C :   -0.110819
   1 O :   -0.640171
   2 H :   -0.083012
   3 H :   -0.083007
   4 H :   -0.082992

  Mayer bond orders larger than 0.100000
B(  0-C ,  1-O ) :   1.1591 B(  0-C ,  2-H ) :   0.8670 B(  0-C ,  3-H ) :   0.8673
B(  0-C ,  4-H ) :   0.8667

Dispersion correction           -0.002431175
FINAL SINGLE POINT ENERGY      -114.957794223762

DIPOLE MOMENT
-------------
                                X             Y             Z
Electronic contribution:      1.38215      -1.04846       0.67894
Nuclear contribution   :     -2.13467       1.61890      -1.04844
                        -----------------------------------------
Total Dipole Moment    :     -0.75252       0.57044      -0.36950
                        -----------------------------------------
Magnitude (a.u.)       :      1.01401
Magnitude (Debye)      :      2.57742

Rotational constants in cm-1:     5.477725     0.944113     0.944112
Rotational constants in MHz : 164218.064700 28303.798445 28303.757130

                             ****ORCA TERMINATED NORMALLY****
TOTAL RUN TIME: 0 days 0 hours 0 minutes 3 seconds 820 msec
