                         Program Version 5.0.0 -  RELEASE  -
|  1> !B3LYP D3BJ RIJCOSX def2-SVPD def2/J TightSCF
|  2> *xyz 1 1
|  3> C          2.20996       -2.81239       -3.66571
|  4> C          2.48901       -1.66851       -2.73754
|  5> N          3.59631       -0.94761       -2.95225
|  6> N          1.66394       -1.41369       -1.77781
|  7> H          0.81164       -1.96318       -1.70275
|  8> H          1.84550       -0.63508       -1.15875
|  9> H          4.20535       -1.17600       -3.73383
| 10> H          3.81723       -0.12585       -2.40604
| 11> H          2.99011       -2.87840       -4.39503
| 12> H          1.27381       -2.65174       -4.15838
| 13> H          2.16680       -3.72339       -3.10614
| 14> *
| 15>
| 16> %MaxCore 64000
| 17> %pal nprocs 4
| 18> end
| 19>
| 20> %scf
| 21>   MaxIter 150
| 22> end
| 23>
| 24>
| 25>                          ****END OF INPUT****

CARTESIAN COORDINATES (ANGSTROEM)
---------------------------------
  C      2.209960   -2.812390   -3.665710
  C      2.489010   -1.668510   -2.737540
  N      3.596310   -0.947610   -2.952250
  N      1.663940   -1.413690   -1.777810
  H      0.811640   -1.963180   -1.702750
  H      1.845500   -0.635080   -1.158750
  H      4.205350   -1.176000   -3.733830
  H      3.817230   -0.125850   -2.406040
  H      2.990110   -2.878400   -4.395030
  H      1.273810   -2.651740   -4.158380
  H      2.166800   -3.723390   -3.106140

 Total Charge           Charge          ....    1
 Multiplicity           Mult            ....    1
 Number of Electrons    NEL             ....   32
 Basis Dimension        Dim             ....  136

ORBITAL ENERGIES
----------------

  NO   OCC          E(Eh)            E(eV)
   0   2.0000     -14.586898      -396.9297
   1   2.0000     -14.581186      -396.7742
   2   2.0000     -10.515794      -286.1493
   3   2.0000     -10.383037      -282.5368
   4   2.0000      -1.203768       -32.7562
   5   2.0000      -1.108531       -30.1647
   6   2.0000      -0.949572       -25.8392
   7   2.0000      -0.842958       -22.9381
   8   2.0000      -0.786220       -21.3941
   9   2.0000      -0.771368       -20.9900
  10   2.0000      -0.713320       -19.4104
  11   2.0000      -0.662733       -18.0339
  12   2.0000      -0.619158       -16.8481
  13   2.0000      -0.603142       -16.4123
  14   2.0000      -0.579387       -15.7659
  15   2.0000      -0.502374       -13.6703
  16   0.0000      -0.218071        -5.9340
  17   0.0000      -0.167947        -4.5701
  18   0.0000      -0.121255        -3.2995
  19   0.0000      -0.119962        -3.2643
  20   0.0000      -0.096734        -2.6323

MULLIKEN ATOMIC CHARGES
-----------------------
   0 C :    0.810814
   1 C :    0.299769
   2 N :    0.067510
   3 N :    0.318532
   4 H :   -0.005083
   5 H :   -0.174756
   6 H :    0.022988
   7 H :   -0.164770
   8 H :   -0.065921
   9 H :   -0.058397
  10 H :   -0.050686
Sum of atomic charges:    1.0000000

LOEWDIN ATOMIC CHARGES
----------------------
   0 C :    0.241510
   1 C :   -0.066945
   2 N :    0.285555
   3 N :    0.285993
   4 H :    0.066536
   5 H :    0.053056
   6 H :    0.048428
   7 H :    0.042494
   8 H :    0.002550
   9 H :    0.020299
  10 H :    0.020524

  Mayer bond orders larger than 0.100000
B(  0-C ,  1-C ) :   1.2545 B(  0-C ,  8-H ) :   0.7435 B(  0-C ,  9-H ) :   0.7368
B(  0-C , 10-H ) :   0.7164 B(  1-C ,  2-N ) :   1.0023 B(  1-C ,  3-N ) :   1.2845
B(  1-C ,  5-H ) :  -0.1383 B(  1-C ,  7-H ) :  -0.2492 B(  1-C ,  8-H ) :   0.2835
B(  1-C ,  9-H ) :   0.1767 B(  1-C , 10-H ) :   0.1935 B(  2-N ,  3-N ) :   0.1530
B(  2-N ,  6-H ) :   1.0807 B(  2-N ,  7-H ) :   1.3516 B(  3-N ,  4-H ) :   1.1216
B(  3-N ,  5-H ) :   1.2224 B(  4-H ,  5-H ) :  -0.1499 B(  6-H ,  7-H ) :  -0.1831
B(  9-H , 10-H ) :   0.1096

Dispersion correction           -0.011421667
FINAL SINGLE POINT ENERGY      -189.486575607619

DIPOLE MOMENT
-------------
                                X             Y             Z
Electronic contribution:      0.31921       1.62036       1.44479
Nuclear contribution   :     -0.32363      -1.20411      -1.15396
                        -----------------------------------------
Total Dipole Moment    :     -0.00442       0.41624       0.29083
                        -----------------------------------------
Magnitude (a.u.)       :      0.50780
Magnitude (Debye)      :      1.29071

Rotational constants in cm-1:     0.327805     0.304052     0.162439
Rotational constants in MHz :  9827.347355  9115.244333  4869.808750

                             ****ORCA TERMINATED NORMALLY****
TOTAL RUN TIME: 0 days 0 hours 0 minutes 9 seconds 474 msec
