                         Program Version 5.0.0 -  RELEASE  -
|  1> !B3LYP D3BJ RIJCOSX def2-SVPD def2/J TightSCF
|  2> *xyz 0 1
|  3> C         -1.36353       -1.98134       -2.29361
|  4> F         -0.35039       -2.74969       -1.79601
|  5> H         -2.22523       -2.59288       -2.46214
|  6> H         -1.05452       -1.53818       -3.21720
|  7> H         -1.60477       -1.21086       -1.59143
|  8> *
|  9>
| 10> %MaxCore 64000
| 11> %pal nprocs 4
| 12> end
| 13>
| 14> %scf
| 15>   MaxIter 150
| 16> end
| 17>
| 18>
| 19>                          ****END OF INPUT****

CARTESIAN COORDINATES (ANGSTROEM)
---------------------------------
  C     -1.363530   -1.981340   -2.293610
  F     -0.350390   -2.749690   -1.796010
  H     -2.225230   -2.592880   -2.462140
  H     -1.054520   -1.538180   -3.217200
  H     -1.604770   -1.210860   -1.591430

 Total Charge           Charge          ....    0
 Multiplicity           Mult            ....    1
 Number of Electrons    NEL             ....   18
 Basis Dimension        Dim             ....   67

ORBITAL ENERGIES
----------------

  NO   OCC          E(Eh)            E(eV)
   0   2.0000     -24.682439      -671.6433
   1   2.0000     -10.255779      -279.0739
   2   2.0000      -1.184403       -32.2293
   3   2.0000      -0.701756       -19.0958
   4   2.0000      -0.501421       -13.6444
   5   2.0000      -0.493315       -13.4238
   6   2.0000      -0.493308       -13.4236
   7   2.0000      -0.353334        -9.6147
   8   2.0000      -0.353320        -9.6143
   9   0.0000       0.023763         0.6466
  10   0.0000       0.059285         1.6132
  11   0.0000       0.098802         2.6885
  12   0.0000       0.098807         2.6887
  13   0.0000       0.144175         3.9232

MULLIKEN ATOMIC CHARGES
-----------------------
   0 C :    1.089095
   1 F :   -0.479723
   2 H :   -0.203386
   3 H :   -0.203454
   4 H :   -0.202531
Sum of atomic charges:   -0.0000000

LOEWDIN ATOMIC CHARGES
----------------------
   0 C :    0.272326
   1 F :   -0.247954
   2 H :   -0.008138
   3 H :   -0.008134
   4 H :   -0.008101

  Mayer bond orders larger than 0.100000
B(  0-C ,  1-F ) :   0.8472 B(  0-C ,  2-H ) :   0.9044 B(  0-C ,  3-H ) :   0.9045
B(  0-C ,  4-H ) :   0.9039

Dispersion correction           -0.002120347
FINAL SINGLE POINT ENERGY      -139.581644244074

DIPOLE MOMENT
-------------
                                X             Y             Z
Electronic contribution:      2.17088      -1.64658       1.06625
Nuclear contribution   :     -2.70693       2.05289      -1.32950
                        -----------------------------------------
Total Dipole Moment    :     -0.53605       0.40632      -0.26325
                        -----------------------------------------
Magnitude (a.u.)       :      0.72232
Magnitude (Debye)      :      1.83599

Rotational constants in cm-1:     5.477725     0.878859     0.878857
Rotational constants in MHz : 164218.064700 26347.517988 26347.482187

                             ****ORCA TERMINATED NORMALLY****
TOTAL RUN TIME: 0 days 0 hours 0 minutes 3 seconds 796 msec
