                         Program Version 5.0.0 -  RELEASE  -
|  1> !B3LYP D3BJ RIJCOSX def2-SVPD def2/J TightSCF
|  2> *xyz 0 1
|  3> C          2.20996       -2.81239       -3.66571
|  4> C          2.48901       -1.66851       -2.73754
|  5> C          3.59631       -0.94761       -2.95225
|  6> N          1.66394       -1.41369       -1.77781
|  7> H          0.81164       -1.96318       -1.70275
|  8> H          1.84550       -0.63508       -1.15875
|  9> H          4.20535       -1.17600       -3.73383
| 10> H          3.81723       -0.12585       -2.40604
| 11> H          2.99011       -2.87840       -4.39503
| 12> H          1.27381       -2.65174       -4.15838
| 13> H          2.16680       -3.72339       -3.10614
| 14> *
| 15>
| 16> %MaxCore 64000
| 17> %pal nprocs 4
| 18> end
| 19>
| 20> %scf
| 21>   MaxIter 150
| 22> end
| 23>
| 24>
| 25>                          ****END OF INPUT****

CARTESIAN COORDINATES (ANGSTROEM)
---------------------------------
  C      2.209960   -2.812390   -3.665710
  C      2.489010   -1.668510   -2.737540
  C      3.596310   -0.947610   -2.952250
  N      1.663940   -1.413690   -1.777810
  H      0.811640   -1.963180   -1.702750
  H      1.845500   -0.635080   -1.158750
  H      4.205350   -1.176000   -3.733830
  H      3.817230   -0.125850   -2.406040
  H      2.990110   -2.878400   -4.395030
  H      1.273810   -2.651740   -4.158380
  H      2.166800   -3.723390   -3.106140

 Total Charge           Charge          ....    0
 Multiplicity           Mult            ....    1
 Number of Electrons    NEL             ....   32
 Basis Dimension        Dim             ....  136

ORBITAL ENERGIES
----------------

  NO   OCC          E(Eh)            E(eV)
   0   2.0000     -14.336071      -390.1043
   1   2.0000     -10.204940      -277.6905
   2   2.0000     -10.173250      -276.8282
   3   2.0000     -10.115801      -275.2649
   4   2.0000      -0.931087       -25.3362
   5   2.0000      -0.748377       -20.3644
   6   2.0000      -0.678889       -18.4735
   7   2.0000      -0.575000       -15.6466
   8   2.0000      -0.534696       -14.5498
   9   2.0000      -0.472078       -12.8459
  10   2.0000      -0.432832       -11.7780
  11   2.0000      -0.397860       -10.8263
  12   2.0000      -0.392292       -10.6748
  13   2.0000      -0.350705        -9.5432
  14   2.0000      -0.340584        -9.2678
  15   2.0000      -0.187704        -5.1077
  16   0.0000       0.015665         0.4263
  17   0.0000       0.047318         1.2876
  18   0.0000       0.052638         1.4324
  19   0.0000       0.061259         1.6670
  20   0.0000       0.087085         2.3697

MULLIKEN ATOMIC CHARGES
-----------------------
   0 C :    1.073326
   1 C :   -0.591344
   2 C :    0.620408
   3 N :    0.460241
   4 H :   -0.205755
   5 H :   -0.220946
   6 H :   -0.214694
   7 H :   -0.596055
   8 H :   -0.068240
   9 H :   -0.133698
  10 H :   -0.123243
Sum of atomic charges:    0.0000000

LOEWDIN ATOMIC CHARGES
----------------------
   0 C :    0.170333
   1 C :   -0.298309
   2 C :    0.179846
   3 N :    0.168490
   4 H :    0.009221
   5 H :    0.012005
   6 H :   -0.093078
   7 H :   -0.097895
   8 H :   -0.018521
   9 H :   -0.015927
  10 H :   -0.016166

  Mayer bond orders larger than 0.100000
B(  0-C ,  1-C ) :   1.2388 B(  0-C ,  2-C ) :   0.1024 B(  0-C ,  8-H ) :   0.7519
B(  0-C ,  9-H ) :   0.6007 B(  0-C , 10-H ) :   0.6109 B(  1-C ,  2-C ) :   1.6397
B(  1-C ,  3-N ) :   1.3008 B(  1-C ,  7-H ) :   0.1425 B(  1-C ,  8-H ) :   0.2701
B(  1-C ,  9-H ) :   0.3121 B(  1-C , 10-H ) :   0.3057 B(  2-C ,  3-N ) :   0.2484
B(  2-C ,  6-H ) :   0.9227 B(  2-C ,  7-H ) :   0.7063 B(  3-N ,  4-H ) :   1.1443
B(  3-N ,  5-H ) :   1.1689 B(  4-H ,  5-H ) :  -0.1207 B(  8-H ,  9-H ) :   0.1005
B(  8-H , 10-H ) :   0.1012

Dispersion correction           -0.012062763
FINAL SINGLE POINT ENERGY      -173.032881892829

DIPOLE MOMENT
-------------
                                X             Y             Z
Electronic contribution:     -0.65438       0.87135       1.53813
Nuclear contribution   :     -0.07639      -1.03653      -1.19368
                        -----------------------------------------
Total Dipole Moment    :     -0.73076      -0.16517       0.34446
                        -----------------------------------------
Magnitude (a.u.)       :      0.82459
Magnitude (Debye)      :      2.09593

Rotational constants in cm-1:     0.347569     0.308531     0.168494
Rotational constants in MHz : 10419.863808  9249.512495  5051.317883

                             ****ORCA TERMINATED NORMALLY****
TOTAL RUN TIME: 0 days 0 hours 0 minutes 10 seconds 361 msec
