                         Program Version 5.0.0 -  RELEASE  -
|  1> !B3LYP D3BJ RIJCOSX def2-SVPD def2/J TightSCF
|  2> *xyz 0 1
|  3> C          2.20996       -2.81239       -3.66571
|  4> C          2.48901       -1.66851       -2.73754
|  5> N          3.59631       -0.94761       -2.95225
|  6> C          1.66394       -1.41369       -1.77781
|  7> H          0.81164       -1.96318       -1.70275
|  8> H          1.84550       -0.63508       -1.15875
|  9> H          4.20535       -1.17600       -3.73383
| 10> H          3.81723       -0.12585       -2.40604
| 11> H          2.99011       -2.87840       -4.39503
| 12> H          1.27381       -2.65174       -4.15838
| 13> H          2.16680       -3.72339       -3.10614
| 14> *
| 15>
| 16> %MaxCore 64000
| 17> %pal nprocs 4
| 18> end
| 19>
| 20> %scf
| 21>   MaxIter 150
| 22> end
| 23>
| 24>
| 25>                          ****END OF INPUT****

CARTESIAN COORDINATES (ANGSTROEM)
---------------------------------
  C      2.209960   -2.812390   -3.665710
  C      2.489010   -1.668510   -2.737540
  N      3.596310   -0.947610   -2.952250
  C      1.663940   -1.413690   -1.777810
  H      0.811640   -1.963180   -1.702750
  H      1.845500   -0.635080   -1.158750
  H      4.205350   -1.176000   -3.733830
  H      3.817230   -0.125850   -2.406040
  H      2.990110   -2.878400   -4.395030
  H      1.273810   -2.651740   -4.158380
  H      2.166800   -3.723390   -3.106140

 Total Charge           Charge          ....    0
 Multiplicity           Mult            ....    1
 Number of Electrons    NEL             ....   32
 Basis Dimension        Dim             ....  136

ORBITAL ENERGIES
----------------

  NO   OCC          E(Eh)            E(eV)
   0   2.0000     -14.330997      -389.9663
   1   2.0000     -10.201338      -277.5925
   2   2.0000     -10.173251      -276.8282
   3   2.0000     -10.113064      -275.1905
   4   2.0000      -0.912700       -24.8358
   5   2.0000      -0.753441       -20.5022
   6   2.0000      -0.684815       -18.6348
   7   2.0000      -0.567043       -15.4300
   8   2.0000      -0.521870       -14.2008
   9   2.0000      -0.473803       -12.8928
  10   2.0000      -0.429438       -11.6856
  11   2.0000      -0.400443       -10.8966
  12   2.0000      -0.394414       -10.7325
  13   2.0000      -0.354422        -9.6443
  14   2.0000      -0.333028        -9.0621
  15   2.0000      -0.192925        -5.2497
  16   0.0000       0.017050         0.4640
  17   0.0000       0.046596         1.2679
  18   0.0000       0.053198         1.4476
  19   0.0000       0.061235         1.6663
  20   0.0000       0.086682         2.3587

MULLIKEN ATOMIC CHARGES
-----------------------
   0 C :    1.027151
   1 C :   -0.279820
   2 N :    0.206381
   3 C :    0.487421
   4 H :   -0.269332
   5 H :   -0.443488
   6 H :   -0.139811
   7 H :   -0.223646
   8 H :   -0.229643
   9 H :   -0.067607
  10 H :   -0.067605
Sum of atomic charges:   -0.0000000

LOEWDIN ATOMIC CHARGES
----------------------
   0 C :    0.172695
   1 C :   -0.285581
   2 N :    0.171845
   3 C :    0.160842
   4 H :   -0.072646
   5 H :   -0.085150
   6 H :   -0.009955
   7 H :   -0.000768
   8 H :   -0.032514
   9 H :   -0.009466
  10 H :   -0.009302

  Mayer bond orders larger than 0.100000
B(  0-C ,  1-C ) :   1.0670 B(  0-C ,  2-N ) :   0.1195 B(  0-C ,  3-C ) :   0.1042
B(  0-C ,  8-H ) :   0.6546 B(  0-C ,  9-H ) :   0.7006 B(  0-C , 10-H ) :   0.6930
B(  1-C ,  2-N ) :   1.0350 B(  1-C ,  3-C ) :   1.7692 B(  1-C ,  4-H ) :   0.1236
B(  1-C ,  5-H ) :   0.2897 B(  1-C ,  7-H ) :  -0.1560 B(  1-C ,  8-H ) :   0.3044
B(  1-C ,  9-H ) :   0.1984 B(  1-C , 10-H ) :   0.2083 B(  2-N ,  3-C ) :   0.2551
B(  2-N ,  6-H ) :   1.1145 B(  2-N ,  7-H ) :   1.3084 B(  3-C ,  4-H ) :   0.7872
B(  3-C ,  5-H ) :   0.6409 B(  6-H ,  7-H ) :  -0.1658

Dispersion correction           -0.012062844
FINAL SINGLE POINT ENERGY      -173.032487621004

DIPOLE MOMENT
-------------
                                X             Y             Z
Electronic contribution:      1.04177       1.25741       0.48221
Nuclear contribution   :     -0.50975      -1.14105      -0.93029
                        -----------------------------------------
Total Dipole Moment    :      0.53201       0.11635      -0.44808
                        -----------------------------------------
Magnitude (a.u.)       :      0.70523
Magnitude (Debye)      :      1.79255

Rotational constants in cm-1:     0.350603     0.305690     0.168346
Rotational constants in MHz : 10510.799277  9164.357607  5046.873498

                             ****ORCA TERMINATED NORMALLY****
TOTAL RUN TIME: 0 days 0 hours 0 minutes 9 seconds 982 msec
