                         Program Version 5.0.0 -  RELEASE  -
|  1> !BLYP D3BJ RIJCOSX def2-TZVPD def2/J TightSCF
|  2>
|  3> *xyz -1 1
|  4> C          2.95263        1.86308       -3.57485
|  5> C          4.12921        0.89839       -3.41895
|  6> H          3.73369       -0.10060       -3.23763
|  7> H          4.71910        0.86256       -4.33901
|  8> C          5.01734        1.31521       -2.22130
|  9> O          4.73706        0.85411       -1.12283
| 10> O          5.92815        2.16811       -2.49136
| 11> H          2.35067        1.56005       -4.40594
| 12> H          3.32277        2.85258       -3.74453
| 13> H          2.36134        1.85149       -2.68315
| 14> *
| 15> %MaxCore 64000
| 16>
| 17> %pal nprocs 4
| 18> end
| 19>
| 20> %scf
| 21>   MaxIter 150
| 22> end
| 23>
| 24>
| 25>                          ****END OF INPUT****

CARTESIAN COORDINATES (ANGSTROEM)
---------------------------------
  C      2.952630    1.863080   -3.574850
  C      4.129210    0.898390   -3.418950
  H      3.733690   -0.100600   -3.237630
  H      4.719100    0.862560   -4.339010
  C      5.017340    1.315210   -2.221300
  O      4.737060    0.854110   -1.122830
  O      5.928150    2.168110   -2.491360
  H      2.350670    1.560050   -4.405940
  H      3.322770    2.852580   -3.744530
  H      2.361340    1.851490   -2.683150

 Total Charge           Charge          ....   -1
 Multiplicity           Mult            ....    1
 Number of Electrons    NEL             ....   40
 Basis Dimension        Dim             ....  236

ORBITAL ENERGIES
----------------

  NO   OCC          E(Eh)            E(eV)
   0   2.0000     -18.517139      -503.8770
   1   2.0000     -18.507811      -503.6231
   2   2.0000      -9.781922      -266.1796
   3   2.0000      -9.740772      -265.0599
   4   2.0000      -9.726901      -264.6824
   5   2.0000      -0.731841       -19.9144
   6   2.0000      -0.641313       -17.4510
   7   2.0000      -0.526165       -14.3177
   8   2.0000      -0.400308       -10.8929
   9   2.0000      -0.262815        -7.1516
  10   2.0000      -0.237785        -6.4705
  11   2.0000      -0.205516        -5.5924
  12   2.0000      -0.179268        -4.8781
  13   2.0000      -0.159824        -4.3490
  14   2.0000      -0.159331        -4.3356
  15   2.0000      -0.129208        -3.5159
  16   2.0000      -0.120400        -3.2763
  17   2.0000      -0.010019        -0.2726
  18   2.0000       0.005026         0.1368
  19   2.0000       0.019148         0.5211
  20   0.0000       0.120838         3.2882
  21   0.0000       0.146840         3.9957
  22   0.0000       0.162372         4.4184
  23   0.0000       0.170742         4.6461
  24   0.0000       0.197544         5.3754

MULLIKEN ATOMIC CHARGES
-----------------------
   0 C :   -1.266677
   1 C :   -0.084163
   2 H :    0.214005
   3 H :    0.222111
   4 C :    0.421239
   5 O :   -0.669589
   6 O :   -0.748541
   7 H :    0.273959
   8 H :    0.320404
   9 H :    0.317252
Sum of atomic charges:   -1.0000000

LOEWDIN ATOMIC CHARGES
----------------------
   0 C :   -0.127673
   1 C :   -0.212509
   2 H :    0.078599
   3 H :    0.082196
   4 C :   -0.794283
   5 O :   -0.057695
   6 O :   -0.117451
   7 H :    0.037335
   8 H :    0.055502
   9 H :    0.055979

  Mayer bond orders larger than 0.100000
B(  0-C ,  1-C ) :   0.4762 B(  0-C ,  4-C ) :   0.1377 B(  0-C ,  7-H ) :   0.9389
B(  0-C ,  8-H ) :   0.9728 B(  0-C ,  9-H ) :   0.9712 B(  1-C ,  2-H ) :   0.9995
B(  1-C ,  3-H ) :   0.9837 B(  1-C ,  4-C ) :   0.8450 B(  4-C ,  5-O ) :   1.4516
B(  4-C ,  6-O ) :   1.3560

Dispersion correction           -0.013582833
FINAL SINGLE POINT ENERGY      -267.884407323876

DIPOLE MOMENT
-------------
                                X             Y             Z
Electronic contribution:      4.47458      -0.18826       3.95805
Nuclear contribution   :     -5.85873      -0.10793      -5.24103
                        -----------------------------------------
Total Dipole Moment    :     -1.38415      -0.29619      -1.28298
                        -----------------------------------------
Magnitude (a.u.)       :      1.91041
Magnitude (Debye)      :      4.85587

Rotational constants in cm-1:     0.292505     0.135951     0.110253
Rotational constants in MHz :  8769.065873  4075.717001  3305.311891

                             ****ORCA TERMINATED NORMALLY****
TOTAL RUN TIME: 0 days 0 hours 0 minutes 14 seconds 313 msec
