                         Program Version 5.0.0 -  RELEASE  -
|  1> !BLYP D3BJ RIJCOSX def2-TZVPD def2/J TightSCF
|  2>
|  3> *xyz 1 1
|  4> C          3.34350        3.35457       -3.59200
|  5> C          2.95263        1.86308       -3.57485
|  6> C          4.25587        3.70385       -4.72605
|  7> N          3.73403        4.29378       -5.80077
|  8> N          5.51504        3.40725       -4.63718
|  9> H          6.14919        3.60120       -5.39905
| 10> H          5.81358        2.89950       -3.80879
| 11> H          2.74138        4.51311       -5.82470
| 12> H          4.28755        4.52126       -6.61434
| 13> H          3.86125        3.59725       -2.66298
| 14> H          2.44649        3.97346       -3.65656
| 15> H          2.44395        1.61721       -4.48352
| 16> H          2.30781        1.67290       -2.74242
| 17> H          3.83491        1.26414       -3.48670
| 18> *
| 19> %MaxCore 64000
| 20>
| 21> %pal nprocs 4
| 22> end
| 23>
| 24> %scf
| 25>   MaxIter 150
| 26> end
| 27>
| 28>
| 29>                          ****END OF INPUT****

CARTESIAN COORDINATES (ANGSTROEM)
---------------------------------
  C      3.343500    3.354570   -3.592000
  C      2.952630    1.863080   -3.574850
  C      4.255870    3.703850   -4.726050
  N      3.734030    4.293780   -5.800770
  N      5.515040    3.407250   -4.637180
  H      6.149190    3.601200   -5.399050
  H      5.813580    2.899500   -3.808790
  H      2.741380    4.513110   -5.824700
  H      4.287550    4.521260   -6.614340
  H      3.861250    3.597250   -2.662980
  H      2.446490    3.973460   -3.656560
  H      2.443950    1.617210   -4.483520
  H      2.307810    1.672900   -2.742420
  H      3.834910    1.264140   -3.486700

 Total Charge           Charge          ....    1
 Multiplicity           Mult            ....    1
 Number of Electrons    NEL             ....   40
 Basis Dimension        Dim             ....  266

ORBITAL ENERGIES
----------------

  NO   OCC          E(Eh)            E(eV)
   0   2.0000     -14.252440      -387.8286
   1   2.0000     -14.248422      -387.7193
   2   2.0000     -10.217805      -278.0406
   3   2.0000     -10.102291      -274.8973
   4   2.0000     -10.059632      -273.7365
   5   2.0000      -1.113344       -30.2956
   6   2.0000      -1.026206       -27.9245
   7   2.0000      -0.889722       -24.2106
   8   2.0000      -0.793109       -21.5816
   9   2.0000      -0.752117       -20.4661
  10   2.0000      -0.720436       -19.6040
  11   2.0000      -0.692813       -18.8524
  12   2.0000      -0.650970       -17.7138
  13   2.0000      -0.595540       -16.2055
  14   2.0000      -0.573006       -15.5923
  15   2.0000      -0.562528       -15.3072
  16   2.0000      -0.499279       -13.5861
  17   2.0000      -0.491349       -13.3703
  18   2.0000      -0.483959       -13.1692
  19   2.0000      -0.450504       -12.2588
  20   0.0000      -0.239719        -6.5231
  21   0.0000      -0.192083        -5.2269
  22   0.0000      -0.150002        -4.0818
  23   0.0000      -0.144944        -3.9441
  24   0.0000      -0.118881        -3.2349

MULLIKEN ATOMIC CHARGES
-----------------------
   0 C :   -0.437422
   1 C :   -1.151442
   2 C :    0.708523
   3 N :   -0.265917
   4 N :   -0.232097
   5 H :    0.185771
   6 H :    0.214763
   7 H :    0.203493
   8 H :    0.171270
   9 H :    0.285878
  10 H :    0.275240
  11 H :    0.360973
  12 H :    0.336120
  13 H :    0.344846
Sum of atomic charges:    1.0000000

LOEWDIN ATOMIC CHARGES
----------------------
   0 C :   -0.143020
   1 C :   -0.042167
   2 C :   -0.372049
   3 N :    0.238919
   4 N :    0.247806
   5 H :    0.148060
   6 H :    0.152716
   7 H :    0.144295
   8 H :    0.138211
   9 H :    0.128743
  10 H :    0.123467
  11 H :    0.079253
  12 H :    0.083650
  13 H :    0.072116

  Mayer bond orders larger than 0.100000
B(  0-C ,  1-C ) :   0.5974 B(  0-C ,  2-C ) :   0.7476 B(  0-C ,  9-H ) :   0.9562
B(  0-C , 10-H ) :   0.9709 B(  1-C , 11-H ) :   0.9427 B(  1-C , 12-H ) :   0.9607
B(  1-C , 13-H ) :   0.9155 B(  2-C ,  3-N ) :   1.1242 B(  2-C ,  4-N ) :   1.2319
B(  3-N ,  4-N ) :   0.1243 B(  3-N ,  7-H ) :   0.9618 B(  3-N ,  8-H ) :   1.0335
B(  4-N ,  5-H ) :   1.0044 B(  4-N ,  6-H ) :   0.9449

Dispersion correction           -0.020540732
FINAL SINGLE POINT ENERGY      -229.034352532363

DIPOLE MOMENT
-------------
                                X             Y             Z
Electronic contribution:      2.36723       2.56840      -2.27803
Nuclear contribution   :     -1.74195      -2.09431       1.58516
                        -----------------------------------------
Total Dipole Moment    :      0.62528       0.47409      -0.69286
                        -----------------------------------------
Magnitude (a.u.)       :      1.04681
Magnitude (Debye)      :      2.66077

Rotational constants in cm-1:     0.258965     0.126500     0.098780
Rotational constants in MHz :  7763.584551  3792.383135  2961.336502

                             ****ORCA TERMINATED NORMALLY****
TOTAL RUN TIME: 0 days 0 hours 0 minutes 14 seconds 695 msec
