                         Program Version 5.0.0 -  RELEASE  -
|  1> !BLYP D3BJ RIJCOSX def2-TZVPD def2/J TightSCF xyzfile
|  2>
|  3> *xyzfile 0 1 B.xyz
|  4>
|  5> %MaxCore 64000
|  6>
|  7> %pal nprocs 4
|  8> end
|  9>
| 10> %scf
| 11>   MaxIter 150
| 12> end
| 13>
| 14>
| 15>                          ****END OF INPUT****

CARTESIAN COORDINATES (ANGSTROEM)
---------------------------------
  C      3.343500    3.354571   -3.591998
  C      2.952633    1.863077   -3.574849
  C      4.129209    0.898394   -3.418950
  H      3.733687   -0.100605   -3.237633
  H      4.719095    0.862556   -4.339005
  C      5.017344    1.315212   -2.221305
  C      4.255868    3.703851   -4.726054
  N      3.734032    4.293783   -5.800770
  N      5.515039    3.407255   -4.637185
  H      6.149187    3.601203   -5.399053
  H      5.813584    2.899504   -3.808785
  H      2.741380    4.513109   -5.824701
  H      4.287548    4.521260   -6.614341
  H      2.278938    1.735250   -2.725496
  H      2.377466    1.625787   -4.475869
  O      4.737055    0.854112   -1.122825
  O      5.928146    2.168108   -2.491365
  H      3.861246    3.597252   -2.662979
  H      2.446493    3.973461   -3.656556

 Total Charge           Charge          ....    0
 Multiplicity           Mult            ....    1
 Number of Electrons    NEL             ....   70
 Basis Dimension        Dim             ....  429

ORBITAL ENERGIES
----------------

  NO   OCC          E(Eh)            E(eV)
   0   2.0000     -18.686462      -508.4845
   1   2.0000     -18.672577      -508.1066
   2   2.0000     -14.101723      -383.7274
   3   2.0000     -14.062272      -382.6539
   4   2.0000     -10.056703      -273.6568
   5   2.0000      -9.947350      -270.6811
   6   2.0000      -9.947318      -270.6803
   7   2.0000      -9.923015      -270.0190
   8   2.0000      -9.883245      -268.9368
   9   2.0000      -0.952871       -25.9289
  10   2.0000      -0.899384       -24.4735
  11   2.0000      -0.864734       -23.5306
  12   2.0000      -0.816208       -22.2101
  13   2.0000      -0.742902       -20.2154
  14   2.0000      -0.663790       -18.0626
  15   2.0000      -0.611015       -16.6266
  16   2.0000      -0.568237       -15.4625
  17   2.0000      -0.561456       -15.2780
  18   2.0000      -0.526370       -14.3232
  19   2.0000      -0.488467       -13.2919
  20   2.0000      -0.446675       -12.1547
  21   2.0000      -0.428840       -11.6693
  22   2.0000      -0.411015       -11.1843
  23   2.0000      -0.393780       -10.7153
  24   2.0000      -0.373842       -10.1727
  25   2.0000      -0.346685        -9.4338
  26   2.0000      -0.331704        -9.0261
  27   2.0000      -0.322485        -8.7753
  28   2.0000      -0.317226        -8.6321
  29   2.0000      -0.293764        -7.9937
  30   2.0000      -0.286276        -7.7900
  31   2.0000      -0.282626        -7.6907
  32   2.0000      -0.180131        -4.9016
  33   2.0000      -0.168671        -4.5898
  34   2.0000      -0.145842        -3.9686
  35   0.0000      -0.083084        -2.2608
  36   0.0000      -0.064145        -1.7455
  37   0.0000      -0.026337        -0.7167
  38   0.0000      -0.007465        -0.2031
  39   0.0000       0.003878         0.1055

MULLIKEN ATOMIC CHARGES
-----------------------
   0 C :   -0.441915
   1 C :   -0.649669
   2 C :   -0.360587
   3 H :    0.233431
   4 H :    0.258418
   5 C :    0.475186
   6 C :    0.432213
   7 N :   -0.281670
   8 N :   -0.240306
   9 H :    0.115705
  10 H :    0.428946
  11 H :    0.185280
  12 H :    0.146317
  13 H :    0.286058
  14 H :    0.212463
  15 O :   -0.616374
  16 O :   -0.774065
  17 H :    0.320551
  18 H :    0.270019
Sum of atomic charges:    0.0000000

LOEWDIN ATOMIC CHARGES
----------------------
   0 C :   -0.102872
   1 C :   -0.170666
   2 C :   -0.126760
   3 H :    0.107660
   4 H :    0.097051
   5 C :   -0.706252
   6 C :   -0.371046
   7 N :    0.196616
   8 N :    0.239318
   9 H :    0.134792
  10 H :    0.018028
  11 H :    0.123932
  12 H :    0.119427
  13 H :    0.117773
  14 H :    0.105650
  15 O :    0.030591
  16 O :   -0.057802
  17 H :    0.130082
  18 H :    0.114476

  Mayer bond orders larger than 0.100000
B(  0-C ,  1-C ) :   0.7274 B(  0-C ,  6-C ) :   0.7185 B(  0-C , 17-H ) :   0.9115
B(  0-C , 18-H ) :   0.9837 B(  1-C ,  2-C ) :   0.8119 B(  1-C ,  5-C ) :   0.1097
B(  1-C ,  6-C ) :   0.1795 B(  1-C , 13-H ) :   0.9094 B(  1-C , 14-H ) :   0.9699
B(  2-C ,  3-H ) :   1.0048 B(  2-C ,  4-H ) :   0.9224 B(  2-C ,  5-C ) :   0.8563
B(  2-C ,  8-N ) :   0.1067 B(  5-C , 15-O ) :   1.5160 B(  5-C , 16-O ) :   1.2446
B(  6-C ,  7-N ) :   1.0231 B(  6-C ,  8-N ) :   1.3336 B(  7-N ,  8-N ) :   0.1220
B(  7-N , 11-H ) :   0.9897 B(  7-N , 12-H ) :   1.0340 B(  8-N ,  9-H ) :   1.0482
B(  8-N , 10-H ) :   0.6702

Dispersion correction           -0.038375268
FINAL SINGLE POINT ENERGY      -456.582127688663

DIPOLE MOMENT
-------------
                                X             Y             Z
Electronic contribution:      3.96134      -0.03925       2.74086
Nuclear contribution   :     -5.42217       2.65262      -7.07590
                        -----------------------------------------
Total Dipole Moment    :     -1.46083       2.61337      -4.33504
                        -----------------------------------------
Magnitude (a.u.)       :      5.26842
Magnitude (Debye)      :     13.39127

Rotational constants in cm-1:     0.107541     0.035862     0.030371
Rotational constants in MHz :  3223.996852  1075.120464   910.508313

                             ****ORCA TERMINATED NORMALLY****
TOTAL RUN TIME: 0 days 0 hours 0 minutes 36 seconds 636 msec
