                         Program Version 5.0.0 -  RELEASE  -
|  1> !BLYP D3BJ RIJCOSX def2-TZVPD def2/J TightSCF
|  2>
|  3> *xyz 0 1
|  4> C          2.95263        1.86308       -3.57485
|  5> C          4.12921        0.89839       -3.41895
|  6> H          3.73369       -0.10060       -3.23763
|  7> H          4.71910        0.86256       -4.33901
|  8> C          5.01734        1.31521       -2.22130
|  9> F          4.73706        0.85411       -1.12283
| 10> O          5.92815        2.16811       -2.49136
| 11> H          2.35067        1.56005       -4.40594
| 12> H          3.32277        2.85258       -3.74453
| 13> H          2.36134        1.85149       -2.68315
| 14> *
| 15> %MaxCore 64000
| 16>
| 17> %pal nprocs 4
| 18> end
| 19>
| 20> %scf
| 21>   MaxIter 150
| 22> end
| 23>
| 24>
| 25>                          ****END OF INPUT****

CARTESIAN COORDINATES (ANGSTROEM)
---------------------------------
  C      2.952630    1.863080   -3.574850
  C      4.129210    0.898390   -3.418950
  H      3.733690   -0.100600   -3.237630
  H      4.719100    0.862560   -4.339010
  C      5.017340    1.315210   -2.221300
  F      4.737060    0.854110   -1.122830
  O      5.928150    2.168110   -2.491360
  H      2.350670    1.560050   -4.405940
  H      3.322770    2.852580   -3.744530
  H      2.361340    1.851490   -2.683150

 Total Charge           Charge          ....    0
 Multiplicity           Mult            ....    1
 Number of Electrons    NEL             ....   40
 Basis Dimension        Dim             ....  236

ORBITAL ENERGIES
----------------

  NO   OCC          E(Eh)            E(eV)
   0   2.0000     -24.366877      -663.0564
   1   2.0000     -18.774185      -510.8715
   2   2.0000     -10.077547      -274.2240
   3   2.0000      -9.933676      -270.3091
   4   2.0000      -9.911437      -269.7039
   5   2.0000      -1.233638       -33.5690
   6   2.0000      -0.926465       -25.2104
   7   2.0000      -0.721257       -19.6264
   8   2.0000      -0.621509       -16.9121
   9   2.0000      -0.580164       -15.7871
  10   2.0000      -0.498777       -13.5724
  11   2.0000      -0.483072       -13.1451
  12   2.0000      -0.446466       -12.1490
  13   2.0000      -0.412303       -11.2193
  14   2.0000      -0.382889       -10.4189
  15   2.0000      -0.352232        -9.5847
  16   2.0000      -0.329876        -8.9764
  17   2.0000      -0.325563        -8.8590
  18   2.0000      -0.300002        -8.1635
  19   2.0000      -0.234176        -6.3723
  20   0.0000      -0.065038        -1.7698
  21   0.0000      -0.014917        -0.4059
  22   0.0000       0.013130         0.3573
  23   0.0000       0.023630         0.6430
  24   0.0000       0.032974         0.8973

MULLIKEN ATOMIC CHARGES
-----------------------
   0 C :   -1.235539
   1 C :   -0.110040
   2 H :    0.247044
   3 H :    0.236896
   4 C :    0.567049
   5 F :   -0.188693
   6 O :   -0.501604
   7 H :    0.291380
   8 H :    0.346433
   9 H :    0.347073
Sum of atomic charges:   -0.0000000

LOEWDIN ATOMIC CHARGES
----------------------
   0 C :   -0.083601
   1 C :   -0.154387
   2 H :    0.101951
   3 H :    0.113611
   4 C :   -0.520787
   5 F :    0.261682
   6 O :    0.072846
   7 H :    0.066465
   8 H :    0.072614
   9 H :    0.069606

  Mayer bond orders larger than 0.100000
B(  0-C ,  1-C ) :   0.5404 B(  0-C ,  4-C ) :   0.1239 B(  0-C ,  7-H ) :   0.9581
B(  0-C ,  8-H ) :   0.9606 B(  0-C ,  9-H ) :   0.9212 B(  1-C ,  2-H ) :   0.9623
B(  1-C ,  3-H ) :   0.9760 B(  1-C ,  4-C ) :   0.8455 B(  4-C ,  5-F ) :   1.0350
B(  4-C ,  6-O ) :   1.6849

Dispersion correction           -0.012840765
FINAL SINGLE POINT ENERGY      -292.443693173366

DIPOLE MOMENT
-------------
                                X             Y             Z
Electronic contribution:      5.07939      -1.15946       6.53589
Nuclear contribution   :     -6.06116       0.51860      -6.80802
                        -----------------------------------------
Total Dipole Moment    :     -0.98177      -0.64086      -0.27213
                        -----------------------------------------
Magnitude (a.u.)       :      1.20359
Magnitude (Debye)      :      3.05927

Rotational constants in cm-1:     0.276196     0.132056     0.105465
Rotational constants in MHz :  8280.156449  3958.940601  3161.775929

                             ****ORCA TERMINATED NORMALLY****
TOTAL RUN TIME: 0 days 0 hours 0 minutes 10 seconds 688 msec
