                         Program Version 5.0.0 -  RELEASE  -
|  1> !BLYP D3BJ RIJCOSX def2-TZVPD def2/J TightSCF
|  2>
|  3> *xyz 0 1
|  4> C          3.34350        3.35457       -3.59200
|  5> C          2.95263        1.86308       -3.57485
|  6> C          4.25587        3.70385       -4.72605
|  7> C          3.73403        4.29378       -5.80077
|  8> N          5.51504        3.40725       -4.63718
|  9> H          6.14919        3.60120       -5.39905
| 10> H          5.81358        2.89950       -3.80879
| 11> H          2.74138        4.51311       -5.82470
| 12> H          4.28755        4.52126       -6.61434
| 13> H          3.86125        3.59725       -2.66298
| 14> H          2.44649        3.97346       -3.65656
| 15> H          2.44395        1.61721       -4.48352
| 16> H          2.30781        1.67290       -2.74242
| 17> H          3.83491        1.26414       -3.48670
| 18> *
| 19> %MaxCore 64000
| 20>
| 21> %pal nprocs 4
| 22> end
| 23>
| 24> %scf
| 25>   MaxIter 150
| 26> end
| 27>
| 28>
| 29>                          ****END OF INPUT****

CARTESIAN COORDINATES (ANGSTROEM)
---------------------------------
  C      3.343500    3.354570   -3.592000
  C      2.952630    1.863080   -3.574850
  C      4.255870    3.703850   -4.726050
  C      3.734030    4.293780   -5.800770
  N      5.515040    3.407250   -4.637180
  H      6.149190    3.601200   -5.399050
  H      5.813580    2.899500   -3.808790
  H      2.741380    4.513110   -5.824700
  H      4.287550    4.521260   -6.614340
  H      3.861250    3.597250   -2.662980
  H      2.446490    3.973460   -3.656560
  H      2.443950    1.617210   -4.483520
  H      2.307810    1.672900   -2.742420
  H      3.834910    1.264140   -3.486700

 Total Charge           Charge          ....    0
 Multiplicity           Mult            ....    1
 Number of Electrons    NEL             ....   40
 Basis Dimension        Dim             ....  266

ORBITAL ENERGIES
----------------

  NO   OCC          E(Eh)            E(eV)
   0   2.0000     -14.010706      -381.2507
   1   2.0000      -9.919601      -269.9261
   2   2.0000      -9.902998      -269.4743
   3   2.0000      -9.889588      -269.1094
   4   2.0000      -9.836093      -267.6537
   5   2.0000      -0.850433       -23.1415
   6   2.0000      -0.698746       -19.0139
   7   2.0000      -0.638025       -17.3615
   8   2.0000      -0.567804       -15.4507
   9   2.0000      -0.510182       -13.8828
  10   2.0000      -0.477486       -12.9931
  11   2.0000      -0.424157       -11.5419
  12   2.0000      -0.386994       -10.5306
  13   2.0000      -0.370226       -10.0744
  14   2.0000      -0.344224        -9.3668
  15   2.0000      -0.334213        -9.0944
  16   2.0000      -0.309226        -8.4145
  17   2.0000      -0.289402        -7.8750
  18   2.0000      -0.285693        -7.7741
  19   2.0000      -0.152976        -4.1627
  20   0.0000      -0.017407        -0.4737
  21   0.0000       0.008507         0.2315
  22   0.0000       0.018516         0.5039
  23   0.0000       0.024165         0.6576
  24   0.0000       0.032522         0.8850

MULLIKEN ATOMIC CHARGES
-----------------------
   0 C :   -0.477437
   1 C :   -1.129526
   2 C :    0.835394
   3 C :   -1.259760
   4 N :   -0.298602
   5 H :    0.137211
   6 H :    0.146968
   7 H :    0.279828
   8 H :    0.305909
   9 H :    0.284596
  10 H :    0.214544
  11 H :    0.335079
  12 H :    0.310410
  13 H :    0.315387
Sum of atomic charges:    0.0000000

LOEWDIN ATOMIC CHARGES
----------------------
   0 C :   -0.196595
   1 C :   -0.082428
   2 C :   -0.509257
   3 C :    0.028615
   4 N :    0.122126
   5 H :    0.112819
   6 H :    0.108330
   7 H :    0.015039
   8 H :    0.010250
   9 H :    0.103767
  10 H :    0.105921
  11 H :    0.066787
  12 H :    0.058322
  13 H :    0.056304

  Mayer bond orders larger than 0.100000
B(  0-C ,  1-C ) :   0.5762 B(  0-C ,  2-C ) :   0.6548 B(  0-C ,  9-H ) :   0.9756
B(  0-C , 10-H ) :   0.9977 B(  1-C , 11-H ) :   0.9774 B(  1-C , 12-H ) :   0.9575
B(  1-C , 13-H ) :   0.9394 B(  2-C ,  3-C ) :   1.0753 B(  2-C ,  4-N ) :   0.9992
B(  2-C ,  8-H ) :  -0.1011 B(  3-C ,  4-N ) :   0.1149 B(  3-C ,  7-H ) :   0.9841
B(  3-C ,  8-H ) :   1.0221 B(  4-N ,  5-H ) :   1.0201 B(  4-N ,  6-H ) :   1.0181

Dispersion correction           -0.021432508
FINAL SINGLE POINT ENERGY      -212.552665453991

DIPOLE MOMENT
-------------
                                X             Y             Z
Electronic contribution:      2.33849       1.48671      -0.86753
Nuclear contribution   :     -1.79713      -1.86925       1.28073
                        -----------------------------------------
Total Dipole Moment    :      0.54137      -0.38253       0.41321
                        -----------------------------------------
Magnitude (a.u.)       :      0.78112
Magnitude (Debye)      :      1.98545

Rotational constants in cm-1:     0.269040     0.129645     0.102087
Rotational constants in MHz :  8065.609820  3886.645139  3060.489045

                             ****ORCA TERMINATED NORMALLY****
TOTAL RUN TIME: 0 days 0 hours 0 minutes 14 seconds 371 msec
