                         Program Version 5.0.0 -  RELEASE  -
|  1> !BLYP D3BJ RIJCOSX def2-TZVPD def2/J TightSCF
|  2>
|  3> *xyz 0 1
|  4> C          2.95263        1.86308       -3.57485
|  5> C          4.12921        0.89839       -3.41895
|  6> H          3.73369       -0.10060       -3.23763
|  7> H          4.71910        0.86256       -4.33901
|  8> C          5.01734        1.31521       -2.22130
|  9> O          4.73706        0.85411       -1.12283
| 10> F          5.92815        2.16811       -2.49136
| 11> H          2.35067        1.56005       -4.40594
| 12> H          3.32277        2.85258       -3.74453
| 13> H          2.36134        1.85149       -2.68315
| 14> *
| 15> %MaxCore 64000
| 16>
| 17> %pal nprocs 4
| 18> end
| 19>
| 20> %scf
| 21>   MaxIter 150
| 22> end
| 23>
| 24>
| 25>                          ****END OF INPUT****

CARTESIAN COORDINATES (ANGSTROEM)
---------------------------------
  C      2.952630    1.863080   -3.574850
  C      4.129210    0.898390   -3.418950
  H      3.733690   -0.100600   -3.237630
  H      4.719100    0.862560   -4.339010
  C      5.017340    1.315210   -2.221300
  O      4.737060    0.854110   -1.122830
  F      5.928150    2.168110   -2.491360
  H      2.350670    1.560050   -4.405940
  H      3.322770    2.852580   -3.744530
  H      2.361340    1.851490   -2.683150

 Total Charge           Charge          ....    0
 Multiplicity           Mult            ....    1
 Number of Electrons    NEL             ....   40
 Basis Dimension        Dim             ....  236

ORBITAL ENERGIES
----------------

  NO   OCC          E(Eh)            E(eV)
   0   2.0000     -24.346506      -662.5021
   1   2.0000     -18.782825      -511.1066
   2   2.0000     -10.073162      -274.1047
   3   2.0000      -9.933357      -270.3004
   4   2.0000      -9.911729      -269.7119
   5   2.0000      -1.194291       -32.4983
   6   2.0000      -0.958613       -26.0852
   7   2.0000      -0.721064       -19.6211
   8   2.0000      -0.611089       -16.6286
   9   2.0000      -0.568425       -15.4676
  10   2.0000      -0.480250       -13.0683
  11   2.0000      -0.465196       -12.6586
  12   2.0000      -0.444429       -12.0935
  13   2.0000      -0.411074       -11.1859
  14   2.0000      -0.384698       -10.4682
  15   2.0000      -0.354300        -9.6410
  16   2.0000      -0.336467        -9.1557
  17   2.0000      -0.326123        -8.8743
  18   2.0000      -0.315292        -8.5795
  19   2.0000      -0.246016        -6.6944
  20   0.0000      -0.060180        -1.6376
  21   0.0000      -0.014260        -0.3880
  22   0.0000       0.013337         0.3629
  23   0.0000       0.024603         0.6695
  24   0.0000       0.032881         0.8947

MULLIKEN ATOMIC CHARGES
-----------------------
   0 C :   -1.232965
   1 C :   -0.115013
   2 H :    0.227890
   3 H :    0.257169
   4 C :    0.545067
   5 O :   -0.445248
   6 F :   -0.220243
   7 H :    0.290172
   8 H :    0.344383
   9 H :    0.348788
Sum of atomic charges:   -0.0000000

LOEWDIN ATOMIC CHARGES
----------------------
   0 C :   -0.083511
   1 C :   -0.152438
   2 H :    0.110176
   3 H :    0.106208
   4 C :   -0.514159
   5 O :    0.125874
   6 F :    0.199059
   7 H :    0.066467
   8 H :    0.069227
   9 H :    0.073098

  Mayer bond orders larger than 0.100000
B(  0-C ,  1-C ) :   0.5419 B(  0-C ,  4-C ) :   0.1200 B(  0-C ,  7-H ) :   0.9584
B(  0-C ,  8-H ) :   0.9238 B(  0-C ,  9-H ) :   0.9576 B(  1-C ,  2-H ) :   0.9843
B(  1-C ,  3-H ) :   0.9521 B(  1-C ,  4-C ) :   0.8408 B(  4-C ,  5-O ) :   1.7534
B(  4-C ,  6-F ) :   0.9744

Dispersion correction           -0.012839962
FINAL SINGLE POINT ENERGY      -292.459347976709

DIPOLE MOMENT
-------------
                                X             Y             Z
Electronic contribution:      7.04540       1.01101       4.26615
Nuclear contribution   :     -7.35982      -0.91407      -5.31589
                        -----------------------------------------
Total Dipole Moment    :     -0.31442       0.09693      -1.04974
                        -----------------------------------------
Magnitude (a.u.)       :      1.10010
Magnitude (Debye)      :      2.79622

Rotational constants in cm-1:     0.275433     0.132201     0.105422
Rotational constants in MHz :  8257.268192  3963.279062  3160.465566

                             ****ORCA TERMINATED NORMALLY****
TOTAL RUN TIME: 0 days 0 hours 0 minutes 11 seconds 939 msec
