                         Program Version 5.0.0 -  RELEASE  -
|  1> !BLYP D3BJ RIJCOSX def2-TZVPD def2/J TightSCF
|  2>
|  3> *xyz 0 1
|  4> C          3.34350        3.35457       -3.59200
|  5> C          2.95263        1.86308       -3.57485
|  6> C          4.25587        3.70385       -4.72605
|  7> N          3.73403        4.29378       -5.80077
|  8> C          5.51504        3.40725       -4.63718
|  9> H          6.14919        3.60120       -5.39905
| 10> H          5.81358        2.89950       -3.80879
| 11> H          2.74138        4.51311       -5.82470
| 12> H          4.28755        4.52126       -6.61434
| 13> H          3.86125        3.59725       -2.66298
| 14> H          2.44649        3.97346       -3.65656
| 15> H          2.44395        1.61721       -4.48352
| 16> H          2.30781        1.67290       -2.74242
| 17> H          3.83491        1.26414       -3.48670
| 18> *
| 19> %MaxCore 64000
| 20>
| 21> %pal nprocs 4
| 22> end
| 23>
| 24> %scf
| 25>   MaxIter 150
| 26> end
| 27>
| 28>
| 29>                          ****END OF INPUT****

CARTESIAN COORDINATES (ANGSTROEM)
---------------------------------
  C      3.343500    3.354570   -3.592000
  C      2.952630    1.863080   -3.574850
  C      4.255870    3.703850   -4.726050
  N      3.734030    4.293780   -5.800770
  C      5.515040    3.407250   -4.637180
  H      6.149190    3.601200   -5.399050
  H      5.813580    2.899500   -3.808790
  H      2.741380    4.513110   -5.824700
  H      4.287550    4.521260   -6.614340
  H      3.861250    3.597250   -2.662980
  H      2.446490    3.973460   -3.656560
  H      2.443950    1.617210   -4.483520
  H      2.307810    1.672900   -2.742420
  H      3.834910    1.264140   -3.486700

 Total Charge           Charge          ....    0
 Multiplicity           Mult            ....    1
 Number of Electrons    NEL             ....   40
 Basis Dimension        Dim             ....  266

ORBITAL ENERGIES
----------------

  NO   OCC          E(Eh)            E(eV)
   0   2.0000     -14.007094      -381.1524
   1   2.0000      -9.917321      -269.8640
   2   2.0000      -9.902720      -269.4667
   3   2.0000      -9.887561      -269.0542
   4   2.0000      -9.834258      -267.6038
   5   2.0000      -0.836408       -22.7598
   6   2.0000      -0.701164       -19.0796
   7   2.0000      -0.641583       -17.4583
   8   2.0000      -0.568635       -15.4734
   9   2.0000      -0.504361       -13.7244
  10   2.0000      -0.466163       -12.6849
  11   2.0000      -0.427548       -11.6342
  12   2.0000      -0.388267       -10.5653
  13   2.0000      -0.363912        -9.9025
  14   2.0000      -0.344678        -9.3792
  15   2.0000      -0.335104        -9.1187
  16   2.0000      -0.305120        -8.3027
  17   2.0000      -0.293651        -7.9907
  18   2.0000      -0.281288        -7.6542
  19   2.0000      -0.156455        -4.2573
  20   0.0000      -0.015459        -0.4207
  21   0.0000       0.008162         0.2221
  22   0.0000       0.018694         0.5087
  23   0.0000       0.024571         0.6686
  24   0.0000       0.034224         0.9313

MULLIKEN ATOMIC CHARGES
-----------------------
   0 C :   -0.449297
   1 C :   -1.142158
   2 C :    0.850238
   3 N :   -0.321195
   4 C :   -1.257432
   5 H :    0.320674
   6 H :    0.295730
   7 H :    0.141295
   8 H :    0.116426
   9 H :    0.235060
  10 H :    0.256538
  11 H :    0.319743
  12 H :    0.304784
  13 H :    0.329593
Sum of atomic charges:   -0.0000000

LOEWDIN ATOMIC CHARGES
----------------------
   0 C :   -0.195314
   1 C :   -0.081240
   2 C :   -0.497371
   3 N :    0.115306
   4 C :    0.018324
   5 H :    0.021089
   6 H :    0.028248
   7 H :    0.097298
   8 H :    0.101687
   9 H :    0.108202
  10 H :    0.099953
  11 H :    0.064129
  12 H :    0.057663
  13 H :    0.062025

  Mayer bond orders larger than 0.100000
B(  0-C ,  1-C ) :   0.5632 B(  0-C ,  2-C ) :   0.6251 B(  0-C ,  9-H ) :   0.9739
B(  0-C , 10-H ) :   1.0292 B(  1-C , 11-H ) :   0.9534 B(  1-C , 12-H ) :   0.9544
B(  1-C , 13-H ) :   0.9554 B(  2-C ,  3-N ) :   0.8841 B(  2-C ,  4-C ) :   1.1778
B(  2-C , 10-H ) :  -0.1017 B(  3-N ,  4-C ) :   0.1212 B(  3-N ,  7-H ) :   1.0371
B(  3-N ,  8-H ) :   1.0581 B(  4-C ,  5-H ) :   0.9913 B(  4-C ,  6-H ) :   0.9644

Dispersion correction           -0.021459751
FINAL SINGLE POINT ENERGY      -212.552891300364

DIPOLE MOMENT
-------------
                                X             Y             Z
Electronic contribution:      0.78994       2.27351      -1.86907
Nuclear contribution   :     -1.38463      -2.07457       1.55023
                        -----------------------------------------
Total Dipole Moment    :     -0.59469       0.19893      -0.31884
                        -----------------------------------------
Magnitude (a.u.)       :      0.70348
Magnitude (Debye)      :      1.78811

Rotational constants in cm-1:     0.272312     0.128195     0.101724
Rotational constants in MHz :  8163.717141  3843.180148  3049.598073

                             ****ORCA TERMINATED NORMALLY****
TOTAL RUN TIME: 0 days 0 hours 0 minutes 17 seconds 159 msec
