                         Program Version 5.0.0 -  RELEASE  -
|  1> !BLYP D3BJ RIJCOSX def2-TZVPD def2/J TightSCF xyzfile
|  2>
|  3> *xyzfile 0 1 D1.xyz
|  4>
|  5> %MaxCore 64000
|  6>
|  7> %pal nprocs 4
|  8> end
|  9>
| 10> %scf
| 11>   MaxIter 150
| 12> end
| 13>
| 14>
| 15>                          ****END OF INPUT****

CARTESIAN COORDINATES (ANGSTROEM)
---------------------------------
  C      3.343500    3.354571   -3.591998
  C      2.952633    1.863077   -3.574849
  C      4.129209    0.898394   -3.418950
  H      3.733687   -0.100605   -3.237633
  H      4.719095    0.862556   -4.339005
  C      5.017344    1.315212   -2.221305
  C      4.255868    3.703851   -4.726054
  C      3.734032    4.293783   -5.800770
  N      5.515039    3.407255   -4.637185
  H      6.149187    3.601203   -5.399053
  H      5.813584    2.899504   -3.808785
  H      2.741380    4.513109   -5.824701
  H      4.287548    4.521260   -6.614341
  H      2.278938    1.735250   -2.725496
  H      2.377466    1.625787   -4.475869
  F      4.737055    0.854112   -1.122825
  O      5.928146    2.168108   -2.491365
  H      3.861246    3.597252   -2.662979
  H      2.446493    3.973461   -3.656556

 Total Charge           Charge          ....    0
 Multiplicity           Mult            ....    1
 Number of Electrons    NEL             ....   70
 Basis Dimension        Dim             ....  429

ORBITAL ENERGIES
----------------

  NO   OCC          E(Eh)            E(eV)
   0   2.0000     -24.388185      -663.6362
   1   2.0000     -18.802166      -511.6329
   2   2.0000     -13.973903      -380.2492
   3   2.0000     -10.104254      -274.9507
   4   2.0000      -9.942869      -270.5592
   5   2.0000      -9.926366      -270.1101
   6   2.0000      -9.910088      -269.6672
   7   2.0000      -9.905647      -269.5464
   8   2.0000      -9.826570      -267.3946
   9   2.0000      -1.254310       -34.1315
  10   2.0000      -0.964176       -26.2366
  11   2.0000      -0.829450       -22.5705
  12   2.0000      -0.741937       -20.1891
  13   2.0000      -0.674322       -18.3492
  14   2.0000      -0.636969       -17.3328
  15   2.0000      -0.608226       -16.5507
  16   2.0000      -0.563853       -15.3432
  17   2.0000      -0.519813       -14.1448
  18   2.0000      -0.510872       -13.9015
  19   2.0000      -0.489917       -13.3313
  20   2.0000      -0.484395       -13.1810
  21   2.0000      -0.448787       -12.2121
  22   2.0000      -0.429129       -11.6772
  23   2.0000      -0.406603       -11.0642
  24   2.0000      -0.392455       -10.6792
  25   2.0000      -0.377522       -10.2729
  26   2.0000      -0.345686        -9.4066
  27   2.0000      -0.337924        -9.1954
  28   2.0000      -0.328595        -8.9415
  29   2.0000      -0.326060        -8.8725
  30   2.0000      -0.313922        -8.5423
  31   2.0000      -0.284235        -7.7344
  32   2.0000      -0.277075        -7.5396
  33   2.0000      -0.257646        -7.0109
  34   2.0000      -0.139843        -3.8053
  35   0.0000      -0.090255        -2.4560
  36   0.0000      -0.020195        -0.5495
  37   0.0000       0.003563         0.0970
  38   0.0000       0.010253         0.2790
  39   0.0000       0.011589         0.3153

MULLIKEN ATOMIC CHARGES
-----------------------
   0 C :   -0.474295
   1 C :   -0.599658
   2 C :   -0.353469
   3 H :    0.265062
   4 H :    0.292503
   5 C :    0.560810
   6 C :    0.607881
   7 C :   -1.290825
   8 N :   -0.338897
   9 H :    0.060481
  10 H :    0.408975
  11 H :    0.297135
  12 H :    0.317526
  13 H :    0.238425
  14 H :    0.270786
  15 F :   -0.208153
  16 O :   -0.585235
  17 H :    0.301728
  18 H :    0.229219
Sum of atomic charges:    0.0000000

LOEWDIN ATOMIC CHARGES
----------------------
   0 C :   -0.138641
   1 C :   -0.167895
   2 C :   -0.089480
   3 H :    0.110356
   4 H :    0.120379
   5 C :   -0.462828
   6 C :   -0.487511
   7 C :    0.024560
   8 N :    0.132793
   9 H :    0.116840
  10 H :    0.013015
  11 H :    0.009699
  12 H :    0.008870
  13 H :    0.107978
  14 H :    0.119406
  15 F :    0.285864
  16 O :    0.071924
  17 H :    0.109913
  18 H :    0.114757

  Mayer bond orders larger than 0.100000
B(  0-C ,  1-C ) :   0.7625 B(  0-C ,  2-C ) :  -0.1074 B(  0-C ,  6-C ) :   0.7196
B(  0-C , 17-H ) :   0.8512 B(  0-C , 18-H ) :   1.0508 B(  1-C ,  2-C ) :   0.8056
B(  1-C ,  5-C ) :   0.1415 B(  1-C ,  6-C ) :   0.1144 B(  1-C , 13-H ) :   0.9365
B(  1-C , 14-H ) :   0.9254 B(  2-C ,  3-H ) :   0.9796 B(  2-C ,  4-H ) :   0.9408
B(  2-C ,  5-C ) :   0.8627 B(  2-C ,  8-N ) :   0.1652 B(  5-C , 15-F ) :   1.0235
B(  5-C , 16-O ) :   1.6072 B(  6-C ,  7-C ) :   1.1235 B(  6-C ,  8-N ) :   1.0060
B(  7-C ,  8-N ) :   0.1365 B(  7-C , 11-H ) :   1.0182 B(  7-C , 12-H ) :   0.9942
B(  8-N ,  9-H ) :   1.0771 B(  8-N , 10-H ) :   0.7688

Dispersion correction           -0.038462817
FINAL SINGLE POINT ENERGY      -464.492674360801

DIPOLE MOMENT
-------------
                                X             Y             Z
Electronic contribution:      5.57857      -5.91643      10.55476
Nuclear contribution   :     -5.86483       4.68058     -10.07545
                        -----------------------------------------
Total Dipole Moment    :     -0.28626      -1.23585       0.47931
                        -----------------------------------------
Magnitude (a.u.)       :      1.35610
Magnitude (Debye)      :      3.44693

Rotational constants in cm-1:     0.107256     0.035474     0.030113
Rotational constants in MHz :  3215.453922  1063.481574   902.777619

                             ****ORCA TERMINATED NORMALLY****
TOTAL RUN TIME: 0 days 0 hours 0 minutes 31 seconds 800 msec
