                         Program Version 5.0.0 -  RELEASE  -
|  1> !BLYP D3BJ RIJCOSX def2-TZVPD def2/J TightSCF xyzfile
|  2>
|  3> *xyzfile 0 1 D2.xyz
|  4>
|  5> %MaxCore 64000
|  6>
|  7> %pal nprocs 4
|  8> end
|  9>
| 10> %scf
| 11>   MaxIter 150
| 12> end
| 13>
| 14>
| 15>                          ****END OF INPUT****

CARTESIAN COORDINATES (ANGSTROEM)
---------------------------------
  C      3.343500    3.354571   -3.591998
  C      2.952633    1.863077   -3.574849
  C      4.129209    0.898394   -3.418950
  H      3.733687   -0.100605   -3.237633
  H      4.719095    0.862556   -4.339005
  C      5.017344    1.315212   -2.221305
  C      4.255868    3.703851   -4.726054
  N      3.734032    4.293783   -5.800770
  C      5.515039    3.407255   -4.637185
  H      6.149187    3.601203   -5.399053
  H      5.813584    2.899504   -3.808785
  H      2.741380    4.513109   -5.824701
  H      4.287548    4.521260   -6.614341
  H      2.278938    1.735250   -2.725496
  H      2.377466    1.625787   -4.475869
  F      4.737055    0.854112   -1.122825
  O      5.928146    2.168108   -2.491365
  H      3.861246    3.597252   -2.662979
  H      2.446493    3.973461   -3.656556

 Total Charge           Charge          ....    0
 Multiplicity           Mult            ....    1
 Number of Electrons    NEL             ....   70
 Basis Dimension        Dim             ....  429

ORBITAL ENERGIES
----------------

  NO   OCC          E(Eh)            E(eV)
   0   2.0000     -24.369386      -663.1247
   1   2.0000     -18.776039      -510.9220
   2   2.0000     -13.998551      -380.9199
   3   2.0000     -10.082099      -274.3479
   4   2.0000      -9.930094      -270.2116
   5   2.0000      -9.922572      -270.0069
   6   2.0000      -9.906348      -269.5654
   7   2.0000      -9.905467      -269.5415
   8   2.0000      -9.805247      -266.8143
   9   2.0000      -1.236108       -33.6362
  10   2.0000      -0.939035       -25.5524
  11   2.0000      -0.828612       -22.5477
  12   2.0000      -0.735586       -20.0163
  13   2.0000      -0.672314       -18.2946
  14   2.0000      -0.627070       -17.0635
  15   2.0000      -0.607034       -16.5182
  16   2.0000      -0.554139       -15.0789
  17   2.0000      -0.509706       -13.8698
  18   2.0000      -0.498145       -13.5552
  19   2.0000      -0.480353       -13.0711
  20   2.0000      -0.470722       -12.8090
  21   2.0000      -0.442058       -12.0290
  22   2.0000      -0.423546       -11.5253
  23   2.0000      -0.410995       -11.1837
  24   2.0000      -0.393782       -10.7153
  25   2.0000      -0.363574        -9.8933
  26   2.0000      -0.343192        -9.3387
  27   2.0000      -0.341487        -9.2923
  28   2.0000      -0.316949        -8.6246
  29   2.0000      -0.309313        -8.4168
  30   2.0000      -0.303236        -8.2515
  31   2.0000      -0.280637        -7.6365
  32   2.0000      -0.274041        -7.4570
  33   2.0000      -0.219186        -5.9644
  34   2.0000      -0.145082        -3.9479
  35   0.0000      -0.070883        -1.9288
  36   0.0000      -0.017829        -0.4852
  37   0.0000      -0.000966        -0.0263
  38   0.0000       0.007172         0.1952
  39   0.0000       0.014863         0.4044

MULLIKEN ATOMIC CHARGES
-----------------------
   0 C :   -0.544845
   1 C :   -0.582232
   2 C :   -0.373957
   3 H :    0.268505
   4 H :    0.361916
   5 C :    0.482290
   6 C :    0.740834
   7 N :   -0.331894
   8 C :   -1.542738
   9 H :    0.252336
  10 H :    0.765294
  11 H :    0.139087
  12 H :    0.116173
  13 H :    0.240007
  14 H :    0.241577
  15 F :   -0.222955
  16 O :   -0.535576
  17 H :    0.247702
  18 H :    0.278474
Sum of atomic charges:    0.0000000

LOEWDIN ATOMIC CHARGES
----------------------
   0 C :   -0.135866
   1 C :   -0.169758
   2 C :   -0.090852
   3 H :    0.108308
   4 H :    0.118703
   5 C :   -0.472406
   6 C :   -0.467719
   7 N :    0.110205
   8 C :    0.033223
   9 H :    0.033239
  10 H :   -0.041835
  11 H :    0.092500
  12 H :    0.100040
  13 H :    0.107320
  14 H :    0.115536
  15 F :    0.274805
  16 O :    0.063291
  17 H :    0.112703
  18 H :    0.108564

  Mayer bond orders larger than 0.100000
B(  0-C ,  1-C ) :   0.7748 B(  0-C ,  2-C ) :  -0.1155 B(  0-C ,  6-C ) :   0.6409
B(  0-C , 17-H ) :   0.9145 B(  0-C , 18-H ) :   1.0340 B(  1-C ,  2-C ) :   0.7960
B(  1-C ,  5-C ) :   0.1562 B(  1-C , 13-H ) :   0.9321 B(  1-C , 14-H ) :   0.9526
B(  2-C ,  3-H ) :   0.9715 B(  2-C ,  4-H ) :   0.9128 B(  2-C ,  5-C ) :   0.8497
B(  2-C ,  8-C ) :   0.1414 B(  5-C , 15-F ) :   1.0092 B(  5-C , 16-O ) :   1.6933
B(  6-C ,  7-N ) :   0.8281 B(  6-C ,  8-C ) :   0.9728 B(  6-C ,  9-H ) :  -0.1324
B(  6-C , 18-H ) :  -0.1094 B(  7-N ,  8-C ) :   0.1159 B(  7-N , 11-H ) :   1.0528
B(  7-N , 12-H ) :   1.0564 B(  8-C ,  9-H ) :   1.2014 B(  8-C , 10-H ) :   0.6652
B(  8-C , 16-O ) :   0.1356 B( 10-H , 16-O ) :  -0.3803

Dispersion correction           -0.038743619
FINAL SINGLE POINT ENERGY      -464.468130535895

DIPOLE MOMENT
-------------
                                X             Y             Z
Electronic contribution:      4.34341      -5.09235       9.55158
Nuclear contribution   :     -5.64491       4.57111      -9.93176
                        -----------------------------------------
Total Dipole Moment    :     -1.30150      -0.52124      -0.38019
                        -----------------------------------------
Magnitude (a.u.)       :      1.45263
Magnitude (Debye)      :      3.69229

Rotational constants in cm-1:     0.109825     0.034347     0.029470
Rotational constants in MHz :  3292.465653  1029.684117   883.494260

                             ****ORCA TERMINATED NORMALLY****
TOTAL RUN TIME: 0 days 0 hours 0 minutes 31 seconds 696 msec
