                         Program Version 5.0.0 -  RELEASE  -
|  1> !BLYP D3BJ RIJCOSX def2-TZVPD def2/J TightSCF xyzfile
|  2>
|  3> *xyzfile 0 1 D3.xyz
|  4>
|  5> %MaxCore 64000
|  6>
|  7> %pal nprocs 4
|  8> end
|  9>
| 10> %scf
| 11>   MaxIter 150
| 12> end
| 13>
| 14>
| 15>                          ****END OF INPUT****

CARTESIAN COORDINATES (ANGSTROEM)
---------------------------------
  C      3.343500    3.354571   -3.591998
  C      2.952633    1.863077   -3.574849
  C      4.129209    0.898394   -3.418950
  H      3.733687   -0.100605   -3.237633
  H      4.719095    0.862556   -4.339005
  C      5.017344    1.315212   -2.221305
  C      4.255868    3.703851   -4.726054
  C      3.734032    4.293783   -5.800770
  N      5.515039    3.407255   -4.637185
  H      6.149187    3.601203   -5.399053
  H      5.813584    2.899504   -3.808785
  H      2.741380    4.513109   -5.824701
  H      4.287548    4.521260   -6.614341
  H      2.278938    1.735250   -2.725496
  H      2.377466    1.625787   -4.475869
  O      4.737055    0.854112   -1.122825
  F      5.928146    2.168108   -2.491365
  H      3.861246    3.597252   -2.662979
  H      2.446493    3.973461   -3.656556

 Total Charge           Charge          ....    0
 Multiplicity           Mult            ....    1
 Number of Electrons    NEL             ....   70
 Basis Dimension        Dim             ....  429

ORBITAL ENERGIES
----------------

  NO   OCC          E(Eh)            E(eV)
   0   2.0000     -24.376939      -663.3302
   1   2.0000     -18.799474      -511.5597
   2   2.0000     -13.999666      -380.9503
   3   2.0000     -10.090347      -274.5723
   4   2.0000      -9.939423      -270.4654
   5   2.0000      -9.925505      -270.0867
   6   2.0000      -9.923223      -270.0246
   7   2.0000      -9.914226      -269.7798
   8   2.0000      -9.839354      -267.7424
   9   2.0000      -1.230579       -33.4857
  10   2.0000      -0.975123       -26.5344
  11   2.0000      -0.850725       -23.1494
  12   2.0000      -0.742350       -20.2004
  13   2.0000      -0.680152       -18.5079
  14   2.0000      -0.644959       -17.5502
  15   2.0000      -0.609183       -16.5767
  16   2.0000      -0.572249       -15.5717
  17   2.0000      -0.523378       -14.2419
  18   2.0000      -0.508074       -13.8254
  19   2.0000      -0.490633       -13.3508
  20   2.0000      -0.468300       -12.7431
  21   2.0000      -0.448295       -12.1987
  22   2.0000      -0.429887       -11.6978
  23   2.0000      -0.416819       -11.3422
  24   2.0000      -0.396212       -10.7815
  25   2.0000      -0.372363       -10.1325
  26   2.0000      -0.354360        -9.6426
  27   2.0000      -0.348075        -9.4716
  28   2.0000      -0.338849        -9.2205
  29   2.0000      -0.331185        -9.0120
  30   2.0000      -0.317433        -8.6378
  31   2.0000      -0.292570        -7.9612
  32   2.0000      -0.289559        -7.8793
  33   2.0000      -0.259843        -7.0707
  34   2.0000      -0.154899        -4.2150
  35   0.0000      -0.077004        -2.0954
  36   0.0000      -0.017998        -0.4898
  37   0.0000      -0.001062        -0.0289
  38   0.0000       0.007251         0.1973
  39   0.0000       0.009272         0.2523

MULLIKEN ATOMIC CHARGES
-----------------------
   0 C :   -0.542248
   1 C :   -0.565043
   2 C :   -0.338911
   3 H :    0.227542
   4 H :    0.320675
   5 C :    0.508756
   6 C :    0.675275
   7 C :   -1.279003
   8 N :   -0.372128
   9 H :    0.063533
  10 H :    0.437906
  11 H :    0.297448
  12 H :    0.311928
  13 H :    0.249107
  14 H :    0.275602
  15 O :   -0.458248
  16 F :   -0.328302
  17 H :    0.287273
  18 H :    0.228838
Sum of atomic charges:    0.0000000

LOEWDIN ATOMIC CHARGES
----------------------
   0 C :   -0.136858
   1 C :   -0.166914
   2 C :   -0.096131
   3 H :    0.117434
   4 H :    0.112129
   5 C :   -0.488970
   6 C :   -0.486185
   7 C :    0.033030
   8 N :    0.134530
   9 H :    0.120100
  10 H :    0.045659
  11 H :    0.014498
  12 H :    0.011636
  13 H :    0.112562
  14 H :    0.118588
  15 O :    0.148920
  16 F :    0.177996
  17 H :    0.111595
  18 H :    0.116382

  Mayer bond orders larger than 0.100000
B(  0-C ,  1-C ) :   0.7598 B(  0-C ,  6-C ) :   0.6844 B(  0-C , 17-H ) :   0.8786
B(  0-C , 18-H ) :   1.0450 B(  1-C ,  2-C ) :   0.7979 B(  1-C ,  5-C ) :   0.1381
B(  1-C ,  6-C ) :   0.1005 B(  1-C , 13-H ) :   0.9367 B(  1-C , 14-H ) :   0.9290
B(  2-C ,  3-H ) :   0.9956 B(  2-C ,  4-H ) :   0.9119 B(  2-C ,  5-C ) :   0.8485
B(  2-C ,  8-N ) :   0.1700 B(  5-C , 15-O ) :   1.7366 B(  5-C , 16-F ) :   0.8919
B(  6-C ,  7-C ) :   1.0934 B(  6-C ,  8-N ) :   0.9754 B(  7-C ,  8-N ) :   0.1336
B(  7-C , 11-H ) :   1.0119 B(  7-C , 12-H ) :   1.0027 B(  8-N ,  9-H ) :   1.0875
B(  8-N , 10-H ) :   0.7808

Dispersion correction           -0.038080121
FINAL SINGLE POINT ENERGY      -464.497836064881

DIPOLE MOMENT
-------------
                                X             Y             Z
Electronic contribution:      7.46997      -3.57942       8.07550
Nuclear contribution   :     -7.21688       3.18902      -8.52197
                        -----------------------------------------
Total Dipole Moment    :      0.25309      -0.39040      -0.44647
                        -----------------------------------------
Magnitude (a.u.)       :      0.64483
Magnitude (Debye)      :      1.63903

Rotational constants in cm-1:     0.103917     0.036987     0.030872
Rotational constants in MHz :  3115.342573  1108.839114   925.506342

                             ****ORCA TERMINATED NORMALLY****
TOTAL RUN TIME: 0 days 0 hours 0 minutes 32 seconds 855 msec
