                         Program Version 5.0.0 -  RELEASE  -
|  1> !BLYP D3BJ RIJCOSX def2-TZVPD def2/J TightSCF xyzfile
|  2>
|  3> *xyzfile 0 1 D4.xyz
|  4>
|  5> %MaxCore 64000
|  6>
|  7> %pal nprocs 4
|  8> end
|  9>
| 10> %scf
| 11>   MaxIter 150
| 12> end
| 13>
| 14>
| 15>                          ****END OF INPUT****

CARTESIAN COORDINATES (ANGSTROEM)
---------------------------------
  C      3.343500    3.354571   -3.591998
  C      2.952633    1.863077   -3.574849
  C      4.129209    0.898394   -3.418950
  H      3.733687   -0.100605   -3.237633
  H      4.719095    0.862556   -4.339005
  C      5.017344    1.315212   -2.221305
  C      4.255868    3.703851   -4.726054
  N      3.734032    4.293783   -5.800770
  C      5.515039    3.407255   -4.637185
  H      6.149187    3.601203   -5.399053
  H      5.813584    2.899504   -3.808785
  H      2.741380    4.513109   -5.824701
  H      4.287548    4.521260   -6.614341
  H      2.278938    1.735250   -2.725496
  H      2.377466    1.625787   -4.475869
  O      4.737055    0.854112   -1.122825
  F      5.928146    2.168108   -2.491365
  H      3.861246    3.597252   -2.662979
  H      2.446493    3.973461   -3.656556

 Total Charge           Charge          ....    0
 Multiplicity           Mult            ....    1
 Number of Electrons    NEL             ....   70
 Basis Dimension        Dim             ....  429

ORBITAL ENERGIES
----------------

  NO   OCC          E(Eh)            E(eV)
   0   2.0000     -24.348410      -662.5539
   1   2.0000     -18.783937      -511.1369
   2   2.0000     -14.010533      -381.2460
   3   2.0000     -10.074305      -274.1358
   4   2.0000      -9.927830      -270.1500
   5   2.0000      -9.922985      -270.0181
   6   2.0000      -9.921044      -269.9653
   7   2.0000      -9.914305      -269.7820
   8   2.0000      -9.826484      -267.3922
   9   2.0000      -1.204106       -32.7654
  10   2.0000      -0.959974       -26.1222
  11   2.0000      -0.840789       -22.8790
  12   2.0000      -0.738839       -20.1048
  13   2.0000      -0.677873       -18.4459
  14   2.0000      -0.635973       -17.3057
  15   2.0000      -0.604646       -16.4532
  16   2.0000      -0.553673       -15.0662
  17   2.0000      -0.522120       -14.2076
  18   2.0000      -0.481897       -13.1131
  19   2.0000      -0.474313       -12.9067
  20   2.0000      -0.467050       -12.7091
  21   2.0000      -0.446742       -12.1565
  22   2.0000      -0.426945       -11.6178
  23   2.0000      -0.408979       -11.1289
  24   2.0000      -0.394822       -10.7436
  25   2.0000      -0.367736       -10.0066
  26   2.0000      -0.350211        -9.5297
  27   2.0000      -0.337487        -9.1835
  28   2.0000      -0.329289        -8.9604
  29   2.0000      -0.318641        -8.6707
  30   2.0000      -0.307173        -8.3586
  31   2.0000      -0.288271        -7.8442
  32   2.0000      -0.284872        -7.7518
  33   2.0000      -0.245895        -6.6911
  34   2.0000      -0.159758        -4.3472
  35   0.0000      -0.062123        -1.6904
  36   0.0000      -0.020172        -0.5489
  37   0.0000      -0.000035        -0.0010
  38   0.0000       0.003378         0.0919
  39   0.0000       0.012425         0.3381

MULLIKEN ATOMIC CHARGES
-----------------------
   0 C :   -0.602079
   1 C :   -0.560963
   2 C :   -0.334250
   3 H :    0.229562
   4 H :    0.390924
   5 C :    0.450308
   6 C :    0.793258
   7 N :   -0.326240
   8 C :   -1.608533
   9 H :    0.256901
  10 H :    0.795033
  11 H :    0.143372
  12 H :    0.117933
  13 H :    0.255931
  14 H :    0.246768
  15 O :   -0.478327
  16 F :   -0.288840
  17 H :    0.241534
  18 H :    0.277709
Sum of atomic charges:   -0.0000000

LOEWDIN ATOMIC CHARGES
----------------------
   0 C :   -0.133453
   1 C :   -0.168242
   2 C :   -0.095999
   3 H :    0.115838
   4 H :    0.111546
   5 C :   -0.491577
   6 C :   -0.466799
   7 N :    0.117628
   8 C :    0.033023
   9 H :    0.034185
  10 H :   -0.014621
  11 H :    0.096721
  12 H :    0.102508
  13 H :    0.112092
  14 H :    0.115033
  15 O :    0.139210
  16 F :    0.167330
  17 H :    0.115122
  18 H :    0.110453

  Mayer bond orders larger than 0.100000
B(  0-C ,  1-C ) :   0.7788 B(  0-C ,  6-C ) :   0.6200 B(  0-C , 17-H ) :   0.9263
B(  0-C , 18-H ) :   1.0311 B(  1-C ,  2-C ) :   0.7897 B(  1-C ,  5-C ) :   0.1575
B(  1-C , 13-H ) :   0.9332 B(  1-C , 14-H ) :   0.9510 B(  2-C ,  3-H ) :   0.9916
B(  2-C ,  4-H ) :   0.8793 B(  2-C ,  5-C ) :   0.8266 B(  2-C ,  8-C ) :   0.1516
B(  5-C , 15-O ) :   1.7195 B(  5-C , 16-F ) :   0.9643 B(  6-C ,  7-N ) :   0.8351
B(  6-C ,  8-C ) :   0.9884 B(  6-C ,  9-H ) :  -0.1172 B(  6-C , 18-H ) :  -0.1034
B(  7-N ,  8-C ) :   0.1149 B(  7-N , 11-H ) :   1.0452 B(  7-N , 12-H ) :   1.0547
B(  8-C ,  9-H ) :   1.1689 B(  8-C , 10-H ) :   0.5568 B(  8-C , 16-F ) :   0.1213
B( 10-H , 16-F ) :  -0.3237

Dispersion correction           -0.038342107
FINAL SINGLE POINT ENERGY      -464.484922580116

DIPOLE MOMENT
-------------
                                X             Y             Z
Electronic contribution:      6.20759      -2.80755       7.12514
Nuclear contribution   :     -6.99695       3.07955      -8.37829
                        -----------------------------------------
Total Dipole Moment    :     -0.78936       0.27200      -1.25315
                        -----------------------------------------
Magnitude (a.u.)       :      1.50581
Magnitude (Debye)      :      3.82745

Rotational constants in cm-1:     0.106302     0.035771     0.030198
Rotational constants in MHz :  3186.860872  1072.397550   905.318354

                             ****ORCA TERMINATED NORMALLY****
TOTAL RUN TIME: 0 days 0 hours 0 minutes 33 seconds 278 msec
