                         Program Version 5.0.0 -  RELEASE  -
|  1> !DLPNO-CCSD(T) aug-cc-pVTZ aug-cc-pVTZ/C TightSCF TightPNO RIJCOSX def2/J
|  2> *xyz -1 1
|  3> C         -0.91495        0.61511        2.50554
|  4> C         -0.05915        1.50352        3.41058
|  5> H          0.36536        2.34431        2.86116
|  6> H         -0.69226        1.92021        4.19898
|  7> C          1.08303        0.74964        4.08571
|  8> O          2.22817        1.26348        4.01983
|  9> O          0.81003       -0.34541        4.63627
| 10> H         -0.30401        0.20228        1.73015
| 11> H         -1.69811        1.19946        2.06954
| 12> H         -1.34124       -0.17772        3.08397
| 13> *
| 14>
| 15> %MaxCore 64000
| 16>
| 17> %pal nprocs 18
| 18> end
| 19>
| 20> %scf
| 21>   MaxIter 150
| 22> end
| 23>
| 24>
| 25>                          ****END OF INPUT****

CARTESIAN COORDINATES (ANGSTROEM)
---------------------------------
  C     -0.914950    0.615110    2.505540
  C     -0.059150    1.503520    3.410580
  H      0.365360    2.344310    2.861160
  H     -0.692260    1.920210    4.198980
  C      1.083030    0.749640    4.085710
  O      2.228170    1.263480    4.019830
  O      0.810030   -0.345410    4.636270
  H     -0.304010    0.202280    1.730150
  H     -1.698110    1.199460    2.069540
  H     -1.341240   -0.177720    3.083970

 Total Charge           Charge          ....   -1
 Multiplicity           Mult            ....    1
 Number of Electrons    NEL             ....   40
 Basis Dimension        Dim             ....  345

ORBITAL ENERGIES
----------------

  NO   OCC          E(Eh)            E(eV)
   0   2.0000     -20.282608      -551.9178
   1   2.0000     -20.282319      -551.9100
   2   2.0000     -11.124028      -302.7002
   3   2.0000     -11.061683      -301.0037
   4   2.0000     -11.052595      -300.7564
   5   2.0000      -1.162143       -31.6235
   6   2.0000      -1.054854       -28.7040
   7   2.0000      -0.876852       -23.8604
   8   2.0000      -0.711763       -19.3680
   9   2.0000      -0.516860       -14.0645
  10   2.0000      -0.462258       -12.5787
  11   2.0000      -0.444713       -12.1012
  12   2.0000      -0.400139       -10.8883
  13   2.0000      -0.380622       -10.3572
  14   2.0000      -0.370898       -10.0927
  15   2.0000      -0.334998        -9.1157
  16   2.0000      -0.309525        -8.4226
  17   2.0000      -0.197408        -5.3718
  18   2.0000      -0.195424        -5.3178
  19   2.0000      -0.184331        -5.0159
  20   0.0000       0.117389         3.1943
  21   0.0000       0.134720         3.6659
  22   0.0000       0.137856         3.7513
  23   0.0000       0.146974         3.9994
  24   0.0000       0.157908         4.2969

MULLIKEN ATOMIC CHARGES
-----------------------
   0 C :   -0.929118
   1 C :   -0.162867
   2 H :    0.244550
   3 H :    0.216787
   4 C :    0.454995
   5 O :   -0.837215
   6 O :   -0.851742
   7 H :    0.294748
   8 H :    0.269620
   9 H :    0.300242
Sum of atomic charges:   -1.0000000

LOEWDIN ATOMIC CHARGES
----------------------
   0 C :    0.546697
   1 C :    0.168619
   2 H :   -0.200015
   3 H :   -0.179627
   4 C :   -1.212040
   5 O :    0.238274
   6 O :    0.248684
   7 H :   -0.193904
   8 H :   -0.210166
   9 H :   -0.206523

  Mayer bond orders larger than 0.100000
B(  0-C ,  1-C ) :   0.8266 B(  0-C ,  7-H ) :   0.9300 B(  0-C ,  8-H ) :   0.9634
B(  0-C ,  9-H ) :   0.9375 B(  1-C ,  2-H ) :   0.9625 B(  1-C ,  3-H ) :   0.9627
B(  1-C ,  4-C ) :   0.6786 B(  4-C ,  5-O ) :   1.3928 B(  4-C ,  6-O ) :   1.4162

E(0)                                       ...   -266.375697826
E(0)                                       ...   -266.375697826
E(CORR)(strong-pairs)                      ...     -1.023534885
E(CORR)(weak-pairs)                        ...     -0.000894730
E(CORR)(corrected)                         ...     -1.024429615
E(TOT)                                     ...   -267.400127441
E(CCSD(T))                                 ...   -267.443822538
FINAL SINGLE POINT ENERGY      -267.443822537588

DIPOLE MOMENT
-------------
                                X             Y             Z
Electronic contribution:      4.58183      -0.93257       3.27300
Nuclear contribution   :     -6.38408       1.63097      -4.40540
                        -----------------------------------------
Total Dipole Moment    :     -1.80225       0.69840      -1.13240
                        -----------------------------------------
Magnitude (a.u.)       :      2.24013
Magnitude (Debye)      :      5.69395

Rotational constants in cm-1:     0.319732     0.134414     0.104753
Rotational constants in MHz :  9585.336550  4029.633034  3140.404334

                             ****ORCA TERMINATED NORMALLY****
TOTAL RUN TIME: 0 days 0 hours 3 minutes 31 seconds 692 msec
