                         Program Version 5.0.0 -  RELEASE  -
|  1> !DLPNO-CCSD(T) aug-cc-pVTZ aug-cc-pVTZ/C TightSCF TightPNO RIJCOSX def2/J
|  2> *xyz 1 1
|  3> C          4.60295       -2.44010        2.63478
|  4> C          3.86085       -1.59157        3.62289
|  5> N          2.75650       -2.04616        4.16633
|  6> N          4.25433       -0.36291        3.86046
|  7> H          3.56526        0.31099        4.16898
|  8> H          5.05429       -0.01606        3.33784
|  9> H          2.43970       -2.97389        3.89740
| 10> H          2.06687       -1.41253        4.54981
| 11> C          3.74469       -2.58056        1.36188
| 12> H          5.56156       -1.97135        2.40708
| 13> H          4.81050       -3.42255        3.06310
| 14> H          4.26314       -3.18477        0.64702
| 15> H          3.56325       -1.61180        0.94535
| 16> H          2.81197       -3.04259        1.60980
| 17> *
| 18>
| 19> %MaxCore 64000
| 20>
| 21> %pal nprocs 18
| 22> end
| 23>
| 24> %scf
| 25>   MaxIter 150
| 26> end
| 27>
| 28>
| 29>                          ****END OF INPUT****

CARTESIAN COORDINATES (ANGSTROEM)
---------------------------------
  C      4.602950   -2.440100    2.634780
  C      3.860850   -1.591570    3.622890
  N      2.756500   -2.046160    4.166330
  N      4.254330   -0.362910    3.860460
  H      3.565260    0.310990    4.168980
  H      5.054290   -0.016060    3.337840
  H      2.439700   -2.973890    3.897400
  H      2.066870   -1.412530    4.549810
  C      3.744690   -2.580560    1.361880
  H      5.561560   -1.971350    2.407080
  H      4.810500   -3.422550    3.063100
  H      4.263140   -3.184770    0.647020
  H      3.563250   -1.611800    0.945350
  H      2.811970   -3.042590    1.609800

 Total Charge           Charge          ....    1
 Multiplicity           Mult            ....    1
 Number of Electrons    NEL             ....   40
 Basis Dimension        Dim             ....  437

ORBITAL ENERGIES
----------------

  NO   OCC          E(Eh)            E(eV)
   0   2.0000     -15.806585      -430.1191
   1   2.0000     -15.805218      -430.0818
   2   2.0000     -11.570038      -314.8367
   3   2.0000     -11.429487      -311.0121
   4   2.0000     -11.386380      -309.8392
   5   2.0000      -1.528226       -41.5851
   6   2.0000      -1.406844       -38.2822
   7   2.0000      -1.243148       -33.8278
   8   2.0000      -1.094021       -29.7698
   9   2.0000      -1.027662       -27.9641
  10   2.0000      -0.956269       -26.0214
  11   2.0000      -0.942825       -25.6556
  12   2.0000      -0.866143       -23.5689
  13   2.0000      -0.829805       -22.5801
  14   2.0000      -0.792486       -21.5647
  15   2.0000      -0.756954       -20.5978
  16   2.0000      -0.700573       -19.0636
  17   2.0000      -0.691111       -18.8061
  18   2.0000      -0.681559       -18.5462
  19   2.0000      -0.632497       -17.2111
  20   0.0000      -0.098458        -2.6792
  21   0.0000      -0.076030        -2.0689
  22   0.0000      -0.075067        -2.0427
  23   0.0000      -0.063483        -1.7275
  24   0.0000      -0.055243        -1.5032

MULLIKEN ATOMIC CHARGES
-----------------------
   0 C :   -0.117714
   1 C :    0.724877
   2 N :   -0.370875
   3 N :   -0.422780
   4 H :    0.179667
   5 H :    0.128641
   6 H :    0.120453
   7 H :    0.163779
   8 C :   -0.950319
   9 H :    0.270412
  10 H :    0.325690
  11 H :    0.328293
  12 H :    0.306236
  13 H :    0.313640
Sum of atomic charges:    1.0000000

LOEWDIN ATOMIC CHARGES
----------------------
   0 C :    0.354566
   1 C :   -0.230945
   2 N :    0.944271
   3 N :    0.949214
   4 H :   -0.228716
   5 H :   -0.231808
   6 H :   -0.232533
   7 H :   -0.222064
   8 C :    0.650941
   9 H :   -0.135258
  10 H :   -0.121335
  11 H :   -0.153916
  12 H :   -0.163246
  13 H :   -0.179172

  Mayer bond orders larger than 0.100000
B(  0-C ,  1-C ) :   0.5021 B(  0-C ,  8-C ) :   0.8295 B(  0-C ,  9-H ) :   0.9754
B(  0-C , 10-H ) :   0.9145 B(  1-C ,  2-N ) :   1.0046 B(  1-C ,  3-N ) :   0.9316
B(  1-C ,  8-C ) :   0.1632 B(  2-N ,  6-H ) :   1.0960 B(  2-N ,  7-H ) :   1.0497
B(  3-N ,  4-H ) :   1.0367 B(  3-N ,  5-H ) :   1.0851 B(  8-C , 11-H ) :   0.9267
B(  8-C , 12-H ) :   0.9259 B(  8-C , 13-H ) :   0.9199

E(0)                                       ...   -227.640073264
E(0)                                       ...   -227.640073264
E(CORR)(strong-pairs)                      ...     -0.969398288
E(CORR)(weak-pairs)                        ...     -0.000944653
E(CORR)(corrected)                         ...     -0.970342941
E(TOT)                                     ...   -228.610416205
E(CCSD(T))                                 ...   -228.648906129
FINAL SINGLE POINT ENERGY      -228.648906128882

DIPOLE MOMENT
-------------
                                X             Y             Z
Electronic contribution:     -0.21020       1.75326       3.67284
Nuclear contribution   :     -0.22400      -1.16268      -3.30447
                        -----------------------------------------
Total Dipole Moment    :     -0.43420       0.59058       0.36837
                        -----------------------------------------
Magnitude (a.u.)       :      0.82037
Magnitude (Debye)      :      2.08522

Rotational constants in cm-1:     0.258103     0.130571     0.102508
Rotational constants in MHz :  7737.732062  3914.431392  3073.119154

                             ****ORCA TERMINATED NORMALLY****
TOTAL RUN TIME: 0 days 0 hours 5 minutes 42 seconds 368 msec
