                         Program Version 5.0.0 -  RELEASE  -
|  1> !DLPNO-CCSD(T) aug-cc-pVTZ aug-cc-pVTZ/C TightSCF TightPNO RIJCOSX def2/J
|  2> *xyz 0 1
|  3> C         -0.91495        0.61511        2.50554
|  4> C         -0.05915        1.50352        3.41058
|  5> H          0.36536        2.34431        2.86116
|  6> H         -0.69226        1.92021        4.19898
|  7> C          1.08303        0.74964        4.08571
|  8> F          2.22817        1.26348        4.01983
|  9> O          0.81003       -0.34541        4.63627
| 10> H         -0.30401        0.20228        1.73015
| 11> H         -1.69811        1.19946        2.06954
| 12> H         -1.34124       -0.17772        3.08397
| 13> *
| 14>
| 15> %MaxCore 64000
| 16>
| 17> %pal nprocs 18
| 18> end
| 19>
| 20> %scf
| 21>   MaxIter 150
| 22> end
| 23>
| 24>
| 25>                          ****END OF INPUT****

CARTESIAN COORDINATES (ANGSTROEM)
---------------------------------
  C     -0.914950    0.615110    2.505540
  C     -0.059150    1.503520    3.410580
  H      0.365360    2.344310    2.861160
  H     -0.692260    1.920210    4.198980
  C      1.083030    0.749640    4.085710
  F      2.228170    1.263480    4.019830
  O      0.810030   -0.345410    4.636270
  H     -0.304010    0.202280    1.730150
  H     -1.698110    1.199460    2.069540
  H     -1.341240   -0.177720    3.083970

 Total Charge           Charge          ....    0
 Multiplicity           Mult            ....    1
 Number of Electrons    NEL             ....   40
 Basis Dimension        Dim             ....  345

ORBITAL ENERGIES
----------------

  NO   OCC          E(Eh)            E(eV)
   0   2.0000     -26.375983      -717.7270
   1   2.0000     -20.562492      -559.5339
   2   2.0000     -11.430404      -311.0371
   3   2.0000     -11.262383      -306.4650
   4   2.0000     -11.229566      -305.5720
   5   2.0000      -1.729241       -47.0550
   6   2.0000      -1.374586       -37.4044
   7   2.0000      -1.076984       -29.3062
   8   2.0000      -0.941272       -25.6133
   9   2.0000      -0.871038       -23.7022
  10   2.0000      -0.772229       -21.0134
  11   2.0000      -0.764691       -20.8083
  12   2.0000      -0.712967       -19.4008
  13   2.0000      -0.638746       -17.3812
  14   2.0000      -0.615392       -16.7457
  15   2.0000      -0.554727       -15.0949
  16   2.0000      -0.540048       -14.6954
  17   2.0000      -0.527478       -14.3534
  18   2.0000      -0.488721       -13.2988
  19   2.0000      -0.466026       -12.6812
  20   0.0000       0.026209         0.7132
  21   0.0000       0.039391         1.0719
  22   0.0000       0.040682         1.1070
  23   0.0000       0.048514         1.3201
  24   0.0000       0.064651         1.7593

MULLIKEN ATOMIC CHARGES
-----------------------
   0 C :   -0.902669
   1 C :   -0.264406
   2 H :    0.257228
   3 H :    0.277206
   4 C :    0.611839
   5 F :   -0.255999
   6 O :   -0.653768
   7 H :    0.306955
   8 H :    0.308908
   9 H :    0.314708
Sum of atomic charges:   -0.0000000

LOEWDIN ATOMIC CHARGES
----------------------
   0 C :    0.593467
   1 C :    0.241725
   2 H :   -0.175759
   3 H :   -0.156772
   4 C :   -0.919148
   5 F :    0.580359
   6 O :    0.386925
   7 H :   -0.181417
   8 H :   -0.180844
   9 H :   -0.188536

  Mayer bond orders larger than 0.100000
B(  0-C ,  1-C ) :   0.8498 B(  0-C ,  7-H ) :   0.9183 B(  0-C ,  8-H ) :   0.9311
B(  0-C ,  9-H ) :   0.9312 B(  1-C ,  2-H ) :   0.9441 B(  1-C ,  3-H ) :   0.9116
B(  1-C ,  4-C ) :   0.7612 B(  4-C ,  5-F ) :   0.8427 B(  4-C ,  6-O ) :   1.6619

E(0)                                       ...   -290.928364016
E(0)                                       ...   -290.928364016
E(CORR)(strong-pairs)                      ...     -1.024414291
E(CORR)(weak-pairs)                        ...     -0.000878924
E(CORR)(corrected)                         ...     -1.025293215
E(TOT)                                     ...   -291.953657231
E(CCSD(T))                                 ...   -291.993835813
FINAL SINGLE POINT ENERGY      -291.993835812830

DIPOLE MOMENT
-------------
                                X             Y             Z
Electronic contribution:      7.67872      -0.05569       4.01239
Nuclear contribution   :     -8.12386       1.06915      -4.71960
                        -----------------------------------------
Total Dipole Moment    :     -0.44514       1.01346      -0.70721
                        -----------------------------------------
Magnitude (a.u.)       :      1.31354
Magnitude (Debye)      :      3.33876

Rotational constants in cm-1:     0.309513     0.127560     0.099675
Rotational constants in MHz :  9278.979128  3824.146597  2988.174827

                             ****ORCA TERMINATED NORMALLY****
TOTAL RUN TIME: 0 days 0 hours 3 minutes 23 seconds 807 msec
