                         Program Version 5.0.0 -  RELEASE  -
|  1> !DLPNO-CCSD(T) aug-cc-pVTZ aug-cc-pVTZ/C TightSCF TightPNO RIJCOSX def2/J
|  2> *xyz 0 1
|  3> C          4.60295       -2.44010        2.63478
|  4> C          3.86085       -1.59157        3.62289
|  5> C          2.75650       -2.04616        4.16633
|  6> N          4.25433       -0.36291        3.86046
|  7> H          3.56526        0.31099        4.16898
|  8> H          5.05429       -0.01606        3.33784
|  9> H          2.43970       -2.97389        3.89740
| 10> H          2.06687       -1.41253        4.54981
| 11> C          3.74469       -2.58056        1.36188
| 12> H          5.56156       -1.97135        2.40708
| 13> H          4.81050       -3.42255        3.06310
| 14> H          4.26314       -3.18477        0.64702
| 15> H          3.56325       -1.61180        0.94535
| 16> H          2.81197       -3.04259        1.60980
| 17> *
| 18>
| 19> %MaxCore 64000
| 20>
| 21> %pal nprocs 18
| 22> end
| 23>
| 24> %scf
| 25>   MaxIter 150
| 26> end
| 27>
| 28>
| 29>                          ****END OF INPUT****

CARTESIAN COORDINATES (ANGSTROEM)
---------------------------------
  C      4.602950   -2.440100    2.634780
  C      3.860850   -1.591570    3.622890
  C      2.756500   -2.046160    4.166330
  N      4.254330   -0.362910    3.860460
  H      3.565260    0.310990    4.168980
  H      5.054290   -0.016060    3.337840
  H      2.439700   -2.973890    3.897400
  H      2.066870   -1.412530    4.549810
  C      3.744690   -2.580560    1.361880
  H      5.561560   -1.971350    2.407080
  H      4.810500   -3.422550    3.063100
  H      4.263140   -3.184770    0.647020
  H      3.563250   -1.611800    0.945350
  H      2.811970   -3.042590    1.609800

 Total Charge           Charge          ....    0
 Multiplicity           Mult            ....    1
 Number of Electrons    NEL             ....   40
 Basis Dimension        Dim             ....  437

ORBITAL ENERGIES
----------------

  NO   OCC          E(Eh)            E(eV)
   0   2.0000     -15.560786      -423.4305
   1   2.0000     -11.252241      -306.1890
   2   2.0000     -11.228291      -305.5373
   3   2.0000     -11.209878      -305.0363
   4   2.0000     -11.146751      -303.3185
   5   2.0000      -1.243711       -33.8431
   6   2.0000      -1.056127       -28.7387
   7   2.0000      -0.973414       -26.4879
   8   2.0000      -0.872609       -23.7449
   9   2.0000      -0.762061       -20.7367
  10   2.0000      -0.702694       -19.1213
  11   2.0000      -0.659066       -17.9341
  12   2.0000      -0.613159       -16.6849
  13   2.0000      -0.576499       -15.6873
  14   2.0000      -0.546018       -14.8579
  15   2.0000      -0.530096       -14.4247
  16   2.0000      -0.500572       -13.6212
  17   2.0000      -0.490137       -13.3373
  18   2.0000      -0.475138       -12.9292
  19   2.0000      -0.291300        -7.9267
  20   0.0000       0.026866         0.7311
  21   0.0000       0.036153         0.9838
  22   0.0000       0.039990         1.0882
  23   0.0000       0.044434         1.2091
  24   0.0000       0.056632         1.5410

MULLIKEN ATOMIC CHARGES
-----------------------
   0 C :   -0.112861
   1 C :    0.790931
   2 C :   -1.310790
   3 N :   -0.638164
   4 H :    0.050491
   5 H :    0.085257
   6 H :    0.238266
   7 H :    0.482074
   8 C :   -1.011442
   9 H :    0.218746
  10 H :    0.303801
  11 H :    0.283609
  12 H :    0.305838
  13 H :    0.314245
Sum of atomic charges:   -0.0000000

LOEWDIN ATOMIC CHARGES
----------------------
   0 C :    0.290787
   1 C :   -0.324519
   2 C :    0.549964
   3 N :    0.838962
   4 H :   -0.267188
   5 H :   -0.278611
   6 H :   -0.292290
   7 H :   -0.282727
   8 C :    0.611730
   9 H :   -0.157516
  10 H :   -0.139039
  11 H :   -0.182847
  12 H :   -0.175276
  13 H :   -0.191429

  Mayer bond orders larger than 0.100000
B(  0-C ,  1-C ) :   0.6777 B(  0-C ,  8-C ) :   0.7751 B(  0-C ,  9-H ) :   1.0039
B(  0-C , 10-H ) :   0.9613 B(  1-C ,  2-C ) :   1.1702 B(  1-C ,  3-N ) :   0.6560
B(  1-C ,  8-C ) :   0.1795 B(  2-C ,  3-N ) :  -0.1427 B(  2-C ,  6-H ) :   1.1967
B(  2-C ,  7-H ) :   0.7264 B(  3-N ,  4-H ) :   1.1716 B(  3-N ,  5-H ) :   1.1002
B(  8-C , 11-H ) :   0.9603 B(  8-C , 12-H ) :   0.9443 B(  8-C , 13-H ) :   0.9339

E(0)                                       ...   -211.198985250
E(0)                                       ...   -211.198985250
E(CORR)(strong-pairs)                      ...     -0.950924635
E(CORR)(weak-pairs)                        ...     -0.000933104
E(CORR)(corrected)                         ...     -0.951857739
E(TOT)                                     ...   -212.150842989
E(CCSD(T))                                 ...   -212.189588636
FINAL SINGLE POINT ENERGY      -212.189588635700

DIPOLE MOMENT
-------------
                                X             Y             Z
Electronic contribution:      0.82256       1.75557       2.47218
Nuclear contribution   :     -0.47010      -1.22282      -3.06417
                        -----------------------------------------
Total Dipole Moment    :      0.35245       0.53275      -0.59198
                        -----------------------------------------
Magnitude (a.u.)       :      0.87092
Magnitude (Debye)      :      2.21369

Rotational constants in cm-1:     0.271862     0.131962     0.105499
Rotational constants in MHz :  8150.219120  3956.123671  3162.785522

                             ****ORCA TERMINATED NORMALLY****
TOTAL RUN TIME: 0 days 0 hours 7 minutes 16 seconds 87 msec
