                         Program Version 5.0.0 -  RELEASE  -
|  1> !DLPNO-CCSD(T) aug-cc-pVTZ aug-cc-pVTZ/C TightSCF TightPNO RIJCOSX def2/J
|  2> *xyz 0 1
|  3> C         -0.91495        0.61511        2.50554
|  4> C         -0.05915        1.50352        3.41058
|  5> H          0.36536        2.34431        2.86116
|  6> H         -0.69226        1.92021        4.19898
|  7> C          1.08303        0.74964        4.08571
|  8> O          2.22817        1.26348        4.01983
|  9> F          0.81003       -0.34541        4.63627
| 10> H         -0.30401        0.20228        1.73015
| 11> H         -1.69811        1.19946        2.06954
| 12> H         -1.34124       -0.17772        3.08397
| 13> *
| 14>
| 15> %MaxCore 64000
| 16>
| 17> %pal nprocs 18
| 18> end
| 19>
| 20> %scf
| 21>   MaxIter 150
| 22> end
| 23>
| 24>
| 25>                          ****END OF INPUT****

CARTESIAN COORDINATES (ANGSTROEM)
---------------------------------
  C     -0.914950    0.615110    2.505540
  C     -0.059150    1.503520    3.410580
  H      0.365360    2.344310    2.861160
  H     -0.692260    1.920210    4.198980
  C      1.083030    0.749640    4.085710
  O      2.228170    1.263480    4.019830
  F      0.810030   -0.345410    4.636270
  H     -0.304010    0.202280    1.730150
  H     -1.698110    1.199460    2.069540
  H     -1.341240   -0.177720    3.083970

 Total Charge           Charge          ....    0
 Multiplicity           Mult            ....    1
 Number of Electrons    NEL             ....   40
 Basis Dimension        Dim             ....  345

ORBITAL ENERGIES
----------------

  NO   OCC          E(Eh)            E(eV)
   0   2.0000     -26.377017      -717.7551
   1   2.0000     -20.562349      -559.5300
   2   2.0000     -11.429461      -311.0115
   3   2.0000     -11.261870      -306.4511
   4   2.0000     -11.235624      -305.7369
   5   2.0000      -1.730826       -47.0982
   6   2.0000      -1.372788       -37.3555
   7   2.0000      -1.081856       -29.4388
   8   2.0000      -0.936659       -25.4878
   9   2.0000      -0.878674       -23.9099
  10   2.0000      -0.778517       -21.1845
  11   2.0000      -0.768900       -20.9228
  12   2.0000      -0.702526       -19.1167
  13   2.0000      -0.640756       -17.4358
  14   2.0000      -0.613939       -16.7061
  15   2.0000      -0.566808       -15.4236
  16   2.0000      -0.545136       -14.8339
  17   2.0000      -0.532798       -14.4982
  18   2.0000      -0.489813       -13.3285
  19   2.0000      -0.459792       -12.5116
  20   0.0000       0.025532         0.6948
  21   0.0000       0.038116         1.0372
  22   0.0000       0.040632         1.1056
  23   0.0000       0.047854         1.3022
  24   0.0000       0.062768         1.7080

MULLIKEN ATOMIC CHARGES
-----------------------
   0 C :   -0.929943
   1 C :   -0.245137
   2 H :    0.292736
   3 H :    0.274353
   4 C :    0.613594
   5 O :   -0.638012
   6 F :   -0.279667
   7 H :    0.314001
   8 H :    0.303617
   9 H :    0.294459
Sum of atomic charges:   -0.0000000

LOEWDIN ATOMIC CHARGES
----------------------
   0 C :    0.593090
   1 C :    0.241572
   2 H :   -0.166576
   3 H :   -0.159214
   4 C :   -0.921999
   5 O :    0.379125
   6 F :    0.584379
   7 H :   -0.181445
   8 H :   -0.179534
   9 H :   -0.189398

  Mayer bond orders larger than 0.100000
B(  0-C ,  1-C ) :   0.8452 B(  0-C ,  4-C ) :   0.1005 B(  0-C ,  7-H ) :   0.9121
B(  0-C ,  8-H ) :   0.9473 B(  0-C ,  9-H ) :   0.9378 B(  1-C ,  2-H ) :   0.9306
B(  1-C ,  3-H ) :   0.9248 B(  1-C ,  4-C ) :   0.7723 B(  4-C ,  5-O ) :   1.6513
B(  4-C ,  6-F ) :   0.8330

E(0)                                       ...   -290.927749664
E(0)                                       ...   -290.927749664
E(CORR)(strong-pairs)                      ...     -1.024211813
E(CORR)(weak-pairs)                        ...     -0.000873084
E(CORR)(corrected)                         ...     -1.025084898
E(TOT)                                     ...   -291.952834561
E(CCSD(T))                                 ...   -291.992922607
FINAL SINGLE POINT ENERGY      -291.992922607305

DIPOLE MOMENT
-------------
                                X             Y             Z
Electronic contribution:      5.19691      -2.83585       5.06493
Nuclear contribution   :     -6.57765       2.82334      -5.39171
                        -----------------------------------------
Total Dipole Moment    :     -1.38074      -0.01251      -0.32678
                        -----------------------------------------
Magnitude (a.u.)       :      1.41894
Magnitude (Debye)      :      3.60666

Rotational constants in cm-1:     0.294245     0.132994     0.101060
Rotational constants in MHz :  8821.228602  3987.049251  3029.696815

                             ****ORCA TERMINATED NORMALLY****
TOTAL RUN TIME: 0 days 0 hours 3 minutes 38 seconds 830 msec
