                         Program Version 5.0.0 -  RELEASE  -
|  1> !DLPNO-CCSD(T) aug-cc-pVTZ aug-cc-pVTZ/C TightSCF TightPNO RIJCOSX def2/J
|  2> *xyz 0 1
|  3> C          4.60295       -2.44010        2.63478
|  4> C          3.86085       -1.59157        3.62289
|  5> N          2.75650       -2.04616        4.16633
|  6> C          4.25433       -0.36291        3.86046
|  7> H          3.56526        0.31099        4.16898
|  8> H          5.05429       -0.01606        3.33784
|  9> H          2.43970       -2.97389        3.89740
| 10> H          2.06687       -1.41253        4.54981
| 11> C          3.74469       -2.58056        1.36188
| 12> H          5.56156       -1.97135        2.40708
| 13> H          4.81050       -3.42255        3.06310
| 14> H          4.26314       -3.18477        0.64702
| 15> H          3.56325       -1.61180        0.94535
| 16> H          2.81197       -3.04259        1.60980
| 17> *
| 18>
| 19> %MaxCore 64000
| 20>
| 21> %pal nprocs 18
| 22> end
| 23>
| 24> %scf
| 25>   MaxIter 150
| 26> end
| 27>
| 28>
| 29>                          ****END OF INPUT****

CARTESIAN COORDINATES (ANGSTROEM)
---------------------------------
  C      4.602950   -2.440100    2.634780
  C      3.860850   -1.591570    3.622890
  N      2.756500   -2.046160    4.166330
  C      4.254330   -0.362910    3.860460
  H      3.565260    0.310990    4.168980
  H      5.054290   -0.016060    3.337840
  H      2.439700   -2.973890    3.897400
  H      2.066870   -1.412530    4.549810
  C      3.744690   -2.580560    1.361880
  H      5.561560   -1.971350    2.407080
  H      4.810500   -3.422550    3.063100
  H      4.263140   -3.184770    0.647020
  H      3.563250   -1.611800    0.945350
  H      2.811970   -3.042590    1.609800

 Total Charge           Charge          ....    0
 Multiplicity           Mult            ....    1
 Number of Electrons    NEL             ....   40
 Basis Dimension        Dim             ....  437

ORBITAL ENERGIES
----------------

  NO   OCC          E(Eh)            E(eV)
   0   2.0000     -15.560307      -423.4175
   1   2.0000     -11.253521      -306.2239
   2   2.0000     -11.228092      -305.5319
   3   2.0000     -11.213679      -305.1397
   4   2.0000     -11.148574      -303.3681
   5   2.0000      -1.243515       -33.8378
   6   2.0000      -1.053704       -28.6727
   7   2.0000      -0.982686       -26.7402
   8   2.0000      -0.867815       -23.6144
   9   2.0000      -0.769025       -20.9262
  10   2.0000      -0.704565       -19.1722
  11   2.0000      -0.653485       -17.7822
  12   2.0000      -0.602686       -16.3999
  13   2.0000      -0.593580       -16.1521
  14   2.0000      -0.549147       -14.9430
  15   2.0000      -0.531932       -14.4746
  16   2.0000      -0.505793       -13.7633
  17   2.0000      -0.485295       -13.2055
  18   2.0000      -0.471579       -12.8323
  19   2.0000      -0.293977        -7.9995
  20   0.0000       0.027055         0.7362
  21   0.0000       0.036017         0.9801
  22   0.0000       0.040086         1.0908
  23   0.0000       0.043517         1.1842
  24   0.0000       0.056096         1.5265

MULLIKEN ATOMIC CHARGES
-----------------------
   0 C :   -0.094122
   1 C :    0.934122
   2 N :   -0.621045
   3 C :   -1.440741
   4 H :    0.463180
   5 H :    0.205994
   6 H :    0.069485
   7 H :    0.049884
   8 C :   -1.005389
   9 H :    0.240420
  10 H :    0.304847
  11 H :    0.300139
  12 H :    0.309539
  13 H :    0.283686
Sum of atomic charges:    0.0000000

LOEWDIN ATOMIC CHARGES
----------------------
   0 C :    0.287800
   1 C :   -0.325922
   2 N :    0.836729
   3 C :    0.558210
   4 H :   -0.289876
   5 H :   -0.296813
   6 H :   -0.277211
   7 H :   -0.260633
   8 C :    0.612624
   9 H :   -0.152361
  10 H :   -0.144104
  11 H :   -0.181486
  12 H :   -0.174562
  13 H :   -0.192396

  Mayer bond orders larger than 0.100000
B(  0-C ,  1-C ) :   0.5707 B(  0-C ,  2-N ) :  -0.1074 B(  0-C ,  8-C ) :   0.8052
B(  0-C ,  9-H ) :   0.9980 B(  0-C , 10-H ) :   0.9562 B(  1-C ,  2-N ) :   0.7000
B(  1-C ,  3-C ) :   0.8944 B(  1-C ,  5-H ) :  -0.1109 B(  1-C ,  8-C ) :   0.1134
B(  2-N ,  3-C ) :  -0.1639 B(  2-N ,  6-H ) :   1.1273 B(  2-N ,  7-H ) :   1.1604
B(  3-C ,  4-H ) :   0.7046 B(  3-C ,  5-H ) :   1.2944 B(  8-C , 11-H ) :   0.9534
B(  8-C , 12-H ) :   0.9287 B(  8-C , 13-H ) :   0.9428

E(0)                                       ...   -211.199797480
E(0)                                       ...   -211.199797480
E(CORR)(strong-pairs)                      ...     -0.950621136
E(CORR)(weak-pairs)                        ...     -0.000935125
E(CORR)(corrected)                         ...     -0.951556261
E(TOT)                                     ...   -212.151353741
E(CCSD(T))                                 ...   -212.190088599
FINAL SINGLE POINT ENERGY      -212.190088598663

DIPOLE MOMENT
-------------
                                X             Y             Z
Electronic contribution:     -0.49193       0.27273       2.75347
Nuclear contribution   :     -0.12319      -0.83296      -3.13501
                        -----------------------------------------
Total Dipole Moment    :     -0.61512      -0.56024      -0.38154
                        -----------------------------------------
Magnitude (a.u.)       :      0.91532
Magnitude (Debye)      :      2.32656

Rotational constants in cm-1:     0.266453     0.134423     0.106086
Rotational constants in MHz :  7988.053142  4029.892766  3180.375228

                             ****ORCA TERMINATED NORMALLY****
TOTAL RUN TIME: 0 days 0 hours 6 minutes 41 seconds 952 msec
