                         Program Version 5.0.0 -  RELEASE  -
|  1> !DLPNO-CCSD(T) aug-cc-pVTZ aug-cc-pVTZ/C TightSCF TightPNO RIJCOSX def2/J
|  2>
|  3> *xyzfile 0 1 D3.xyz
|  4>
|  5> %MaxCore 64000
|  6>
|  7> %pal nprocs 18
|  8> end
|  9>
| 10> %scf
| 11>   MaxIter 150
| 12> end
| 13>
| 14>
| 15>                          ****END OF INPUT****

CARTESIAN COORDINATES (ANGSTROEM)
---------------------------------
  C      4.602954   -2.440100    2.634780
  C     -0.914947    0.615112    2.505538
  C     -0.059146    1.503524    3.410578
  H      0.365364    2.344315    2.861161
  H     -0.692261    1.920207    4.198985
  C      1.083027    0.749640    4.085705
  C      3.860851   -1.591565    3.622893
  C      2.756502   -2.046159    4.166333
  N      4.254325   -0.362905    3.860455
  H      3.565256    0.310994    4.168983
  H      5.054292   -0.016059    3.337838
  H      2.439696   -2.973894    3.897395
  H      2.066869   -1.412532    4.549813
  O      2.228167    1.263475    4.019826
  F      0.810034   -0.345411    4.636269
  C      3.744685   -2.580557    1.361882
  C      0.772139    0.636882    0.562129
  C     -0.130740   -0.193985    1.470763
  H     -0.840563   -0.760165    0.856377
  H      0.466691   -0.938942    2.006959
  H     -1.647961    1.245963    1.991076
  H     -1.478180   -0.081046    3.130424
  C      3.203721   -1.256004    0.826211
  H      2.898939   -3.239289    1.583074
  H      4.334962   -3.095523    0.600188
  C      2.107815   -1.442385   -0.216865
  H      2.786775   -0.672760    1.650711
  H      4.021008   -0.652993    0.414046
  C      1.390662   -0.145912   -0.602422
  H      1.372179   -2.152184    0.176151
  H      2.523302   -1.906787   -1.117115
  H      1.561361    1.100094    1.161831
  H      0.195516    1.468325    0.142758
  H      0.602893   -0.398214   -1.319716
  H      2.087247    0.508272   -1.137335
  H      5.561557   -1.971347    2.407084
  H      4.810498   -3.422552    3.063099

 Total Charge           Charge          ....    0
 Multiplicity           Mult            ....    1
 Number of Electrons    NEL             ....  118
 Basis Dimension        Dim             .... 1196

ORBITAL ENERGIES
----------------

  NO   OCC          E(Eh)            E(eV)
   0   2.0000     -26.389034      -718.0821
   1   2.0000     -20.582095      -560.0673
   2   2.0000     -15.518346      -422.2757
   3   2.0000     -11.451030      -311.5984
   4   2.0000     -11.267903      -306.6152
   5   2.0000     -11.247200      -306.0519
   6   2.0000     -11.231413      -305.6223
   7   2.0000     -11.229974      -305.5831
   8   2.0000     -11.222717      -305.3857
   9   2.0000     -11.218348      -305.2668
  10   2.0000     -11.211895      -305.0912
  11   2.0000     -11.211661      -305.0848
  12   2.0000     -11.211085      -305.0691
  13   2.0000     -11.205815      -304.9257
  14   2.0000     -11.118724      -302.5558
  15   2.0000      -1.749649       -47.6104
  16   2.0000      -1.402165       -38.1549
  17   2.0000      -1.214970       -33.0610
  18   2.0000      -1.118473       -30.4352
  19   2.0000      -1.085524       -29.5386
  20   2.0000      -1.053102       -28.6563
  21   2.0000      -1.010105       -27.4864
  22   2.0000      -0.970973       -26.4215
  23   2.0000      -0.948011       -25.7967
  24   2.0000      -0.913343       -24.8533
  25   2.0000      -0.884857       -24.0782
  26   2.0000      -0.840058       -22.8591
  27   2.0000      -0.807364       -21.9695
  28   2.0000      -0.800073       -21.7711
  29   2.0000      -0.789459       -21.4823
  30   2.0000      -0.765320       -20.8254
  31   2.0000      -0.743926       -20.2433
  32   2.0000      -0.716154       -19.4875
  33   2.0000      -0.670939       -18.2572
  34   2.0000      -0.657985       -17.9047
  35   2.0000      -0.650286       -17.6952
  36   2.0000      -0.643567       -17.5123
  37   2.0000      -0.616993       -16.7892
  38   2.0000      -0.615830       -16.7576
  39   2.0000      -0.600164       -16.3313
  40   2.0000      -0.581941       -15.8354
  41   2.0000      -0.574074       -15.6214
  42   2.0000      -0.564921       -15.3723
  43   2.0000      -0.545243       -14.8368
  44   2.0000      -0.538367       -14.6497
  45   2.0000      -0.527632       -14.3576
  46   2.0000      -0.524744       -14.2790
  47   2.0000      -0.513020       -13.9600
  48   2.0000      -0.501221       -13.6389
  49   2.0000      -0.493623       -13.4322
  50   2.0000      -0.486174       -13.2295
  51   2.0000      -0.477995       -13.0069
  52   2.0000      -0.463536       -12.6135
  53   2.0000      -0.458340       -12.4721
  54   2.0000      -0.454168       -12.3585
  55   2.0000      -0.448892       -12.2150
  56   2.0000      -0.438499       -11.9322
  57   2.0000      -0.431832       -11.7507
  58   2.0000      -0.268016        -7.2931
  59   0.0000       0.021543         0.5862
  60   0.0000       0.029102         0.7919
  61   0.0000       0.031635         0.8608
  62   0.0000       0.034432         0.9370
  63   0.0000       0.042716         1.1624

MULLIKEN ATOMIC CHARGES
-----------------------
   0 C :   -0.353404
   1 C :   -0.502321
   2 C :   -0.365442
   3 H :    0.204891
   4 H :    0.414693
   5 C :    1.058561
   6 C :    1.369576
   7 C :   -1.558575
   8 N :   -1.099480
   9 H :    0.171530
  10 H :   -0.057628
  11 H :    0.044925
  12 H :    0.837351
  13 O :   -0.872980
  14 F :   -0.503720
  15 C :   -0.579257
  16 C :   -0.315368
  17 C :   -0.609859
  18 H :    0.465830
  19 H :    0.248910
  20 H :    0.221081
  21 H :    0.199746
  22 C :   -0.498933
  23 H :    0.221567
  24 H :    0.361524
  25 C :   -0.350140
  26 H :    0.449671
  27 H :    0.208758
  28 C :   -0.861591
  29 H :   -0.001183
  30 H :    0.519573
  31 H :    0.144665
  32 H :    0.583691
  33 H :    0.120446
  34 H :    0.169767
  35 H :    0.136422
  36 H :    0.376702
Sum of atomic charges:   -0.0000000

LOEWDIN ATOMIC CHARGES
----------------------
   0 C :    0.318394
   1 C :    0.290069
   2 C :    0.290400
   3 H :   -0.159515
   4 H :   -0.145012
   5 C :   -0.774387
   6 C :   -0.318240
   7 C :    0.552854
   8 N :    0.856063
   9 H :   -0.580847
  10 H :   -0.262352
  11 H :   -0.277448
  12 H :   -0.517192
  13 O :    0.576611
  14 F :    0.729414
  15 C :    0.303886
  16 C :    0.285975
  17 C :    0.281799
  18 H :   -0.124271
  19 H :   -0.160921
  20 H :   -0.134043
  21 H :   -0.145136
  22 C :    0.279909
  23 H :   -0.151528
  24 H :   -0.138037
  25 C :    0.289151
  26 H :   -0.205747
  27 H :   -0.118830
  28 C :    0.306182
  29 H :   -0.151619
  30 H :   -0.132736
  31 H :   -0.160962
  32 H :   -0.134069
  33 H :   -0.143161
  34 H :   -0.138410
  35 H :   -0.151373
  36 H :   -0.134869

  Mayer bond orders larger than 0.100000
B(  0-C ,  6-C ) :   0.7639 B(  0-C ,  7-C ) :  -0.1584 B(  0-C ,  8-N ) :  -0.1159
B(  0-C , 15-C ) :   0.9686 B(  0-C , 35-H ) :   1.1319 B(  0-C , 36-H ) :   0.9290
B(  1-C ,  2-C ) :   0.9178 B(  1-C ,  5-C ) :   0.1154 B(  1-C , 17-C ) :   0.8674
B(  1-C , 20-H ) :   0.9730 B(  1-C , 21-H ) :   1.0032 B(  2-C ,  3-H ) :   0.9977
B(  2-C ,  4-H ) :   0.8954 B(  2-C ,  5-C ) :   0.7353 B(  2-C , 14-F ) :   0.1182
B(  2-C , 17-C ) :   0.1134 B(  4-H ,  5-C ) :  -0.1209 B(  5-C , 13-O ) :   1.2809
B(  5-C , 14-F ) :   0.6199 B(  6-C ,  7-C ) :   1.1621 B(  6-C ,  9-H ) :  -0.1032
B(  6-C , 10-H ) :  -0.1956 B(  6-C , 11-H ) :  -0.2193 B(  6-C , 15-C ) :   0.1268
B(  7-C , 11-H ) :   1.6729 B(  7-C , 12-H ) :   0.2715 B(  7-C , 14-F ) :  -0.1066
B(  8-N ,  9-H ) :   1.0017 B(  8-N , 10-H ) :   1.3005 B( 12-H , 14-F ) :  -0.1569
B( 15-C , 22-C ) :   0.8096 B( 15-C , 23-H ) :   1.0182 B( 15-C , 24-H ) :   0.8553
B( 16-C , 17-C ) :   0.8324 B( 16-C , 28-C ) :   0.9961 B( 16-C , 31-H ) :   1.1101
B( 16-C , 32-H ) :   0.6629 B( 17-C , 18-H ) :   0.7496 B( 17-C , 19-H ) :   1.0745
B( 22-C , 25-C ) :   0.8476 B( 22-C , 26-H ) :   0.9166 B( 22-C , 27-H ) :   0.9931
B( 25-C , 28-C ) :   0.8826 B( 25-C , 29-H ) :   1.1888 B( 25-C , 30-H ) :   0.7108
B( 28-C , 31-H ) :   0.1214 B( 28-C , 32-H ) :  -0.1099 B( 28-C , 33-H ) :   1.1151
B( 28-C , 34-H ) :   1.0538

E(0)                                       ...   -696.161115317
E(0)                                       ...   -696.161115317
E(CORR)(strong-pairs)                      ...     -2.897365811
E(CORR)(weak-pairs)                        ...     -0.005484348
E(CORR)(corrected)                         ...     -2.902850159
E(TOT)                                     ...   -699.063965476
E(CCSD(T))                                 ...   -699.185505416
FINAL SINGLE POINT ENERGY      -699.185505416442

DIPOLE MOMENT
-------------
                                X             Y             Z
Electronic contribution:     -1.34616       4.76218      15.84012
Nuclear contribution   :      0.05905      -3.94566     -16.70013
                        -----------------------------------------
Total Dipole Moment    :     -1.28712       0.81652      -0.86001
                        -----------------------------------------
Magnitude (a.u.)       :      1.75014
Magnitude (Debye)      :      4.44851

Rotational constants in cm-1:     0.021602     0.017295     0.011353
Rotational constants in MHz :   647.614981   518.478934   340.359556

                             ****ORCA TERMINATED NORMALLY****
TOTAL RUN TIME: 0 days 5 hours 32 minutes 42 seconds 725 msec
