                         Program Version 5.0.0 -  RELEASE  -
|  1> !PBE0 D3BJ RIJCOSX def2-SVPD def2/J TightSCF
|  2> *xyz -1 1
|  3> C         -0.46129        2.23469       -4.98962
|  4> C          0.84888        2.66797       -4.30235
|  5> C          2.09343        1.86104       -4.65684
|  6> H          2.44481        2.04157       -5.67499
|  7> H          2.90175        2.13786       -3.98034
|  8> S          1.87964        0.07859       -4.46297
|  9> O          3.20757       -0.46611       -4.42026
| 10> O          1.07506       -0.05616       -3.26876
| 11> O          1.13166       -0.31996       -5.67903
| 12> H          0.66843        2.55943       -3.23285
| 13> H          1.03407        3.72943       -4.49708
| 14> H         -0.35183        2.31783       -6.05075
| 15> H         -1.26108        2.86600       -4.66300
| 16> H         -0.68032        1.21949       -4.73211
| 17> *
| 18>
| 19> %MaxCore 64000
| 20>
| 21> %pal nprocs 8
| 22> end
| 23>
| 24> %scf
| 25>   MaxIter 150
| 26> end
| 27>
| 28>
| 29>                          ****END OF INPUT****

CARTESIAN COORDINATES (ANGSTROEM)
---------------------------------
  C     -0.461290    2.234690   -4.989620
  C      0.848880    2.667970   -4.302350
  C      2.093430    1.861040   -4.656840
  H      2.444810    2.041570   -5.674990
  H      2.901750    2.137860   -3.980340
  S      1.879640    0.078590   -4.462970
  O      3.207570   -0.466110   -4.420260
  O      1.075060   -0.056160   -3.268760
  O      1.131660   -0.319960   -5.679030
  H      0.668430    2.559430   -3.232850
  H      1.034070    3.729430   -4.497080
  H     -0.351830    2.317830   -6.050750
  H     -1.261080    2.866000   -4.663000
  H     -0.680320    1.219490   -4.732110

 Total Charge           Charge          ....   -1
 Multiplicity           Mult            ....    1
 Number of Electrons    NEL             ....   66
 Basis Dimension        Dim             ....  212

ORBITAL ENERGIES
----------------

  NO   OCC          E(Eh)            E(eV)
   0   2.0000     -89.039738     -2422.8944
   1   2.0000     -19.003294      -517.1059
   2   2.0000     -19.001133      -517.0471
   3   2.0000     -18.987853      -516.6858
   4   2.0000     -10.100709      -274.8543
   5   2.0000     -10.093826      -274.6670
   6   2.0000     -10.078195      -274.2416
   7   2.0000      -7.999139      -217.6676
   8   2.0000      -5.941447      -161.6750
   9   2.0000      -5.941214      -161.6687
  10   2.0000      -5.940822      -161.6580
  11   2.0000      -0.963757       -26.2252
  12   2.0000      -0.825774       -22.4704
  13   2.0000      -0.799291       -21.7498
  14   2.0000      -0.669019       -18.2049
  15   2.0000      -0.577862       -15.7244
  16   2.0000      -0.480881       -13.0854
  17   2.0000      -0.396899       -10.8002
  18   2.0000      -0.347650        -9.4600
  19   2.0000      -0.330056        -8.9813
  20   2.0000      -0.310249        -8.4423
  21   2.0000      -0.295636        -8.0447
  22   2.0000      -0.280202        -7.6247
  23   2.0000      -0.266056        -7.2397
  24   2.0000      -0.234878        -6.3914
  25   2.0000      -0.226552        -6.1648
  26   2.0000      -0.207558        -5.6479
  27   2.0000      -0.170973        -4.6524
  28   2.0000      -0.168523        -4.5857
  29   2.0000      -0.135893        -3.6978
  30   2.0000      -0.125080        -3.4036
  31   2.0000      -0.113337        -3.0841
  32   2.0000      -0.083465        -2.2712
  33   0.0000       0.144843         3.9414
  34   0.0000       0.168637         4.5888
  35   0.0000       0.175084         4.7643
  36   0.0000       0.181207         4.9309
  37   0.0000       0.201779         5.4907

MULLIKEN ATOMIC CHARGES
-----------------------
   0 C :    0.570582
   1 C :   -0.383341
   2 C :   -0.047029
   3 H :    0.041803
   4 H :    0.044820
   5 S :    1.407996
   6 O :   -0.862945
   7 O :   -0.832164
   8 O :   -0.845263
   9 H :    0.118383
  10 H :   -0.147035
  11 H :   -0.015667
  12 H :   -0.068098
  13 H :    0.017959
Sum of atomic charges:   -1.0000000

LOEWDIN ATOMIC CHARGES
----------------------
   0 C :    0.114696
   1 C :   -0.099805
   2 C :   -0.094934
   3 H :    0.008579
   4 H :    0.000450
   5 S :    0.867937
   6 O :   -0.571219
   7 O :   -0.567867
   8 O :   -0.590422
   9 H :    0.012172
  10 H :    0.005587
  11 H :   -0.018895
  12 H :   -0.033676
  13 H :   -0.032604

  Mayer bond orders larger than 0.100000
B(  0-C ,  1-C ) :   1.3060 B(  0-C , 11-H ) :   0.8027 B(  0-C , 12-H ) :   0.8039
B(  0-C , 13-H ) :   0.8500 B(  1-C ,  2-C ) :   1.2560 B(  1-C ,  3-H ) :   0.1184
B(  1-C ,  4-H ) :   0.1231 B(  1-C ,  9-H ) :   0.8635 B(  1-C , 10-H ) :   0.9687
B(  1-C , 11-H ) :   0.1901 B(  1-C , 12-H ) :   0.1866 B(  1-C , 13-H ) :   0.1836
B(  2-C ,  3-H ) :   0.9435 B(  2-C ,  4-H ) :   0.9242 B(  2-C ,  5-S ) :   0.9282
B(  2-C ,  9-H ) :   0.1148 B(  2-C , 10-H ) :   0.1056 B(  5-S ,  6-O ) :   1.3277
B(  5-S ,  7-O ) :   1.2613 B(  5-S ,  8-O ) :   1.2399

Dispersion correction           -0.011672315
FINAL SINGLE POINT ENERGY      -741.560785238934

DIPOLE MOMENT
-------------
                                X             Y             Z
Electronic contribution:      4.87400      -9.05387       1.03910
Nuclear contribution   :     -5.21326      11.14780      -1.06438
                        -----------------------------------------
Total Dipole Moment    :     -0.33927       2.09393      -0.02528
                        -----------------------------------------
Magnitude (a.u.)       :      2.12139
Magnitude (Debye)      :      5.39215

Rotational constants in cm-1:     0.135673     0.057896     0.054396
Rotational constants in MHz :  4067.361083  1735.682437  1630.763840

                             ****ORCA TERMINATED NORMALLY****
TOTAL RUN TIME: 0 days 0 hours 0 minutes 14 seconds 347 msec
