                         Program Version 5.0.0 -  RELEASE  -
|  1> !PBE0 D3BJ RIJCOSX def2-SVPD def2/J TightSCF
|  2> *xyz 1 1
|  3> C         -0.46129        2.23469       -4.98962
|  4> C          0.84888        2.66797       -4.30235
|  5> C          2.09343        1.86104       -4.65684
|  6> C         -0.42384        2.39877       -6.47432
|  7> N         -0.95947        3.49265       -7.00740
|  8> N          0.14558        1.48689       -7.20399
|  9> H          0.56537        0.69681       -6.72386
| 10> H          0.22068        1.58177       -8.20752
| 11> H         -1.40624        4.18151       -6.40326
| 12> H         -0.93421        3.68160       -7.99947
| 13> H          0.66843        2.55943       -3.23285
| 14> H          1.03407        3.72943       -4.49708
| 15> H         -1.28888        2.82674       -4.59500
| 16> H         -0.65170        1.18634       -4.75655
| 17> H          2.29129        1.95234       -5.70442
| 18> H          1.93270        0.83176       -4.41261
| 19> H          2.92953        2.23285       -4.10223
| 20> *
| 21>
| 22> %MaxCore 64000
| 23>
| 24> %pal nprocs 8
| 25> end
| 26>
| 27> %scf
| 28>   MaxIter 150
| 29> end
| 30>
| 31>
| 32>                          ****END OF INPUT****

CARTESIAN COORDINATES (ANGSTROEM)
---------------------------------
  C     -0.461290    2.234690   -4.989620
  C      0.848880    2.667970   -4.302350
  C      2.093430    1.861040   -4.656840
  C     -0.423840    2.398770   -6.474320
  N     -0.959470    3.492650   -7.007400
  N      0.145580    1.486890   -7.203990
  H      0.565370    0.696810   -6.723860
  H      0.220680    1.581770   -8.207520
  H     -1.406240    4.181510   -6.403260
  H     -0.934210    3.681600   -7.999470
  H      0.668430    2.559430   -3.232850
  H      1.034070    3.729430   -4.497080
  H     -1.288880    2.826740   -4.595000
  H     -0.651700    1.186340   -4.756550
  H      2.291290    1.952340   -5.704420
  H      1.932700    0.831760   -4.412610
  H      2.929530    2.232850   -4.102230

 Total Charge           Charge          ....    1
 Multiplicity           Mult            ....    1
 Number of Electrons    NEL             ....   48
 Basis Dimension        Dim             ....  208

ORBITAL ENERGIES
----------------

  NO   OCC          E(Eh)            E(eV)
   0   2.0000     -14.641247      -398.4086
   1   2.0000     -14.637648      -398.3107
   2   2.0000     -10.551644      -287.1248
   3   2.0000     -10.427690      -283.7519
   4   2.0000     -10.395307      -282.8707
   5   2.0000     -10.361896      -281.9615
   6   2.0000      -1.221146       -33.2291
   7   2.0000      -1.123929       -30.5837
   8   2.0000      -0.990835       -26.9620
   9   2.0000      -0.906260       -24.6606
  10   2.0000      -0.848282       -23.0829
  11   2.0000      -0.802405       -21.8346
  12   2.0000      -0.789159       -21.4741
  13   2.0000      -0.745752       -20.2930
  14   2.0000      -0.714436       -19.4408
  15   2.0000      -0.667471       -18.1628
  16   2.0000      -0.636691       -17.3253
  17   2.0000      -0.620616       -16.8878
  18   2.0000      -0.587898       -15.9975
  19   2.0000      -0.573996       -15.6192
  20   2.0000      -0.522722       -14.2240
  21   2.0000      -0.510874       -13.9016
  22   2.0000      -0.509126       -13.8540
  23   2.0000      -0.497097       -13.5267
  24   0.0000      -0.202337        -5.5059
  25   0.0000      -0.147367        -4.0101
  26   0.0000      -0.105991        -2.8842
  27   0.0000      -0.102708        -2.7948
  28   0.0000      -0.079682        -2.1683

MULLIKEN ATOMIC CHARGES
-----------------------
   0 C :   -0.077143
   1 C :   -0.423529
   2 C :    0.584388
   3 C :    1.056603
   4 N :   -0.175698
   5 N :   -0.090608
   6 H :    0.119654
   7 H :   -0.108796
   8 H :    0.073722
   9 H :   -0.098119
  10 H :    0.040925
  11 H :    0.001521
  12 H :    0.031014
  13 H :    0.101352
  14 H :   -0.033044
  15 H :    0.040158
  16 H :   -0.042400
Sum of atomic charges:    1.0000000

LOEWDIN ATOMIC CHARGES
----------------------
   0 C :    0.043008
   1 C :   -0.042948
   2 C :    0.131190
   3 C :   -0.037644
   4 N :    0.276267
   5 N :    0.285215
   6 H :    0.051341
   7 H :    0.055765
   8 H :    0.055222
   9 H :    0.044518
  10 H :    0.040662
  11 H :    0.035574
  12 H :    0.041554
  13 H :    0.049067
  14 H :   -0.028494
  15 H :   -0.004593
  16 H :    0.004296

  Mayer bond orders larger than 0.100000
B(  0-C ,  1-C ) :   1.1928 B(  0-C ,  3-C ) :   1.0474 B(  0-C ,  4-N ) :   0.1180
B(  0-C ,  5-N ) :   0.1091 B(  0-C , 12-H ) :   0.9153 B(  0-C , 13-H ) :   0.8586
B(  1-C ,  2-C ) :   1.3421 B(  1-C , 10-H ) :   0.9208 B(  1-C , 11-H ) :   0.9902
B(  1-C , 12-H ) :   0.1046 B(  1-C , 13-H ) :   0.1219 B(  1-C , 14-H ) :   0.1816
B(  1-C , 15-H ) :   0.1873 B(  1-C , 16-H ) :   0.1892 B(  2-C , 14-H ) :   0.8417
B(  2-C , 15-H ) :   0.8118 B(  2-C , 16-H ) :   0.8275 B(  3-C ,  4-N ) :   0.9074
B(  3-C ,  5-N ) :   1.0160 B(  3-C ,  7-H ) :  -0.2037 B(  3-C ,  9-H ) :  -0.1861
B(  4-N ,  5-N ) :   0.1805 B(  4-N ,  8-H ) :   1.0833 B(  4-N ,  9-H ) :   1.3117
B(  5-N ,  6-H ) :   1.0064 B(  5-N ,  7-H ) :   1.3603 B(  6-H ,  7-H ) :  -0.1837
B(  8-H ,  9-H ) :  -0.1715

Dispersion correction           -0.011646419
FINAL SINGLE POINT ENERGY      -267.863630039773

DIPOLE MOMENT
-------------
                                X             Y             Z
Electronic contribution:     -3.54449       0.63045      -4.29664
Nuclear contribution   :      2.80679      -0.44323       2.95915
                        -----------------------------------------
Total Dipole Moment    :     -0.73770       0.18722      -1.33748
                        -----------------------------------------
Magnitude (a.u.)       :      1.53887
Magnitude (Debye)      :      3.91149

Rotational constants in cm-1:     0.187834     0.079484     0.065778
Rotational constants in MHz :  5631.136036  2382.861517  1971.985559

                             ****ORCA TERMINATED NORMALLY****
TOTAL RUN TIME: 0 days 0 hours 0 minutes 13 seconds 854 msec
