                         Program Version 5.0.0 -  RELEASE  -
|  1> !PBE0 D3BJ RIJCOSX def2-SVPD def2/J TightSCF
|  2> *xyz 0 1
|  3> C         -0.46129        2.23469       -4.98962
|  4> C          0.84888        2.66797       -4.30235
|  5> C          2.09343        1.86104       -4.65684
|  6> H          2.44481        2.04157       -5.67499
|  7> H          2.90175        2.13786       -3.98034
|  8> S          1.87964        0.07859       -4.46297
|  9> F          3.20757       -0.46611       -4.42026
| 10> O          1.07506       -0.05616       -3.26876
| 11> O          1.13166       -0.31996       -5.67903
| 12> H          0.66843        2.55943       -3.23285
| 13> H          1.03407        3.72943       -4.49708
| 14> H         -0.35183        2.31783       -6.05075
| 15> H         -1.26108        2.86600       -4.66300
| 16> H         -0.68032        1.21949       -4.73211
| 17> *
| 18>
| 19> %MaxCore 64000
| 20>
| 21> %pal nprocs 8
| 22> end
| 23>
| 24> %scf
| 25>   MaxIter 150
| 26> end
| 27>
| 28>
| 29>                          ****END OF INPUT****

CARTESIAN COORDINATES (ANGSTROEM)
---------------------------------
  C     -0.461290    2.234690   -4.989620
  C      0.848880    2.667970   -4.302350
  C      2.093430    1.861040   -4.656840
  H      2.444810    2.041570   -5.674990
  H      2.901750    2.137860   -3.980340
  S      1.879640    0.078590   -4.462970
  F      3.207570   -0.466110   -4.420260
  O      1.075060   -0.056160   -3.268760
  O      1.131660   -0.319960   -5.679030
  H      0.668430    2.559430   -3.232850
  H      1.034070    3.729430   -4.497080
  H     -0.351830    2.317830   -6.050750
  H     -1.261080    2.866000   -4.663000
  H     -0.680320    1.219490   -4.732110

 Total Charge           Charge          ....    0
 Multiplicity           Mult            ....    1
 Number of Electrons    NEL             ....   66
 Basis Dimension        Dim             ....  212

ORBITAL ENERGIES
----------------

  NO   OCC          E(Eh)            E(eV)
   0   2.0000     -89.297931     -2429.9202
   1   2.0000     -24.908554      -677.7962
   2   2.0000     -19.233314      -523.3651
   3   2.0000     -19.220423      -523.0143
   4   2.0000     -10.293806      -280.1087
   5   2.0000     -10.259864      -279.1851
   6   2.0000     -10.220510      -278.1142
   7   2.0000      -8.258249      -224.7184
   8   2.0000      -6.204417      -168.8308
   9   2.0000      -6.198201      -168.6616
  10   2.0000      -6.196896      -168.6261
  11   2.0000      -1.416789       -38.5528
  12   2.0000      -1.137688       -30.9581
  13   2.0000      -1.031739       -28.0751
  14   2.0000      -0.846523       -23.0351
  15   2.0000      -0.775977       -21.1154
  16   2.0000      -0.728542       -19.8246
  17   2.0000      -0.653185       -17.7741
  18   2.0000      -0.614607       -16.7243
  19   2.0000      -0.600752       -16.3473
  20   2.0000      -0.573580       -15.6079
  21   2.0000      -0.510585       -13.8937
  22   2.0000      -0.499564       -13.5938
  23   2.0000      -0.471635       -12.8338
  24   2.0000      -0.465440       -12.6653
  25   2.0000      -0.437889       -11.9156
  26   2.0000      -0.404984       -11.0202
  27   2.0000      -0.386956       -10.5296
  28   2.0000      -0.381729       -10.3874
  29   2.0000      -0.362077        -9.8526
  30   2.0000      -0.351148        -9.5552
  31   2.0000      -0.332163        -9.0386
  32   2.0000      -0.322884        -8.7861
  33   0.0000       0.002410         0.0656
  34   0.0000       0.023821         0.6482
  35   0.0000       0.039872         1.0850
  36   0.0000       0.043540         1.1848
  37   0.0000       0.054991         1.4964

MULLIKEN ATOMIC CHARGES
-----------------------
   0 C :    0.587044
   1 C :   -0.380065
   2 C :   -0.074499
   3 H :    0.090286
   4 H :    0.097056
   5 S :    1.592693
   6 F :   -0.465166
   7 O :   -0.699019
   8 O :   -0.712413
   9 H :    0.134645
  10 H :   -0.115781
  11 H :   -0.002000
  12 H :   -0.049062
  13 H :   -0.003718
Sum of atomic charges:   -0.0000000

LOEWDIN ATOMIC CHARGES
----------------------
   0 C :    0.136930
   1 C :   -0.069092
   2 C :   -0.059425
   3 H :    0.027731
   4 H :    0.017227
   5 S :    1.132310
   6 F :   -0.254448
   7 O :   -0.462307
   8 O :   -0.481704
   9 H :    0.026061
  10 H :    0.033325
  11 H :   -0.007218
  12 H :   -0.011901
  13 H :   -0.027489

  Mayer bond orders larger than 0.100000
B(  0-C ,  1-C ) :   1.3223 B(  0-C , 11-H ) :   0.8026 B(  0-C , 12-H ) :   0.8055
B(  0-C , 13-H ) :   0.8563 B(  1-C ,  2-C ) :   1.3112 B(  1-C ,  3-H ) :   0.1148
B(  1-C ,  4-H ) :   0.1333 B(  1-C ,  9-H ) :   0.8570 B(  1-C , 10-H ) :   0.9640
B(  1-C , 11-H ) :   0.1841 B(  1-C , 12-H ) :   0.1785 B(  1-C , 13-H ) :   0.1695
B(  2-C ,  3-H ) :   0.9325 B(  2-C ,  4-H ) :   0.8738 B(  2-C ,  5-S ) :   0.9748
B(  2-C ,  9-H ) :   0.1126 B(  5-S ,  6-F ) :   0.6528 B(  5-S ,  7-O ) :   1.4620
B(  5-S ,  8-O ) :   1.4381

Dispersion correction           -0.011292541
FINAL SINGLE POINT ENERGY      -766.028388247786

DIPOLE MOMENT
-------------
                                X             Y             Z
Electronic contribution:      8.07780     -11.20744       1.23262
Nuclear contribution   :     -7.07796      12.41139      -1.18012
                        -----------------------------------------
Total Dipole Moment    :      0.99984       1.20395       0.05250
                        -----------------------------------------
Magnitude (a.u.)       :      1.56586
Magnitude (Debye)      :      3.98011

Rotational constants in cm-1:     0.134396     0.055628     0.052255
Rotational constants in MHz :  4029.100214  1667.685325  1566.551712

                             ****ORCA TERMINATED NORMALLY****
TOTAL RUN TIME: 0 days 0 hours 0 minutes 13 seconds 748 msec
