                         Program Version 5.0.0 -  RELEASE  -
|  1> !PBE0 D3BJ RIJCOSX def2-SVPD def2/J TightSCF
|  2> *xyz 0 1
|  3> C         -0.46129        2.23469       -4.98962
|  4> C          0.84888        2.66797       -4.30235
|  5> C          2.09343        1.86104       -4.65684
|  6> C         -0.42384        2.39877       -6.47432
|  7> C         -0.95947        3.49265       -7.00740
|  8> N          0.14558        1.48689       -7.20399
|  9> H          0.56537        0.69681       -6.72386
| 10> H          0.22068        1.58177       -8.20752
| 11> H         -1.40624        4.18151       -6.40326
| 12> H         -0.93421        3.68160       -7.99947
| 13> H          0.66843        2.55943       -3.23285
| 14> H          1.03407        3.72943       -4.49708
| 15> H         -1.28888        2.82674       -4.59500
| 16> H         -0.65170        1.18634       -4.75655
| 17> H          2.29129        1.95234       -5.70442
| 18> H          1.93270        0.83176       -4.41261
| 19> H          2.92953        2.23285       -4.10223
| 20> *
| 21>
| 22> %MaxCore 64000
| 23>
| 24> %pal nprocs 8
| 25> end
| 26>
| 27> %scf
| 28>   MaxIter 150
| 29> end
| 30>
| 31>
| 32>                          ****END OF INPUT****

CARTESIAN COORDINATES (ANGSTROEM)
---------------------------------
  C     -0.461290    2.234690   -4.989620
  C      0.848880    2.667970   -4.302350
  C      2.093430    1.861040   -4.656840
  C     -0.423840    2.398770   -6.474320
  C     -0.959470    3.492650   -7.007400
  N      0.145580    1.486890   -7.203990
  H      0.565370    0.696810   -6.723860
  H      0.220680    1.581770   -8.207520
  H     -1.406240    4.181510   -6.403260
  H     -0.934210    3.681600   -7.999470
  H      0.668430    2.559430   -3.232850
  H      1.034070    3.729430   -4.497080
  H     -1.288880    2.826740   -4.595000
  H     -0.651700    1.186340   -4.756550
  H      2.291290    1.952340   -5.704420
  H      1.932700    0.831760   -4.412610
  H      2.929530    2.232850   -4.102230

 Total Charge           Charge          ....    0
 Multiplicity           Mult            ....    1
 Number of Electrons    NEL             ....   48
 Basis Dimension        Dim             ....  208

ORBITAL ENERGIES
----------------

  NO   OCC          E(Eh)            E(eV)
   0   2.0000     -14.399282      -391.8244
   1   2.0000     -10.251721      -278.9635
   2   2.0000     -10.231289      -278.4075
   3   2.0000     -10.229798      -278.3669
   4   2.0000     -10.216802      -278.0133
   5   2.0000     -10.163495      -276.5628
   6   2.0000      -0.954950       -25.9855
   7   2.0000      -0.810326       -22.0501
   8   2.0000      -0.751516       -20.4498
   9   2.0000      -0.695776       -18.9330
  10   2.0000      -0.620876       -16.8949
  11   2.0000      -0.580050       -15.7840
  12   2.0000      -0.542298       -14.7567
  13   2.0000      -0.500526       -13.6200
  14   2.0000      -0.464603       -12.6425
  15   2.0000      -0.447307       -12.1718
  16   2.0000      -0.423606       -11.5269
  17   2.0000      -0.403733       -10.9861
  18   2.0000      -0.387453       -10.5431
  19   2.0000      -0.373262       -10.1570
  20   2.0000      -0.351163        -9.5556
  21   2.0000      -0.338213        -9.2033
  22   2.0000      -0.335455        -9.1282
  23   2.0000      -0.197186        -5.3657
  24   0.0000       0.022453         0.6110
  25   0.0000       0.045147         1.2285
  26   0.0000       0.054436         1.4813
  27   0.0000       0.057328         1.5600
  28   0.0000       0.074261         2.0207

MULLIKEN ATOMIC CHARGES
-----------------------
   0 C :    0.138044
   1 C :   -0.448560
   2 C :    0.565318
   3 C :    0.039204
   4 C :    0.354217
   5 N :    0.053540
   6 H :   -0.023657
   7 H :   -0.181537
   8 H :   -0.069292
   9 H :   -0.437451
  10 H :    0.008146
  11 H :   -0.035399
  12 H :    0.095283
  13 H :    0.002628
  14 H :   -0.020974
  15 H :    0.027703
  16 H :   -0.067213
Sum of atomic charges:    0.0000000

LOEWDIN ATOMIC CHARGES
----------------------
   0 C :    0.002565
   1 C :   -0.065678
   2 C :    0.109850
   3 C :   -0.264684
   4 C :    0.172747
   5 N :    0.168789
   6 H :    0.003322
   7 H :    0.017186
   8 H :   -0.080349
   9 H :   -0.089128
  10 H :    0.016568
  11 H :    0.026413
  12 H :    0.025552
  13 H :    0.022444
  14 H :   -0.030791
  15 H :   -0.017630
  16 H :   -0.017176

  Mayer bond orders larger than 0.100000
B(  0-C ,  1-C ) :   1.1791 B(  0-C ,  3-C ) :   1.1247 B(  0-C ,  4-C ) :   0.1479
B(  0-C ,  5-N ) :   0.1239 B(  0-C , 11-H ) :   0.1134 B(  0-C , 12-H ) :   0.8589
B(  0-C , 13-H ) :   0.7887 B(  1-C ,  2-C ) :   1.3201 B(  1-C , 10-H ) :   0.9196
B(  1-C , 11-H ) :   1.0104 B(  1-C , 12-H ) :   0.1079 B(  1-C , 13-H ) :   0.1395
B(  1-C , 14-H ) :   0.1891 B(  1-C , 15-H ) :   0.1952 B(  1-C , 16-H ) :   0.1966
B(  2-C , 14-H ) :   0.8568 B(  2-C , 15-H ) :   0.8064 B(  2-C , 16-H ) :   0.8130
B(  3-C ,  4-C ) :   1.7190 B(  3-C ,  5-N ) :   1.0505 B(  3-C ,  7-H ) :  -0.1374
B(  3-C ,  9-H ) :   0.1585 B(  3-C , 12-H ) :   0.1136 B(  3-C , 13-H ) :   0.1480
B(  4-C ,  5-N ) :   0.2861 B(  4-C ,  8-H ) :   0.9432 B(  4-C ,  9-H ) :   0.7610
B(  5-N ,  6-H ) :   1.0242 B(  5-N ,  7-H ) :   1.3310 B(  6-H ,  7-H ) :  -0.1656

Dispersion correction           -0.012020786
FINAL SINGLE POINT ENERGY      -251.413013779961

DIPOLE MOMENT
-------------
                                X             Y             Z
Electronic contribution:     -2.08230      -0.44796      -2.63839
Nuclear contribution   :      2.52905      -0.17478       2.67366
                        -----------------------------------------
Total Dipole Moment    :      0.44675      -0.62274       0.03527
                        -----------------------------------------
Magnitude (a.u.)       :      0.76722
Magnitude (Debye)      :      1.95013

Rotational constants in cm-1:     0.190920     0.082419     0.067855
Rotational constants in MHz :  5723.626725  2470.870287  2034.242308

                             ****ORCA TERMINATED NORMALLY****
TOTAL RUN TIME: 0 days 0 hours 0 minutes 13 seconds 463 msec
