                         Program Version 5.0.0 -  RELEASE  -
|  1> !PBE0 D3BJ RIJCOSX def2-SVPD def2/J TightSCF
|  2> *xyz 0 1
|  3> C         -0.46129        2.23469       -4.98962
|  4> C          0.84888        2.66797       -4.30235
|  5> C          2.09343        1.86104       -4.65684
|  6> H          2.44481        2.04157       -5.67499
|  7> H          2.90175        2.13786       -3.98034
|  8> S          1.87964        0.07859       -4.46297
|  9> O          3.20757       -0.46611       -4.42026
| 10> F          1.07506       -0.05616       -3.26876
| 11> O          1.13166       -0.31996       -5.67903
| 12> H          0.66843        2.55943       -3.23285
| 13> H          1.03407        3.72943       -4.49708
| 14> H         -0.35183        2.31783       -6.05075
| 15> H         -1.26108        2.86600       -4.66300
| 16> H         -0.68032        1.21949       -4.73211
| 17> *
| 18>
| 19> %MaxCore 64000
| 20>
| 21> %pal nprocs 8
| 22> end
| 23>
| 24> %scf
| 25>   MaxIter 150
| 26> end
| 27>
| 28>
| 29>                          ****END OF INPUT****

CARTESIAN COORDINATES (ANGSTROEM)
---------------------------------
  C     -0.461290    2.234690   -4.989620
  C      0.848880    2.667970   -4.302350
  C      2.093430    1.861040   -4.656840
  H      2.444810    2.041570   -5.674990
  H      2.901750    2.137860   -3.980340
  S      1.879640    0.078590   -4.462970
  O      3.207570   -0.466110   -4.420260
  F      1.075060   -0.056160   -3.268760
  O      1.131660   -0.319960   -5.679030
  H      0.668430    2.559430   -3.232850
  H      1.034070    3.729430   -4.497080
  H     -0.351830    2.317830   -6.050750
  H     -1.261080    2.866000   -4.663000
  H     -0.680320    1.219490   -4.732110

 Total Charge           Charge          ....    0
 Multiplicity           Mult            ....    1
 Number of Electrons    NEL             ....   66
 Basis Dimension        Dim             ....  212

ORBITAL ENERGIES
----------------

  NO   OCC          E(Eh)            E(eV)
   0   2.0000     -89.296991     -2429.8947
   1   2.0000     -24.903575      -677.6607
   2   2.0000     -19.235761      -523.4317
   3   2.0000     -19.219141      -522.9794
   4   2.0000     -10.293477      -280.0997
   5   2.0000     -10.266338      -279.3613
   6   2.0000     -10.231967      -278.4260
   7   2.0000      -8.257245      -224.6910
   8   2.0000      -6.203612      -168.8089
   9   2.0000      -6.197103      -168.6317
  10   2.0000      -6.195840      -168.5974
  11   2.0000      -1.408253       -38.3205
  12   2.0000      -1.140667       -31.0391
  13   2.0000      -1.034179       -28.1415
  14   2.0000      -0.853253       -23.2182
  15   2.0000      -0.772243       -21.0138
  16   2.0000      -0.731964       -19.9178
  17   2.0000      -0.654492       -17.8096
  18   2.0000      -0.613593       -16.6967
  19   2.0000      -0.608475       -16.5574
  20   2.0000      -0.564132       -15.3508
  21   2.0000      -0.508502       -13.8370
  22   2.0000      -0.499590       -13.5945
  23   2.0000      -0.480377       -13.0717
  24   2.0000      -0.464465       -12.6387
  25   2.0000      -0.448250       -12.1975
  26   2.0000      -0.408139       -11.1060
  27   2.0000      -0.399850       -10.8805
  28   2.0000      -0.391737       -10.6597
  29   2.0000      -0.372358       -10.1324
  30   2.0000      -0.349317        -9.5054
  31   2.0000      -0.333846        -9.0844
  32   2.0000      -0.322379        -8.7724
  33   0.0000      -0.001983        -0.0540
  34   0.0000       0.029829         0.8117
  35   0.0000       0.038923         1.0592
  36   0.0000       0.041243         1.1223
  37   0.0000       0.050043         1.3617

MULLIKEN ATOMIC CHARGES
-----------------------
   0 C :    0.613537
   1 C :   -0.366591
   2 C :   -0.038241
   3 H :    0.085496
   4 H :    0.083779
   5 S :    1.541500
   6 O :   -0.717836
   7 F :   -0.415724
   8 O :   -0.711273
   9 H :    0.106766
  10 H :   -0.119692
  11 H :    0.001138
  12 H :   -0.045059
  13 H :   -0.017800
Sum of atomic charges:    0.0000000

LOEWDIN ATOMIC CHARGES
----------------------
   0 C :    0.132725
   1 C :   -0.083310
   2 C :   -0.046404
   3 H :    0.040324
   4 H :    0.021408
   5 S :    1.124916
   6 O :   -0.458200
   7 F :   -0.255647
   8 O :   -0.480195
   9 H :    0.020881
  10 H :    0.031489
  11 H :   -0.003665
  12 H :   -0.011635
  13 H :   -0.032685

  Mayer bond orders larger than 0.100000
B(  0-C ,  1-C ) :   1.3216 B(  0-C , 11-H ) :   0.8053 B(  0-C , 12-H ) :   0.8052
B(  0-C , 13-H ) :   0.8524 B(  1-C ,  2-C ) :   1.2491 B(  1-C ,  3-H ) :   0.1165
B(  1-C ,  4-H ) :   0.1191 B(  1-C ,  9-H ) :   0.8717 B(  1-C , 10-H ) :   0.9704
B(  1-C , 11-H ) :   0.1899 B(  1-C , 12-H ) :   0.1786 B(  1-C , 13-H ) :   0.1731
B(  2-C ,  3-H ) :   0.9288 B(  2-C ,  4-H ) :   0.9201 B(  2-C ,  5-S ) :   1.0039
B(  2-C ,  9-H ) :   0.1044 B(  5-S ,  6-O ) :   1.5429 B(  5-S ,  7-F ) :   0.6359
B(  5-S ,  8-O ) :   1.4684

Dispersion correction           -0.011191858
FINAL SINGLE POINT ENERGY      -766.032068002777

DIPOLE MOMENT
-------------
                                X             Y             Z
Electronic contribution:      4.40601     -10.44776       3.16278
Nuclear contribution   :     -4.78457      11.97051      -2.41849
                        -----------------------------------------
Total Dipole Moment    :     -0.37856       1.52275       0.74429
                        -----------------------------------------
Magnitude (a.u.)       :      1.73668
Magnitude (Debye)      :      4.41428

Rotational constants in cm-1:     0.129206     0.056639     0.054229
Rotational constants in MHz :  3873.509495  1697.990779  1625.734877

                             ****ORCA TERMINATED NORMALLY****
TOTAL RUN TIME: 0 days 0 hours 0 minutes 14 seconds 351 msec
