                         Program Version 5.0.0 -  RELEASE  -
|  1> !PBE0 D3BJ RIJCOSX def2-SVPD def2/J TightSCF
|  2> *xyz 0 1
|  3> C         -0.46129        2.23469       -4.98962
|  4> C          0.84888        2.66797       -4.30235
|  5> C          2.09343        1.86104       -4.65684
|  6> C         -0.42384        2.39877       -6.47432
|  7> N         -0.95947        3.49265       -7.00740
|  8> C          0.14558        1.48689       -7.20399
|  9> H          0.56537        0.69681       -6.72386
| 10> H          0.22068        1.58177       -8.20752
| 11> H         -1.40624        4.18151       -6.40326
| 12> H         -0.93421        3.68160       -7.99947
| 13> H          0.66843        2.55943       -3.23285
| 14> H          1.03407        3.72943       -4.49708
| 15> H         -1.28888        2.82674       -4.59500
| 16> H         -0.65170        1.18634       -4.75655
| 17> H          2.29129        1.95234       -5.70442
| 18> H          1.93270        0.83176       -4.41261
| 19> H          2.92953        2.23285       -4.10223
| 20> *
| 21>
| 22> %MaxCore 64000
| 23>
| 24> %pal nprocs 8
| 25> end
| 26>
| 27> %scf
| 28>   MaxIter 150
| 29> end
| 30>
| 31>
| 32>                          ****END OF INPUT****

CARTESIAN COORDINATES (ANGSTROEM)
---------------------------------
  C     -0.461290    2.234690   -4.989620
  C      0.848880    2.667970   -4.302350
  C      2.093430    1.861040   -4.656840
  C     -0.423840    2.398770   -6.474320
  N     -0.959470    3.492650   -7.007400
  C      0.145580    1.486890   -7.203990
  H      0.565370    0.696810   -6.723860
  H      0.220680    1.581770   -8.207520
  H     -1.406240    4.181510   -6.403260
  H     -0.934210    3.681600   -7.999470
  H      0.668430    2.559430   -3.232850
  H      1.034070    3.729430   -4.497080
  H     -1.288880    2.826740   -4.595000
  H     -0.651700    1.186340   -4.756550
  H      2.291290    1.952340   -5.704420
  H      1.932700    0.831760   -4.412610
  H      2.929530    2.232850   -4.102230

 Total Charge           Charge          ....    0
 Multiplicity           Mult            ....    1
 Number of Electrons    NEL             ....   48
 Basis Dimension        Dim             ....  208

ORBITAL ENERGIES
----------------

  NO   OCC          E(Eh)            E(eV)
   0   2.0000     -14.396416      -391.7464
   1   2.0000     -10.249480      -278.9025
   2   2.0000     -10.230890      -278.3967
   3   2.0000     -10.228522      -278.3322
   4   2.0000     -10.206779      -277.7406
   5   2.0000     -10.162662      -276.5401
   6   2.0000      -0.942211       -25.6389
   7   2.0000      -0.810435       -22.0531
   8   2.0000      -0.748606       -20.3706
   9   2.0000      -0.701169       -19.0798
  10   2.0000      -0.611453       -16.6385
  11   2.0000      -0.578675       -15.7466
  12   2.0000      -0.535157       -14.5624
  13   2.0000      -0.494419       -13.4538
  14   2.0000      -0.465511       -12.6672
  15   2.0000      -0.448820       -12.2130
  16   2.0000      -0.407932       -11.1004
  17   2.0000      -0.406023       -11.0484
  18   2.0000      -0.387280       -10.5384
  19   2.0000      -0.374220       -10.1830
  20   2.0000      -0.345800        -9.4097
  21   2.0000      -0.336347        -9.1525
  22   2.0000      -0.329637        -8.9699
  23   2.0000      -0.202239        -5.5032
  24   0.0000       0.023325         0.6347
  25   0.0000       0.046156         1.2560
  26   0.0000       0.052980         1.4417
  27   0.0000       0.060074         1.6347
  28   0.0000       0.075689         2.0596

MULLIKEN ATOMIC CHARGES
-----------------------
   0 C :    0.121972
   1 C :   -0.437165
   2 C :    0.533715
   3 C :    0.161040
   4 N :   -0.091251
   5 C :    0.346875
   6 H :    0.107250
   7 H :   -0.518701
   8 H :   -0.065770
   9 H :   -0.159026
  10 H :    0.009627
  11 H :   -0.036195
  12 H :   -0.057354
  13 H :    0.121086
  14 H :    0.024247
  15 H :    0.033671
  16 H :   -0.094021
Sum of atomic charges:   -0.0000000

LOEWDIN ATOMIC CHARGES
----------------------
   0 C :    0.002484
   1 C :   -0.067847
   2 C :    0.113556
   3 C :   -0.253535
   4 N :    0.163201
   5 C :    0.164708
   6 H :   -0.072814
   7 H :   -0.077442
   8 H :    0.001255
   9 H :    0.004746
  10 H :    0.016130
  11 H :    0.022550
  12 H :    0.015364
  13 H :    0.029760
  14 H :   -0.029680
  15 H :   -0.013600
  16 H :   -0.018836

  Mayer bond orders larger than 0.100000
B(  0-C ,  1-C ) :   1.1961 B(  0-C ,  3-C ) :   1.0047 B(  0-C ,  4-N ) :   0.1314
B(  0-C ,  5-C ) :   0.1780 B(  0-C , 10-H ) :   0.1095 B(  0-C , 11-H ) :   0.1118
B(  0-C , 12-H ) :   0.8686 B(  0-C , 13-H ) :   0.8237 B(  1-C ,  2-C ) :   1.3332
B(  1-C , 10-H ) :   0.8907 B(  1-C , 11-H ) :   0.9879 B(  1-C , 12-H ) :   0.1212
B(  1-C , 13-H ) :   0.1316 B(  1-C , 14-H ) :   0.1884 B(  1-C , 15-H ) :   0.1914
B(  1-C , 16-H ) :   0.2061 B(  2-C , 14-H ) :   0.8477 B(  2-C , 15-H ) :   0.8111
B(  2-C , 16-H ) :   0.8298 B(  3-C ,  4-N ) :   0.9920 B(  3-C ,  5-C ) :   1.8510
B(  3-C ,  6-H ) :   0.2011 B(  3-C ,  7-H ) :   0.1941 B(  3-C ,  9-H ) :  -0.1207
B(  3-C , 12-H ) :   0.1039 B(  4-N ,  5-C ) :   0.2547 B(  4-N ,  8-H ) :   1.1397
B(  4-N ,  9-H ) :   1.2992 B(  5-C ,  6-H ) :   0.7330 B(  5-C ,  7-H ) :   0.8273
B(  8-H ,  9-H ) :  -0.1561

Dispersion correction           -0.012062678
FINAL SINGLE POINT ENERGY      -251.412616110786

DIPOLE MOMENT
-------------
                                X             Y             Z
Electronic contribution:     -3.07591       1.28839      -2.49901
Nuclear contribution   :      2.79043      -0.64920       2.62716
                        -----------------------------------------
Total Dipole Moment    :     -0.28548       0.63918       0.12815
                        -----------------------------------------
Magnitude (a.u.)       :      0.71167
Magnitude (Debye)      :      1.80893

Rotational constants in cm-1:     0.196182     0.080190     0.067215
Rotational constants in MHz :  5881.393438  2404.041106  2015.067205

                             ****ORCA TERMINATED NORMALLY****
TOTAL RUN TIME: 0 days 0 hours 0 minutes 13 seconds 658 msec
