                         Program Version 5.0.0 -  RELEASE  -
|  1> !PBE0 D3BJ RIJCOSX def2-SVPD def2/J TightSCF
|  2> *xyz 0 1
|  3> C         -0.46129        2.23469       -4.98962
|  4> C          0.84888        2.66797       -4.30235
|  5> C          2.09343        1.86104       -4.65684
|  6> H          2.44481        2.04157       -5.67499
|  7> H          2.90175        2.13786       -3.98034
|  8> S          1.87964        0.07859       -4.46297
|  9> O          3.20757       -0.46611       -4.42026
| 10> O          1.07506       -0.05616       -3.26876
| 11> F          1.13166       -0.31996       -5.67903
| 12> H          0.66843        2.55943       -3.23285
| 13> H          1.03407        3.72943       -4.49708
| 14> H         -0.35183        2.31783       -6.05075
| 15> H         -1.26108        2.86600       -4.66300
| 16> H         -0.68032        1.21949       -4.73211
| 17> *
| 18>
| 19> %MaxCore 64000
| 20>
| 21> %pal nprocs 8
| 22> end
| 23>
| 24> %scf
| 25>   MaxIter 150
| 26> end
| 27>
| 28>
| 29>                          ****END OF INPUT****

CARTESIAN COORDINATES (ANGSTROEM)
---------------------------------
  C     -0.461290    2.234690   -4.989620
  C      0.848880    2.667970   -4.302350
  C      2.093430    1.861040   -4.656840
  H      2.444810    2.041570   -5.674990
  H      2.901750    2.137860   -3.980340
  S      1.879640    0.078590   -4.462970
  O      3.207570   -0.466110   -4.420260
  O      1.075060   -0.056160   -3.268760
  F      1.131660   -0.319960   -5.679030
  H      0.668430    2.559430   -3.232850
  H      1.034070    3.729430   -4.497080
  H     -0.351830    2.317830   -6.050750
  H     -1.261080    2.866000   -4.663000
  H     -0.680320    1.219490   -4.732110

 Total Charge           Charge          ....    0
 Multiplicity           Mult            ....    1
 Number of Electrons    NEL             ....   66
 Basis Dimension        Dim             ....  212

ORBITAL ENERGIES
----------------

  NO   OCC          E(Eh)            E(eV)
   0   2.0000     -89.295419     -2429.8519
   1   2.0000     -24.884471      -677.1409
   2   2.0000     -19.235629      -523.4281
   3   2.0000     -19.232164      -523.3338
   4   2.0000     -10.292848      -280.0826
   5   2.0000     -10.261415      -279.2273
   6   2.0000     -10.234508      -278.4951
   7   2.0000      -8.255619      -224.6468
   8   2.0000      -6.201685      -168.7564
   9   2.0000      -6.195764      -168.5953
  10   2.0000      -6.194415      -168.5586
  11   2.0000      -1.376870       -37.4665
  12   2.0000      -1.149199       -31.2713
  13   2.0000      -1.053957       -28.6796
  14   2.0000      -0.850093       -23.1322
  15   2.0000      -0.767621       -20.8880
  16   2.0000      -0.721234       -19.6258
  17   2.0000      -0.652290       -17.7497
  18   2.0000      -0.590058       -16.0563
  19   2.0000      -0.586366       -15.9558
  20   2.0000      -0.569579       -15.4990
  21   2.0000      -0.516241       -14.0476
  22   2.0000      -0.493881       -13.4392
  23   2.0000      -0.478268       -13.0143
  24   2.0000      -0.469936       -12.7876
  25   2.0000      -0.450431       -12.2569
  26   2.0000      -0.413966       -11.2646
  27   2.0000      -0.398827       -10.8526
  28   2.0000      -0.388384       -10.5685
  29   2.0000      -0.369937       -10.0665
  30   2.0000      -0.357649        -9.7321
  31   2.0000      -0.342841        -9.3292
  32   2.0000      -0.338671        -9.2157
  33   0.0000       0.004371         0.1189
  34   0.0000       0.029217         0.7950
  35   0.0000       0.037383         1.0172
  36   0.0000       0.040496         1.1019
  37   0.0000       0.053302         1.4504

MULLIKEN ATOMIC CHARGES
-----------------------
   0 C :    0.576537
   1 C :   -0.332701
   2 C :   -0.068336
   3 H :    0.095290
   4 H :    0.088964
   5 S :    1.550472
   6 O :   -0.725035
   7 O :   -0.708059
   8 F :   -0.418518
   9 H :    0.138072
  10 H :   -0.114820
  11 H :   -0.007657
  12 H :   -0.042914
  13 H :   -0.031295
Sum of atomic charges:   -0.0000000

LOEWDIN ATOMIC CHARGES
----------------------
   0 C :    0.131991
   1 C :   -0.078124
   2 C :   -0.048938
   3 H :    0.026400
   4 H :    0.032075
   5 S :    1.122359
   6 O :   -0.458685
   7 O :   -0.460176
   8 F :   -0.273807
   9 H :    0.026872
  10 H :    0.031194
  11 H :   -0.010605
  12 H :   -0.009490
  13 H :   -0.031064

  Mayer bond orders larger than 0.100000
B(  0-C ,  1-C ) :   1.3172 B(  0-C , 11-H ) :   0.8054 B(  0-C , 12-H ) :   0.8133
B(  0-C , 13-H ) :   0.8636 B(  1-C ,  2-C ) :   1.2943 B(  1-C ,  3-H ) :   0.1179
B(  1-C ,  4-H ) :   0.1133 B(  1-C ,  9-H ) :   0.8645 B(  1-C , 10-H ) :   0.9581
B(  1-C , 11-H ) :   0.1829 B(  1-C , 12-H ) :   0.1770 B(  1-C , 13-H ) :   0.1675
B(  2-C ,  3-H ) :   0.9298 B(  2-C ,  4-H ) :   0.9067 B(  2-C ,  5-S ) :   1.0011
B(  2-C ,  9-H ) :   0.1145 B(  5-S ,  6-O ) :   1.5381 B(  5-S ,  7-O ) :   1.4935
B(  5-S ,  8-F ) :   0.5910

Dispersion correction           -0.011199346
FINAL SINGLE POINT ENERGY      -766.048875406916

DIPOLE MOMENT
-------------
                                X             Y             Z
Electronic contribution:      4.48852     -10.90850      -0.92780
Nuclear contribution   :     -4.84544      12.25421       0.17361
                        -----------------------------------------
Total Dipole Moment    :     -0.35692       1.34571      -0.75419
                        -----------------------------------------
Magnitude (a.u.)       :      1.58340
Magnitude (Debye)      :      4.02467

Rotational constants in cm-1:     0.128954     0.057447     0.053381
Rotational constants in MHz :  3865.954571  1722.226669  1600.330369

                             ****ORCA TERMINATED NORMALLY****
TOTAL RUN TIME: 0 days 0 hours 0 minutes 13 seconds 502 msec
