                         Program Version 5.0.0 -  RELEASE  -
|  1> !wB97X-D3 RIJCOSX def2-SVP def2/J TightSCF
|  2> *xyz -1 1
|  3> C         -2.12050        0.88520        1.78951
|  4> C         -0.77894        0.17197        1.80496
|  5> H          0.01569        0.91077        1.93915
|  6> H         -0.74355       -0.50683        2.66542
|  7> C         -0.60249       -0.63071        0.49224
|  8> H          0.31389       -1.24035        0.60350
|  9> H         -0.36383        0.11332       -0.30117
| 10> O         -1.71206       -1.37684        0.20253
| 11> H         -2.16160        1.54956        0.95175
| 12> H         -2.23761        1.44436        2.69423
| 13> H         -2.90702        0.16393        1.71165
| 14> *
| 15> %MaxCore 64000
| 16>
| 17> %pal nprocs 18
| 18> end
| 19> %scf
| 20>   MaxIter 150
| 21> end
| 22>
| 23>                          ****END OF INPUT****

CARTESIAN COORDINATES (ANGSTROEM)
---------------------------------
  C     -2.120500    0.885200    1.789510
  C     -0.778940    0.171970    1.804960
  H      0.015690    0.910770    1.939150
  H     -0.743550   -0.506830    2.665420
  C     -0.602490   -0.630710    0.492240
  H      0.313890   -1.240350    0.603500
  H     -0.363830    0.113320   -0.301170
  O     -1.712060   -1.376840    0.202530
  H     -2.161600    1.549560    0.951750
  H     -2.237610    1.444360    2.694230
  H     -2.907020    0.163930    1.711650

 Total Charge           Charge          ....   -1
 Multiplicity           Mult            ....    1
 Number of Electrons    NEL             ....   34
 Basis Dimension        Dim             ....   91

ORBITAL ENERGIES
----------------

  NO   OCC          E(Eh)            E(eV)
   0   2.0000     -18.859903      -513.2041
   1   2.0000     -10.090022      -274.5635
   2   2.0000     -10.083527      -274.3867
   3   2.0000     -10.081186      -274.3230
   4   2.0000      -0.756065       -20.5736
   5   2.0000      -0.672787       -18.3075
   6   2.0000      -0.553965       -15.0741
   7   2.0000      -0.450237       -12.2516
   8   2.0000      -0.362921        -9.8756
   9   2.0000      -0.351701        -9.5703
  10   2.0000      -0.295831        -8.0500
  11   2.0000      -0.267179        -7.2703
  12   2.0000      -0.234777        -6.3886
  13   2.0000      -0.230477        -6.2716
  14   2.0000      -0.172045        -4.6816
  15   2.0000      -0.025686        -0.6990
  16   2.0000      -0.022632        -0.6159
  17   0.0000       0.316769         8.6197
  18   0.0000       0.355927         9.6853
  19   0.0000       0.361727         9.8431
  20   0.0000       0.386189        10.5087
  21   0.0000       0.396130        10.7792

MULLIKEN ATOMIC CHARGES
-----------------------
   0 C :    0.018586
   1 C :   -0.055367
   2 H :   -0.087057
   3 H :   -0.047686
   4 C :    0.281116
   5 H :   -0.149828
   6 H :   -0.163017
   7 O :   -0.710237
   8 H :   -0.027683
   9 H :   -0.059850
  10 H :    0.001023
Sum of atomic charges:   -1.0000000

LOEWDIN ATOMIC CHARGES
----------------------
   0 C :   -0.069430
   1 C :   -0.089665
   2 H :   -0.027348
   3 H :   -0.009445
   4 C :    0.014309
   5 H :   -0.073577
   6 H :   -0.079406
   7 O :   -0.662024
   8 H :    0.003685
   9 H :   -0.017124
  10 H :    0.010024

  Mayer bond orders larger than 0.100000
B(  0-C ,  1-C ) :   1.0810 B(  0-C ,  8-H ) :   0.9684 B(  0-C ,  9-H ) :   0.9648
B(  0-C , 10-H ) :   0.9509 B(  1-C ,  2-H ) :   0.9259 B(  1-C ,  3-H ) :   0.9443
B(  1-C ,  4-C ) :   0.9802 B(  4-C ,  5-H ) :   0.8936 B(  4-C ,  6-H ) :   0.8666
B(  4-C ,  7-O ) :   1.4719

Dispersion correction           -0.001904531
FINAL SINGLE POINT ENERGY      -193.514780301458

DIPOLE MOMENT
-------------
                                X             Y             Z
Electronic contribution:     -0.76573      -2.59925      -1.57725
Nuclear contribution   :      1.03476       3.87369       2.65163
                        -----------------------------------------
Total Dipole Moment    :      0.26903       1.27444       1.07438
                        -----------------------------------------
Magnitude (a.u.)       :      1.68845
Magnitude (Debye)      :      4.29171

Rotational constants in cm-1:     0.475803     0.193433     0.155403
Rotational constants in MHz : 14264.216647  5798.988361  4658.874800

                             ****ORCA TERMINATED NORMALLY****
TOTAL RUN TIME: 0 days 0 hours 0 minutes 5 seconds 428 msec
