                         Program Version 5.0.0 -  RELEASE  -
|  1> !wB97X-D3 RIJCOSX def2-SVP def2/J TightSCF
|  2> *xyz 1 1
|  3> C         -2.12050        0.88520        1.78951
|  4> C         -0.77894        0.17197        1.80496
|  5> H         -2.32419        1.47265        2.68608
|  6> H         -2.18770        1.54127        0.91948
|  7> N         -3.17690       -0.15948        1.61070
|  8> H          0.01569        0.91077        1.93915
|  9> H         -0.74355       -0.50683        2.66542
| 10> C         -0.60249       -0.63071        0.49224
| 11> H         -4.06474        0.23127        1.28675
| 12> H         -3.34407       -0.67151        2.48493
| 13> H         -2.71686       -0.78189        0.93588
| 14> H         -0.63812        0.03805       -0.34226
| 15> H         -1.38918       -1.35085        0.40604
| 16> H          0.34172       -1.13388        0.50602
| 17> *
| 18> %MaxCore 64000
| 19>
| 20> %pal nprocs 18
| 21> end
| 22>
| 23> %scf
| 24>   MaxIter 150
| 25> end
| 26>
| 27>
| 28>                          ****END OF INPUT****

CARTESIAN COORDINATES (ANGSTROEM)
---------------------------------
  C     -2.120500    0.885200    1.789510
  C     -0.778940    0.171970    1.804960
  H     -2.324190    1.472650    2.686080
  H     -2.187700    1.541270    0.919480
  N     -3.176900   -0.159480    1.610700
  H      0.015690    0.910770    1.939150
  H     -0.743550   -0.506830    2.665420
  C     -0.602490   -0.630710    0.492240
  H     -4.064740    0.231270    1.286750
  H     -3.344070   -0.671510    2.484930
  H     -2.716860   -0.781890    0.935880
  H     -0.638120    0.038050   -0.342260
  H     -1.389180   -1.350850    0.406040
  H      0.341720   -1.133880    0.506020

 Total Charge           Charge          ....    1
 Multiplicity           Mult            ....    1
 Number of Electrons    NEL             ....   34
 Basis Dimension        Dim             ....  106

ORBITAL ENERGIES
----------------

  NO   OCC          E(Eh)            E(eV)
   0   2.0000     -14.761186      -401.6723
   1   2.0000     -10.536493      -286.7126
   2   2.0000     -10.474271      -285.0194
   3   2.0000     -10.453662      -284.4586
   4   2.0000      -1.319586       -35.9078
   5   2.0000      -1.089030       -29.6340
   6   2.0000      -0.997564       -27.1451
   7   2.0000      -0.910035       -24.7633
   8   2.0000      -0.904685       -24.6177
   9   2.0000      -0.873965       -23.7818
  10   2.0000      -0.786691       -21.4069
  11   2.0000      -0.741457       -20.1761
  12   2.0000      -0.711453       -19.3596
  13   2.0000      -0.686393       -18.6777
  14   2.0000      -0.636091       -17.3089
  15   2.0000      -0.626350       -17.0438
  16   2.0000      -0.619149       -16.8479
  17   0.0000      -0.081543        -2.2189
  18   0.0000      -0.028637        -0.7792
  19   0.0000      -0.017539        -0.4773
  20   0.0000      -0.000536        -0.0146
  21   0.0000       0.036638         0.9970

MULLIKEN ATOMIC CHARGES
-----------------------
   0 C :   -0.026687
   1 C :   -0.154157
   2 H :    0.120819
   3 H :    0.109830
   4 N :   -0.010755
   5 H :    0.114073
   6 H :    0.080364
   7 C :   -0.078487
   8 H :    0.227772
   9 H :    0.221520
  10 H :    0.182171
  11 H :    0.078195
  12 H :    0.031267
  13 H :    0.104075
Sum of atomic charges:    1.0000000

LOEWDIN ATOMIC CHARGES
----------------------
   0 C :    0.056080
   1 C :   -0.045498
   2 H :    0.055266
   3 H :    0.052763
   4 N :    0.289950
   5 H :    0.063755
   6 H :    0.040919
   7 C :   -0.041477
   8 H :    0.144909
   9 H :    0.145160
  10 H :    0.118819
  11 H :    0.042291
  12 H :    0.017741
  13 H :    0.059321

  Mayer bond orders larger than 0.100000
B(  0-C ,  1-C ) :   1.0518 B(  0-C ,  2-H ) :   0.9545 B(  0-C ,  3-H ) :   0.9563
B(  0-C ,  4-N ) :   0.9166 B(  1-C ,  5-H ) :   0.9452 B(  1-C ,  6-H ) :   0.9554
B(  1-C ,  7-C ) :   1.0531 B(  4-N ,  8-H ) :   0.9261 B(  4-N ,  9-H ) :   0.9312
B(  4-N , 10-H ) :   0.9174 B(  7-C , 11-H ) :   0.9761 B(  7-C , 12-H ) :   0.9429
B(  7-C , 13-H ) :   0.9570

Dispersion correction           -0.002778400
FINAL SINGLE POINT ENERGY      -174.673441352226

DIPOLE MOMENT
-------------
                                X             Y             Z
Electronic contribution:     -1.92436       0.48916       0.93467
Nuclear contribution   :      0.18509      -0.64781      -0.64735
                        -----------------------------------------
Total Dipole Moment    :     -1.73927      -0.15866       0.28732
                        -----------------------------------------
Magnitude (a.u.)       :      1.76997
Magnitude (Debye)      :      4.49890

Rotational constants in cm-1:     0.411855     0.178330     0.145265
Rotational constants in MHz : 12347.103052  5346.196801  4354.936890

                             ****ORCA TERMINATED NORMALLY****
TOTAL RUN TIME: 0 days 0 hours 0 minutes 5 seconds 822 msec
