                         Program Version 5.0.0 -  RELEASE  -
|  1> !wB97X-D3 RIJCOSX def2-SVP def2/J TightSCF
|  2> *xyz 0 1
|  3> C         -2.12050        0.88520        1.78951
|  4> C         -0.77894        0.17197        1.80496
|  5> H          0.01569        0.91077        1.93915
|  6> H         -0.74355       -0.50683        2.66542
|  7> C         -0.60249       -0.63071        0.49224
|  8> H          0.31389       -1.24035        0.60350
|  9> H         -0.36383        0.11332       -0.30117
| 10> F         -1.71206       -1.37684        0.20253
| 11> H         -2.16160        1.54956        0.95175
| 12> H         -2.23761        1.44436        2.69423
| 13> H         -2.90702        0.16393        1.71165
| 14> *
| 15> %MaxCore 64000
| 16>
| 17> %pal nprocs 18
| 18> end
| 19> %scf
| 20>   MaxIter 150
| 21> end
| 22>
| 23>                          ****END OF INPUT****

CARTESIAN COORDINATES (ANGSTROEM)
---------------------------------
  C     -2.120500    0.885200    1.789510
  C     -0.778940    0.171970    1.804960
  H      0.015690    0.910770    1.939150
  H     -0.743550   -0.506830    2.665420
  C     -0.602490   -0.630710    0.492240
  H      0.313890   -1.240350    0.603500
  H     -0.363830    0.113320   -0.301170
  F     -1.712060   -1.376840    0.202530
  H     -2.161600    1.549560    0.951750
  H     -2.237610    1.444360    2.694230
  H     -2.907020    0.163930    1.711650

 Total Charge           Charge          ....    0
 Multiplicity           Mult            ....    1
 Number of Electrons    NEL             ....   34
 Basis Dimension        Dim             ....   91

ORBITAL ENERGIES
----------------

  NO   OCC          E(Eh)            E(eV)
   0   2.0000     -24.772957      -674.1064
   1   2.0000     -10.362820      -281.9867
   2   2.0000     -10.290622      -280.0221
   3   2.0000     -10.271264      -279.4953
   4   2.0000      -1.289689       -35.0942
   5   2.0000      -0.897061       -24.4103
   6   2.0000      -0.792112       -21.5545
   7   2.0000      -0.696261       -18.9462
   8   2.0000      -0.606138       -16.4939
   9   2.0000      -0.593832       -16.1590
  10   2.0000      -0.571081       -15.5399
  11   2.0000      -0.532436       -14.4883
  12   2.0000      -0.488604       -13.2956
  13   2.0000      -0.467301       -12.7159
  14   2.0000      -0.445813       -12.1312
  15   2.0000      -0.417482       -11.3603
  16   2.0000      -0.413551       -11.2533
  17   0.0000       0.146297         3.9810
  18   0.0000       0.185589         5.0501
  19   0.0000       0.187741         5.1087
  20   0.0000       0.214066         5.8250
  21   0.0000       0.220331         5.9955

MULLIKEN ATOMIC CHARGES
-----------------------
   0 C :   -0.035653
   1 C :   -0.160412
   2 H :    0.035676
   3 H :    0.039344
   4 C :    0.246011
   5 H :    0.027702
   6 H :    0.021401
   7 F :   -0.266909
   8 H :    0.021715
   9 H :    0.028776
  10 H :    0.042347
Sum of atomic charges:   -0.0000000

LOEWDIN ATOMIC CHARGES
----------------------
   0 C :   -0.058258
   1 C :   -0.069035
   2 H :    0.028972
   3 H :    0.024593
   4 C :    0.112787
   5 H :    0.012264
   6 H :    0.011480
   7 F :   -0.131642
   8 H :    0.020965
   9 H :    0.022857
  10 H :    0.025017

  Mayer bond orders larger than 0.100000
B(  0-C ,  1-C ) :   1.0752 B(  0-C ,  8-H ) :   0.9776 B(  0-C ,  9-H ) :   0.9754
B(  0-C , 10-H ) :   0.9741 B(  1-C ,  2-H ) :   0.9518 B(  1-C ,  3-H ) :   0.9568
B(  1-C ,  4-C ) :   1.0580 B(  4-C ,  5-H ) :   0.9643 B(  4-C ,  6-H ) :   0.9563
B(  4-C ,  7-F ) :   0.9850

Dispersion correction           -0.001910615
FINAL SINGLE POINT ENERGY      -218.149066950992

DIPOLE MOMENT
-------------
                                X             Y             Z
Electronic contribution:     -1.02476      -4.87123      -3.49222
Nuclear contribution   :      1.51874       5.24801       3.69322
                        -----------------------------------------
Total Dipole Moment    :      0.49398       0.37678       0.20100
                        -----------------------------------------
Magnitude (a.u.)       :      0.65298
Magnitude (Debye)      :      1.65974

Rotational constants in cm-1:     0.461913     0.182549     0.147043
Rotational constants in MHz : 13847.794369  5472.673442  4408.246847

                             ****ORCA TERMINATED NORMALLY****
TOTAL RUN TIME: 0 days 0 hours 0 minutes 4 seconds 829 msec
