                         Program Version 5.0.0 -  RELEASE  -
|  1> !wB97X-D3 RIJCOSX def2-SVP def2/J TightSCF
|  2> *xyz 0 1
|  3> C         -2.12050        0.88520        1.78951
|  4> C         -0.77894        0.17197        1.80496
|  5> H         -2.32419        1.47265        2.68608
|  6> H         -2.18770        1.54127        0.91948
|  7> C         -3.17690       -0.15948        1.61070
|  8> H          0.01569        0.91077        1.93915
|  9> H         -0.74355       -0.50683        2.66542
| 10> C         -0.60249       -0.63071        0.49224
| 11> H         -4.06474        0.23127        1.28675
| 12> H         -3.34407       -0.67151        2.48493
| 13> H         -2.71686       -0.78189        0.93588
| 14> H         -0.63812        0.03805       -0.34226
| 15> H         -1.38918       -1.35085        0.40604
| 16> H          0.34172       -1.13388        0.50602
| 17> *
| 18> %MaxCore 64000
| 19>
| 20> %pal nprocs 18
| 21> end
| 22>
| 23> %scf
| 24>   MaxIter 150
| 25> end
| 26>
| 27>
| 28>                          ****END OF INPUT****

CARTESIAN COORDINATES (ANGSTROEM)
---------------------------------
  C     -2.120500    0.885200    1.789510
  C     -0.778940    0.171970    1.804960
  H     -2.324190    1.472650    2.686080
  H     -2.187700    1.541270    0.919480
  C     -3.176900   -0.159480    1.610700
  H      0.015690    0.910770    1.939150
  H     -0.743550   -0.506830    2.665420
  C     -0.602490   -0.630710    0.492240
  H     -4.064740    0.231270    1.286750
  H     -3.344070   -0.671510    2.484930
  H     -2.716860   -0.781890    0.935880
  H     -0.638120    0.038050   -0.342260
  H     -1.389180   -1.350850    0.406040
  H      0.341720   -1.133880    0.506020

 Total Charge           Charge          ....    0
 Multiplicity           Mult            ....    1
 Number of Electrons    NEL             ....   34
 Basis Dimension        Dim             ....  106

ORBITAL ENERGIES
----------------

  NO   OCC          E(Eh)            E(eV)
   0   2.0000     -10.279772      -279.7268
   1   2.0000     -10.271673      -279.5064
   2   2.0000     -10.270896      -279.4853
   3   2.0000     -10.243882      -278.7502
   4   2.0000      -0.920008       -25.0347
   5   2.0000      -0.827614       -22.5205
   6   2.0000      -0.752912       -20.4878
   7   2.0000      -0.668311       -18.1857
   8   2.0000      -0.583213       -15.8700
   9   2.0000      -0.562011       -15.2931
  10   2.0000      -0.520495       -14.1634
  11   2.0000      -0.488060       -13.2808
  12   2.0000      -0.470989       -12.8163
  13   2.0000      -0.454178       -12.3588
  14   2.0000      -0.419853       -11.4248
  15   2.0000      -0.415646       -11.3103
  16   2.0000      -0.403871       -10.9899
  17   0.0000       0.151864         4.1324
  18   0.0000       0.186138         5.0651
  19   0.0000       0.188209         5.1214
  20   0.0000       0.197883         5.3847
  21   0.0000       0.226643         6.1673

MULLIKEN ATOMIC CHARGES
-----------------------
   0 C :   -0.092719
   1 C :   -0.098543
   2 H :    0.023354
   3 H :    0.017759
   4 C :    0.070924
   5 H :    0.027642
   6 H :    0.025411
   7 C :   -0.036766
   8 H :    0.004791
   9 H :    0.000142
  10 H :   -0.033395
  11 H :    0.027677
  12 H :    0.037679
  13 H :    0.026045
Sum of atomic charges:    0.0000000

LOEWDIN ATOMIC CHARGES
----------------------
   0 C :   -0.040860
   1 C :   -0.042766
   2 H :    0.018235
   3 H :    0.018884
   4 C :   -0.045453
   5 H :    0.021257
   6 H :    0.021210
   7 C :   -0.054798
   8 H :    0.012520
   9 H :    0.013842
  10 H :    0.010815
  11 H :    0.022775
  12 H :    0.021489
  13 H :    0.022850

  Mayer bond orders larger than 0.100000
B(  0-C ,  1-C ) :   1.0699 B(  0-C ,  2-H ) :   0.9591 B(  0-C ,  3-H ) :   0.9594
B(  0-C ,  4-C ) :   1.0732 B(  1-C ,  5-H ) :   0.9587 B(  1-C ,  6-H ) :   0.9591
B(  1-C ,  7-C ) :   1.0719 B(  4-C ,  8-H ) :   0.9612 B(  4-C ,  9-H ) :   0.9674
B(  4-C , 10-H ) :   0.9747 B(  7-C , 11-H ) :   0.9785 B(  7-C , 12-H ) :   0.9678
B(  7-C , 13-H ) :   0.9664

Dispersion correction           -0.002697600
FINAL SINGLE POINT ENERGY      -158.269189950417

DIPOLE MOMENT
-------------
                                X             Y             Z
Electronic contribution:      0.30585       0.69297       0.57279
Nuclear contribution   :     -0.27446      -0.71220      -0.58629
                        -----------------------------------------
Total Dipole Moment    :      0.03139      -0.01923      -0.01349
                        -----------------------------------------
Magnitude (a.u.)       :      0.03921
Magnitude (Debye)      :      0.09966

Rotational constants in cm-1:     0.419751     0.185753     0.151088
Rotational constants in MHz : 12583.819928  5568.732483  4529.512437

                             ****ORCA TERMINATED NORMALLY****
TOTAL RUN TIME: 0 days 0 hours 0 minutes 5 seconds 378 msec
