                         Program Version 5.0.0 -  RELEASE  -
|  1> !wB97X-D3 RIJCOSX def2-SVP def2/J TightSCF xyzfile
|  2>
|  3> *xyzfile 0 1 D1.xyz
|  4>
|  5> %MaxCore 64000
|  6>
|  7> %pal nprocs 18
|  8> end
|  9>
| 10> %scf
| 11>   MaxIter 150
| 12> end
| 13>
| 14>
| 15>                          ****END OF INPUT****

CARTESIAN COORDINATES (ANGSTROEM)
---------------------------------
  C     -2.120502    0.885196    1.789506
  C     -0.778939    0.171966    1.804965
  H     -2.324193    1.472649    2.686078
  H     -2.187698    1.541272    0.919482
  C     -3.176900   -0.159484    1.610700
  H      0.015695    0.910767    1.939153
  H     -0.743553   -0.506827    2.665420
  C     -0.602493   -0.630712    0.492240
  H      0.313894   -1.240346    0.603498
  H     -0.363829    0.113322   -0.301169
  F     -1.712061   -1.376836    0.202535
  H     -4.064736    0.231272    1.286754
  H     -3.344073   -0.671511    2.484928
  H     -2.716861   -0.781886    0.935880

 Total Charge           Charge          ....    0
 Multiplicity           Mult            ....    1
 Number of Electrons    NEL             ....   42
 Basis Dimension        Dim             ....  115

ORBITAL ENERGIES
----------------

  NO   OCC          E(Eh)            E(eV)
   0   2.0000     -24.794018      -674.6795
   1   2.0000     -10.375411      -282.3293
   2   2.0000     -10.292156      -280.0638
   3   2.0000     -10.271766      -279.5090
   4   2.0000     -10.210459      -277.8407
   5   2.0000      -1.325755       -36.0756
   6   2.0000      -0.916046       -24.9269
   7   2.0000      -0.841309       -22.8932
   8   2.0000      -0.740535       -20.1510
   9   2.0000      -0.695092       -18.9144
  10   2.0000      -0.631272       -17.1778
  11   2.0000      -0.627467       -17.0743
  12   2.0000      -0.588060       -16.0019
  13   2.0000      -0.538124       -14.6431
  14   2.0000      -0.510116       -13.8810
  15   2.0000      -0.500559       -13.6209
  16   2.0000      -0.474111       -12.9012
  17   2.0000      -0.439457       -11.9582
  18   2.0000      -0.420184       -11.4338
  19   2.0000      -0.414784       -11.2868
  20   2.0000      -0.365622        -9.9491
  21   0.0000       0.143301         3.8994
  22   0.0000       0.176245         4.7959
  23   0.0000       0.184112         5.0099
  24   0.0000       0.210100         5.7171
  25   0.0000       0.212830         5.7914

MULLIKEN ATOMIC CHARGES
-----------------------
   0 C :   -0.089655
   1 C :   -0.143523
   2 H :    0.023478
   3 H :    0.014055
   4 C :   -0.011902
   5 H :    0.039628
   6 H :    0.038946
   7 C :    0.248499
   8 H :    0.038817
   9 H :    0.033071
  10 F :   -0.222521
  11 H :   -0.008392
  12 H :   -0.015407
  13 H :    0.054907
Sum of atomic charges:    0.0000000

LOEWDIN ATOMIC CHARGES
----------------------
   0 C :   -0.041342
   1 C :   -0.062924
   2 H :    0.017051
   3 H :    0.017912
   4 C :   -0.070104
   5 H :    0.031434
   6 H :    0.025906
   7 C :    0.120382
   8 H :    0.019379
   9 H :    0.018695
  10 F :   -0.044383
  11 H :    0.004827
  12 H :    0.005032
  13 H :   -0.041865

  Mayer bond orders larger than 0.100000
B(  0-C ,  1-C ) :   1.0656 B(  0-C ,  2-H ) :   0.9606 B(  0-C ,  3-H ) :   0.9587
B(  0-C ,  4-C ) :   1.0645 B(  1-C ,  5-H ) :   0.9495 B(  1-C ,  6-H ) :   0.9542
B(  1-C ,  7-C ) :   1.0591 B(  4-C , 11-H ) :   0.9588 B(  4-C , 12-H ) :   0.9607
B(  4-C , 13-H ) :   0.9377 B(  7-C ,  8-H ) :   0.9598 B(  7-C ,  9-H ) :   0.9562
B(  7-C , 10-F ) :   0.9236 B( 10-F , 13-H ) :   0.1408

Dispersion correction           -0.003160716
FINAL SINGLE POINT ENERGY      -257.366042050393

DIPOLE MOMENT
-------------
                                X             Y             Z
Electronic contribution:      0.91997      -4.23502      -3.77272
Nuclear contribution   :     -0.20666       4.43855       3.76066
                        -----------------------------------------
Total Dipole Moment    :      0.71331       0.20353      -0.01206
                        -----------------------------------------
Magnitude (a.u.)       :      0.74187
Magnitude (Debye)      :      1.88569

Rotational constants in cm-1:     0.236353     0.155239     0.105045
Rotational constants in MHz :  7085.692869  4653.957069  3149.180346

                             ****ORCA TERMINATED NORMALLY****
TOTAL RUN TIME: 0 days 0 hours 0 minutes 6 seconds 101 msec
