                         Program Version 5.0.0 -  RELEASE  -
|  1> !wB97X-D3 RIJCOSX def2-SVPD def2/J TightSCF CPCM(Water)
|  2> *xyz -1 1
|  3> C          0.61188        1.65763       -4.50029
|  4> C          1.69499        1.54179       -5.57045
|  5> H          2.69733        1.73466       -5.18400
|  6> H          1.50666        2.27224       -6.35808
|  7> S          1.78029       -0.03313       -6.42874
|  8> O          2.56929        0.21366       -7.60736
|  9> O          0.41688       -0.46297       -6.61859
| 10> O          2.50513       -0.93326       -5.48257
| 11> H         -0.34424        1.45871       -4.93752
| 12> H          0.61845        2.64655       -4.09174
| 13> H          0.80247        0.94882       -3.72173
| 14> *
| 15> %MaxCore 64000
| 16>
| 17> %pal nprocs 18
| 18> end
| 19>
| 20> %scf
| 21>   MaxIter 150
| 22> end
| 23>
| 24>
| 25>                          ****END OF INPUT****

CARTESIAN COORDINATES (ANGSTROEM)
---------------------------------
  C      0.611880    1.657630   -4.500290
  C      1.694990    1.541790   -5.570450
  H      2.697330    1.734660   -5.184000
  H      1.506660    2.272240   -6.358080
  S      1.780290   -0.033130   -6.428740
  O      2.569290    0.213660   -7.607360
  O      0.416880   -0.462970   -6.618590
  O      2.505130   -0.933260   -5.482570
  H     -0.344240    1.458710   -4.937520
  H      0.618450    2.646550   -4.091740
  H      0.802470    0.948820   -3.721730

 Total Charge           Charge          ....   -1
 Multiplicity           Mult            ....    1
 Number of Electrons    NEL             ....   58
 Basis Dimension        Dim             ....  176

ORBITAL ENERGIES
----------------

  NO   OCC          E(Eh)            E(eV)
   0   2.0000     -89.151900     -2425.9465
   1   2.0000     -19.209532      -522.7179
   2   2.0000     -19.209179      -522.7083
   3   2.0000     -19.193794      -522.2897
   4   2.0000     -10.298267      -280.2301
   5   2.0000     -10.275228      -279.6032
   6   2.0000      -8.226525      -223.8551
   7   2.0000      -6.186350      -168.3391
   8   2.0000      -6.186335      -168.3387
   9   2.0000      -6.184609      -168.2918
  10   2.0000      -1.230796       -33.4916
  11   2.0000      -1.093263       -29.7492
  12   2.0000      -1.061281       -28.8789
  13   2.0000      -0.886117       -24.1125
  14   2.0000      -0.761334       -20.7170
  15   2.0000      -0.652763       -17.7626
  16   2.0000      -0.589656       -16.0454
  17   2.0000      -0.570470       -15.5233
  18   2.0000      -0.555296       -15.1104
  19   2.0000      -0.537349       -14.6220
  20   2.0000      -0.503348       -13.6968
  21   2.0000      -0.468747       -12.7552
  22   2.0000      -0.451811       -12.2944
  23   2.0000      -0.436686       -11.8828
  24   2.0000      -0.434679       -11.8282
  25   2.0000      -0.395325       -10.7573
  26   2.0000      -0.380712       -10.3597
  27   2.0000      -0.369159       -10.0453
  28   2.0000      -0.345499        -9.4015
  29   0.0000       0.080778         2.1981
  30   0.0000       0.101051         2.7497
  31   0.0000       0.102052         2.7770
  32   0.0000       0.103162         2.8072
  33   0.0000       0.143956         3.9172

MULLIKEN ATOMIC CHARGES
-----------------------
   0 C :    0.673662
   1 C :   -0.402714
   2 H :   -0.003353
   3 H :    0.039194
   4 S :    1.290556
   5 O :   -0.805699
   6 O :   -0.817279
   7 O :   -0.876868
   8 H :   -0.032460
   9 H :   -0.034428
  10 H :   -0.030611
Sum of atomic charges:   -1.0000000

LOEWDIN ATOMIC CHARGES
----------------------
   0 C :    0.118463
   1 C :   -0.122609
   2 H :    0.019799
   3 H :    0.014434
   4 S :    0.850393
   5 O :   -0.601670
   6 O :   -0.596710
   7 O :   -0.645210
   8 H :   -0.018620
   9 H :   -0.008250
  10 H :   -0.010020

  Mayer bond orders larger than 0.100000
B(  0-C ,  1-C ) :   1.2868 B(  0-C ,  8-H ) :   0.8331 B(  0-C ,  9-H ) :   0.7847
B(  0-C , 10-H ) :   0.8260 B(  1-C ,  2-H ) :   0.9914 B(  1-C ,  3-H ) :   0.9871
B(  1-C ,  4-S ) :   0.9460 B(  1-C ,  8-H ) :   0.1888 B(  1-C ,  9-H ) :   0.1918
B(  1-C , 10-H ) :   0.1726 B(  4-S ,  5-O ) :   1.3552 B(  4-S ,  6-O ) :   1.3144
B(  4-S ,  7-O ) :   1.2463

Dispersion correction           -0.002885916
FINAL SINGLE POINT ENERGY      -702.795813086791

DIPOLE MOMENT
-------------
                                X             Y             Z
Electronic contribution:      2.05736      -4.81245      -4.60163
Nuclear contribution   :     -2.69163       7.29476       5.86550
                        -----------------------------------------
Total Dipole Moment    :     -0.63427       2.48231       1.26387
                        -----------------------------------------
Magnitude (a.u.)       :      2.85684
Magnitude (Debye)      :      7.26150

Rotational constants in cm-1:     0.163060     0.082831     0.081111
Rotational constants in MHz :  4888.419330  2483.225008  2431.646841

                             ****ORCA TERMINATED NORMALLY****
TOTAL RUN TIME: 0 days 0 hours 0 minutes 10 seconds 377 msec
