                         Program Version 5.0.0 -  RELEASE  -
|  1> !wB97X-D3 RIJCOSX def2-SVPD def2/J TightSCF CPCM(Water)
|  2> *xyz 1 1
|  3> C          1.96337       -1.74915       -1.89689
|  4> N          2.73849       -2.01517       -3.09711
|  5> C          4.04974       -2.15472       -3.15204
|  6> N          4.65821       -1.98629       -4.31866
|  7> N          4.76423       -2.45444       -2.05049
|  8> H          4.28736       -2.77626       -1.21750
|  9> H          5.75082       -2.65835       -2.12599
| 10> H          2.34518       -1.69027       -3.97145
| 11> H          4.10900       -1.59268       -5.07176
| 12> H          5.64910       -2.15646       -4.42724
| 13> C          2.08852       -0.30091       -1.41520
| 14> H          2.23127       -2.45162       -1.10264
| 15> H          0.93025       -1.97780       -2.15544
| 16> H          1.82118        0.36368       -2.21003
| 17> H          3.09792       -0.11068       -1.11551
| 18> H          1.43391       -0.14382       -0.58352
| 19> *
| 20> %MaxCore 64000
| 21>
| 22> %pal nprocs 18
| 23> end
| 24>
| 25> %scf
| 26>   MaxIter 150
| 27> end
| 28>
| 29>
| 30>                          ****END OF INPUT****

CARTESIAN COORDINATES (ANGSTROEM)
---------------------------------
  C      1.963370   -1.749150   -1.896890
  N      2.738490   -2.015170   -3.097110
  C      4.049740   -2.154720   -3.152040
  N      4.658210   -1.986290   -4.318660
  N      4.764230   -2.454440   -2.050490
  H      4.287360   -2.776260   -1.217500
  H      5.750820   -2.658350   -2.125990
  H      2.345180   -1.690270   -3.971450
  H      4.109000   -1.592680   -5.071760
  H      5.649100   -2.156460   -4.427240
  C      2.088520   -0.300910   -1.415200
  H      2.231270   -2.451620   -1.102640
  H      0.930250   -1.977800   -2.155440
  H      1.821180    0.363680   -2.210030
  H      3.097920   -0.110680   -1.115510
  H      1.433910   -0.143820   -0.583520

 Total Charge           Charge          ....    1
 Multiplicity           Mult            ....    1
 Number of Electrons    NEL             ....   48
 Basis Dimension        Dim             ....  200

ORBITAL ENERGIES
----------------

  NO   OCC          E(Eh)            E(eV)
   0   2.0000     -14.490202      -394.2984
   1   2.0000     -14.484882      -394.1537
   2   2.0000     -14.484685      -394.1483
   3   2.0000     -10.456017      -284.5227
   4   2.0000     -10.340413      -281.3769
   5   2.0000     -10.280507      -279.7468
   6   2.0000      -1.155877       -31.4530
   7   2.0000      -1.043050       -28.3828
   8   2.0000      -1.024887       -27.8886
   9   2.0000      -0.882951       -24.0263
  10   2.0000      -0.783654       -21.3243
  11   2.0000      -0.744786       -20.2667
  12   2.0000      -0.714386       -19.4394
  13   2.0000      -0.677912       -18.4469
  14   2.0000      -0.619446       -16.8560
  15   2.0000      -0.611235       -16.6326
  16   2.0000      -0.594170       -16.1682
  17   2.0000      -0.563009       -15.3203
  18   2.0000      -0.545845       -14.8532
  19   2.0000      -0.508288       -13.8312
  20   2.0000      -0.480686       -13.0801
  21   2.0000      -0.455895       -12.4055
  22   2.0000      -0.399208       -10.8630
  23   2.0000      -0.377150       -10.2628
  24   0.0000       0.079977         2.1763
  25   0.0000       0.086581         2.3560
  26   0.0000       0.116020         3.1571
  27   0.0000       0.124833         3.3969
  28   0.0000       0.129649         3.5279

MULLIKEN ATOMIC CHARGES
-----------------------
   0 C :    0.229174
   1 N :   -0.470067
   2 C :    1.299074
   3 N :   -0.178383
   4 N :   -0.090051
   5 H :    0.019314
   6 H :   -0.075114
   7 H :   -0.091260
   8 H :    0.066482
   9 H :    0.002980
  10 C :    0.529406
  11 H :   -0.026113
  12 H :   -0.218691
  13 H :   -0.010166
  14 H :   -0.029464
  15 H :    0.042879
Sum of atomic charges:    1.0000000

LOEWDIN ATOMIC CHARGES
----------------------
   0 C :    0.042034
   1 N :    0.036328
   2 C :   -0.033670
   3 N :    0.264963
   4 N :    0.277019
   5 H :    0.026828
   6 H :    0.044270
   7 H :    0.067308
   8 H :    0.046903
   9 H :    0.051209
  10 C :    0.145513
  11 H :    0.030222
  12 H :    0.036813
  13 H :   -0.009627
  14 H :   -0.018631
  15 H :   -0.007483

  Mayer bond orders larger than 0.100000
B(  0-C ,  1-N ) :   0.8767 B(  0-C ,  7-H ) :  -0.1168 B(  0-C , 10-C ) :   1.2326
B(  0-C , 11-H ) :   0.9285 B(  0-C , 12-H ) :   0.9212 B(  0-C , 13-H ) :   0.2039
B(  0-C , 14-H ) :   0.1744 B(  0-C , 15-H ) :   0.1503 B(  1-N ,  2-C ) :   1.0385
B(  1-N ,  3-N ) :   0.2850 B(  1-N ,  4-N ) :   0.1896 B(  1-N ,  7-H ) :   1.2479
B(  1-N , 11-H ) :   0.1173 B(  1-N , 12-H ) :   0.1940 B(  2-C ,  3-N ) :   0.8672
B(  2-C ,  4-N ) :   0.9473 B(  2-C ,  6-H ) :  -0.1393 B(  2-C ,  7-H ) :  -0.1821
B(  2-C ,  8-H ) :  -0.1114 B(  2-C ,  9-H ) :  -0.1128 B(  3-N ,  4-N ) :   0.1417
B(  3-N ,  8-H ) :   1.1217 B(  3-N ,  9-H ) :   1.2222 B(  4-N ,  5-H ) :   1.0613
B(  4-N ,  6-H ) :   1.2642 B(  5-H ,  6-H ) :  -0.1997 B(  8-H ,  9-H ) :  -0.1678
B( 10-C , 13-H ) :   0.8361 B( 10-C , 14-H ) :   0.8628 B( 10-C , 15-H ) :   0.8185

Dispersion correction           -0.003864095
FINAL SINGLE POINT ENERGY      -284.236019382406

DIPOLE MOMENT
-------------
                                X             Y             Z
Electronic contribution:      3.23626      -2.84578      -3.31855
Nuclear contribution   :     -2.17768       2.37118       2.44574
                        -----------------------------------------
Total Dipole Moment    :      1.05858      -0.47461      -0.87281
                        -----------------------------------------
Magnitude (a.u.)       :      1.45177
Magnitude (Debye)      :      3.69011

Rotational constants in cm-1:     0.215650     0.075183     0.066454
Rotational constants in MHz :  6465.033740  2253.919004  1992.232519

                             ****ORCA TERMINATED NORMALLY****
TOTAL RUN TIME: 0 days 0 hours 0 minutes 13 seconds 367 msec
