                         Program Version 5.0.0 -  RELEASE  -
|  1> !wB97X-D3 RIJCOSX def2-SVPD def2/J TightSCF CPCM(Water) xyzfile
|  2>
|  3> *xyzfile 0 1 B.xyz
|  4>
|  5> %MaxCore 64000
|  6>
|  7> %pal nprocs 18
|  8> end
|  9>
| 10> %scf
| 11>   MaxIter 150
| 12> end
| 13>
| 14>
| 15>                          ****END OF INPUT****

CARTESIAN COORDINATES (ANGSTROEM)
---------------------------------
  C      1.963365   -1.749150   -1.896887
  N      2.738490   -2.015170   -3.097113
  C      0.611877    1.657634   -4.500288
  C      1.694991    1.541794   -5.570447
  H      2.697326    1.734659   -5.183996
  H      1.506656    2.272239   -6.358076
  S      1.780287   -0.033128   -6.428739
  C      4.049736   -2.154717   -3.152044
  N      4.658206   -1.986293   -4.318655
  N      4.764231   -2.454435   -2.050491
  H      4.287363   -2.776259   -1.217496
  H      5.750825   -2.658351   -2.125988
  H      2.345176   -1.690274   -3.971447
  H      4.109004   -1.592677   -5.071760
  H      5.649095   -2.156462   -4.427237
  O      2.569287    0.213657   -7.607360
  O      0.416880   -0.462969   -6.618595
  C      2.088520   -0.300912   -1.415204
  H      2.231272   -2.451616   -1.102643
  H      0.930249   -1.977801   -2.155438
  C      0.680356    0.655418   -3.348038
  H     -0.356865    1.549231   -4.991128
  H      0.650228    2.675438   -4.096000
  C      1.968993    0.733582   -2.535654
  H      3.051356   -0.168602   -0.911868
  H      1.316501   -0.136231   -0.657252
  O      2.505129   -0.933263   -5.482570
  H      2.824195    0.624726   -3.208464
  H      2.058919    1.730331   -2.093112
  H      0.542252   -0.344731   -3.766662
  H     -0.174219    0.829692   -2.685182

 Total Charge           Charge          ....    0
 Multiplicity           Mult            ....    1
 Number of Electrons    NEL             ....  120
 Basis Dimension        Dim             ....  432

ORBITAL ENERGIES
----------------

  NO   OCC          E(Eh)            E(eV)
   0   2.0000     -89.167277     -2426.3650
   1   2.0000     -19.218649      -522.9660
   2   2.0000     -19.218278      -522.9559
   3   2.0000     -19.215713      -522.8861
   4   2.0000     -14.475229      -393.8910
   5   2.0000     -14.464220      -393.5914
   6   2.0000     -14.463315      -393.5668
   7   2.0000     -10.441161      -284.1184
   8   2.0000     -10.330138      -281.0973
   9   2.0000     -10.303080      -280.3611
  10   2.0000     -10.289050      -279.9793
  11   2.0000     -10.286774      -279.9174
  12   2.0000     -10.280687      -279.7517
  13   2.0000     -10.280479      -279.7460
  14   2.0000      -8.240343      -224.2311
  15   2.0000      -6.200723      -168.7302
  16   2.0000      -6.199999      -168.7106
  17   2.0000      -6.198328      -168.6651
  18   2.0000      -1.243451       -33.8360
  19   2.0000      -1.141328       -31.0571
  20   2.0000      -1.101865       -29.9833
  21   2.0000      -1.085022       -29.5249
  22   2.0000      -1.028631       -27.9905
  23   2.0000      -1.011602       -27.5271
  24   2.0000      -0.925044       -25.1717
  25   2.0000      -0.889824       -24.2133
  26   2.0000      -0.838861       -22.8266
  27   2.0000      -0.793081       -21.5808
  28   2.0000      -0.750938       -20.4340
  29   2.0000      -0.730970       -19.8907
  30   2.0000      -0.701557       -19.0903
  31   2.0000      -0.688598       -18.7377
  32   2.0000      -0.666268       -18.1301
  33   2.0000      -0.651578       -17.7303
  34   2.0000      -0.615758       -16.7556
  35   2.0000      -0.602877       -16.4051
  36   2.0000      -0.598406       -16.2835
  37   2.0000      -0.590024       -16.0554
  38   2.0000      -0.571895       -15.5620
  39   2.0000      -0.566778       -15.4228
  40   2.0000      -0.564171       -15.3519
  41   2.0000      -0.553833       -15.0706
  42   2.0000      -0.547201       -14.8901
  43   2.0000      -0.523468       -14.2443
  44   2.0000      -0.511150       -13.9091
  45   2.0000      -0.493652       -13.4330
  46   2.0000      -0.468899       -12.7594
  47   2.0000      -0.465524       -12.6676
  48   2.0000      -0.456900       -12.4329
  49   2.0000      -0.451462       -12.2849
  50   2.0000      -0.446908       -12.1610
  51   2.0000      -0.426509       -11.6059
  52   2.0000      -0.415563       -11.3080
  53   2.0000      -0.405674       -11.0389
  54   2.0000      -0.402350       -10.9485
  55   2.0000      -0.397090       -10.8054
  56   2.0000      -0.385484       -10.4895
  57   2.0000      -0.377223       -10.2648
  58   2.0000      -0.364336        -9.9141
  59   2.0000      -0.358734        -9.7616
  60   0.0000       0.079462         2.1623
  61   0.0000       0.086280         2.3478
  62   0.0000       0.092362         2.5133
  63   0.0000       0.096702         2.6314
  64   0.0000       0.100697         2.7401

MULLIKEN ATOMIC CHARGES
-----------------------
   0 C :    0.902166
   1 N :   -0.059455
   2 C :    0.384812
   3 C :    0.058092
   4 H :    0.128875
   5 H :   -0.045327
   6 S :    1.343647
   7 C :    1.342452
   8 N :    0.119213
   9 N :   -0.047549
  10 H :    0.019936
  11 H :   -0.090688
  12 H :   -0.662830
  13 H :   -0.159111
  14 H :   -0.122814
  15 O :   -0.823080
  16 O :   -0.849250
  17 C :    0.339335
  18 H :   -0.337198
  19 H :   -0.054958
  20 C :   -0.026778
  21 H :    0.010039
  22 H :   -0.004785
  23 C :   -0.037157
  24 H :   -0.031722
  25 H :    0.007641
  26 O :   -0.867704
  27 H :    0.069387
  28 H :   -0.284666
  29 H :   -0.064675
  30 H :   -0.155848
Sum of atomic charges:   -0.0000000

LOEWDIN ATOMIC CHARGES
----------------------
   0 C :    0.083685
   1 N :    0.056934
   2 C :   -0.032172
   3 C :   -0.060888
   4 H :    0.020025
   5 H :    0.020654
   6 S :    0.936133
   7 C :   -0.026757
   8 N :    0.276114
   9 N :    0.269968
  10 H :    0.021985
  11 H :    0.039364
  12 H :   -0.074725
  13 H :   -0.066949
  14 H :    0.047255
  15 O :   -0.570168
  16 O :   -0.565230
  17 C :   -0.008337
  18 H :    0.025595
  19 H :    0.032783
  20 C :   -0.026473
  21 H :    0.022540
  22 H :    0.035206
  23 C :   -0.027156
  24 H :    0.021138
  25 H :    0.030662
  26 O :   -0.556522
  27 H :    0.007421
  28 H :    0.030971
  29 H :    0.001944
  30 H :    0.035001

  Mayer bond orders larger than 0.100000
B(  0-C ,  1-N ) :   0.8536 B(  0-C , 12-H ) :  -0.3156 B(  0-C , 17-C ) :   1.0891
B(  0-C , 18-H ) :   0.9488 B(  0-C , 19-H ) :   0.6917 B(  0-C , 25-H ) :   0.1060
B(  1-N ,  7-C ) :   1.1092 B(  1-N ,  8-N ) :   0.1127 B(  1-N ,  9-N ) :   0.2130
B(  1-N , 12-H ) :   1.2333 B(  1-N , 19-H ) :   0.1569 B(  2-C ,  3-C ) :   1.2558
B(  2-C ,  5-H ) :   0.1635 B(  2-C , 20-C ) :   1.2409 B(  2-C , 21-H ) :   0.6821
B(  2-C , 22-H ) :   0.8046 B(  3-C ,  4-H ) :   0.8796 B(  3-C ,  5-H ) :   0.8801
B(  3-C ,  6-S ) :   1.0127 B(  3-C , 21-H ) :   0.1210 B(  3-C , 22-H ) :   0.1256
B(  6-S , 15-O ) :   1.3710 B(  6-S , 16-O ) :   1.2587 B(  6-S , 26-O ) :   1.1400
B(  7-C ,  8-N ) :   0.8316 B(  7-C ,  9-N ) :   0.9278 B(  7-C , 11-H ) :  -0.1080
B(  7-C , 12-H ) :  -0.4267 B(  7-C , 13-H ) :  -0.1800 B(  7-C , 14-H ) :  -0.2182
B(  8-N ,  9-N ) :   0.1402 B(  8-N , 13-H ) :   1.1156 B(  8-N , 14-H ) :   1.3985
B(  9-N , 10-H ) :   1.0491 B(  9-N , 11-H ) :   1.2706 B( 10-H , 11-H ) :  -0.2098
B( 12-H , 19-H ) :   0.1485 B( 12-H , 26-O ) :   0.1256 B( 13-H , 14-H ) :  -0.2237
B( 13-H , 26-O ) :   0.2112 B( 16-O , 26-O ) :   0.1173 B( 17-C , 18-H ) :   0.1333
B( 17-C , 23-C ) :   1.2586 B( 17-C , 24-H ) :   0.7932 B( 17-C , 25-H ) :   0.8540
B( 18-H , 19-H ) :  -0.1159 B( 20-C , 21-H ) :   0.2645 B( 20-C , 23-C ) :   1.1768
B( 20-C , 28-H ) :   0.1388 B( 20-C , 29-H ) :   0.9562 B( 20-C , 30-H ) :   0.8846
B( 23-C , 24-H ) :   0.1990 B( 23-C , 25-H ) :   0.1181 B( 23-C , 27-H ) :   0.8749
B( 23-C , 28-H ) :   0.9663 B( 23-C , 30-H ) :   0.1381

Dispersion correction           -0.016453463
FINAL SINGLE POINT ENERGY     -1064.411528332171

DIPOLE MOMENT
-------------
                                X             Y             Z
Electronic contribution:      2.95223      -5.02273     -12.79849
Nuclear contribution   :      0.44641       3.59123      19.13564
                        -----------------------------------------
Total Dipole Moment    :      3.39865      -1.43149       6.33715
                        -----------------------------------------
Magnitude (a.u.)       :      7.33208
Magnitude (Debye)      :     18.63668

Rotational constants in cm-1:     0.029186     0.014646     0.011115
Rotational constants in MHz :   874.975540   439.070287   333.231642

                             ****ORCA TERMINATED NORMALLY****
TOTAL RUN TIME: 0 days 0 hours 1 minutes 6 seconds 195 msec
