                         Program Version 5.0.0 -  RELEASE  -
|  1> !wB97X-D3 RIJCOSX def2-SVPD def2/J TightSCF CPCM(Water)
|  2> *xyz 0 1
|  3> C          0.61188        1.65763       -4.50029
|  4> C          1.69499        1.54179       -5.57045
|  5> H          2.69733        1.73466       -5.18400
|  6> H          1.50666        2.27224       -6.35808
|  7> S          1.78029       -0.03313       -6.42874
|  8> F          2.56929        0.21366       -7.60736
|  9> O          0.41688       -0.46297       -6.61859
| 10> O          2.50513       -0.93326       -5.48257
| 11> H         -0.34424        1.45871       -4.93752
| 12> H          0.61845        2.64655       -4.09174
| 13> H          0.80247        0.94882       -3.72173
| 14> *
| 15> %MaxCore 64000
| 16>
| 17> %pal nprocs 18
| 18> end
| 19>
| 20> %scf
| 21>   MaxIter 150
| 22> end
| 23>
| 24>
| 25>                          ****END OF INPUT****

CARTESIAN COORDINATES (ANGSTROEM)
---------------------------------
  C      0.611880    1.657630   -4.500290
  C      1.694990    1.541790   -5.570450
  H      2.697330    1.734660   -5.184000
  H      1.506660    2.272240   -6.358080
  S      1.780290   -0.033130   -6.428740
  F      2.569290    0.213660   -7.607360
  O      0.416880   -0.462970   -6.618590
  O      2.505130   -0.933260   -5.482570
  H     -0.344240    1.458710   -4.937520
  H      0.618450    2.646550   -4.091740
  H      0.802470    0.948820   -3.721730

 Total Charge           Charge          ....    0
 Multiplicity           Mult            ....    1
 Number of Electrons    NEL             ....   58
 Basis Dimension        Dim             ....  176

ORBITAL ENERGIES
----------------

  NO   OCC          E(Eh)            E(eV)
   0   2.0000     -89.240323     -2428.3527
   1   2.0000     -24.919835      -678.1032
   2   2.0000     -19.270469      -524.3761
   3   2.0000     -19.253739      -523.9209
   4   2.0000     -10.339401      -281.3494
   5   2.0000     -10.294124      -280.1173
   6   2.0000      -8.314948      -226.2612
   7   2.0000      -6.278549      -170.8480
   8   2.0000      -6.272636      -170.6871
   9   2.0000      -6.270458      -170.6278
  10   2.0000      -1.493731       -40.6465
  11   2.0000      -1.232513       -33.5384
  12   2.0000      -1.124023       -30.5862
  13   2.0000      -0.925588       -25.1865
  14   2.0000      -0.844435       -22.9782
  15   2.0000      -0.776985       -21.1428
  16   2.0000      -0.695505       -18.9256
  17   2.0000      -0.687890       -18.7184
  18   2.0000      -0.666134       -18.1264
  19   2.0000      -0.589141       -16.0313
  20   2.0000      -0.585735       -15.9387
  21   2.0000      -0.552815       -15.0429
  22   2.0000      -0.524173       -14.2635
  23   2.0000      -0.496462       -13.5094
  24   2.0000      -0.488689       -13.2979
  25   2.0000      -0.471036       -12.8175
  26   2.0000      -0.441108       -12.0032
  27   2.0000      -0.421397       -11.4668
  28   2.0000      -0.412470       -11.2239
  29   0.0000       0.069218         1.8835
  30   0.0000       0.097487         2.6528
  31   0.0000       0.097853         2.6627
  32   0.0000       0.099792         2.7155
  33   0.0000       0.120343         3.2747

MULLIKEN ATOMIC CHARGES
-----------------------
   0 C :    0.621353
   1 C :   -0.497980
   2 H :    0.071288
   3 H :    0.122170
   4 S :    1.546322
   5 F :   -0.394321
   6 O :   -0.700739
   7 O :   -0.763441
   8 H :   -0.000086
   9 H :   -0.000316
  10 H :   -0.004249
Sum of atomic charges:   -0.0000000

LOEWDIN ATOMIC CHARGES
----------------------
   0 C :    0.146142
   1 C :   -0.082358
   2 H :    0.036543
   3 H :    0.032094
   4 S :    1.137292
   5 F :   -0.238219
   6 O :   -0.494194
   7 O :   -0.537153
   8 H :   -0.007362
   9 H :    0.006580
  10 H :    0.000634

  Mayer bond orders larger than 0.100000
B(  0-C ,  1-C ) :   1.3247 B(  0-C ,  8-H ) :   0.8375 B(  0-C ,  9-H ) :   0.7970
B(  0-C , 10-H ) :   0.8358 B(  1-C ,  2-H ) :   0.9864 B(  1-C ,  3-H ) :   0.9607
B(  1-C ,  4-S ) :   0.9827 B(  1-C ,  8-H ) :   0.1819 B(  1-C ,  9-H ) :   0.1828
B(  1-C , 10-H ) :   0.1654 B(  4-S ,  5-F ) :   0.7035 B(  4-S ,  6-O ) :   1.4994
B(  4-S ,  7-O ) :   1.4293

Dispersion correction           -0.002888223
FINAL SINGLE POINT ENERGY      -727.188701698051

DIPOLE MOMENT
-------------
                                X             Y             Z
Electronic contribution:      3.97011      -5.04483      -7.63351
Nuclear contribution   :     -3.66946       7.33549       7.42434
                        -----------------------------------------
Total Dipole Moment    :      0.30065       2.29066      -0.20917
                        -----------------------------------------
Magnitude (a.u.)       :      2.31976
Magnitude (Debye)      :      5.89635

Rotational constants in cm-1:     0.158379     0.080294     0.077843
Rotational constants in MHz :  4748.076444  2407.152850  2333.668303

                             ****ORCA TERMINATED NORMALLY****
TOTAL RUN TIME: 0 days 0 hours 0 minutes 12 seconds 565 msec
