                         Program Version 5.0.0 -  RELEASE  -
|  1> !wB97X-D3 RIJCOSX def2-SVPD def2/J TightSCF CPCM(Water)
|  2> *xyz 0 1
|  3> C          1.96337       -1.74915       -1.89689
|  4> C          2.73849       -2.01517       -3.09711
|  5> C          4.04974       -2.15472       -3.15204
|  6> N          4.65821       -1.98629       -4.31866
|  7> N          4.76423       -2.45444       -2.05049
|  8> H          4.28736       -2.77626       -1.21750
|  9> H          5.75082       -2.65835       -2.12599
| 10> H          2.34518       -1.69027       -3.97145
| 11> H          4.10900       -1.59268       -5.07176
| 12> H          5.64910       -2.15646       -4.42724
| 13> C          2.08852       -0.30091       -1.41520
| 14> H          2.23127       -2.45162       -1.10264
| 15> H          0.93025       -1.97780       -2.15544
| 16> H          1.82118        0.36368       -2.21003
| 17> H          3.09792       -0.11068       -1.11551
| 18> H          1.43391       -0.14382       -0.58352
| 19> *
| 20> %MaxCore 64000
| 21>
| 22> %pal nprocs 18
| 23> end
| 24>
| 25> %scf
| 26>   MaxIter 150
| 27> end
| 28>
| 29>
| 30>                          ****END OF INPUT****

CARTESIAN COORDINATES (ANGSTROEM)
---------------------------------
  C      1.963370   -1.749150   -1.896890
  C      2.738490   -2.015170   -3.097110
  C      4.049740   -2.154720   -3.152040
  N      4.658210   -1.986290   -4.318660
  N      4.764230   -2.454440   -2.050490
  H      4.287360   -2.776260   -1.217500
  H      5.750820   -2.658350   -2.125990
  H      2.345180   -1.690270   -3.971450
  H      4.109000   -1.592680   -5.071760
  H      5.649100   -2.156460   -4.427240
  C      2.088520   -0.300910   -1.415200
  H      2.231270   -2.451620   -1.102640
  H      0.930250   -1.977800   -2.155440
  H      1.821180    0.363680   -2.210030
  H      3.097920   -0.110680   -1.115510
  H      1.433910   -0.143820   -0.583520

 Total Charge           Charge          ....    0
 Multiplicity           Mult            ....    1
 Number of Electrons    NEL             ....   48
 Basis Dimension        Dim             ....  200

ORBITAL ENERGIES
----------------

  NO   OCC          E(Eh)            E(eV)
   0   2.0000     -14.432527      -392.7290
   1   2.0000     -14.429633      -392.6503
   2   2.0000     -10.337484      -281.2972
   3   2.0000     -10.268212      -279.4122
   4   2.0000     -10.259486      -279.1748
   5   2.0000     -10.210456      -277.8406
   6   2.0000      -1.066804       -29.0292
   7   2.0000      -0.972081       -26.4517
   8   2.0000      -0.887848       -24.1596
   9   2.0000      -0.803923       -21.8759
  10   2.0000      -0.723702       -19.6929
  11   2.0000      -0.680826       -18.5262
  12   2.0000      -0.640439       -17.4272
  13   2.0000      -0.608900       -16.5690
  14   2.0000      -0.565228       -15.3806
  15   2.0000      -0.540987       -14.7210
  16   2.0000      -0.525166       -14.2905
  17   2.0000      -0.488809       -13.3012
  18   2.0000      -0.482385       -13.1264
  19   2.0000      -0.457214       -12.4414
  20   2.0000      -0.427243       -11.6259
  21   2.0000      -0.415358       -11.3025
  22   2.0000      -0.357863        -9.7380
  23   2.0000      -0.251036        -6.8310
  24   0.0000       0.096106         2.6152
  25   0.0000       0.117373         3.1939
  26   0.0000       0.124880         3.3982
  27   0.0000       0.131782         3.5860
  28   0.0000       0.156350         4.2545

MULLIKEN ATOMIC CHARGES
-----------------------
   0 C :   -0.205337
   1 C :   -0.320206
   2 C :    0.688169
   3 N :   -0.088754
   4 N :   -0.144348
   5 H :    0.040962
   6 H :   -0.186995
   7 H :   -0.132792
   8 H :    0.058184
   9 H :   -0.094975
  10 C :    0.623498
  11 H :   -0.055513
  12 H :   -0.083668
  13 H :   -0.043602
  14 H :   -0.057604
  15 H :    0.002983
Sum of atomic charges:   -0.0000000

LOEWDIN ATOMIC CHARGES
----------------------
   0 C :   -0.110909
   1 C :   -0.075580
   2 C :   -0.236263
   3 N :    0.178859
   4 N :    0.201668
   5 H :    0.002340
   6 H :    0.006679
   7 H :   -0.055325
   8 H :    0.015935
   9 H :    0.012362
  10 C :    0.114528
  11 H :    0.006603
  12 H :    0.009328
  13 H :   -0.018662
  14 H :   -0.026590
  15 H :   -0.024973

  Mayer bond orders larger than 0.100000
B(  0-C ,  1-C ) :   1.2847 B(  0-C ,  7-H ) :   0.2767 B(  0-C , 10-C ) :   1.1985
B(  0-C , 11-H ) :   0.8933 B(  0-C , 12-H ) :   0.8244 B(  0-C , 13-H ) :   0.2155
B(  0-C , 14-H ) :   0.1868 B(  0-C , 15-H ) :   0.1676 B(  1-C ,  2-C ) :   1.8324
B(  1-C ,  3-N ) :   0.2731 B(  1-C ,  4-N ) :   0.2155 B(  1-C ,  7-H ) :   0.7758
B(  1-C , 11-H ) :   0.2009 B(  1-C , 12-H ) :   0.2539 B(  2-C ,  3-N ) :   0.9524
B(  2-C ,  4-N ) :   0.9077 B(  2-C ,  6-H ) :  -0.1939 B(  2-C ,  7-H ) :   0.3041
B(  3-N ,  8-H ) :   1.1037 B(  3-N ,  9-H ) :   1.2298 B(  4-N ,  5-H ) :   1.0095
B(  4-N ,  6-H ) :   1.3629 B(  5-H ,  6-H ) :  -0.2068 B(  8-H ,  9-H ) :  -0.1639
B( 10-C , 13-H ) :   0.8348 B( 10-C , 14-H ) :   0.8505 B( 10-C , 15-H ) :   0.8089

Dispersion correction           -0.003858102
FINAL SINGLE POINT ENERGY      -267.679857509874

DIPOLE MOMENT
-------------
                                X             Y             Z
Electronic contribution:      3.64580      -2.42305      -2.50344
Nuclear contribution   :     -2.31778       2.31977       2.35294
                        -----------------------------------------
Total Dipole Moment    :      1.32802      -0.10328      -0.15050
                        -----------------------------------------
Magnitude (a.u.)       :      1.34051
Magnitude (Debye)      :      3.40730

Rotational constants in cm-1:     0.219415     0.075373     0.066689
Rotational constants in MHz :  6577.897266  2259.621393  1999.290981

                             ****ORCA TERMINATED NORMALLY****
TOTAL RUN TIME: 0 days 0 hours 0 minutes 15 seconds 306 msec
