                         Program Version 5.0.0 -  RELEASE  -
|  1> !wB97X-D3 RIJCOSX def2-SVPD def2/J TightSCF CPCM(Water)
|  2> *xyz 0 1
|  3> C          0.61188        1.65763       -4.50029
|  4> C          1.69499        1.54179       -5.57045
|  5> H          2.69733        1.73466       -5.18400
|  6> H          1.50666        2.27224       -6.35808
|  7> S          1.78029       -0.03313       -6.42874
|  8> O          2.56929        0.21366       -7.60736
|  9> F          0.41688       -0.46297       -6.61859
| 10> O          2.50513       -0.93326       -5.48257
| 11> H         -0.34424        1.45871       -4.93752
| 12> H          0.61845        2.64655       -4.09174
| 13> H          0.80247        0.94882       -3.72173
| 14> *
| 15> %MaxCore 64000
| 16>
| 17> %pal nprocs 18
| 18> end
| 19>
| 20> %scf
| 21>   MaxIter 150
| 22> end
| 23>
| 24>
| 25>                          ****END OF INPUT****

CARTESIAN COORDINATES (ANGSTROEM)
---------------------------------
  C      0.611880    1.657630   -4.500290
  C      1.694990    1.541790   -5.570450
  H      2.697330    1.734660   -5.184000
  H      1.506660    2.272240   -6.358080
  S      1.780290   -0.033130   -6.428740
  O      2.569290    0.213660   -7.607360
  F      0.416880   -0.462970   -6.618590
  O      2.505130   -0.933260   -5.482570
  H     -0.344240    1.458710   -4.937520
  H      0.618450    2.646550   -4.091740
  H      0.802470    0.948820   -3.721730

 Total Charge           Charge          ....    0
 Multiplicity           Mult            ....    1
 Number of Electrons    NEL             ....   58
 Basis Dimension        Dim             ....  176

ORBITAL ENERGIES
----------------

  NO   OCC          E(Eh)            E(eV)
   0   2.0000     -89.240487     -2428.3571
   1   2.0000     -24.919678      -678.0989
   2   2.0000     -19.270844      -524.3863
   3   2.0000     -19.254206      -523.9336
   4   2.0000     -10.340049      -281.3670
   5   2.0000     -10.293098      -280.0894
   6   2.0000      -8.315155      -226.2669
   7   2.0000      -6.278888      -170.8572
   8   2.0000      -6.272809      -170.6918
   9   2.0000      -6.270575      -170.6310
  10   2.0000      -1.492525       -40.6137
  11   2.0000      -1.234224       -33.5849
  12   2.0000      -1.124343       -30.5949
  13   2.0000      -0.927773       -25.2460
  14   2.0000      -0.839599       -22.8467
  15   2.0000      -0.779727       -21.2175
  16   2.0000      -0.701055       -19.0767
  17   2.0000      -0.693664       -18.8755
  18   2.0000      -0.657016       -17.8783
  19   2.0000      -0.587151       -15.9772
  20   2.0000      -0.577264       -15.7082
  21   2.0000      -0.557293       -15.1647
  22   2.0000      -0.532521       -14.4906
  23   2.0000      -0.504693       -13.7334
  24   2.0000      -0.484584       -13.1862
  25   2.0000      -0.471539       -12.8312
  26   2.0000      -0.438357       -11.9283
  27   2.0000      -0.422075       -11.4852
  28   2.0000      -0.413526       -11.2526
  29   0.0000       0.067450         1.8354
  30   0.0000       0.096311         2.6208
  31   0.0000       0.097845         2.6625
  32   0.0000       0.099773         2.7150
  33   0.0000       0.126487         3.4419

MULLIKEN ATOMIC CHARGES
-----------------------
   0 C :    0.612209
   1 C :   -0.481694
   2 H :    0.071245
   3 H :    0.106389
   4 S :    1.520974
   5 O :   -0.684225
   6 F :   -0.399274
   7 O :   -0.761108
   8 H :    0.015146
   9 H :   -0.001613
  10 H :    0.001951
Sum of atomic charges:    0.0000000

LOEWDIN ATOMIC CHARGES
----------------------
   0 C :    0.137240
   1 C :   -0.075503
   2 H :    0.044759
   3 H :    0.031936
   4 S :    1.133367
   5 O :   -0.495135
   6 F :   -0.238502
   7 O :   -0.536165
   8 H :   -0.004760
   9 H :    0.004221
  10 H :   -0.001458

  Mayer bond orders larger than 0.100000
B(  0-C ,  1-C ) :   1.2967 B(  0-C ,  8-H ) :   0.8362 B(  0-C ,  9-H ) :   0.7887
B(  0-C , 10-H ) :   0.8429 B(  1-C ,  2-H ) :   0.9908 B(  1-C ,  3-H ) :   0.9858
B(  1-C ,  4-S ) :   1.0038 B(  1-C ,  8-H ) :   0.1742 B(  1-C ,  9-H ) :   0.1898
B(  1-C , 10-H ) :   0.1654 B(  4-S ,  5-O ) :   1.5355 B(  4-S ,  6-F ) :   0.6902
B(  4-S ,  7-O ) :   1.4415

Dispersion correction           -0.002869916
FINAL SINGLE POINT ENERGY      -727.188899744847

DIPOLE MOMENT
-------------
                                X             Y             Z
Electronic contribution:     -0.12949      -6.33436      -5.73868
Nuclear contribution   :     -1.42658       8.04056       6.39401
                        -----------------------------------------
Total Dipole Moment    :     -1.55607       1.70620       0.65533
                        -----------------------------------------
Magnitude (a.u.)       :      2.40041
Magnitude (Debye)      :      6.10135

Rotational constants in cm-1:     0.153659     0.082363     0.078978
Rotational constants in MHz :  4606.587369  2469.179541  2367.702074

                             ****ORCA TERMINATED NORMALLY****
TOTAL RUN TIME: 0 days 0 hours 0 minutes 11 seconds 627 msec
