                         Program Version 5.0.0 -  RELEASE  -
|  1> !wB97X-D3 RIJCOSX def2-SVPD def2/J TightSCF CPCM(Water)
|  2> *xyz 0 1
|  3> C          1.96337       -1.74915       -1.89689
|  4> N          2.73849       -2.01517       -3.09711
|  5> C          4.04974       -2.15472       -3.15204
|  6> C          4.65821       -1.98629       -4.31866
|  7> N          4.76423       -2.45444       -2.05049
|  8> H          4.28736       -2.77626       -1.21750
|  9> H          5.75082       -2.65835       -2.12599
| 10> H          2.34518       -1.69027       -3.97145
| 11> H          4.10900       -1.59268       -5.07176
| 12> H          5.64910       -2.15646       -4.42724
| 13> C          2.08852       -0.30091       -1.41520
| 14> H          2.23127       -2.45162       -1.10264
| 15> H          0.93025       -1.97780       -2.15544
| 16> H          1.82118        0.36368       -2.21003
| 17> H          3.09792       -0.11068       -1.11551
| 18> H          1.43391       -0.14382       -0.58352
| 19> *
| 20> %MaxCore 64000
| 21>
| 22> %pal nprocs 18
| 23> end
| 24>
| 25> %scf
| 26>   MaxIter 150
| 27> end
| 28>
| 29>
| 30>                          ****END OF INPUT****

CARTESIAN COORDINATES (ANGSTROEM)
---------------------------------
  C      1.963370   -1.749150   -1.896890
  N      2.738490   -2.015170   -3.097110
  C      4.049740   -2.154720   -3.152040
  C      4.658210   -1.986290   -4.318660
  N      4.764230   -2.454440   -2.050490
  H      4.287360   -2.776260   -1.217500
  H      5.750820   -2.658350   -2.125990
  H      2.345180   -1.690270   -3.971450
  H      4.109000   -1.592680   -5.071760
  H      5.649100   -2.156460   -4.427240
  C      2.088520   -0.300910   -1.415200
  H      2.231270   -2.451620   -1.102640
  H      0.930250   -1.977800   -2.155440
  H      1.821180    0.363680   -2.210030
  H      3.097920   -0.110680   -1.115510
  H      1.433910   -0.143820   -0.583520

 Total Charge           Charge          ....    0
 Multiplicity           Mult            ....    1
 Number of Electrons    NEL             ....   48
 Basis Dimension        Dim             ....  200

ORBITAL ENERGIES
----------------

  NO   OCC          E(Eh)            E(eV)
   0   2.0000     -14.435130      -392.7998
   1   2.0000     -14.434499      -392.7827
   2   2.0000     -10.344379      -281.4849
   3   2.0000     -10.318912      -280.7919
   4   2.0000     -10.268970      -279.4329
   5   2.0000     -10.208438      -277.7857
   6   2.0000      -1.079634       -29.3783
   7   2.0000      -0.988661       -26.9028
   8   2.0000      -0.875779       -23.8311
   9   2.0000      -0.811337       -22.0776
  10   2.0000      -0.732206       -19.9243
  11   2.0000      -0.699808       -19.0428
  12   2.0000      -0.637264       -17.3408
  13   2.0000      -0.596086       -16.2203
  14   2.0000      -0.573265       -15.5993
  15   2.0000      -0.535083       -14.5603
  16   2.0000      -0.527363       -14.3503
  17   2.0000      -0.501654       -13.6507
  18   2.0000      -0.484476       -13.1833
  19   2.0000      -0.468789       -12.7564
  20   2.0000      -0.456035       -12.4093
  21   2.0000      -0.441202       -12.0057
  22   2.0000      -0.347818        -9.4646
  23   2.0000      -0.261197        -7.1075
  24   0.0000       0.093460         2.5432
  25   0.0000       0.118376         3.2212
  26   0.0000       0.122010         3.3201
  27   0.0000       0.133891         3.6434
  28   0.0000       0.150059         4.0833

MULLIKEN ATOMIC CHARGES
-----------------------
   0 C :    0.244242
   1 N :   -0.401895
   2 C :    0.482378
   3 C :    0.342668
   4 N :    0.046450
   5 H :   -0.066240
   6 H :   -0.103469
   7 H :   -0.132485
   8 H :   -0.194326
   9 H :   -0.376774
  10 C :    0.552244
  11 H :   -0.065234
  12 H :   -0.253744
  13 H :   -0.037159
  14 H :   -0.046381
  15 H :    0.009726
Sum of atomic charges:   -0.0000000

LOEWDIN ATOMIC CHARGES
----------------------
   0 C :    0.018395
   1 N :   -0.025477
   2 C :   -0.258598
   3 C :    0.109281
   4 N :    0.202275
   5 H :   -0.005694
   6 H :    0.016662
   7 H :    0.041349
   8 H :   -0.107346
   9 H :   -0.107887
  10 C :    0.131104
  11 H :    0.018332
  12 H :    0.024082
  13 H :   -0.015374
  14 H :   -0.025073
  15 H :   -0.016029

  Mayer bond orders larger than 0.100000
B(  0-C ,  1-N ) :   0.8812 B(  0-C ,  7-H ) :  -0.1140 B(  0-C , 10-C ) :   1.2165
B(  0-C , 11-H ) :   0.9206 B(  0-C , 12-H ) :   0.9165 B(  0-C , 13-H ) :   0.2156
B(  0-C , 14-H ) :   0.1745 B(  0-C , 15-H ) :   0.1539 B(  1-N ,  2-C ) :   1.1168
B(  1-N ,  3-C ) :   0.2505 B(  1-N ,  4-N ) :   0.1280 B(  1-N ,  7-H ) :   1.1835
B(  1-N , 11-H ) :   0.1343 B(  1-N , 12-H ) :   0.1910 B(  2-C ,  3-C ) :   1.5736
B(  2-C ,  4-N ) :   1.0179 B(  2-C ,  7-H ) :  -0.1383 B(  2-C ,  8-H ) :   0.1159
B(  2-C ,  9-H ) :   0.1405 B(  3-C ,  4-N ) :   0.1745 B(  3-C ,  8-H ) :   0.8415
B(  3-C ,  9-H ) :   0.8352 B(  4-N ,  5-H ) :   1.0415 B(  4-N ,  6-H ) :   1.2181
B(  5-H ,  6-H ) :  -0.1956 B(  8-H ,  9-H ) :   0.1303 B( 10-C , 13-H ) :   0.8284
B( 10-C , 14-H ) :   0.8561 B( 10-C , 15-H ) :   0.8352

Dispersion correction           -0.003890877
FINAL SINGLE POINT ENERGY      -267.674309451000

DIPOLE MOMENT
-------------
                                X             Y             Z
Electronic contribution:      1.18241      -2.36483      -0.84531
Nuclear contribution   :     -1.91052       2.32590       2.09379
                        -----------------------------------------
Total Dipole Moment    :     -0.72811      -0.03893       1.24848
                        -----------------------------------------
Magnitude (a.u.)       :      1.44581
Magnitude (Debye)      :      3.67496

Rotational constants in cm-1:     0.219448     0.077923     0.068804
Rotational constants in MHz :  6578.886179  2336.083179  2062.700476

                             ****ORCA TERMINATED NORMALLY****
TOTAL RUN TIME: 0 days 0 hours 0 minutes 14 seconds 339 msec
