                         Program Version 5.0.0 -  RELEASE  -
|  1> !wB97X-D3 RIJCOSX def2-SVPD def2/J TightSCF CPCM(Water)
|  2> *xyz 0 1
|  3> C          0.61188        1.65763       -4.50029
|  4> C          1.69499        1.54179       -5.57045
|  5> H          2.69733        1.73466       -5.18400
|  6> H          1.50666        2.27224       -6.35808
|  7> S          1.78029       -0.03313       -6.42874
|  8> O          2.56929        0.21366       -7.60736
|  9> O          0.41688       -0.46297       -6.61859
| 10> F          2.50513       -0.93326       -5.48257
| 11> H         -0.34424        1.45871       -4.93752
| 12> H          0.61845        2.64655       -4.09174
| 13> H          0.80247        0.94882       -3.72173
| 14> *
| 15> %MaxCore 64000
| 16>
| 17> %pal nprocs 18
| 18> end
| 19>
| 20> %scf
| 21>   MaxIter 150
| 22> end
| 23>
| 24>
| 25>                          ****END OF INPUT****

CARTESIAN COORDINATES (ANGSTROEM)
---------------------------------
  C      0.611880    1.657630   -4.500290
  C      1.694990    1.541790   -5.570450
  H      2.697330    1.734660   -5.184000
  H      1.506660    2.272240   -6.358080
  S      1.780290   -0.033130   -6.428740
  O      2.569290    0.213660   -7.607360
  O      0.416880   -0.462970   -6.618590
  F      2.505130   -0.933260   -5.482570
  H     -0.344240    1.458710   -4.937520
  H      0.618450    2.646550   -4.091740
  H      0.802470    0.948820   -3.721730

 Total Charge           Charge          ....    0
 Multiplicity           Mult            ....    1
 Number of Electrons    NEL             ....   58
 Basis Dimension        Dim             ....  176

ORBITAL ENERGIES
----------------

  NO   OCC          E(Eh)            E(eV)
   0   2.0000     -89.236663     -2428.2531
   1   2.0000     -24.894164      -677.4046
   2   2.0000     -19.269853      -524.3594
   3   2.0000     -19.269675      -524.3545
   4   2.0000     -10.338267      -281.3185
   5   2.0000     -10.290947      -280.0309
   6   2.0000      -8.311228      -226.1600
   7   2.0000      -6.274712      -170.7436
   8   2.0000      -6.269078      -170.5903
   9   2.0000      -6.266929      -170.5318
  10   2.0000      -1.450248       -39.4632
  11   2.0000      -1.243585       -33.8397
  12   2.0000      -1.150218       -31.2990
  13   2.0000      -0.924159       -25.1476
  14   2.0000      -0.825236       -22.4558
  15   2.0000      -0.770149       -20.9568
  16   2.0000      -0.675932       -18.3930
  17   2.0000      -0.666249       -18.1295
  18   2.0000      -0.658850       -17.9282
  19   2.0000      -0.591481       -16.0950
  20   2.0000      -0.570316       -15.5191
  21   2.0000      -0.568856       -15.4794
  22   2.0000      -0.525407       -14.2970
  23   2.0000      -0.507454       -13.8085
  24   2.0000      -0.488481       -13.2922
  25   2.0000      -0.466610       -12.6971
  26   2.0000      -0.448187       -12.1958
  27   2.0000      -0.432130       -11.7589
  28   2.0000      -0.429935       -11.6991
  29   0.0000       0.069662         1.8956
  30   0.0000       0.096966         2.6386
  31   0.0000       0.097979         2.6661
  32   0.0000       0.100884         2.7452
  33   0.0000       0.123933         3.3724

MULLIKEN ATOMIC CHARGES
-----------------------
   0 C :    0.639188
   1 C :   -0.498756
   2 H :    0.069643
   3 H :    0.116720
   4 S :    1.523367
   5 O :   -0.701188
   6 O :   -0.716853
   7 F :   -0.423332
   8 H :   -0.001600
   9 H :   -0.002646
  10 H :   -0.004543
Sum of atomic charges:   -0.0000000

LOEWDIN ATOMIC CHARGES
----------------------
   0 C :    0.136724
   1 C :   -0.076219
   2 H :    0.036934
   3 H :    0.038997
   4 S :    1.128611
   5 O :   -0.496358
   6 O :   -0.492457
   7 F :   -0.270305
   8 H :   -0.009362
   9 H :    0.003438
  10 H :   -0.000004

  Mayer bond orders larger than 0.100000
B(  0-C ,  1-C ) :   1.3087 B(  0-C ,  8-H ) :   0.8403 B(  0-C ,  9-H ) :   0.7885
B(  0-C , 10-H ) :   0.8287 B(  1-C ,  2-H ) :   0.9825 B(  1-C ,  3-H ) :   0.9791
B(  1-C ,  4-S ) :   1.0031 B(  1-C ,  8-H ) :   0.1849 B(  1-C ,  9-H ) :   0.1845
B(  1-C , 10-H ) :   0.1711 B(  4-S ,  5-O ) :   1.5303 B(  4-S ,  6-O ) :   1.5032
B(  4-S ,  7-F ) :   0.6235

Dispersion correction           -0.002849988
FINAL SINGLE POINT ENERGY      -727.210146669792

DIPOLE MOMENT
-------------
                                X             Y             Z
Electronic contribution:      3.88917      -7.29005      -3.53213
Nuclear contribution   :     -3.60260       8.53062       5.21025
                        -----------------------------------------
Total Dipole Moment    :      0.28656       1.24057       1.67812
                        -----------------------------------------
Magnitude (a.u.)       :      2.10647
Magnitude (Debye)      :      5.35421

Rotational constants in cm-1:     0.154011     0.080858     0.079602
Rotational constants in MHz :  4617.134198  2424.070332  2386.404775

                             ****ORCA TERMINATED NORMALLY****
TOTAL RUN TIME: 0 days 0 hours 0 minutes 10 seconds 940 msec
