                         Program Version 5.0.0 -  RELEASE  -
|  1> !wB97X-D3 RIJCOSX def2-SVPD def2/J TightSCF CPCM(Water)
|  2> *xyz 0 1
|  3> C          1.96337       -1.74915       -1.89689
|  4> N          2.73849       -2.01517       -3.09711
|  5> C          4.04974       -2.15472       -3.15204
|  6> N          4.65821       -1.98629       -4.31866
|  7> C          4.76423       -2.45444       -2.05049
|  8> H          4.28736       -2.77626       -1.21750
|  9> H          5.75082       -2.65835       -2.12599
| 10> H          2.34518       -1.69027       -3.97145
| 11> H          4.10900       -1.59268       -5.07176
| 12> H          5.64910       -2.15646       -4.42724
| 13> C          2.08852       -0.30091       -1.41520
| 14> H          2.23127       -2.45162       -1.10264
| 15> H          0.93025       -1.97780       -2.15544
| 16> H          1.82118        0.36368       -2.21003
| 17> H          3.09792       -0.11068       -1.11551
| 18> H          1.43391       -0.14382       -0.58352
| 19> *
| 20> %MaxCore 64000
| 21>
| 22> %pal nprocs 18
| 23> end
| 24>
| 25> %scf
| 26>   MaxIter 150
| 27> end
| 28>
| 29>
| 30>                          ****END OF INPUT****

CARTESIAN COORDINATES (ANGSTROEM)
---------------------------------
  C      1.963370   -1.749150   -1.896890
  N      2.738490   -2.015170   -3.097110
  C      4.049740   -2.154720   -3.152040
  N      4.658210   -1.986290   -4.318660
  C      4.764230   -2.454440   -2.050490
  H      4.287360   -2.776260   -1.217500
  H      5.750820   -2.658350   -2.125990
  H      2.345180   -1.690270   -3.971450
  H      4.109000   -1.592680   -5.071760
  H      5.649100   -2.156460   -4.427240
  C      2.088520   -0.300910   -1.415200
  H      2.231270   -2.451620   -1.102640
  H      0.930250   -1.977800   -2.155440
  H      1.821180    0.363680   -2.210030
  H      3.097920   -0.110680   -1.115510
  H      1.433910   -0.143820   -0.583520

 Total Charge           Charge          ....    0
 Multiplicity           Mult            ....    1
 Number of Electrons    NEL             ....   48
 Basis Dimension        Dim             ....  200

ORBITAL ENERGIES
----------------

  NO   OCC          E(Eh)            E(eV)
   0   2.0000     -14.438061      -392.8796
   1   2.0000     -14.434515      -392.7831
   2   2.0000     -10.345774      -281.5228
   3   2.0000     -10.318354      -280.7767
   4   2.0000     -10.268195      -279.4118
   5   2.0000     -10.209031      -277.8018
   6   2.0000      -1.084454       -29.5095
   7   2.0000      -0.992437       -27.0056
   8   2.0000      -0.859850       -23.3977
   9   2.0000      -0.821014       -22.3409
  10   2.0000      -0.747069       -20.3288
  11   2.0000      -0.663950       -18.0670
  12   2.0000      -0.648673       -17.6513
  13   2.0000      -0.623417       -16.9641
  14   2.0000      -0.566080       -15.4038
  15   2.0000      -0.537535       -14.6271
  16   2.0000      -0.517647       -14.0859
  17   2.0000      -0.499204       -13.5840
  18   2.0000      -0.481815       -13.1109
  19   2.0000      -0.468828       -12.7575
  20   2.0000      -0.459543       -12.5048
  21   2.0000      -0.437384       -11.9018
  22   2.0000      -0.344001        -9.3607
  23   2.0000      -0.262975        -7.1559
  24   0.0000       0.095918         2.6101
  25   0.0000       0.117716         3.2032
  26   0.0000       0.122860         3.3432
  27   0.0000       0.125288         3.4093
  28   0.0000       0.152479         4.1492

MULLIKEN ATOMIC CHARGES
-----------------------
   0 C :    0.223917
   1 N :   -0.408638
   2 C :    0.553503
   3 N :   -0.036182
   4 C :    0.334896
   5 H :   -0.089403
   6 H :   -0.530684
   7 H :   -0.196131
   8 H :   -0.055063
   9 H :   -0.026640
  10 C :    0.582734
  11 H :    0.033244
  12 H :   -0.266345
  13 H :   -0.042089
  14 H :   -0.085008
  15 H :    0.007889
Sum of atomic charges:   -0.0000000

LOEWDIN ATOMIC CHARGES
----------------------
   0 C :    0.022155
   1 N :   -0.024074
   2 C :   -0.254200
   3 N :    0.189238
   4 C :    0.120361
   5 H :   -0.123462
   6 H :   -0.115463
   7 H :    0.037928
   8 H :    0.012085
   9 H :    0.023621
  10 C :    0.132806
  11 H :    0.017834
  12 H :    0.024660
  13 H :   -0.016100
  14 H :   -0.031881
  15 H :   -0.015507

  Mayer bond orders larger than 0.100000
B(  0-C ,  1-N ) :   0.8576 B(  0-C ,  4-C ) :   0.1009 B(  0-C ,  7-H ) :  -0.1080
B(  0-C , 10-C ) :   1.1980 B(  0-C , 11-H ) :   0.8955 B(  0-C , 12-H ) :   0.9651
B(  0-C , 13-H ) :   0.2054 B(  0-C , 14-H ) :   0.1809 B(  0-C , 15-H ) :   0.1606
B(  1-N ,  2-C ) :   0.9764 B(  1-N ,  3-N ) :   0.1794 B(  1-N ,  4-C ) :   0.3249
B(  1-N ,  7-H ) :   1.2662 B(  1-N , 12-H ) :   0.1624 B(  2-C ,  3-N ) :   0.9447
B(  2-C ,  4-C ) :   1.7271 B(  2-C ,  5-H ) :   0.2869 B(  2-C ,  6-H ) :   0.1336
B(  2-C ,  7-H ) :  -0.1832 B(  3-N ,  4-C ) :   0.1968 B(  3-N ,  8-H ) :   1.1458
B(  3-N ,  9-H ) :   1.2067 B(  4-C ,  5-H ) :   0.6067 B(  4-C ,  6-H ) :   0.9543
B(  8-H ,  9-H ) :  -0.1645 B( 10-C , 13-H ) :   0.8358 B( 10-C , 14-H ) :   0.8696
B( 10-C , 15-H ) :   0.8304

Dispersion correction           -0.003853453
FINAL SINGLE POINT ENERGY      -267.674775695314

DIPOLE MOMENT
-------------
                                X             Y             Z
Electronic contribution:      1.03877      -1.67634      -3.83537
Nuclear contribution   :     -1.88803       2.22658       2.57497
                        -----------------------------------------
Total Dipole Moment    :     -0.84926       0.55024      -1.26040
                        -----------------------------------------
Magnitude (a.u.)       :      1.61636
Magnitude (Debye)      :      4.10845

Rotational constants in cm-1:     0.226509     0.075782     0.067928
Rotational constants in MHz :  6790.555051  2271.890226  2036.439218

                             ****ORCA TERMINATED NORMALLY****
TOTAL RUN TIME: 0 days 0 hours 0 minutes 13 seconds 567 msec
