                         Program Version 5.0.0 -  RELEASE  -
|  1> !wB97X-D3 RIJCOSX def2-SVPD def2/J TightSCF CPCM(Water) xyzfile
|  2>
|  3> *xyzfile 0 1 D3.xyz
|  4>
|  5> %MaxCore 64000
|  6>
|  7> %pal nprocs 18
|  8> end
|  9>
| 10> %scf
| 11>   MaxIter 150
| 12> end
| 13>
| 14>
| 15>                          ****END OF INPUT****

CARTESIAN COORDINATES (ANGSTROEM)
---------------------------------
  C      1.963365   -1.749150   -1.896887
  N      2.738490   -2.015170   -3.097113
  C      0.611877    1.657634   -4.500288
  C      1.694991    1.541794   -5.570447
  H      2.697326    1.734659   -5.183996
  H      1.506656    2.272239   -6.358076
  S      1.780287   -0.033128   -6.428739
  C      4.049736   -2.154717   -3.152044
  N      4.658206   -1.986293   -4.318655
  C      4.764231   -2.454435   -2.050491
  H      4.287363   -2.776259   -1.217496
  H      5.750825   -2.658351   -2.125988
  H      2.345176   -1.690274   -3.971447
  H      4.109004   -1.592677   -5.071760
  H      5.649095   -2.156462   -4.427237
  F      2.569287    0.213657   -7.607360
  O      0.416880   -0.462969   -6.618595
  C      2.088520   -0.300912   -1.415204
  H      2.231272   -2.451616   -1.102643
  H      0.930249   -1.977801   -2.155438
  C      0.680356    0.655418   -3.348038
  H     -0.356865    1.549231   -4.991128
  H      0.650228    2.675438   -4.096000
  C      1.968993    0.733582   -2.535654
  H      3.051356   -0.168602   -0.911868
  H      1.316501   -0.136231   -0.657252
  O      2.505129   -0.933263   -5.482570
  H      2.824195    0.624726   -3.208464
  H      2.058919    1.730331   -2.093112
  H      0.542252   -0.344731   -3.766662
  H     -0.174219    0.829692   -2.685182

 Total Charge           Charge          ....    0
 Multiplicity           Mult            ....    1
 Number of Electrons    NEL             ....  120
 Basis Dimension        Dim             ....  432

ORBITAL ENERGIES
----------------

  NO   OCC          E(Eh)            E(eV)
   0   2.0000     -89.252633     -2428.6876
   1   2.0000     -24.926745      -678.2912
   2   2.0000     -19.278093      -524.5836
   3   2.0000     -19.268718      -524.3285
   4   2.0000     -14.420494      -392.4016
   5   2.0000     -14.419905      -392.3856
   6   2.0000     -10.342187      -281.4252
   7   2.0000     -10.338475      -281.3242
   8   2.0000     -10.311774      -280.5976
   9   2.0000     -10.305955      -280.4393
  10   2.0000     -10.285931      -279.8944
  11   2.0000     -10.279863      -279.7293
  12   2.0000     -10.277939      -279.6769
  13   2.0000     -10.203309      -277.6462
  14   2.0000      -8.325761      -226.5555
  15   2.0000      -6.289300      -171.1406
  16   2.0000      -6.283800      -170.9909
  17   2.0000      -6.281307      -170.9230
  18   2.0000      -1.499827       -40.8124
  19   2.0000      -1.243115       -33.8269
  20   2.0000      -1.141100       -31.0509
  21   2.0000      -1.074441       -29.2370
  22   2.0000      -0.984363       -26.7859
  23   2.0000      -0.943368       -25.6703
  24   2.0000      -0.898927       -24.4611
  25   2.0000      -0.861480       -23.4421
  26   2.0000      -0.826256       -22.4836
  27   2.0000      -0.813066       -22.1247
  28   2.0000      -0.784028       -21.3345
  29   2.0000      -0.736992       -20.0546
  30   2.0000      -0.707793       -19.2600
  31   2.0000      -0.699467       -19.0335
  32   2.0000      -0.690148       -18.7799
  33   2.0000      -0.663827       -18.0637
  34   2.0000      -0.649568       -17.6756
  35   2.0000      -0.642499       -17.4833
  36   2.0000      -0.618796       -16.8383
  37   2.0000      -0.597496       -16.2587
  38   2.0000      -0.587955       -15.9991
  39   2.0000      -0.574318       -15.6280
  40   2.0000      -0.564039       -15.3483
  41   2.0000      -0.556528       -15.1439
  42   2.0000      -0.539480       -14.6800
  43   2.0000      -0.524134       -14.2624
  44   2.0000      -0.510438       -13.8897
  45   2.0000      -0.507945       -13.8219
  46   2.0000      -0.489127       -13.3098
  47   2.0000      -0.481146       -13.0927
  48   2.0000      -0.473864       -12.8945
  49   2.0000      -0.467767       -12.7286
  50   2.0000      -0.456487       -12.4216
  51   2.0000      -0.455056       -12.3827
  52   2.0000      -0.444224       -12.0880
  53   2.0000      -0.432960       -11.7815
  54   2.0000      -0.426573       -11.6076
  55   2.0000      -0.416836       -11.3427
  56   2.0000      -0.412355       -11.2208
  57   2.0000      -0.404879       -11.0173
  58   2.0000      -0.333573        -9.0770
  59   2.0000      -0.256622        -6.9830
  60   0.0000       0.069186         1.8826
  61   0.0000       0.091475         2.4891
  62   0.0000       0.093857         2.5540
  63   0.0000       0.096533         2.6268
  64   0.0000       0.109002         2.9661

MULLIKEN ATOMIC CHARGES
-----------------------
   0 C :    0.882233
   1 N :    0.104077
   2 C :    0.337002
   3 C :   -0.043606
   4 H :    0.217608
   5 H :    0.036357
   6 S :    1.701417
   7 C :    0.581566
   8 N :    0.331635
   9 C :    0.416833
  10 H :   -0.006081
  11 H :   -0.632786
  12 H :   -0.839805
  13 H :   -0.282974
  14 H :   -0.166632
  15 F :   -0.468638
  16 O :   -0.734209
  17 C :    0.398054
  18 H :   -0.268801
  19 H :   -0.122816
  20 C :   -0.047081
  21 H :    0.035693
  22 H :    0.026886
  23 C :   -0.019581
  24 H :   -0.117745
  25 H :   -0.005278
  26 O :   -0.872812
  27 H :    0.054475
  28 H :   -0.271682
  29 H :   -0.073506
  30 H :   -0.149805
Sum of atomic charges:    0.0000000

LOEWDIN ATOMIC CHARGES
----------------------
   0 C :    0.068136
   1 N :    0.003131
   2 C :   -0.013325
   3 C :   -0.024468
   4 H :    0.034842
   5 H :    0.036859
   6 S :    1.213022
   7 C :   -0.239088
   8 N :    0.207387
   9 C :    0.116341
  10 H :   -0.127900
  11 H :   -0.120076
  12 H :   -0.084039
  13 H :   -0.085888
  14 H :    0.022230
  15 F :   -0.221131
  16 O :   -0.467901
  17 C :   -0.013781
  18 H :    0.015089
  19 H :    0.022874
  20 C :   -0.022579
  21 H :    0.031252
  22 H :    0.048268
  23 C :   -0.027040
  24 H :    0.010183
  25 H :    0.025509
  26 O :   -0.489383
  27 H :    0.007527
  28 H :    0.030110
  29 H :    0.005086
  30 H :    0.038752

  Mayer bond orders larger than 0.100000
B(  0-C ,  1-N ) :   0.8995 B(  0-C , 12-H ) :  -0.3611 B(  0-C , 17-C ) :   1.0453
B(  0-C , 18-H ) :   0.9256 B(  0-C , 19-H ) :   0.7493 B(  0-C , 25-H ) :   0.1015
B(  1-N ,  7-C ) :   0.9815 B(  1-N ,  9-C ) :   0.4320 B(  1-N , 12-H ) :   0.9855
B(  1-N , 13-H ) :   0.1012 B(  1-N , 19-H ) :   0.1333 B(  2-C ,  3-C ) :   1.3077
B(  2-C ,  5-H ) :   0.1803 B(  2-C , 20-C ) :   1.2482 B(  2-C , 21-H ) :   0.6957
B(  2-C , 22-H ) :   0.8167 B(  3-C ,  4-H ) :   0.8606 B(  3-C ,  5-H ) :   0.8459
B(  3-C ,  6-S ) :   1.0555 B(  3-C , 21-H ) :   0.1117 B(  3-C , 22-H ) :   0.1188
B(  6-S , 15-F ) :   0.6062 B(  6-S , 16-O ) :   1.4422 B(  6-S , 26-O ) :   1.2629
B(  7-C ,  8-N ) :   0.8819 B(  7-C ,  9-C ) :   1.6220 B(  7-C , 10-H ) :   0.3331
B(  7-C , 11-H ) :   0.2553 B(  7-C , 12-H ) :  -0.3377 B(  7-C , 14-H ) :  -0.1703
B(  8-N ,  9-C ) :   0.2200 B(  8-N , 13-H ) :   1.0210 B(  8-N , 14-H ) :   1.3305
B(  9-C , 10-H ) :   0.5499 B(  9-C , 11-H ) :   0.7586 B( 10-H , 18-H ) :   0.1388
B( 12-H , 19-H ) :   0.1121 B( 12-H , 26-O ) :   0.1452 B( 12-H , 27-H ) :   0.1178
B( 13-H , 14-H ) :  -0.2037 B( 13-H , 26-O ) :   0.2266 B( 16-O , 26-O ) :   0.1283
B( 17-C , 23-C ) :   1.2384 B( 17-C , 24-H ) :   0.8089 B( 17-C , 25-H ) :   0.8445
B( 18-H , 19-H ) :  -0.1646 B( 20-C , 21-H ) :   0.2596 B( 20-C , 23-C ) :   1.1707
B( 20-C , 27-H ) :   0.1002 B( 20-C , 28-H ) :   0.1535 B( 20-C , 29-H ) :   0.9609
B( 20-C , 30-H ) :   0.8888 B( 23-C , 24-H ) :   0.2235 B( 23-C , 25-H ) :   0.1185
B( 23-C , 27-H ) :   0.8614 B( 23-C , 28-H ) :   0.9477 B( 23-C , 30-H ) :   0.1367

Dispersion correction           -0.016403738
FINAL SINGLE POINT ENERGY     -1072.228447522754

DIPOLE MOMENT
-------------
                                X             Y             Z
Electronic contribution:     -1.28788       0.58380     -24.97081
Nuclear contribution   :      0.44707       2.53104      23.12246
                        -----------------------------------------
Total Dipole Moment    :     -0.84082       3.11485      -1.84835
                        -----------------------------------------
Magnitude (a.u.)       :      3.71828
Magnitude (Debye)      :      9.45112

Rotational constants in cm-1:     0.028906     0.014696     0.011110
Rotational constants in MHz :   866.591909   440.585554   333.081943

                             ****ORCA TERMINATED NORMALLY****
TOTAL RUN TIME: 0 days 0 hours 1 minutes 13 seconds 330 msec
