                         Program Version 5.0.0 -  RELEASE  -
|  1> !wB97X-D3 RIJCOSX def2-SVPD def2/J TightSCF CPCM(Water) xyzfile
|  2>
|  3> *xyzfile 0 1 D5.xyz
|  4>
|  5> %MaxCore 64000
|  6>
|  7> %pal nprocs 18
|  8> end
|  9>
| 10> %scf
| 11>   MaxIter 150
| 12> end
| 13>
| 14>
| 15>                          ****END OF INPUT****

CARTESIAN COORDINATES (ANGSTROEM)
---------------------------------
  C      1.963365   -1.749150   -1.896887
  N      2.738490   -2.015170   -3.097113
  C      0.611877    1.657634   -4.500288
  C      1.694991    1.541794   -5.570447
  H      2.697326    1.734659   -5.183996
  H      1.506656    2.272239   -6.358076
  S      1.780287   -0.033128   -6.428739
  C      4.049736   -2.154717   -3.152044
  C      4.658206   -1.986293   -4.318655
  N      4.764231   -2.454435   -2.050491
  H      4.287363   -2.776259   -1.217496
  H      5.750825   -2.658351   -2.125988
  H      2.345176   -1.690274   -3.971447
  H      4.109004   -1.592677   -5.071760
  H      5.649095   -2.156462   -4.427237
  O      2.569287    0.213657   -7.607360
  F      0.416880   -0.462969   -6.618595
  C      2.088520   -0.300912   -1.415204
  H      2.231272   -2.451616   -1.102643
  H      0.930249   -1.977801   -2.155438
  C      0.680356    0.655418   -3.348038
  H     -0.356865    1.549231   -4.991128
  H      0.650228    2.675438   -4.096000
  C      1.968993    0.733582   -2.535654
  H      3.051356   -0.168602   -0.911868
  H      1.316501   -0.136231   -0.657252
  O      2.505129   -0.933263   -5.482570
  H      2.824195    0.624726   -3.208464
  H      2.058919    1.730331   -2.093112
  H      0.542252   -0.344731   -3.766662
  H     -0.174219    0.829692   -2.685182

 Total Charge           Charge          ....    0
 Multiplicity           Mult            ....    1
 Number of Electrons    NEL             ....  120
 Basis Dimension        Dim             ....  432

ORBITAL ENERGIES
----------------

  NO   OCC          E(Eh)            E(eV)
   0   2.0000     -89.246871     -2428.5308
   1   2.0000     -24.922866      -678.1857
   2   2.0000     -19.274829      -524.4948
   3   2.0000     -19.259894      -524.0884
   4   2.0000     -14.429019      -392.6336
   5   2.0000     -14.416147      -392.2833
   6   2.0000     -10.340577      -281.3814
   7   2.0000     -10.334806      -281.2244
   8   2.0000     -10.311967      -280.6029
   9   2.0000     -10.303961      -280.3850
  10   2.0000     -10.286881      -279.9203
  11   2.0000     -10.280224      -279.7391
  12   2.0000     -10.278484      -279.6918
  13   2.0000     -10.192725      -277.3582
  14   2.0000      -8.320135      -226.4024
  15   2.0000      -6.283938      -170.9946
  16   2.0000      -6.277909      -170.8306
  17   2.0000      -6.275656      -170.7693
  18   2.0000      -1.494978       -40.6804
  19   2.0000      -1.239510       -33.7288
  20   2.0000      -1.134556       -30.8728
  21   2.0000      -1.070108       -29.1191
  22   2.0000      -0.982450       -26.7338
  23   2.0000      -0.944667       -25.7057
  24   2.0000      -0.899085       -24.4653
  25   2.0000      -0.864553       -23.5257
  26   2.0000      -0.829947       -22.5840
  27   2.0000      -0.809276       -22.0215
  28   2.0000      -0.768937       -20.9238
  29   2.0000      -0.730309       -19.8727
  30   2.0000      -0.714099       -19.4316
  31   2.0000      -0.702090       -19.1048
  32   2.0000      -0.694085       -18.8870
  33   2.0000      -0.668260       -18.1843
  34   2.0000      -0.653543       -17.7838
  35   2.0000      -0.631269       -17.1777
  36   2.0000      -0.593488       -16.1496
  37   2.0000      -0.591380       -16.0923
  38   2.0000      -0.582538       -15.8517
  39   2.0000      -0.572405       -15.5759
  40   2.0000      -0.570707       -15.5297
  41   2.0000      -0.562674       -15.3111
  42   2.0000      -0.540987       -14.7210
  43   2.0000      -0.526069       -14.3151
  44   2.0000      -0.521422       -14.1886
  45   2.0000      -0.498920       -13.5763
  46   2.0000      -0.493282       -13.4229
  47   2.0000      -0.481259       -13.0957
  48   2.0000      -0.471306       -12.8249
  49   2.0000      -0.465632       -12.6705
  50   2.0000      -0.461055       -12.5459
  51   2.0000      -0.448546       -12.2056
  52   2.0000      -0.438684       -11.9372
  53   2.0000      -0.425535       -11.5794
  54   2.0000      -0.420921       -11.4538
  55   2.0000      -0.414549       -11.2804
  56   2.0000      -0.407415       -11.0863
  57   2.0000      -0.406075       -11.0499
  58   2.0000      -0.338446        -9.2096
  59   2.0000      -0.251660        -6.8480
  60   0.0000       0.069311         1.8861
  61   0.0000       0.089755         2.4424
  62   0.0000       0.093291         2.5386
  63   0.0000       0.096615         2.6290
  64   0.0000       0.110172         2.9979

MULLIKEN ATOMIC CHARGES
-----------------------
   0 C :    0.915528
   1 N :   -0.040860
   2 C :    0.352754
   3 C :   -0.034044
   4 H :    0.192918
   5 H :    0.022132
   6 S :    1.602381
   7 C :    0.546765
   8 C :    0.681116
   9 N :    0.088831
  10 H :   -0.005298
  11 H :   -0.128598
  12 H :   -0.636623
  13 H :   -0.298637
  14 H :   -0.642233
  15 O :   -0.706856
  16 F :   -0.461171
  17 C :    0.335825
  18 H :   -0.344646
  19 H :   -0.112961
  20 C :   -0.016914
  21 H :    0.044848
  22 H :    0.023421
  23 C :   -0.027137
  24 H :   -0.024264
  25 H :   -0.056031
  26 O :   -0.863136
  27 H :    0.085394
  28 H :   -0.291846
  29 H :   -0.054764
  30 H :   -0.145896
Sum of atomic charges:   -0.0000000

LOEWDIN ATOMIC CHARGES
----------------------
   0 C :    0.063752
   1 N :    0.001051
   2 C :   -0.023927
   3 C :   -0.019660
   4 H :    0.041871
   5 H :    0.035392
   6 S :    1.200255
   7 C :   -0.237043
   8 C :    0.129467
   9 N :    0.198988
  10 H :   -0.008720
  11 H :    0.013269
  12 H :   -0.080814
  13 H :   -0.177901
  14 H :   -0.109554
  15 O :   -0.472721
  16 F :   -0.226141
  17 C :   -0.016005
  18 H :    0.015381
  19 H :    0.021624
  20 C :   -0.024864
  21 H :    0.032851
  22 H :    0.045104
  23 C :   -0.025827
  24 H :    0.016805
  25 H :    0.024075
  26 O :   -0.497687
  27 H :    0.006631
  28 H :    0.030376
  29 H :    0.005514
  30 H :    0.038457

  Mayer bond orders larger than 0.100000
B(  0-C ,  1-N ) :   0.8803 B(  0-C , 12-H ) :  -0.3202 B(  0-C , 17-C ) :   1.0843
B(  0-C , 18-H ) :   0.9193 B(  0-C , 19-H ) :   0.6818 B(  0-C , 25-H ) :   0.1124
B(  1-N ,  7-C ) :   1.0787 B(  1-N ,  8-C ) :   0.2109 B(  1-N ,  9-N ) :   0.2102
B(  1-N , 12-H ) :   1.1007 B(  1-N , 19-H ) :   0.1250 B(  2-C ,  3-C ) :   1.2757
B(  2-C ,  5-H ) :   0.1625 B(  2-C , 20-C ) :   1.2553 B(  2-C , 21-H ) :   0.6966
B(  2-C , 22-H ) :   0.8089 B(  3-C ,  4-H ) :   0.8826 B(  3-C ,  5-H ) :   0.8922
B(  3-C ,  6-S ) :   1.0669 B(  3-C , 21-H ) :   0.1132 B(  3-C , 22-H ) :   0.1212
B(  6-S , 15-O ) :   1.5456 B(  6-S , 16-F ) :   0.5515 B(  6-S , 26-O ) :   1.3200
B(  7-C ,  8-C ) :   1.5346 B(  7-C ,  9-N ) :   1.0133 B(  7-C , 11-H ) :  -0.1058
B(  7-C , 12-H ) :  -0.3155 B(  7-C , 13-H ) :   0.1644 B(  7-C , 14-H ) :   0.2089
B(  8-C ,  9-N ) :   0.2438 B(  8-C , 13-H ) :   0.5301 B(  8-C , 14-H ) :   0.7364
B(  9-N , 10-H ) :   0.9360 B(  9-N , 11-H ) :   1.2483 B(  9-N , 18-H ) :   0.1028
B( 10-H , 11-H ) :  -0.2012 B( 12-H , 19-H ) :   0.1797 B( 12-H , 24-H ) :   0.1286
B( 12-H , 26-O ) :   0.1322 B( 12-H , 27-H ) :   0.1049 B( 13-H , 14-H ) :  -0.1783
B( 13-H , 26-O ) :   0.2572 B( 16-F , 26-O ) :   0.1536 B( 17-C , 18-H ) :   0.1251
B( 17-C , 19-H ) :   0.1049 B( 17-C , 23-C ) :   1.2482 B( 17-C , 24-H ) :   0.7785
B( 17-C , 25-H ) :   0.8889 B( 18-H , 19-H ) :  -0.1246 B( 20-C , 21-H ) :   0.2500
B( 20-C , 23-C ) :   1.1642 B( 20-C , 28-H ) :   0.1324 B( 20-C , 29-H ) :   0.9467
B( 20-C , 30-H ) :   0.8886 B( 23-C , 24-H ) :   0.2025 B( 23-C , 25-H ) :   0.1164
B( 23-C , 27-H ) :   0.8735 B( 23-C , 28-H ) :   0.9752 B( 23-C , 30-H ) :   0.1358

Dispersion correction           -0.016430318
FINAL SINGLE POINT ENERGY     -1072.217830888325

DIPOLE MOMENT
-------------
                                X             Y             Z
Electronic contribution:     -5.35494      -1.49387     -20.11347
Nuclear contribution   :      2.89225       3.36404      21.70199
                        -----------------------------------------
Total Dipole Moment    :     -2.46269       1.87017       1.58852
                        -----------------------------------------
Magnitude (a.u.)       :      3.47646
Magnitude (Debye)      :      8.83645

Rotational constants in cm-1:     0.029431     0.014408     0.011084
Rotational constants in MHz :   882.306106   431.946714   332.288152

                             ****ORCA TERMINATED NORMALLY****
TOTAL RUN TIME: 0 days 0 hours 1 minutes 13 seconds 242 msec
