                         Program Version 5.0.0 -  RELEASE  -
|  1> !wB97X-D3 RIJCOSX def2-TZVPD def2/J TightSCF
|  2> *xyz -1 1
|  3> C         -2.79070       -0.78527        5.70281
|  4> C         -2.45380        0.05510        6.94145
|  5> C         -2.07842        1.48042        6.56410
|  6> H         -1.62558       -0.38216        7.49891
|  7> H         -3.32527        0.08775        7.59917
|  8> O         -0.90125        1.85816        6.82810
|  9> O         -2.93658        2.17731        5.96415
| 10> H         -1.94052       -0.82114        5.05412
| 11> H         -3.61590       -0.34261        5.18514
| 12> H         -3.05063       -1.77815        6.00536
| 13> *
| 14> %MaxCore 64000
| 15>
| 16> %pal nprocs 4
| 17> end
| 18>
| 19> %scf
| 20>   MaxIter 150
| 21> end
| 22>
| 23>
| 24>                          ****END OF INPUT****

CARTESIAN COORDINATES (ANGSTROEM)
---------------------------------
  C     -2.790700   -0.785270    5.702810
  C     -2.453800    0.055100    6.941450
  C     -2.078420    1.480420    6.564100
  H     -1.625580   -0.382160    7.498910
  H     -3.325270    0.087750    7.599170
  O     -0.901250    1.858160    6.828100
  O     -2.936580    2.177310    5.964150
  H     -1.940520   -0.821140    5.054120
  H     -3.615900   -0.342610    5.185140
  H     -3.050630   -1.778150    6.005360

 Total Charge           Charge          ....   -1
 Multiplicity           Mult            ....    1
 Number of Electrons    NEL             ....   40
 Basis Dimension        Dim             ....  236

ORBITAL ENERGIES
----------------

  NO   OCC          E(Eh)            E(eV)
   0   2.0000     -18.963780      -516.0307
   1   2.0000     -18.962550      -515.9972
   2   2.0000     -10.157608      -276.4026
   3   2.0000     -10.111723      -275.1540
   4   2.0000     -10.100917      -274.8599
   5   2.0000      -0.932889       -25.3852
   6   2.0000      -0.837267       -22.7832
   7   2.0000      -0.723177       -19.6786
   8   2.0000      -0.587750       -15.9935
   9   2.0000      -0.426643       -11.6095
  10   2.0000      -0.394675       -10.7396
  11   2.0000      -0.361641        -9.8407
  12   2.0000      -0.329519        -8.9667
  13   2.0000      -0.312335        -8.4991
  14   2.0000      -0.305763        -8.3202
  15   2.0000      -0.272693        -7.4204
  16   2.0000      -0.257298        -7.0014
  17   2.0000      -0.139185        -3.7874
  18   2.0000      -0.134997        -3.6735
  19   2.0000      -0.121155        -3.2968
  20   0.0000       0.192417         5.2359
  21   0.0000       0.213690         5.8148
  22   0.0000       0.219837         5.9821
  23   0.0000       0.233585         6.3562
  24   0.0000       0.262498         7.1429

MULLIKEN ATOMIC CHARGES
-----------------------
   0 C :   -1.082382
   1 C :   -0.017870
   2 C :    0.375166
   3 H :    0.204564
   4 H :    0.203551
   5 O :   -0.766327
   6 O :   -0.770046
   7 H :    0.303079
   8 H :    0.270928
   9 H :    0.279337
Sum of atomic charges:   -1.0000000

LOEWDIN ATOMIC CHARGES
----------------------
   0 C :   -0.127959
   1 C :   -0.213065
   2 C :   -0.768145
   3 H :    0.088379
   4 H :    0.094444
   5 O :   -0.123921
   6 O :   -0.112234
   7 H :    0.062863
   8 H :    0.056363
   9 H :    0.043274

  Mayer bond orders larger than 0.100000
B(  0-C ,  1-C ) :   0.5626 B(  0-C ,  2-C ) :   0.1934 B(  0-C ,  7-H ) :   0.9580
B(  0-C ,  8-H ) :   1.0112 B(  0-C ,  9-H ) :   0.9350 B(  1-C ,  2-C ) :   0.9204
B(  1-C ,  3-H ) :   1.0121 B(  1-C ,  4-H ) :   0.9525 B(  2-C ,  5-O ) :   1.4377
B(  2-C ,  6-O ) :   1.4759

Dispersion correction           -0.001962864
FINAL SINGLE POINT ENERGY      -267.870900598725

DIPOLE MOMENT
-------------
                                X             Y             Z
Electronic contribution:      1.62173       5.51749       0.67929
Nuclear contribution   :     -2.24498      -7.51881      -0.57245
                        -----------------------------------------
Total Dipole Moment    :     -0.62325      -2.00132       0.10684
                        -----------------------------------------
Magnitude (a.u.)       :      2.09884
Magnitude (Debye)      :      5.33483

Rotational constants in cm-1:     0.305589     0.135336     0.107479
Rotational constants in MHz :  9161.317320  4057.276612  3222.126231

                             ****ORCA TERMINATED NORMALLY****
TOTAL RUN TIME: 0 days 0 hours 0 minutes 45 seconds 251 msec
