                         Program Version 5.0.0 -  RELEASE  -
|  1> !wB97X-D3 RIJCOSX def2-TZVPD def2/J TightSCF
|  2> *xyz 1 1
|  3> C         -0.69912        3.48945        3.75516
|  4> H         -0.96672        4.34901        3.14049
|  5> N         -1.08067        3.79296        5.15686
|  6> C          0.77696        3.13839        3.61741
|  7> H         -1.33146        2.65651        3.44632
|  8> H         -0.87449        4.76274        5.42734
|  9> H         -0.68079        3.13476        5.83900
| 10> H         -2.05755        3.53169        5.34620
| 11> H          0.99957        2.92898        2.59199
| 12> H          0.99576        2.27685        4.21303
| 13> H          1.37223        3.96279        3.95046
| 14> *
| 15> %MaxCore 64000
| 16>
| 17> %pal nprocs 4
| 18> end
| 19>
| 20> %scf
| 21>   MaxIter 150
| 22> end
| 23>
| 24>
| 25>                          ****END OF INPUT****

CARTESIAN COORDINATES (ANGSTROEM)
---------------------------------
  C     -0.699120    3.489450    3.755160
  H     -0.966720    4.349010    3.140490
  N     -1.080670    3.792960    5.156860
  C      0.776960    3.138390    3.617410
  H     -1.331460    2.656510    3.446320
  H     -0.874490    4.762740    5.427340
  H     -0.680790    3.134760    5.839000
  H     -2.057550    3.531690    5.346200
  H      0.999570    2.928980    2.591990
  H      0.995760    2.276850    4.213030
  H      1.372230    3.962790    3.950460

 Total Charge           Charge          ....    1
 Multiplicity           Mult            ....    1
 Number of Electrons    NEL             ....   26
 Basis Dimension        Dim             ....  183

ORBITAL ENERGIES
----------------

  NO   OCC          E(Eh)            E(eV)
   0   2.0000     -14.758075      -401.5876
   1   2.0000     -10.529065      -286.5104
   2   2.0000     -10.446625      -284.2671
   3   2.0000      -1.334792       -36.3215
   4   2.0000      -1.082200       -29.4481
   5   2.0000      -0.956481       -26.0272
   6   2.0000      -0.917785       -24.9742
   7   2.0000      -0.868829       -23.6420
   8   2.0000      -0.798723       -21.7344
   9   2.0000      -0.743035       -20.2190
  10   2.0000      -0.677564       -18.4374
  11   2.0000      -0.662795       -18.0356
  12   2.0000      -0.645242       -17.5579
  13   0.0000      -0.123150        -3.3511
  14   0.0000      -0.067396        -1.8339
  15   0.0000      -0.064298        -1.7496
  16   0.0000      -0.057995        -1.5781
  17   0.0000      -0.030637        -0.8337

MULLIKEN ATOMIC CHARGES
-----------------------
   0 C :   -0.362239
   1 H :    0.324645
   2 N :   -0.329907
   3 C :   -1.134747
   4 H :    0.327070
   5 H :    0.374805
   6 H :    0.361540
   7 H :    0.368950
   8 H :    0.333982
   9 H :    0.373311
  10 H :    0.362589
Sum of atomic charges:    1.0000000

LOEWDIN ATOMIC CHARGES
----------------------
   0 C :   -0.199001
   1 H :    0.137179
   2 N :    0.175403
   3 C :   -0.057476
   4 H :    0.134760
   5 H :    0.187698
   6 H :    0.180966
   7 H :    0.182238
   8 H :    0.092445
   9 H :    0.082374
  10 H :    0.083413

  Mayer bond orders larger than 0.100000
B(  0-C ,  1-H ) :   0.9252 B(  0-C ,  2-N ) :   0.9585 B(  0-C ,  3-C ) :   0.7198
B(  0-C ,  4-H ) :   0.8814 B(  2-N ,  5-H ) :   0.8444 B(  2-N ,  6-H ) :   0.8543
B(  2-N ,  7-H ) :   0.8535 B(  3-C ,  8-H ) :   0.9600 B(  3-C ,  9-H ) :   0.8940
B(  3-C , 10-H ) :   0.9369

Dispersion correction           -0.001535741
FINAL SINGLE POINT ENERGY      -135.546473367489

DIPOLE MOMENT
-------------
                                X             Y             Z
Electronic contribution:     -1.32823       0.57264       1.10007
Nuclear contribution   :      0.33986      -0.24565       0.10678
                        -----------------------------------------
Total Dipole Moment    :     -0.98838       0.32699       1.20686
                        -----------------------------------------
Magnitude (a.u.)       :      1.59384
Magnitude (Debye)      :      4.05121

Rotational constants in cm-1:     1.016237     0.277523     0.247812
Rotational constants in MHz : 30466.024354  8319.937961  7429.230177

                             ****ORCA TERMINATED NORMALLY****
TOTAL RUN TIME: 0 days 0 hours 0 minutes 27 seconds 929 msec
