                         Program Version 5.0.0 -  RELEASE  -
|  1> !wB97X-D3 RIJCOSX def2-TZVPD def2/J TightSCF xyzfile
|  2>
|  3> *xyzfile 0 1 B.xyz
|  4>
|  5> %MaxCore 64000
|  6>
|  7> %pal nprocs 18
|  8> end
|  9>
| 10> %scf
| 11>   MaxIter 150
| 12> end
| 13>
| 14>
| 15>                          ****END OF INPUT****

CARTESIAN COORDINATES (ANGSTROEM)
---------------------------------
  C     -0.699123    3.489451    3.755163
  H     -0.966716    4.349013    3.140491
  N     -1.080669    3.792957    5.156857
  C      0.776956    3.138391    3.617408
  H     -1.331455    2.656510    3.446323
  H      1.371398    3.888342    4.149744
  H      1.046926    3.232057    2.561331
  C      1.118917    1.731170    4.115155
  H      2.200573    1.654226    4.254882
  C      0.659466    0.635182    3.153306
  H      0.677024    1.576674    5.103150
  H      1.312288    0.638870    2.274207
  H     -0.339563    0.868049    2.772876
  C      0.639957   -0.771175    3.755619
  C     -0.341821   -0.965537    4.915046
  H      1.648266   -1.028665    4.097015
  H      0.398568   -1.482386    2.958453
  H     -0.279892   -2.005646    5.252547
  C     -1.789164   -0.639231    4.557496
  H     -0.032380   -0.352918    5.765118
  H     -2.107151   -1.270102    3.719619
  H     -1.856352    0.391636    4.197604
  C     -2.790700   -0.785275    5.702812
  H     -2.867308   -1.835651    6.001675
  H     -3.774554   -0.486577    5.334807
  C     -2.453797    0.055101    6.941445
  C     -2.078419    1.480421    6.564098
  H     -1.625584   -0.382163    7.498914
  H     -3.325274    0.087746    7.599175
  H     -0.874488    4.762737    5.427344
  H     -0.680793    3.134762    5.839000
  H     -2.057550    3.531691    5.346197
  O     -0.901252    1.858156    6.828104
  O     -2.936582    2.177309    5.964151

 Total Charge           Charge          ....    0
 Multiplicity           Mult            ....    1
 Number of Electrons    NEL             ....  104
 Basis Dimension        Dim             ....  676

ORBITAL ENERGIES
----------------

  NO   OCC          E(Eh)            E(eV)
   0   2.0000     -19.164080      -521.4811
   1   2.0000     -19.162367      -521.4345
   2   2.0000     -14.503894      -394.6710
   3   2.0000     -10.349845      -281.6336
   4   2.0000     -10.345378      -281.5120
   5   2.0000     -10.298162      -280.2272
   6   2.0000     -10.273361      -279.5524
   7   2.0000     -10.270203      -279.4664
   8   2.0000     -10.263733      -279.2904
   9   2.0000     -10.254665      -279.0436
  10   2.0000     -10.254319      -279.0342
  11   2.0000     -10.253028      -278.9991
  12   2.0000     -10.246613      -278.8245
  13   2.0000      -1.144886       -31.1539
  14   2.0000      -1.099454       -29.9177
  15   2.0000      -1.042953       -28.3802
  16   2.0000      -0.940432       -25.5905
  17   2.0000      -0.911624       -24.8065
  18   2.0000      -0.882583       -24.0163
  19   2.0000      -0.834721       -22.7139
  20   2.0000      -0.801548       -21.8112
  21   2.0000      -0.761523       -20.7221
  22   2.0000      -0.721790       -19.6409
  23   2.0000      -0.701674       -19.0935
  24   2.0000      -0.684191       -18.6178
  25   2.0000      -0.657437       -17.8898
  26   2.0000      -0.649732       -17.6801
  27   2.0000      -0.602743       -16.4015
  28   2.0000      -0.588063       -16.0020
  29   2.0000      -0.575844       -15.6695
  30   2.0000      -0.574817       -15.6416
  31   2.0000      -0.548429       -14.9235
  32   2.0000      -0.544167       -14.8075
  33   2.0000      -0.532013       -14.4768
  34   2.0000      -0.520295       -14.1580
  35   2.0000      -0.506639       -13.7864
  36   2.0000      -0.498003       -13.5513
  37   2.0000      -0.497786       -13.5455
  38   2.0000      -0.483093       -13.1456
  39   2.0000      -0.475458       -12.9379
  40   2.0000      -0.457988       -12.4625
  41   2.0000      -0.451921       -12.2974
  42   2.0000      -0.444970       -12.1083
  43   2.0000      -0.429509       -11.6875
  44   2.0000      -0.418422       -11.3858
  45   2.0000      -0.413751       -11.2587
  46   2.0000      -0.398974       -10.8566
  47   2.0000      -0.393478       -10.7071
  48   2.0000      -0.387420       -10.5422
  49   2.0000      -0.341520        -9.2932
  50   2.0000      -0.327857        -8.9214
  51   2.0000      -0.327682        -8.9167
  52   0.0000       0.048728         1.3260
  53   0.0000       0.070979         1.9314
  54   0.0000       0.075137         2.0446
  55   0.0000       0.080275         2.1844
  56   0.0000       0.092667         2.5216

MULLIKEN ATOMIC CHARGES
-----------------------
   0 C :   -0.525893
   1 H :    0.298186
   2 N :   -0.127946
   3 C :   -0.590983
   4 H :    0.255920
   5 H :    0.278729
   6 H :    0.313032
   7 C :   -0.176946
   8 H :    0.324383
   9 C :   -0.556197
  10 H :    0.141431
  11 H :    0.308574
  12 H :    0.278628
  13 C :   -0.783498
  14 C :   -0.445216
  15 H :    0.283648
  16 H :    0.321803
  17 H :    0.271583
  18 C :   -0.016059
  19 H :    0.260500
  20 H :    0.340558
  21 H :   -0.236589
  22 C :   -0.748030
  23 H :    0.248268
  24 H :    0.341559
  25 C :   -0.513913
  26 C :    0.725102
  27 H :    0.294668
  28 H :    0.328463
  29 H :    0.328632
  30 H :    0.205879
  31 H :    0.356696
  32 O :   -0.888389
  33 O :   -0.896584
Sum of atomic charges:   -0.0000000

LOEWDIN ATOMIC CHARGES
----------------------
   0 C :   -0.158800
   1 H :    0.123412
   2 N :    0.146396
   3 C :   -0.186640
   4 H :    0.117269
   5 H :    0.114264
   6 H :    0.116809
   7 C :   -0.198023
   8 H :    0.119085
   9 C :   -0.215890
  10 H :    0.090677
  11 H :    0.113577
  12 H :    0.095721
  13 C :   -0.206750
  14 C :   -0.207425
  15 H :    0.111436
  16 H :    0.109696
  17 H :    0.117408
  18 C :   -0.209124
  19 H :    0.096451
  20 H :    0.118688
  21 H :    0.090447
  22 C :   -0.197647
  23 H :    0.109775
  24 H :    0.110388
  25 C :   -0.122068
  26 C :   -0.644586
  27 H :    0.110014
  28 H :    0.117370
  29 H :    0.170153
  30 H :    0.069535
  31 H :    0.097407
  32 O :   -0.070100
  33 O :   -0.048926

  Mayer bond orders larger than 0.100000
B(  0-C ,  1-H ) :   0.8665 B(  0-C ,  2-N ) :   0.9635 B(  0-C ,  3-C ) :   0.9494
B(  0-C ,  4-H ) :   0.9691 B(  2-N , 29-H ) :   0.8580 B(  2-N , 30-H ) :   0.8268
B(  2-N , 31-H ) :   0.7616 B(  3-C ,  5-H ) :   0.9054 B(  3-C ,  6-H ) :   0.8825
B(  3-C ,  7-C ) :   0.9436 B(  3-C ,  9-C ) :   0.3514 B(  7-C ,  8-H ) :   0.8329
B(  7-C ,  9-C ) :   0.3775 B(  7-C , 10-H ) :   1.1438 B(  7-C , 13-C ) :   0.3707
B(  9-C , 11-H ) :   0.9117 B(  9-C , 12-H ) :   0.9969 B(  9-C , 13-C ) :   1.0587
B(  9-C , 18-C ) :   0.1593 B( 13-C , 14-C ) :   0.8489 B( 13-C , 15-H ) :   0.9539
B( 13-C , 16-H ) :   0.9109 B( 13-C , 18-C ) :   0.3142 B( 14-C , 17-H ) :   0.8889
B( 14-C , 18-C ) :   0.4833 B( 14-C , 19-H ) :   1.0168 B( 14-C , 21-H ) :  -0.1490
B( 14-C , 22-C ) :   0.2874 B( 14-C , 25-C ) :   0.1470 B( 18-C , 20-H ) :   0.7592
B( 18-C , 21-H ) :   1.3346 B( 18-C , 22-C ) :   0.8297 B( 18-C , 26-C ) :   0.1198
B( 20-H , 21-H ) :   0.1532 B( 21-H , 22-C ) :   0.2881 B( 22-C , 23-H ) :   0.9453
B( 22-C , 24-H ) :   0.8584 B( 22-C , 25-C ) :   0.8685 B( 22-C , 26-C ) :   0.1615
B( 25-C , 26-C ) :   0.9883 B( 25-C , 27-H ) :   0.9678 B( 25-C , 28-H ) :   0.8641
B( 26-C , 32-O ) :   1.2400 B( 26-C , 33-O ) :   1.1557 B( 30-H , 32-O ) :   0.1777
B( 31-H , 33-O ) :   0.1337 B( 32-O , 33-O ) :   0.1337

Dispersion correction           -0.017663531
FINAL SINGLE POINT ENERGY      -599.020715806020

DIPOLE MOMENT
-------------
                                X             Y             Z
Electronic contribution:     -4.65557       4.85336       6.69214
Nuclear contribution   :      5.60885      -3.40606      -8.06960
                        -----------------------------------------
Total Dipole Moment    :      0.95327       1.44730      -1.37746
                        -----------------------------------------
Magnitude (a.u.)       :      2.21378
Magnitude (Debye)      :      5.62697

Rotational constants in cm-1:     0.028465     0.023505     0.015110
Rotational constants in MHz :   853.363165   704.655786   452.976312

                             ****ORCA TERMINATED NORMALLY****
TOTAL RUN TIME: 0 days 0 hours 2 minutes 36 seconds 651 msec
