                         Program Version 5.0.0 -  RELEASE  -
|  1> !wB97X-D3 RIJCOSX def2-TZVPD def2/J TightSCF
|  2> *xyz 0 1
|  3> C         -2.79070       -0.78527        5.70281
|  4> C         -2.45380        0.05510        6.94145
|  5> C         -2.07842        1.48042        6.56410
|  6> H         -1.62558       -0.38216        7.49891
|  7> H         -3.32527        0.08775        7.59917
|  8> F         -0.90125        1.85816        6.82810
|  9> O         -2.93658        2.17731        5.96415
| 10> H         -1.94052       -0.82114        5.05412
| 11> H         -3.61590       -0.34261        5.18514
| 12> H         -3.05063       -1.77815        6.00536
| 13> *
| 14> %MaxCore 64000
| 15>
| 16> %pal nprocs 4
| 17> end
| 18>
| 19> %scf
| 20>   MaxIter 150
| 21> end
| 22>
| 23>
| 24>                          ****END OF INPUT****

CARTESIAN COORDINATES (ANGSTROEM)
---------------------------------
  C     -2.790700   -0.785270    5.702810
  C     -2.453800    0.055100    6.941450
  C     -2.078420    1.480420    6.564100
  H     -1.625580   -0.382160    7.498910
  H     -3.325270    0.087750    7.599170
  F     -0.901250    1.858160    6.828100
  O     -2.936580    2.177310    5.964150
  H     -1.940520   -0.821140    5.054120
  H     -3.615900   -0.342610    5.185140
  H     -3.050630   -1.778150    6.005360

 Total Charge           Charge          ....    0
 Multiplicity           Mult            ....    1
 Number of Electrons    NEL             ....   40
 Basis Dimension        Dim             ....  236

ORBITAL ENERGIES
----------------

  NO   OCC          E(Eh)            E(eV)
   0   2.0000     -24.853447      -676.2967
   1   2.0000     -19.236923      -523.4633
   2   2.0000     -10.455895      -284.5194
   3   2.0000     -10.308628      -280.5120
   4   2.0000     -10.280398      -279.7439
   5   2.0000      -1.430320       -38.9210
   6   2.0000      -1.148340       -31.2479
   7   2.0000      -0.920318       -25.0431
   8   2.0000      -0.802445       -21.8356
   9   2.0000      -0.746153       -20.3038
  10   2.0000      -0.651564       -17.7300
  11   2.0000      -0.637304       -17.3419
  12   2.0000      -0.614121       -16.7111
  13   2.0000      -0.567399       -15.4397
  14   2.0000      -0.535537       -14.5727
  15   2.0000      -0.497772       -13.5451
  16   2.0000      -0.477367       -12.9898
  17   2.0000      -0.471453       -12.8289
  18   2.0000      -0.442373       -12.0376
  19   2.0000      -0.390931       -10.6378
  20   0.0000       0.049426         1.3449
  21   0.0000       0.066275         1.8034
  22   0.0000       0.088164         2.3991
  23   0.0000       0.094526         2.5722
  24   0.0000       0.104358         2.8397

MULLIKEN ATOMIC CHARGES
-----------------------
   0 C :   -1.143196
   1 C :   -0.124009
   2 C :    0.584389
   3 H :    0.263453
   4 H :    0.253947
   5 F :   -0.225440
   6 O :   -0.568393
   7 H :    0.342011
   8 H :    0.314837
   9 H :    0.302401
Sum of atomic charges:   -0.0000000

LOEWDIN ATOMIC CHARGES
----------------------
   0 C :   -0.086626
   1 C :   -0.156760
   2 C :   -0.472422
   3 H :    0.108997
   4 H :    0.122123
   5 F :    0.193965
   6 O :    0.071933
   7 H :    0.075381
   8 H :    0.073755
   9 H :    0.069653

  Mayer bond orders larger than 0.100000
B(  0-C ,  1-C ) :   0.6348 B(  0-C ,  2-C ) :   0.1701 B(  0-C ,  7-H ) :   0.9151
B(  0-C ,  8-H ) :   0.9865 B(  0-C ,  9-H ) :   0.9462 B(  1-C ,  2-C ) :   0.9089
B(  1-C ,  3-H ) :   0.9610 B(  1-C ,  4-H ) :   0.9393 B(  2-C ,  5-F ) :   0.9563
B(  2-C ,  6-O ) :   1.6852

Dispersion correction           -0.001919396
FINAL SINGLE POINT ENERGY      -292.440013319793

DIPOLE MOMENT
-------------
                                X             Y             Z
Electronic contribution:      3.97900       7.41263       1.49771
Nuclear contribution   :     -3.69486      -8.49563      -1.04945
                        -----------------------------------------
Total Dipole Moment    :      0.28414      -1.08300       0.44826
                        -----------------------------------------
Magnitude (a.u.)       :      1.20605
Magnitude (Debye)      :      3.06555

Rotational constants in cm-1:     0.293725     0.129218     0.102393
Rotational constants in MHz :  8805.653529  3873.869810  3069.666716

                             ****ORCA TERMINATED NORMALLY****
TOTAL RUN TIME: 0 days 0 hours 0 minutes 44 seconds 887 msec
