                         Program Version 5.0.0 -  RELEASE  -
|  1> !wB97X-D3 RIJCOSX def2-TZVPD def2/J TightSCF
|  2> *xyz 0 1
|  3> C         -0.69912        3.48945        3.75516
|  4> H         -0.96672        4.34901        3.14049
|  5> C         -1.08067        3.79296        5.15686
|  6> C          0.77696        3.13839        3.61741
|  7> H         -1.33146        2.65651        3.44632
|  8> H         -0.87449        4.76274        5.42734
|  9> H         -0.68079        3.13476        5.83900
| 10> H         -2.05755        3.53169        5.34620
| 11> H          0.99957        2.92898        2.59199
| 12> H          0.99576        2.27685        4.21303
| 13> H          1.37223        3.96279        3.95046
| 14> *
| 15> %MaxCore 64000
| 16>
| 17> %pal nprocs 4
| 18> end
| 19>
| 20> %scf
| 21>   MaxIter 150
| 22> end
| 23>
| 24>
| 25>                          ****END OF INPUT****

CARTESIAN COORDINATES (ANGSTROEM)
---------------------------------
  C     -0.699120    3.489450    3.755160
  H     -0.966720    4.349010    3.140490
  C     -1.080670    3.792960    5.156860
  C      0.776960    3.138390    3.617410
  H     -1.331460    2.656510    3.446320
  H     -0.874490    4.762740    5.427340
  H     -0.680790    3.134760    5.839000
  H     -2.057550    3.531690    5.346200
  H      0.999570    2.928980    2.591990
  H      0.995760    2.276850    4.213030
  H      1.372230    3.962790    3.950460

 Total Charge           Charge          ....    0
 Multiplicity           Mult            ....    1
 Number of Electrons    NEL             ....   26
 Basis Dimension        Dim             ....  183

ORBITAL ENERGIES
----------------

  NO   OCC          E(Eh)            E(eV)
   0   2.0000     -10.260391      -279.1994
   1   2.0000     -10.249974      -278.9160
   2   2.0000     -10.230961      -278.3986
   3   2.0000      -0.907815       -24.7029
   4   2.0000      -0.805336       -21.9143
   5   2.0000      -0.697791       -18.9878
   6   2.0000      -0.573863       -15.6156
   7   2.0000      -0.539395       -14.6777
   8   2.0000      -0.497257       -13.5310
   9   2.0000      -0.492680       -13.4065
  10   2.0000      -0.433208       -11.7882
  11   2.0000      -0.421574       -11.4716
  12   2.0000      -0.417622       -11.3641
  13   0.0000       0.077161         2.0997
  14   0.0000       0.096096         2.6149
  15   0.0000       0.099165         2.6984
  16   0.0000       0.127516         3.4699
  17   0.0000       0.150987         4.1086

MULLIKEN ATOMIC CHARGES
-----------------------
   0 C :    0.008525
   1 H :    0.245570
   2 C :   -1.398210
   3 C :   -1.135916
   4 H :    0.250376
   5 H :    0.356976
   6 H :    0.371200
   7 H :    0.372954
   8 H :    0.305641
   9 H :    0.310216
  10 H :    0.312669
Sum of atomic charges:   -0.0000000

LOEWDIN ATOMIC CHARGES
----------------------
   0 C :   -0.315540
   1 H :    0.103925
   2 C :   -0.134731
   3 C :   -0.116958
   4 H :    0.102732
   5 H :    0.058689
   6 H :    0.054540
   7 H :    0.052180
   8 H :    0.060846
   9 H :    0.066560
  10 H :    0.067756

  Mayer bond orders larger than 0.100000
B(  0-C ,  1-H ) :   0.9689 B(  0-C ,  2-C ) :   0.6193 B(  0-C ,  3-C ) :   0.6275
B(  0-C ,  4-H ) :   0.9746 B(  2-C ,  3-C ) :   0.1913 B(  2-C ,  5-H ) :   0.9144
B(  2-C ,  6-H ) :   0.9353 B(  2-C ,  7-H ) :   0.9201 B(  3-C ,  8-H ) :   0.9708
B(  3-C ,  9-H ) :   0.9684 B(  3-C , 10-H ) :   0.9629

Dispersion correction           -0.001483159
FINAL SINGLE POINT ENERGY      -119.134830629523

DIPOLE MOMENT
-------------
                                X             Y             Z
Electronic contribution:     -0.14249       0.12083      -0.39545
Nuclear contribution   :      0.10024      -0.14218       0.41628
                        -----------------------------------------
Total Dipole Moment    :     -0.04225      -0.02135       0.02083
                        -----------------------------------------
Magnitude (a.u.)       :      0.05172
Magnitude (Debye)      :      0.13145

Rotational constants in cm-1:     1.024179     0.291605     0.259489
Rotational constants in MHz : 30704.103454  8742.106283  7779.285909

                             ****ORCA TERMINATED NORMALLY****
TOTAL RUN TIME: 0 days 0 hours 0 minutes 27 seconds 899 msec
