                         Program Version 5.0.0 -  RELEASE  -
|  1> !wB97X-D3 RIJCOSX def2-TZVPD def2/J TightSCF
|  2> *xyz 0 1
|  3> C         -2.79070       -0.78527        5.70281
|  4> C         -2.45380        0.05510        6.94145
|  5> C         -2.07842        1.48042        6.56410
|  6> H         -1.62558       -0.38216        7.49891
|  7> H         -3.32527        0.08775        7.59917
|  8> O         -0.90125        1.85816        6.82810
|  9> F         -2.93658        2.17731        5.96415
| 10> H         -1.94052       -0.82114        5.05412
| 11> H         -3.61590       -0.34261        5.18514
| 12> H         -3.05063       -1.77815        6.00536
| 13> *
| 14> %MaxCore 64000
| 15>
| 16> %pal nprocs 4
| 17> end
| 18>
| 19> %scf
| 20>   MaxIter 150
| 21> end
| 22>
| 23>
| 24>                          ****END OF INPUT****

CARTESIAN COORDINATES (ANGSTROEM)
---------------------------------
  C     -2.790700   -0.785270    5.702810
  C     -2.453800    0.055100    6.941450
  C     -2.078420    1.480420    6.564100
  H     -1.625580   -0.382160    7.498910
  H     -3.325270    0.087750    7.599170
  O     -0.901250    1.858160    6.828100
  F     -2.936580    2.177310    5.964150
  H     -1.940520   -0.821140    5.054120
  H     -3.615900   -0.342610    5.185140
  H     -3.050630   -1.778150    6.005360

 Total Charge           Charge          ....    0
 Multiplicity           Mult            ....    1
 Number of Electrons    NEL             ....   40
 Basis Dimension        Dim             ....  236

ORBITAL ENERGIES
----------------

  NO   OCC          E(Eh)            E(eV)
   0   2.0000     -24.856699      -676.3852
   1   2.0000     -19.235219      -523.4169
   2   2.0000     -10.455736      -284.5150
   3   2.0000     -10.308259      -280.5020
   4   2.0000     -10.284481      -279.8549
   5   2.0000      -1.435629       -39.0654
   6   2.0000      -1.143519       -31.1167
   7   2.0000      -0.923511       -25.1300
   8   2.0000      -0.800200       -21.7745
   9   2.0000      -0.753192       -20.4954
  10   2.0000      -0.656027       -17.8514
  11   2.0000      -0.644110       -17.5271
  12   2.0000      -0.607373       -16.5275
  13   2.0000      -0.567945       -15.4546
  14   2.0000      -0.536487       -14.5986
  15   2.0000      -0.500647       -13.6233
  16   2.0000      -0.481142       -13.0925
  17   2.0000      -0.474140       -12.9020
  18   2.0000      -0.443769       -12.0756
  19   2.0000      -0.384673       -10.4675
  20   0.0000       0.051353         1.3974
  21   0.0000       0.066077         1.7980
  22   0.0000       0.087267         2.3747
  23   0.0000       0.093724         2.5504
  24   0.0000       0.104528         2.8443

MULLIKEN ATOMIC CHARGES
-----------------------
   0 C :   -1.154743
   1 C :   -0.107299
   2 C :    0.582098
   3 H :    0.235770
   4 H :    0.276342
   5 O :   -0.568087
   6 F :   -0.234567
   7 H :    0.347313
   8 H :    0.323899
   9 H :    0.299273
Sum of atomic charges:   -0.0000000

LOEWDIN ATOMIC CHARGES
----------------------
   0 C :   -0.089176
   1 C :   -0.154481
   2 C :   -0.477539
   3 H :    0.117925
   4 H :    0.118088
   5 O :    0.063498
   6 F :    0.204283
   7 H :    0.077144
   8 H :    0.070126
   9 H :    0.070133

  Mayer bond orders larger than 0.100000
B(  0-C ,  1-C ) :   0.5928 B(  0-C ,  2-C ) :   0.1608 B(  0-C ,  7-H ) :   0.9384
B(  0-C ,  8-H ) :   0.9503 B(  0-C ,  9-H ) :   0.9572 B(  1-C ,  2-C ) :   0.9238
B(  1-C ,  3-H ) :   0.9934 B(  1-C ,  4-H ) :   0.9236 B(  2-C ,  5-O ) :   1.6535
B(  2-C ,  6-F ) :   0.9562

Dispersion correction           -0.001918098
FINAL SINGLE POINT ENERGY      -292.437603799982

DIPOLE MOMENT
-------------
                                X             Y             Z
Electronic contribution:      0.56045       7.92598       0.05049
Nuclear contribution   :     -1.47571      -8.84360      -0.10748
                        -----------------------------------------
Total Dipole Moment    :     -0.91526      -0.91763      -0.05699
                        -----------------------------------------
Magnitude (a.u.)       :      1.29730
Magnitude (Debye)      :      3.29747

Rotational constants in cm-1:     0.283081     0.133379     0.103386
Rotational constants in MHz :  8486.545774  3998.599544  3099.448040

                             ****ORCA TERMINATED NORMALLY****
TOTAL RUN TIME: 0 days 0 hours 0 minutes 45 seconds 588 msec
