                         Program Version 5.0.0 -  RELEASE  -
|  1> !wB97X-D3 RIJCOSX def2-TZVPD def2/J TightSCF xyzfile
|  2>
|  3> *xyzfile 0 1 D2.xyz
|  4>
|  5> %MaxCore 64000
|  6>
|  7> %pal nprocs 18
|  8> end
|  9>
| 10> %scf
| 11>   MaxIter 150
| 12> end
| 13>
| 14>
| 15>                          ****END OF INPUT****

CARTESIAN COORDINATES (ANGSTROEM)
---------------------------------
  C     -0.699123    3.489451    3.755163
  H     -0.966716    4.349013    3.140491
  C     -1.080669    3.792957    5.156857
  C      0.776956    3.138391    3.617408
  H     -1.331455    2.656510    3.446323
  H      1.371398    3.888342    4.149744
  H      1.046926    3.232057    2.561331
  C      1.118917    1.731170    4.115155
  H      2.200573    1.654226    4.254882
  C      0.659466    0.635182    3.153306
  H      0.677024    1.576674    5.103150
  H      1.312288    0.638870    2.274207
  H     -0.339563    0.868049    2.772876
  C      0.639957   -0.771175    3.755619
  C     -0.341821   -0.965537    4.915046
  H      1.648266   -1.028665    4.097015
  H      0.398568   -1.482386    2.958453
  H     -0.279892   -2.005646    5.252547
  C     -1.789164   -0.639231    4.557496
  H     -0.032380   -0.352918    5.765118
  H     -2.107151   -1.270102    3.719619
  H     -1.856352    0.391636    4.197604
  C     -2.790700   -0.785275    5.702812
  H     -2.867308   -1.835651    6.001675
  H     -3.774554   -0.486577    5.334807
  C     -2.453797    0.055101    6.941445
  C     -2.078419    1.480421    6.564098
  H     -1.625584   -0.382163    7.498914
  H     -3.325274    0.087746    7.599175
  H     -0.874488    4.762737    5.427344
  H     -0.680793    3.134762    5.839000
  H     -2.057550    3.531691    5.346197
  O     -0.901252    1.858156    6.828104
  F     -2.936582    2.177309    5.964151

 Total Charge           Charge          ....    0
 Multiplicity           Mult            ....    1
 Number of Electrons    NEL             ....  104
 Basis Dimension        Dim             ....  676

ORBITAL ENERGIES
----------------

  NO   OCC          E(Eh)            E(eV)
   0   2.0000     -24.867380      -676.6758
   1   2.0000     -19.243514      -523.6426
   2   2.0000     -10.468672      -284.8670
   3   2.0000     -10.310816      -280.5716
   4   2.0000     -10.296104      -280.1712
   5   2.0000     -10.280072      -279.7350
   6   2.0000     -10.269283      -279.4414
   7   2.0000     -10.265426      -279.3365
   8   2.0000     -10.258060      -279.1360
   9   2.0000     -10.251084      -278.9462
  10   2.0000     -10.248715      -278.8817
  11   2.0000     -10.241909      -278.6965
  12   2.0000     -10.184603      -277.1371
  13   2.0000      -1.451033       -39.4846
  14   2.0000      -1.162435       -31.6315
  15   2.0000      -0.951602       -25.8944
  16   2.0000      -0.922650       -25.1066
  17   2.0000      -0.892960       -24.2987
  18   2.0000      -0.863772       -23.5044
  19   2.0000      -0.819405       -22.2971
  20   2.0000      -0.794445       -21.6179
  21   2.0000      -0.770806       -20.9747
  22   2.0000      -0.733797       -19.9676
  23   2.0000      -0.719158       -19.5693
  24   2.0000      -0.672936       -18.3115
  25   2.0000      -0.669901       -18.2289
  26   2.0000      -0.663760       -18.0618
  27   2.0000      -0.643889       -17.5211
  28   2.0000      -0.620370       -16.8811
  29   2.0000      -0.585527       -15.9330
  30   2.0000      -0.579955       -15.7814
  31   2.0000      -0.560397       -15.2492
  32   2.0000      -0.553535       -15.0624
  33   2.0000      -0.531303       -14.4575
  34   2.0000      -0.522526       -14.2187
  35   2.0000      -0.515777       -14.0350
  36   2.0000      -0.505749       -13.7621
  37   2.0000      -0.499245       -13.5852
  38   2.0000      -0.484404       -13.1813
  39   2.0000      -0.471838       -12.8394
  40   2.0000      -0.467567       -12.7231
  41   2.0000      -0.462338       -12.5809
  42   2.0000      -0.445513       -12.1230
  43   2.0000      -0.436449       -11.8764
  44   2.0000      -0.429978       -11.7003
  45   2.0000      -0.419879       -11.4255
  46   2.0000      -0.413148       -11.2423
  47   2.0000      -0.402695       -10.9579
  48   2.0000      -0.396110       -10.7787
  49   2.0000      -0.386117       -10.5068
  50   2.0000      -0.384250       -10.4560
  51   2.0000      -0.349698        -9.5158
  52   0.0000       0.039764         1.0820
  53   0.0000       0.062204         1.6927
  54   0.0000       0.073644         2.0040
  55   0.0000       0.077874         2.1191
  56   0.0000       0.083346         2.2680

MULLIKEN ATOMIC CHARGES
-----------------------
   0 C :    0.033180
   1 H :    0.259800
   2 C :   -2.013934
   3 C :   -0.601344
   4 H :    0.153823
   5 H :    0.305757
   6 H :    0.230206
   7 C :   -0.205413
   8 H :    0.304370
   9 C :   -0.523813
  10 H :    0.095842
  11 H :    0.323636
  12 H :    0.245592
  13 C :   -0.773602
  14 C :   -0.451130
  15 H :    0.285111
  16 H :    0.312691
  17 H :    0.270299
  18 C :    0.009651
  19 H :    0.268495
  20 H :    0.357461
  21 H :   -0.205092
  22 C :   -0.789181
  23 H :    0.266861
  24 H :    0.367154
  25 C :   -0.517307
  26 C :    0.669819
  27 H :    0.311330
  28 H :    0.349459
  29 H :    0.466720
  30 H :    0.605957
  31 H :    0.508274
  32 O :   -0.631589
  33 F :   -0.289083
Sum of atomic charges:    0.0000000

LOEWDIN ATOMIC CHARGES
----------------------
   0 C :   -0.241077
   1 H :    0.107828
   2 C :   -0.120968
   3 C :   -0.206196
   4 H :    0.093890
   5 H :    0.114169
   6 H :    0.106692
   7 C :   -0.198859
   8 H :    0.115202
   9 C :   -0.216488
  10 H :    0.089035
  11 H :    0.114056
  12 H :    0.095149
  13 C :   -0.207103
  14 C :   -0.207322
  15 H :    0.112211
  16 H :    0.109188
  17 H :    0.117594
  18 C :   -0.205306
  19 H :    0.095853
  20 H :    0.123912
  21 H :    0.095391
  22 C :   -0.191888
  23 H :    0.117031
  24 H :    0.113006
  25 C :   -0.091941
  26 C :   -0.430987
  27 H :    0.123910
  28 H :    0.125034
  29 H :    0.071032
  30 H :    0.001259
  31 H :    0.036328
  32 O :    0.047711
  33 F :    0.192655

  Mayer bond orders larger than 0.100000
B(  0-C ,  1-H ) :   0.8952 B(  0-C ,  2-C ) :   0.1680 B(  0-C ,  3-C ) :   0.8603
B(  0-C ,  4-H ) :   1.0929 B(  0-C ,  9-C ) :   0.1174 B(  2-C ,  3-C ) :   0.3374
B(  2-C , 29-H ) :   0.6944 B(  2-C , 30-H ) :   0.9169 B(  2-C , 31-H ) :   0.8947
B(  3-C ,  5-H ) :   0.8898 B(  3-C ,  6-H ) :   0.9408 B(  3-C ,  7-C ) :   1.0518
B(  3-C ,  9-C ) :   0.3644 B(  7-C ,  8-H ) :   0.8284 B(  7-C ,  9-C ) :   0.3956
B(  7-C , 10-H ) :   1.1942 B(  7-C , 13-C ) :   0.3615 B(  7-C , 14-C ) :   0.1107
B(  9-C , 11-H ) :   0.8813 B(  9-C , 12-H ) :   1.0366 B(  9-C , 13-C ) :   1.0086
B(  9-C , 18-C ) :   0.1525 B( 13-C , 14-C ) :   0.8851 B( 13-C , 15-H ) :   0.9560
B( 13-C , 16-H ) :   0.9154 B( 13-C , 18-C ) :   0.3100 B( 14-C , 17-H ) :   0.8998
B( 14-C , 18-C ) :   0.4540 B( 14-C , 19-H ) :   1.0088 B( 14-C , 21-H ) :  -0.1222
B( 14-C , 22-C ) :   0.2781 B( 14-C , 25-C ) :   0.1636 B( 18-C , 20-H ) :   0.7631
B( 18-C , 21-H ) :   1.2946 B( 18-C , 22-C ) :   0.7377 B( 18-C , 25-C ) :  -0.1064
B( 20-H , 21-H ) :   0.1258 B( 21-H , 22-C ) :   0.2770 B( 22-C , 23-H ) :   0.9338
B( 22-C , 24-H ) :   0.8733 B( 22-C , 25-C ) :   0.8176 B( 22-C , 26-C ) :   0.1806
B( 25-C , 26-C ) :   0.9610 B( 25-C , 27-H ) :   0.9523 B( 25-C , 28-H ) :   0.8645
B( 26-C , 32-O ) :   1.6729 B( 26-C , 33-F ) :   0.7637 B( 30-H , 32-O ) :  -0.2360
B( 32-O , 33-F ) :   0.1168

Dispersion correction           -0.017268117
FINAL SINGLE POINT ENERGY      -606.920789594026

DIPOLE MOMENT
-------------
                                X             Y             Z
Electronic contribution:     -8.96577       3.01029       9.46745
Nuclear contribution   :      8.07181      -4.09641      -9.21610
                        -----------------------------------------
Total Dipole Moment    :     -0.89397      -1.08612       0.25135
                        -----------------------------------------
Magnitude (a.u.)       :      1.42899
Magnitude (Debye)      :      3.63221

Rotational constants in cm-1:     0.028400     0.023377     0.015073
Rotational constants in MHz :   851.414727   700.831775   451.871218

                             ****ORCA TERMINATED NORMALLY****
TOTAL RUN TIME: 0 days 0 hours 3 minutes 26 seconds 548 msec
