                         Program Version 5.0.0 -  RELEASE  -
|  1> !PBE0 D3BJ RIJCOSX def2-SVPD def2/J TightSCF
|  2> *xyz -1 1
|  3> C         -0.71189        0.84252       -4.21834
|  4> C         -0.39762       -0.20587       -5.28802
|  5> O          0.61717       -0.00535       -5.99827
|  6> O         -1.13317       -1.22138       -5.34147
|  7> H         -0.00939        1.64646       -4.28960
|  8> H         -0.64409        0.39449       -3.24902
|  9> H         -1.70192        1.21961       -4.36851
| 10> *
| 11>
| 12> %MaxCore 64000
| 13>
| 14> %pal nprocs 4
| 15> end
| 16>
| 17> %scf
| 18>   MaxIter 150
| 19> end
| 20>
| 21>
| 22>                          ****END OF INPUT****

CARTESIAN COORDINATES (ANGSTROEM)
---------------------------------
  C     -0.711890    0.842520   -4.218340
  C     -0.397620   -0.205870   -5.288020
  O      0.617170   -0.005350   -5.998270
  O     -1.133170   -1.221380   -5.341470
  H     -0.009390    1.646460   -4.289600
  H     -0.644090    0.394490   -3.249020
  H     -1.701920    1.219610   -4.368510

 Total Charge           Charge          ....   -1
 Multiplicity           Mult            ....    1
 Number of Electrons    NEL             ....   32
 Basis Dimension        Dim             ....  110

ORBITAL ENERGIES
----------------

  NO   OCC          E(Eh)            E(eV)
   0   2.0000     -18.950319      -515.6644
   1   2.0000     -18.949705      -515.6477
   2   2.0000     -10.114572      -275.2315
   3   2.0000     -10.043526      -273.2982
   4   2.0000      -0.836583       -22.7646
   5   2.0000      -0.741934       -20.1891
   6   2.0000      -0.558095       -15.1865
   7   2.0000      -0.316810        -8.6208
   8   2.0000      -0.272647        -7.4191
   9   2.0000      -0.258407        -7.0316
  10   2.0000      -0.239980        -6.5302
  11   2.0000      -0.198655        -5.4057
  12   2.0000      -0.178873        -4.8674
  13   2.0000      -0.059668        -1.6236
  14   2.0000      -0.053107        -1.4451
  15   2.0000      -0.038383        -1.0444
  16   0.0000       0.179154         4.8750
  17   0.0000       0.219996         5.9864
  18   0.0000       0.230803         6.2805
  19   0.0000       0.248753         6.7689
  20   0.0000       0.272360         7.4113

MULLIKEN ATOMIC CHARGES
-----------------------
   0 C :    0.302483
   1 C :    0.172248
   2 O :   -0.711585
   3 O :   -0.731836
   4 H :   -0.022306
   5 H :   -0.005200
   6 H :   -0.003804
Sum of atomic charges:   -1.0000000

LOEWDIN ATOMIC CHARGES
----------------------
   0 C :    0.137338
   1 C :   -0.327816
   2 O :   -0.346362
   3 O :   -0.348386
   4 H :   -0.042956
   5 H :   -0.034835
   6 H :   -0.036983

  Mayer bond orders larger than 0.100000
B(  0-C ,  1-C ) :   1.2383 B(  0-C ,  4-H ) :   0.8971 B(  0-C ,  5-H ) :   0.8540
B(  0-C ,  6-H ) :   0.8458 B(  1-C ,  2-O ) :   1.3991 B(  1-C ,  3-O ) :   1.4055
B(  1-C ,  4-H ) :   0.2160 B(  1-C ,  5-H ) :   0.1377 B(  1-C ,  6-H ) :   0.1455

Dispersion correction           -0.003026510
FINAL SINGLE POINT ENERGY      -228.121002834569

DIPOLE MOMENT
-------------
                                X             Y             Z
Electronic contribution:      0.75843      -2.47338      -2.51401
Nuclear contribution   :     -1.06347       3.45957       3.47855
                        -----------------------------------------
Total Dipole Moment    :     -0.30503       0.98620       0.96455
                        -----------------------------------------
Magnitude (a.u.)       :      1.41279
Magnitude (Debye)      :      3.59103

Rotational constants in cm-1:     0.393276     0.333956     0.186777
Rotational constants in MHz : 11790.103634 10011.747201  5599.422324

                             ****ORCA TERMINATED NORMALLY****
TOTAL RUN TIME: 0 days 0 hours 0 minutes 7 seconds 72 msec
