                         Program Version 5.0.0 -  RELEASE  -
|  1> !PBE0 D3BJ RIJCOSX def2-SVPD def2/J TightSCF
|  2> *xyz 1 1
|  3> C          2.23447       -2.98975       -2.39762
|  4> N          2.75680       -2.94555       -3.76503
|  5> C          1.98721       -2.59045       -4.81898
|  6> N          0.74322       -3.01749       -4.91352
|  7> N          2.49964       -1.84860       -5.80324
|  8> H          3.30978       -1.29282       -5.55895
|  9> H          1.80103       -1.30430       -6.28913
| 10> H          3.71612       -2.62880       -3.82953
| 11> H          0.39583       -3.62775       -4.18502
| 12> H          0.03920       -2.45438       -5.37137
| 13> H          1.22098       -3.33251       -2.41386
| 14> H          2.27280       -2.00995       -1.96933
| 15> H          2.82798       -3.65908       -1.81056
| 16> *
| 17>
| 18> %MaxCore 64000
| 19>
| 20> %pal nprocs 4
| 21> end
| 22>
| 23> %scf
| 24>   MaxIter 150
| 25> end
| 26>
| 27>
| 28>                          ****END OF INPUT****

CARTESIAN COORDINATES (ANGSTROEM)
---------------------------------
  C      2.234470   -2.989750   -2.397620
  N      2.756800   -2.945550   -3.765030
  C      1.987210   -2.590450   -4.818980
  N      0.743220   -3.017490   -4.913520
  N      2.499640   -1.848600   -5.803240
  H      3.309780   -1.292820   -5.558950
  H      1.801030   -1.304300   -6.289130
  H      3.716120   -2.628800   -3.829530
  H      0.395830   -3.627750   -4.185020
  H      0.039200   -2.454380   -5.371370
  H      1.220980   -3.332510   -2.413860
  H      2.272800   -2.009950   -1.969330
  H      2.827980   -3.659080   -1.810560

 Total Charge           Charge          ....    1
 Multiplicity           Mult            ....    1
 Number of Electrons    NEL             ....   40
 Basis Dimension        Dim             ....  164

ORBITAL ENERGIES
----------------

  NO   OCC          E(Eh)            E(eV)
   0   2.0000     -14.631577      -398.1454
   1   2.0000     -14.629406      -398.0864
   2   2.0000     -14.627314      -398.0295
   3   2.0000     -10.578143      -287.8459
   4   2.0000     -10.441390      -284.1247
   5   2.0000      -1.246805       -33.9273
   6   2.0000      -1.130415       -30.7602
   7   2.0000      -1.125513       -30.6268
   8   2.0000      -0.923320       -25.1248
   9   2.0000      -0.852054       -23.1856
  10   2.0000      -0.809129       -22.0175
  11   2.0000      -0.772885       -21.0313
  12   2.0000      -0.722713       -19.6660
  13   2.0000      -0.706749       -19.2316
  14   2.0000      -0.663054       -18.0426
  15   2.0000      -0.661097       -17.9894
  16   2.0000      -0.611585       -16.6421
  17   2.0000      -0.597280       -16.2528
  18   2.0000      -0.508049       -13.8247
  19   2.0000      -0.474728       -12.9180
  20   0.0000      -0.196301        -5.3416
  21   0.0000      -0.153220        -4.1693
  22   0.0000      -0.116028        -3.1573
  23   0.0000      -0.105767        -2.8781
  24   0.0000      -0.083293        -2.2665

MULLIKEN ATOMIC CHARGES
-----------------------
   0 C :    1.045353
   1 N :   -0.697205
   2 C :    1.190653
   3 N :   -0.064336
   4 N :   -0.144498
   5 H :    0.024791
   6 H :    0.073673
   7 H :   -0.150679
   8 H :    0.013343
   9 H :    0.000270
  10 H :   -0.148667
  11 H :   -0.028670
  12 H :   -0.114027
Sum of atomic charges:    1.0000000

LOEWDIN ATOMIC CHARGES
----------------------
   0 C :    0.259718
   1 N :    0.017271
   2 C :   -0.037649
   3 N :    0.278024
   4 N :    0.266910
   5 H :    0.037655
   6 H :    0.037364
   7 H :    0.050786
   8 H :    0.027732
   9 H :    0.050063
  10 H :   -0.013154
  11 H :    0.011546
  12 H :    0.013734

  Mayer bond orders larger than 0.100000
B(  0-C ,  1-N ) :   0.8415 B(  0-C , 10-H ) :   0.8590 B(  0-C , 11-H ) :   0.8400
B(  0-C , 12-H ) :   0.8310 B(  1-N ,  2-C ) :   0.9800 B(  1-N ,  3-N ) :   0.1189
B(  1-N ,  4-N ) :   0.1346 B(  1-N ,  7-H ) :   1.2264 B(  1-N , 10-H ) :   0.1416
B(  1-N , 11-H ) :   0.1250 B(  1-N , 12-H ) :   0.1850 B(  2-C ,  3-N ) :   0.9845
B(  2-C ,  4-N ) :   0.9697 B(  2-C ,  7-H ) :  -0.1540 B(  2-C ,  9-H ) :  -0.1035
B(  3-N ,  4-N ) :   0.1613 B(  3-N ,  8-H ) :   0.9929 B(  3-N ,  9-H ) :   1.2013
B(  4-N ,  5-H ) :   1.0106 B(  4-N ,  6-H ) :   1.0035 B(  8-H ,  9-H ) :  -0.1447

Dispersion correction           -0.007648371
FINAL SINGLE POINT ENERGY      -244.633311711667

DIPOLE MOMENT
-------------
                                X             Y             Z
Electronic contribution:      0.27020      -0.06216      -3.01814
Nuclear contribution   :     -0.61773       0.88991       3.03801
                        -----------------------------------------
Total Dipole Moment    :     -0.34753       0.82775       0.01987
                        -----------------------------------------
Magnitude (a.u.)       :      0.89796
Magnitude (Debye)      :      2.28244

Rotational constants in cm-1:     0.302561     0.133407     0.098295
Rotational constants in MHz :  9070.558660  3999.431512  2946.819102

                             ****ORCA TERMINATED NORMALLY****
TOTAL RUN TIME: 0 days 0 hours 0 minutes 13 seconds 862 msec
