                         Program Version 5.0.0 -  RELEASE  -
|  1> !PBE0 D3BJ RIJCOSX def2-SVPD def2/J TightSCF
|  2> *xyz 0 1
|  3> C         -0.71189        0.84252       -4.21834
|  4> C         -0.39762       -0.20587       -5.28802
|  5> F          0.61717       -0.00535       -5.99827
|  6> O         -1.13317       -1.22138       -5.34147
|  7> H         -0.00939        1.64646       -4.28960
|  8> H         -0.64409        0.39449       -3.24902
|  9> H         -1.70192        1.21961       -4.36851
| 10> *
| 11>
| 12> %MaxCore 64000
| 13>
| 14> %pal nprocs 4
| 15> end
| 16>
| 17> %scf
| 18>   MaxIter 150
| 19> end
| 20>
| 21>
| 22>                          ****END OF INPUT****

CARTESIAN COORDINATES (ANGSTROEM)
---------------------------------
  C     -0.711890    0.842520   -4.218340
  C     -0.397620   -0.205870   -5.288020
  F      0.617170   -0.005350   -5.998270
  O     -1.133170   -1.221380   -5.341470
  H     -0.009390    1.646460   -4.289600
  H     -0.644090    0.394490   -3.249020
  H     -1.701920    1.219610   -4.368510

 Total Charge           Charge          ....    0
 Multiplicity           Mult            ....    1
 Number of Electrons    NEL             ....   32
 Basis Dimension        Dim             ....  110

ORBITAL ENERGIES
----------------

  NO   OCC          E(Eh)            E(eV)
   0   2.0000     -24.859459      -676.4603
   1   2.0000     -19.229130      -523.2512
   2   2.0000     -10.421502      -283.5835
   3   2.0000     -10.261247      -279.2227
   4   2.0000      -1.343989       -36.5718
   5   2.0000      -1.057299       -28.7706
   6   2.0000      -0.791557       -21.5394
   7   2.0000      -0.683042       -18.5865
   8   2.0000      -0.572486       -15.5781
   9   2.0000      -0.568218       -15.4620
  10   2.0000      -0.523205       -14.2371
  11   2.0000      -0.462397       -12.5825
  12   2.0000      -0.449018       -12.2184
  13   2.0000      -0.422184       -11.4882
  14   2.0000      -0.372235       -10.1290
  15   2.0000      -0.313845        -8.5401
  16   0.0000      -0.030487        -0.8296
  17   0.0000       0.019116         0.5202
  18   0.0000       0.065392         1.7794
  19   0.0000       0.094818         2.5801
  20   0.0000       0.095535         2.5996

MULLIKEN ATOMIC CHARGES
-----------------------
   0 C :    0.231472
   1 C :    0.511371
   2 F :   -0.373730
   3 O :   -0.540100
   4 H :    0.025924
   5 H :    0.074530
   6 H :    0.070534
Sum of atomic charges:    0.0000000

LOEWDIN ATOMIC CHARGES
----------------------
   0 C :    0.210959
   1 C :   -0.023814
   2 F :   -0.042600
   3 O :   -0.145033
   4 H :   -0.012137
   5 H :    0.006916
   6 H :    0.005709

  Mayer bond orders larger than 0.100000
B(  0-C ,  1-C ) :   1.2664 B(  0-C ,  4-H ) :   0.9000 B(  0-C ,  5-H ) :   0.8343
B(  0-C ,  6-H ) :   0.8277 B(  1-C ,  2-F ) :   0.7511 B(  1-C ,  3-O ) :   1.7343
B(  1-C ,  4-H ) :   0.1324 B(  1-C ,  5-H ) :   0.1154 B(  1-C ,  6-H ) :   0.1250

Dispersion correction           -0.002786955
FINAL SINGLE POINT ENERGY      -252.641920146130

DIPOLE MOMENT
-------------
                                X             Y             Z
Electronic contribution:      2.41278      -2.26378      -3.80829
Nuclear contribution   :     -2.12043       3.31297       4.29327
                        -----------------------------------------
Total Dipole Moment    :      0.29235       1.04919       0.48498
                        -----------------------------------------
Magnitude (a.u.)       :      1.19225
Magnitude (Debye)      :      3.03047

Rotational constants in cm-1:     0.368089     0.321934     0.177312
Rotational constants in MHz : 11035.034199  9651.332398  5315.666874

                             ****ORCA TERMINATED NORMALLY****
TOTAL RUN TIME: 0 days 0 hours 0 minutes 6 seconds 921 msec
