                         Program Version 5.0.0 -  RELEASE  -
|  1> !PBE0 D3BJ RIJCOSX def2-SVPD def2/J TightSCF
|  2> *xyz 0 1
|  3> C          2.23447       -2.98975       -2.39762
|  4> C          2.75680       -2.94555       -3.76503
|  5> C          1.98721       -2.59045       -4.81898
|  6> N          0.74322       -3.01749       -4.91352
|  7> N          2.49964       -1.84860       -5.80324
|  8> H          3.30978       -1.29282       -5.55895
|  9> H          1.80103       -1.30430       -6.28913
| 10> H          3.71612       -2.62880       -3.82953
| 11> H          0.39583       -3.62775       -4.18502
| 12> H          0.03920       -2.45438       -5.37137
| 13> H          1.22098       -3.33251       -2.41386
| 14> H          2.27280       -2.00995       -1.96933
| 15> H          2.82798       -3.65908       -1.81056
| 16> *
| 17>
| 18> %MaxCore 64000
| 19>
| 20> %pal nprocs 4
| 21> end
| 22>
| 23> %scf
| 24>   MaxIter 150
| 25> end
| 26>
| 27>
| 28>                          ****END OF INPUT****

CARTESIAN COORDINATES (ANGSTROEM)
---------------------------------
  C      2.234470   -2.989750   -2.397620
  C      2.756800   -2.945550   -3.765030
  C      1.987210   -2.590450   -4.818980
  N      0.743220   -3.017490   -4.913520
  N      2.499640   -1.848600   -5.803240
  H      3.309780   -1.292820   -5.558950
  H      1.801030   -1.304300   -6.289130
  H      3.716120   -2.628800   -3.829530
  H      0.395830   -3.627750   -4.185020
  H      0.039200   -2.454380   -5.371370
  H      1.220980   -3.332510   -2.413860
  H      2.272800   -2.009950   -1.969330
  H      2.827980   -3.659080   -1.810560

 Total Charge           Charge          ....    0
 Multiplicity           Mult            ....    1
 Number of Electrons    NEL             ....   40
 Basis Dimension        Dim             ....  164

ORBITAL ENERGIES
----------------

  NO   OCC          E(Eh)            E(eV)
   0   2.0000     -14.402109      -391.9013
   1   2.0000     -14.397830      -391.7849
   2   2.0000     -10.278965      -279.7049
   3   2.0000     -10.199793      -277.5505
   4   2.0000     -10.160686      -276.4863
   5   2.0000      -0.990008       -26.9395
   6   2.0000      -0.896314       -24.3899
   7   2.0000      -0.769308       -20.9339
   8   2.0000      -0.670569       -18.2471
   9   2.0000      -0.604797       -16.4574
  10   2.0000      -0.559659       -15.2291
  11   2.0000      -0.522197       -14.2097
  12   2.0000      -0.485619       -13.2144
  13   2.0000      -0.451573       -12.2879
  14   2.0000      -0.415956       -11.3187
  15   2.0000      -0.390010       -10.6127
  16   2.0000      -0.373099       -10.1525
  17   2.0000      -0.350863        -9.5475
  18   2.0000      -0.288589        -7.8529
  19   2.0000      -0.169837        -4.6215
  20   0.0000       0.017751         0.4830
  21   0.0000       0.042958         1.1689
  22   0.0000       0.057980         1.5777
  23   0.0000       0.069441         1.8896
  24   0.0000       0.089034         2.4227

MULLIKEN ATOMIC CHARGES
-----------------------
   0 C :    0.694577
   1 C :   -0.498326
   2 C :    0.485248
   3 N :   -0.110888
   4 N :   -0.146561
   5 H :    0.048250
   6 H :    0.000231
   7 H :   -0.184621
   8 H :   -0.001857
   9 H :   -0.098331
  10 H :   -0.189697
  11 H :   -0.044943
  12 H :    0.046919
Sum of atomic charges:    0.0000000

LOEWDIN ATOMIC CHARGES
----------------------
   0 C :    0.084576
   1 C :   -0.056415
   2 C :   -0.239346
   3 N :    0.187058
   4 N :    0.180262
   5 H :    0.003399
   6 H :   -0.011114
   7 H :   -0.059405
   8 H :   -0.002892
   9 H :   -0.002153
  10 H :   -0.043100
  11 H :   -0.018269
  12 H :   -0.022601

  Mayer bond orders larger than 0.100000
B(  0-C ,  1-C ) :   1.1425 B(  0-C ,  7-H ) :   0.1756 B(  0-C , 10-H ) :   0.7949
B(  0-C , 11-H ) :   0.8461 B(  0-C , 12-H ) :   0.7429 B(  1-C ,  2-C ) :   1.7980
B(  1-C ,  3-N ) :   0.1714 B(  1-C ,  4-N ) :   0.2070 B(  1-C ,  7-H ) :   0.8674
B(  1-C , 10-H ) :   0.2743 B(  1-C , 12-H ) :   0.1978 B(  2-C ,  3-N ) :   0.9635
B(  2-C ,  4-N ) :   0.9520 B(  2-C ,  7-H ) :   0.2335 B(  3-N ,  4-N ) :   0.1380
B(  3-N ,  8-H ) :   0.9915 B(  3-N ,  9-H ) :   1.2230 B(  4-N ,  5-H ) :   0.9576
B(  4-N ,  6-H ) :   0.9620 B(  8-H ,  9-H ) :  -0.1273 B( 10-H , 12-H ) :   0.1241

Dispersion correction           -0.008006578
FINAL SINGLE POINT ENERGY      -228.181388550800

DIPOLE MOMENT
-------------
                                X             Y             Z
Electronic contribution:     -0.28537       0.04778      -3.43919
Nuclear contribution   :     -0.47056       0.83150       3.15332
                        -----------------------------------------
Total Dipole Moment    :     -0.75593       0.87928      -0.28587
                        -----------------------------------------
Magnitude (a.u.)       :      1.19427
Magnitude (Debye)      :      3.03559

Rotational constants in cm-1:     0.307275     0.134774     0.099280
Rotational constants in MHz :  9211.860934  4040.421317  2976.324646

                             ****ORCA TERMINATED NORMALLY****
TOTAL RUN TIME: 0 days 0 hours 0 minutes 15 seconds 311 msec
