                         Program Version 5.0.0 -  RELEASE  -
|  1> !PBE0 D3BJ RIJCOSX def2-SVPD def2/J TightSCF
|  2> *xyz 0 1
|  3> C         -0.71189        0.84252       -4.21834
|  4> C         -0.39762       -0.20587       -5.28802
|  5> O          0.61717       -0.00535       -5.99827
|  6> F         -1.13317       -1.22138       -5.34147
|  7> H         -0.00939        1.64646       -4.28960
|  8> H         -0.64409        0.39449       -3.24902
|  9> H         -1.70192        1.21961       -4.36851
| 10> *
| 11>
| 12> %MaxCore 64000
| 13>
| 14> %pal nprocs 4
| 15> end
| 16>
| 17> %scf
| 18>   MaxIter 150
| 19> end
| 20>
| 21>
| 22>                          ****END OF INPUT****

CARTESIAN COORDINATES (ANGSTROEM)
---------------------------------
  C     -0.711890    0.842520   -4.218340
  C     -0.397620   -0.205870   -5.288020
  O      0.617170   -0.005350   -5.998270
  F     -1.133170   -1.221380   -5.341470
  H     -0.009390    1.646460   -4.289600
  H     -0.644090    0.394490   -3.249020
  H     -1.701920    1.219610   -4.368510

 Total Charge           Charge          ....    0
 Multiplicity           Mult            ....    1
 Number of Electrons    NEL             ....   32
 Basis Dimension        Dim             ....  110

ORBITAL ENERGIES
----------------

  NO   OCC          E(Eh)            E(eV)
   0   2.0000     -24.859914      -676.4726
   1   2.0000     -19.228954      -523.2464
   2   2.0000     -10.421126      -283.5733
   3   2.0000     -10.261011      -279.2163
   4   2.0000      -1.343898       -36.5693
   5   2.0000      -1.057634       -28.7797
   6   2.0000      -0.791105       -21.5271
   7   2.0000      -0.683029       -18.5862
   8   2.0000      -0.573044       -15.5933
   9   2.0000      -0.567765       -15.4497
  10   2.0000      -0.522831       -14.2270
  11   2.0000      -0.461519       -12.5586
  12   2.0000      -0.449538       -12.2325
  13   2.0000      -0.422130       -11.4867
  14   2.0000      -0.374972       -10.2035
  15   2.0000      -0.311741        -8.4829
  16   0.0000      -0.027366        -0.7447
  17   0.0000       0.019192         0.5222
  18   0.0000       0.065236         1.7752
  19   0.0000       0.091698         2.4952
  20   0.0000       0.100288         2.7290

MULLIKEN ATOMIC CHARGES
-----------------------
   0 C :    0.245354
   1 C :    0.529295
   2 O :   -0.525187
   3 F :   -0.395378
   4 H :    0.002654
   5 H :    0.072979
   6 H :    0.070283
Sum of atomic charges:   -0.0000000

LOEWDIN ATOMIC CHARGES
----------------------
   0 C :    0.210084
   1 C :   -0.024932
   2 O :   -0.145127
   3 F :   -0.040616
   4 H :    0.000902
   5 H :    0.001058
   6 H :   -0.001369

  Mayer bond orders larger than 0.100000
B(  0-C ,  1-C ) :   1.2476 B(  0-C ,  4-H ) :   0.9141 B(  0-C ,  5-H ) :   0.8308
B(  0-C ,  6-H ) :   0.8267 B(  1-C ,  2-O ) :   1.7529 B(  1-C ,  3-F ) :   0.7118
B(  1-C ,  4-H ) :   0.1804 B(  1-C ,  5-H ) :   0.1043 B(  1-C ,  6-H ) :   0.1089

Dispersion correction           -0.002787038
FINAL SINGLE POINT ENERGY      -252.642065121172

DIPOLE MOMENT
-------------
                                X             Y             Z
Electronic contribution:     -0.43541      -4.24267      -2.73878
Nuclear contribution   :     -0.31181       4.56949       3.61460
                        -----------------------------------------
Total Dipole Moment    :     -0.74721       0.32682       0.87582
                        -----------------------------------------
Magnitude (a.u.)       :      1.19675
Magnitude (Debye)      :      3.04189

Rotational constants in cm-1:     0.370228     0.320104     0.177247
Rotational constants in MHz : 11099.151631  9596.483000  5313.726171

                             ****ORCA TERMINATED NORMALLY****
TOTAL RUN TIME: 0 days 0 hours 0 minutes 6 seconds 948 msec
