                         Program Version 5.0.0 -  RELEASE  -
|  1> !PBE0 D3BJ RIJCOSX def2-SVPD def2/J TightSCF
|  2> *xyz 0 1
|  3> C          2.23447       -2.98975       -2.39762
|  4> N          2.75680       -2.94555       -3.76503
|  5> C          1.98721       -2.59045       -4.81898
|  6> C          0.74322       -3.01749       -4.91352
|  7> N          2.49964       -1.84860       -5.80324
|  8> H          3.30978       -1.29282       -5.55895
|  9> H          1.80103       -1.30430       -6.28913
| 10> H          3.71612       -2.62880       -3.82953
| 11> H          0.39583       -3.62775       -4.18502
| 12> H          0.03920       -2.45438       -5.37137
| 13> H          1.22098       -3.33251       -2.41386
| 14> H          2.27280       -2.00995       -1.96933
| 15> H          2.82798       -3.65908       -1.81056
| 16> *
| 17>
| 18> %MaxCore 64000
| 19>
| 20> %pal nprocs 4
| 21> end
| 22>
| 23> %scf
| 24>   MaxIter 150
| 25> end
| 26>
| 27>
| 28>                          ****END OF INPUT****

CARTESIAN COORDINATES (ANGSTROEM)
---------------------------------
  C      2.234470   -2.989750   -2.397620
  N      2.756800   -2.945550   -3.765030
  C      1.987210   -2.590450   -4.818980
  C      0.743220   -3.017490   -4.913520
  N      2.499640   -1.848600   -5.803240
  H      3.309780   -1.292820   -5.558950
  H      1.801030   -1.304300   -6.289130
  H      3.716120   -2.628800   -3.829530
  H      0.395830   -3.627750   -4.185020
  H      0.039200   -2.454380   -5.371370
  H      1.220980   -3.332510   -2.413860
  H      2.272800   -2.009950   -1.969330
  H      2.827980   -3.659080   -1.810560

 Total Charge           Charge          ....    0
 Multiplicity           Mult            ....    1
 Number of Electrons    NEL             ....   40
 Basis Dimension        Dim             ....  164

ORBITAL ENERGIES
----------------

  NO   OCC          E(Eh)            E(eV)
   0   2.0000     -14.401830      -391.8937
   1   2.0000     -14.397340      -391.7716
   2   2.0000     -10.278804      -279.7005
   3   2.0000     -10.256799      -279.1017
   4   2.0000     -10.151550      -276.2377
   5   2.0000      -0.987811       -26.8797
   6   2.0000      -0.904916       -24.6240
   7   2.0000      -0.741867       -20.1872
   8   2.0000      -0.711516       -19.3613
   9   2.0000      -0.582287       -15.8448
  10   2.0000      -0.561964       -15.2918
  11   2.0000      -0.529534       -14.4093
  12   2.0000      -0.464335       -12.6352
  13   2.0000      -0.457370       -12.4457
  14   2.0000      -0.433791       -11.8041
  15   2.0000      -0.404824       -11.0158
  16   2.0000      -0.390264       -10.6196
  17   2.0000      -0.371240       -10.1019
  18   2.0000      -0.266912        -7.2630
  19   2.0000      -0.187891        -5.1128
  20   0.0000       0.020040         0.5453
  21   0.0000       0.044188         1.2024
  22   0.0000       0.058890         1.6025
  23   0.0000       0.066134         1.7996
  24   0.0000       0.089131         2.4254

MULLIKEN ATOMIC CHARGES
-----------------------
   0 C :    1.056679
   1 N :   -0.612610
   2 C :    0.527894
   3 C :    0.235204
   4 N :   -0.115243
   5 H :   -0.057960
   6 H :    0.057577
   7 H :   -0.272793
   8 H :   -0.093193
   9 H :   -0.332775
  10 H :   -0.158264
  11 H :   -0.079816
  12 H :   -0.154701
Sum of atomic charges:    0.0000000

LOEWDIN ATOMIC CHARGES
----------------------
   0 C :    0.211752
   1 N :   -0.048213
   2 C :   -0.245915
   3 C :    0.153483
   4 N :    0.178041
   5 H :   -0.013243
   6 H :    0.002312
   7 H :    0.010336
   8 H :   -0.101758
   9 H :   -0.090424
  10 H :   -0.026794
  11 H :   -0.015025
  12 H :   -0.014552

  Mayer bond orders larger than 0.100000
B(  0-C ,  1-N ) :   0.8389 B(  0-C , 10-H ) :   0.8722 B(  0-C , 11-H ) :   0.8251
B(  0-C , 12-H ) :   0.8048 B(  1-N ,  2-C ) :   0.9447 B(  1-N ,  3-C ) :   0.2379
B(  1-N ,  4-N ) :   0.1011 B(  1-N ,  7-H ) :   1.1940 B(  1-N , 10-H ) :   0.1306
B(  1-N , 11-H ) :   0.1581 B(  1-N , 12-H ) :   0.1839 B(  2-C ,  3-C ) :   1.7607
B(  2-C ,  4-N ) :   0.9063 B(  2-C ,  7-H ) :  -0.1016 B(  2-C ,  8-H ) :   0.2291
B(  3-C ,  4-N ) :   0.2352 B(  3-C ,  8-H ) :   0.5918 B(  3-C ,  9-H ) :   0.9667
B(  4-N ,  5-H ) :   0.9773 B(  4-N ,  6-H ) :   0.9845 B(  8-H ,  9-H ) :   0.1557

Dispersion correction           -0.007985249
FINAL SINGLE POINT ENERGY      -228.172053872586

DIPOLE MOMENT
-------------
                                X             Y             Z
Electronic contribution:      1.54253       0.10888      -2.36904
Nuclear contribution   :     -0.87840       0.81693       2.92070
                        -----------------------------------------
Total Dipole Moment    :      0.66413       0.92581       0.55166
                        -----------------------------------------
Magnitude (a.u.)       :      1.26590
Magnitude (Debye)      :      3.21767

Rotational constants in cm-1:     0.323282     0.134248     0.100848
Rotational constants in MHz :  9691.753357  4024.663509  3023.338831

                             ****ORCA TERMINATED NORMALLY****
TOTAL RUN TIME: 0 days 0 hours 0 minutes 14 seconds 681 msec
