                         Program Version 5.0.0 -  RELEASE  -
|  1> !PBE0 D3BJ RIJCOSX def2-SVPD def2/J TightSCF
|  2> *xyz 0 1
|  3> C          2.23447       -2.98975       -2.39762
|  4> N          2.75680       -2.94555       -3.76503
|  5> C          1.98721       -2.59045       -4.81898
|  6> N          0.74322       -3.01749       -4.91352
|  7> C          2.49964       -1.84860       -5.80324
|  8> H          3.30978       -1.29282       -5.55895
|  9> H          1.80103       -1.30430       -6.28913
| 10> H          3.71612       -2.62880       -3.82953
| 11> H          0.39583       -3.62775       -4.18502
| 12> H          0.03920       -2.45438       -5.37137
| 13> H          1.22098       -3.33251       -2.41386
| 14> H          2.27280       -2.00995       -1.96933
| 15> H          2.82798       -3.65908       -1.81056
| 16> *
| 17>
| 18> %MaxCore 64000
| 19>
| 20> %pal nprocs 4
| 21> end
| 22>
| 23> %scf
| 24>   MaxIter 150
| 25> end
| 26>
| 27>
| 28>                          ****END OF INPUT****

CARTESIAN COORDINATES (ANGSTROEM)
---------------------------------
  C      2.234470   -2.989750   -2.397620
  N      2.756800   -2.945550   -3.765030
  C      1.987210   -2.590450   -4.818980
  N      0.743220   -3.017490   -4.913520
  C      2.499640   -1.848600   -5.803240
  H      3.309780   -1.292820   -5.558950
  H      1.801030   -1.304300   -6.289130
  H      3.716120   -2.628800   -3.829530
  H      0.395830   -3.627750   -4.185020
  H      0.039200   -2.454380   -5.371370
  H      1.220980   -3.332510   -2.413860
  H      2.272800   -2.009950   -1.969330
  H      2.827980   -3.659080   -1.810560

 Total Charge           Charge          ....    0
 Multiplicity           Mult            ....    1
 Number of Electrons    NEL             ....   40
 Basis Dimension        Dim             ....  164

ORBITAL ENERGIES
----------------

  NO   OCC          E(Eh)            E(eV)
   0   2.0000     -14.401014      -391.8715
   1   2.0000     -14.400664      -391.8620
   2   2.0000     -10.282394      -279.7982
   3   2.0000     -10.265703      -279.3440
   4   2.0000     -10.146702      -276.1058
   5   2.0000      -0.990010       -26.9395
   6   2.0000      -0.905187       -24.6314
   7   2.0000      -0.759734       -20.6734
   8   2.0000      -0.689337       -18.7578
   9   2.0000      -0.618857       -16.8400
  10   2.0000      -0.556430       -15.1412
  11   2.0000      -0.507755       -13.8167
  12   2.0000      -0.498334       -13.5603
  13   2.0000      -0.464421       -12.6375
  14   2.0000      -0.420612       -11.4454
  15   2.0000      -0.405518       -11.0347
  16   2.0000      -0.384351       -10.4587
  17   2.0000      -0.374592       -10.1932
  18   2.0000      -0.269281        -7.3275
  19   2.0000      -0.183546        -4.9945
  20   0.0000       0.018034         0.4907
  21   0.0000       0.045266         1.2317
  22   0.0000       0.054453         1.4818
  23   0.0000       0.066464         1.8086
  24   0.0000       0.088573         2.4102

MULLIKEN ATOMIC CHARGES
-----------------------
   0 C :    1.037998
   1 N :   -0.717758
   2 C :    0.426915
   3 N :    0.038548
   4 C :    0.363617
   5 H :   -0.095739
   6 H :   -0.338779
   7 H :   -0.151345
   8 H :   -0.096244
   9 H :   -0.068159
  10 H :   -0.171161
  11 H :   -0.059639
  12 H :   -0.168256
Sum of atomic charges:    0.0000000

LOEWDIN ATOMIC CHARGES
----------------------
   0 C :    0.205428
   1 N :   -0.045165
   2 C :   -0.240731
   3 N :    0.188532
   4 C :    0.136607
   5 H :   -0.102922
   6 H :   -0.102931
   7 H :    0.024595
   8 H :   -0.017166
   9 H :    0.014881
  10 H :   -0.031835
  11 H :   -0.014517
  12 H :   -0.014778

  Mayer bond orders larger than 0.100000
B(  0-C ,  1-N ) :   0.8499 B(  0-C , 10-H ) :   0.8494 B(  0-C , 11-H ) :   0.8310
B(  0-C , 12-H ) :   0.8215 B(  1-N ,  2-C ) :   0.9487 B(  1-N ,  4-C ) :   0.1597
B(  1-N ,  7-H ) :   1.1874 B(  1-N , 10-H ) :   0.1378 B(  1-N , 11-H ) :   0.1178
B(  1-N , 12-H ) :   0.1914 B(  2-C ,  3-N ) :   0.9987 B(  2-C ,  4-C ) :   1.8920
B(  2-C ,  5-H ) :   0.1965 B(  2-C ,  6-H ) :   0.2151 B(  2-C ,  7-H ) :  -0.1104
B(  3-N ,  4-C ) :   0.2141 B(  3-N ,  8-H ) :   1.0163 B(  3-N ,  9-H ) :   1.1729
B(  4-C ,  5-H ) :   0.7766 B(  4-C ,  6-H ) :   0.7775 B(  5-H ,  6-H ) :   0.2528
B(  8-H ,  9-H ) :  -0.1401

Dispersion correction           -0.007959309
FINAL SINGLE POINT ENERGY      -228.167322180550

DIPOLE MOMENT
-------------
                                X             Y             Z
Electronic contribution:     -0.08284      -1.04519      -1.49816
Nuclear contribution   :     -0.52265       1.05368       2.74049
                        -----------------------------------------
Total Dipole Moment    :     -0.60549       0.00849       1.24234
                        -----------------------------------------
Magnitude (a.u.)       :      1.38206
Magnitude (Debye)      :      3.51291

Rotational constants in cm-1:     0.310125     0.138772     0.101978
Rotational constants in MHz :  9297.312912  4160.277024  3057.230514

                             ****ORCA TERMINATED NORMALLY****
TOTAL RUN TIME: 0 days 0 hours 0 minutes 14 seconds 958 msec
