                         Program Version 5.0.0 -  RELEASE  -
|  1> !PBE0 D3BJ RIJCOSX def2-SVPD def2/J TightSCF xyzfile
|  2>
|  3> *xyzfile 0 1 D3.xyz
|  4>
|  5> %MaxCore 64000
|  6>
|  7> %pal nprocs 4
|  8> end
|  9>
| 10> %scf
| 11>   MaxIter 150
| 12> end
| 13>
| 14>
| 15>                          ****END OF INPUT****

CARTESIAN COORDINATES (ANGSTROEM)
---------------------------------
  C      2.234473   -2.989754   -2.397622
  N      2.756799   -2.945553   -3.765029
  C     -1.104325    0.251374   -2.860056
  C     -0.711893    0.842517   -4.218344
  H      0.154626    1.499800   -4.130909
  H     -1.538134    1.459222   -4.582671
  C     -0.397624   -0.205875   -5.288018
  C      1.987208   -2.590451   -4.818975
  N      0.743221   -3.017493   -4.913524
  C      2.499636   -1.848598   -5.803241
  H      3.309780   -1.292818   -5.558947
  H      1.801025   -1.304298   -6.289129
  H      3.716116   -2.628797   -3.829533
  H      0.395828   -3.627747   -4.185024
  H      0.039201   -2.454383   -5.371367
  F      0.617165   -0.005348   -5.998273
  O     -1.133173   -1.221380   -5.341465
  C      2.191199   -1.619503   -1.715492
  H      2.872783   -3.666368   -1.828014
  H      1.246188   -3.447444   -2.407842
  C      1.298729   -0.554314   -2.359773
  H      1.872917   -1.787955   -0.681310
  H      3.216809   -1.238432   -1.654428
  C     -0.196255   -0.863365   -2.325763
  H      1.612531   -0.371346   -3.393065
  H      1.480944    0.388638   -1.834444
  H     -0.404105   -1.761825   -2.909448
  H     -0.490439   -1.087880   -1.294131
  H     -1.143842    1.066711   -2.129680
  H     -2.114401   -0.156834   -2.930323

 Total Charge           Charge          ....    0
 Multiplicity           Mult            ....    1
 Number of Electrons    NEL             ....  102
 Basis Dimension        Dim             ....  402

ORBITAL ENERGIES
----------------

  NO   OCC          E(Eh)            E(eV)
   0   2.0000     -24.869097      -676.7225
   1   2.0000     -19.248257      -523.7717
   2   2.0000     -14.391523      -391.6132
   3   2.0000     -14.373261      -391.1163
   4   2.0000     -10.434653      -283.9413
   5   2.0000     -10.274661      -279.5877
   6   2.0000     -10.270317      -279.4695
   7   2.0000     -10.268793      -279.4281
   8   2.0000     -10.254705      -279.0447
   9   2.0000     -10.239042      -278.6185
  10   2.0000     -10.238748      -278.6105
  11   2.0000     -10.238425      -278.6017
  12   2.0000     -10.133316      -275.7415
  13   2.0000      -1.355254       -36.8783
  14   2.0000      -1.081801       -29.4373
  15   2.0000      -0.977988       -26.6124
  16   2.0000      -0.893949       -24.3256
  17   2.0000      -0.848960       -23.1014
  18   2.0000      -0.809095       -22.0166
  19   2.0000      -0.763308       -20.7707
  20   2.0000      -0.727457       -19.7951
  21   2.0000      -0.707674       -19.2568
  22   2.0000      -0.672470       -18.2988
  23   2.0000      -0.634548       -17.2669
  24   2.0000      -0.613622       -16.6975
  25   2.0000      -0.596734       -16.2380
  26   2.0000      -0.581142       -15.8137
  27   2.0000      -0.562042       -15.2939
  28   2.0000      -0.548825       -14.9343
  29   2.0000      -0.542335       -14.7577
  30   2.0000      -0.509092       -13.8531
  31   2.0000      -0.498365       -13.5612
  32   2.0000      -0.489723       -13.3260
  33   2.0000      -0.479212       -13.0400
  34   2.0000      -0.465462       -12.6659
  35   2.0000      -0.451448       -12.2845
  36   2.0000      -0.432167       -11.7599
  37   2.0000      -0.426204       -11.5976
  38   2.0000      -0.406839       -11.0706
  39   2.0000      -0.397675       -10.8213
  40   2.0000      -0.392671       -10.6851
  41   2.0000      -0.383257       -10.4290
  42   2.0000      -0.376998       -10.2586
  43   2.0000      -0.372832       -10.1453
  44   2.0000      -0.360207        -9.8017
  45   2.0000      -0.347934        -9.4678
  46   2.0000      -0.345776        -9.4091
  47   2.0000      -0.339183        -9.2296
  48   2.0000      -0.326263        -8.8781
  49   2.0000      -0.254197        -6.9170
  50   2.0000      -0.171910        -4.6779
  51   0.0000      -0.048435        -1.3180
  52   0.0000       0.015468         0.4209
  53   0.0000       0.028482         0.7750
  54   0.0000       0.032390         0.8814
  55   0.0000       0.041951         1.1415

MULLIKEN ATOMIC CHARGES
-----------------------
   0 C :    0.754805
   1 N :   -0.636370
   2 C :    0.414427
   3 C :   -0.048173
   4 H :    0.250309
   5 H :   -0.147469
   6 C :    0.874114
   7 C :    0.434876
   8 N :    0.184006
   9 C :    0.618765
  10 H :   -0.031872
  11 H :   -0.529850
  12 H :   -0.140255
  13 H :   -0.018908
  14 H :   -0.280413
  15 F :   -0.469103
  16 O :   -0.680190
  17 C :    0.195380
  18 H :   -0.300384
  19 H :    0.039534
  20 C :   -0.223001
  21 H :    0.081513
  22 H :   -0.033901
  23 C :   -0.207284
  24 H :    0.061178
  25 H :   -0.154894
  26 H :   -0.025661
  27 H :   -0.093016
  28 H :   -0.025257
  29 H :    0.137093
Sum of atomic charges:   -0.0000000

LOEWDIN ATOMIC CHARGES
----------------------
   0 C :    0.051297
   1 N :   -0.002654
   2 C :   -0.013711
   3 C :    0.054790
   4 H :    0.029720
   5 H :    0.044595
   6 C :    0.048790
   7 C :   -0.230150
   8 N :    0.227284
   9 C :    0.147099
  10 H :   -0.095599
  11 H :   -0.142289
  12 H :    0.025723
  13 H :   -0.008321
  14 H :   -0.086451
  15 F :   -0.035599
  16 O :   -0.126710
  17 C :   -0.020488
  18 H :    0.018656
  19 H :    0.003141
  20 C :   -0.026741
  21 H :    0.022462
  22 H :    0.023392
  23 C :   -0.028197
  24 H :    0.007444
  25 H :    0.027147
  26 H :   -0.005244
  27 H :    0.030081
  28 H :    0.029725
  29 H :    0.030807

  Mayer bond orders larger than 0.100000
B(  0-C ,  1-N ) :   0.8853 B(  0-C , 12-H ) :  -0.1118 B(  0-C , 17-C ) :   1.1311
B(  0-C , 18-H ) :   0.8425 B(  0-C , 19-H ) :   0.7926 B(  0-C , 21-H ) :   0.1261
B(  0-C , 22-H ) :   0.1358 B(  1-N ,  7-C ) :   0.9058 B(  1-N ,  9-C ) :   0.1963
B(  1-N , 12-H ) :   1.1653 B(  1-N , 18-H ) :   0.2243 B(  1-N , 19-H ) :   0.1264
B(  2-C ,  3-C ) :   1.2300 B(  2-C ,  5-H ) :   0.1614 B(  2-C , 23-C ) :   1.2837
B(  2-C , 28-H ) :   0.8238 B(  2-C , 29-H ) :   0.6617 B(  3-C ,  4-H ) :   0.8112
B(  3-C ,  5-H ) :   0.8252 B(  3-C ,  6-C ) :   1.2019 B(  3-C , 28-H ) :   0.1274
B(  4-H ,  6-C ) :   0.1426 B(  5-H ,  6-C ) :   0.1760 B(  6-C , 15-F ) :   0.5596
B(  6-C , 16-O ) :   1.5016 B(  7-C ,  8-N ) :   0.8819 B(  7-C ,  9-C ) :   1.9531
B(  7-C , 10-H ) :   0.2969 B(  7-C , 11-H ) :   0.3142 B(  7-C , 12-H ) :  -0.1305
B(  8-N ,  9-C ) :   0.2264 B(  8-N , 13-H ) :   0.9333 B(  8-N , 14-H ) :   1.0361
B(  9-C , 10-H ) :   0.5352 B(  9-C , 11-H ) :   0.3075 B( 10-H , 11-H ) :   0.2826
B( 11-H , 15-F ) :   0.1738 B( 13-H , 14-H ) :  -0.2044 B( 14-H , 16-O ) :   0.1449
B( 17-C , 18-H ) :   0.1003 B( 17-C , 19-H ) :   0.1146 B( 17-C , 20-C ) :   1.2603
B( 17-C , 21-H ) :   0.8316 B( 17-C , 22-H ) :   0.7562 B( 17-C , 24-H ) :   0.1049
B( 18-H , 19-H ) :  -0.1154 B( 20-C , 21-H ) :   0.1517 B( 20-C , 22-H ) :   0.2189
B( 20-C , 23-C ) :   1.3015 B( 20-C , 24-H ) :   0.9348 B( 20-C , 25-H ) :   0.8874
B( 20-C , 26-H ) :   0.1281 B( 20-C , 27-H ) :   0.1976 B( 23-C , 24-H ) :   0.1080
B( 23-C , 25-H ) :   0.1810 B( 23-C , 26-H ) :   0.9620 B( 23-C , 27-H ) :   0.8139
B( 23-C , 28-H ) :   0.1595 B( 23-C , 29-H ) :   0.2178 B( 26-H , 27-H ) :   0.1000

Dispersion correction           -0.030689422
FINAL SINGLE POINT ENERGY      -636.584877586212

DIPOLE MOMENT
-------------
                                X             Y             Z
Electronic contribution:     -2.86586       1.34862     -12.72923
Nuclear contribution   :      2.27881      -0.10762      14.43322
                        -----------------------------------------
Total Dipole Moment    :     -0.58705       1.24100       1.70398
                        -----------------------------------------
Magnitude (a.u.)       :      2.18821
Magnitude (Debye)      :      5.56199

Rotational constants in cm-1:     0.033336     0.023673     0.017062
Rotational constants in MHz :   999.388459   709.685364   511.514310

                             ****ORCA TERMINATED NORMALLY****
TOTAL RUN TIME: 0 days 0 hours 2 minutes 18 seconds 537 msec
