                         Program Version 5.0.0 -  RELEASE  -
|  1> !wB97X-D3 RIJCOSX def2-SVP def2/J TightSCF
|  2> *xyz -1 1
|  3> C         -1.36353       -1.98134       -2.29361
|  4> O         -0.35039       -2.74969       -1.79601
|  5> H         -2.22523       -2.59288       -2.46214
|  6> H         -1.05452       -1.53818       -3.21720
|  7> H         -1.60477       -1.21086       -1.59143
|  8> *
|  9>
| 10> %MaxCore 64000
| 11> %pal nprocs 18
| 12> end
| 13>
| 14> %scf
| 15>   MaxIter 150
| 16> end
| 17>
| 18>
| 19>                          ****END OF INPUT****

CARTESIAN COORDINATES (ANGSTROEM)
---------------------------------
  C     -1.363530   -1.981340   -2.293610
  O     -0.350390   -2.749690   -1.796010
  H     -2.225230   -2.592880   -2.462140
  H     -1.054520   -1.538180   -3.217200
  H     -1.604770   -1.210860   -1.591430

 Total Charge           Charge          ....   -1
 Multiplicity           Mult            ....    1
 Number of Electrons    NEL             ....   18
 Basis Dimension        Dim             ....   43

ORBITAL ENERGIES
----------------

  NO   OCC          E(Eh)            E(eV)
   0   2.0000     -18.809464      -511.8315
   1   2.0000     -10.044155      -273.3153
   2   2.0000      -0.707908       -19.2631
   3   2.0000      -0.468352       -12.7445
   4   2.0000      -0.267365        -7.2754
   5   2.0000      -0.267343        -7.2748
   6   2.0000      -0.138097        -3.7578
   7   2.0000       0.019767         0.5379
   8   2.0000       0.019786         0.5384
   9   0.0000       0.370673        10.0865
  10   0.0000       0.445681        12.1276
  11   0.0000       0.445685        12.1277
  12   0.0000       0.538465        14.6524
  13   0.0000       0.815573        22.1929

MULLIKEN ATOMIC CHARGES
-----------------------
   0 C :    0.299509
   1 O :   -0.813208
   2 H :   -0.162113
   3 H :   -0.162063
   4 H :   -0.162125
Sum of atomic charges:   -1.0000000

LOEWDIN ATOMIC CHARGES
----------------------
   0 C :   -0.011021
   1 O :   -0.740678
   2 H :   -0.082772
   3 H :   -0.082761
   4 H :   -0.082769

  Mayer bond orders larger than 0.100000
B(  0-C ,  1-O ) :   1.3991 B(  0-C ,  2-H ) :   0.9132 B(  0-C ,  3-H ) :   0.9132
B(  0-C ,  4-H ) :   0.9131

Dispersion correction           -0.000089283
FINAL SINGLE POINT ENERGY      -114.930118246227

DIPOLE MOMENT
-------------
                                X             Y             Z
Electronic contribution:      1.58722      -1.20384       0.77956
Nuclear contribution   :     -2.13467       1.61890      -1.04844
                        -----------------------------------------
Total Dipole Moment    :     -0.54745       0.41506      -0.26888
                        -----------------------------------------
Magnitude (a.u.)       :      0.73775
Magnitude (Debye)      :      1.87520

Rotational constants in cm-1:     5.477725     0.944113     0.944112
Rotational constants in MHz : 164218.064700 28303.798445 28303.757130

                             ****ORCA TERMINATED NORMALLY****
TOTAL RUN TIME: 0 days 0 hours 0 minutes 3 seconds 222 msec
