                         Program Version 5.0.0 -  RELEASE  -
|  1> !wB97X-D3 RIJCOSX def2-SVP def2/J TightSCF
|  2> *xyz 1 1
|  3> C          2.20996       -2.81239       -3.66571
|  4> C          2.48901       -1.66851       -2.73754
|  5> N          3.59631       -0.94761       -2.95225
|  6> N          1.66394       -1.41369       -1.77781
|  7> H          0.81164       -1.96318       -1.70275
|  8> H          1.84550       -0.63508       -1.15875
|  9> H          4.20535       -1.17600       -3.73383
| 10> H          3.81723       -0.12585       -2.40604
| 11> H          2.99011       -2.87840       -4.39503
| 12> H          1.27381       -2.65174       -4.15838
| 13> H          2.16680       -3.72339       -3.10614
| 14> *
| 15>
| 16> %MaxCore 64000
| 17> %pal nprocs 18
| 18> end
| 19>
| 20> %scf
| 21>   MaxIter 150
| 22> end
| 23>
| 24>
| 25>                          ****END OF INPUT****

CARTESIAN COORDINATES (ANGSTROEM)
---------------------------------
  C      2.209960   -2.812390   -3.665710
  C      2.489010   -1.668510   -2.737540
  N      3.596310   -0.947610   -2.952250
  N      1.663940   -1.413690   -1.777810
  H      0.811640   -1.963180   -1.702750
  H      1.845500   -0.635080   -1.158750
  H      4.205350   -1.176000   -3.733830
  H      3.817230   -0.125850   -2.406040
  H      2.990110   -2.878400   -4.395030
  H      1.273810   -2.651740   -4.158380
  H      2.166800   -3.723390   -3.106140

 Total Charge           Charge          ....    1
 Multiplicity           Mult            ....    1
 Number of Electrons    NEL             ....   32
 Basis Dimension        Dim             ....   91

ORBITAL ENERGIES
----------------

  NO   OCC          E(Eh)            E(eV)
   0   2.0000     -14.692135      -399.7933
   1   2.0000     -14.685423      -399.6107
   2   2.0000     -10.623331      -289.0755
   3   2.0000     -10.487717      -285.3853
   4   2.0000      -1.321776       -35.9673
   5   2.0000      -1.222142       -33.2562
   6   2.0000      -1.064595       -28.9691
   7   2.0000      -0.948324       -25.8052
   8   2.0000      -0.887534       -24.1510
   9   2.0000      -0.873402       -23.7665
  10   2.0000      -0.809666       -22.0321
  11   2.0000      -0.766372       -20.8540
  12   2.0000      -0.714203       -19.4344
  13   2.0000      -0.699760       -19.0414
  14   2.0000      -0.675074       -18.3697
  15   2.0000      -0.592546       -16.1240
  16   0.0000      -0.123724        -3.3667
  17   0.0000      -0.059426        -1.6171
  18   0.0000      -0.014288        -0.3888
  19   0.0000      -0.005708        -0.1553
  20   0.0000       0.015314         0.4167

MULLIKEN ATOMIC CHARGES
-----------------------
   0 C :    0.030588
   1 C :   -0.072658
   2 N :   -0.057073
   3 N :    0.007612
   4 H :    0.203352
   5 H :    0.190151
   6 H :    0.201194
   7 H :    0.185312
   8 H :    0.075269
   9 H :    0.117587
  10 H :    0.118666
Sum of atomic charges:    1.0000000

LOEWDIN ATOMIC CHARGES
----------------------
   0 C :   -0.028045
   1 C :    0.159245
   2 N :    0.075294
   3 N :    0.106255
   4 H :    0.130959
   5 H :    0.118653
   6 H :    0.124345
   7 H :    0.112889
   8 H :    0.056919
   9 H :    0.071579
  10 H :    0.071907

  Mayer bond orders larger than 0.100000
B(  0-C ,  1-C ) :   1.0407 B(  0-C ,  8-H ) :   0.9493 B(  0-C ,  9-H ) :   0.9436
B(  0-C , 10-H ) :   0.9441 B(  1-C ,  2-N ) :   1.4845 B(  1-C ,  3-N ) :   1.5350
B(  2-N ,  6-H ) :   0.9182 B(  2-N ,  7-H ) :   0.9318 B(  3-N ,  4-H ) :   0.9181
B(  3-N ,  5-H ) :   0.9253

Dispersion correction           -0.001668903
FINAL SINGLE POINT ENERGY      -189.528443570974

DIPOLE MOMENT
-------------
                                X             Y             Z
Electronic contribution:      0.30639       1.62515       1.45119
Nuclear contribution   :     -0.32363      -1.20411      -1.15396
                        -----------------------------------------
Total Dipole Moment    :     -0.01724       0.42104       0.29723
                        -----------------------------------------
Magnitude (a.u.)       :      0.51567
Magnitude (Debye)      :      1.31073

Rotational constants in cm-1:     0.327805     0.304052     0.162439
Rotational constants in MHz :  9827.347355  9115.244333  4869.808750

                             ****ORCA TERMINATED NORMALLY****
TOTAL RUN TIME: 0 days 0 hours 0 minutes 4 seconds 784 msec
