                         Program Version 5.0.0 -  RELEASE  -
|  1> !wB97X-D3 RIJCOSX def2-SVP def2/J TightSCF
|  2> *xyz 0 1
|  3> C         -1.36353       -1.98134       -2.29361
|  4> F         -0.35039       -2.74969       -1.79601
|  5> H         -2.22523       -2.59288       -2.46214
|  6> H         -1.05452       -1.53818       -3.21720
|  7> H         -1.60477       -1.21086       -1.59143
|  8> *
|  9>
| 10> %MaxCore 64000
| 11> %pal nprocs 18
| 12> end
| 13>
| 14> %scf
| 15>   MaxIter 150
| 16> end
| 17>
| 18>
| 19>                          ****END OF INPUT****

CARTESIAN COORDINATES (ANGSTROEM)
---------------------------------
  C     -1.363530   -1.981340   -2.293610
  F     -0.350390   -2.749690   -1.796010
  H     -2.225230   -2.592880   -2.462140
  H     -1.054520   -1.538180   -3.217200
  H     -1.604770   -1.210860   -1.591430

 Total Charge           Charge          ....    0
 Multiplicity           Mult            ....    1
 Number of Electrons    NEL             ....   18
 Basis Dimension        Dim             ....   43

ORBITAL ENERGIES
----------------

  NO   OCC          E(Eh)            E(eV)
   0   2.0000     -24.759189      -673.7318
   1   2.0000     -10.351163      -281.6695
   2   2.0000      -1.279748       -34.8237
   3   2.0000      -0.806313       -21.9409
   4   2.0000      -0.583982       -15.8910
   5   2.0000      -0.583877       -15.8881
   6   2.0000      -0.583868       -15.8879
   7   2.0000      -0.435141       -11.8408
   8   2.0000      -0.435136       -11.8406
   9   0.0000       0.165469         4.5026
  10   0.0000       0.220815         6.0087
  11   0.0000       0.226124         6.1531
  12   0.0000       0.226131         6.1533
  13   0.0000       0.545084        14.8325

MULLIKEN ATOMIC CHARGES
-----------------------
   0 C :    0.228436
   1 F :   -0.297747
   2 H :    0.023108
   3 H :    0.023153
   4 H :    0.023050
Sum of atomic charges:    0.0000000

LOEWDIN ATOMIC CHARGES
----------------------
   0 C :    0.123952
   1 F :   -0.153619
   2 H :    0.009890
   3 H :    0.009901
   4 H :    0.009876

  Mayer bond orders larger than 0.100000
B(  0-C ,  1-F ) :   0.9732 B(  0-C ,  2-H ) :   0.9827 B(  0-C ,  3-H ) :   0.9827
B(  0-C ,  4-H ) :   0.9827

Dispersion correction           -0.000128134
FINAL SINGLE POINT ENERGY      -139.592142913053

DIPOLE MOMENT
-------------
                                X             Y             Z
Electronic contribution:      2.17446      -1.64919       1.06803
Nuclear contribution   :     -2.70693       2.05289      -1.32950
                        -----------------------------------------
Total Dipole Moment    :     -0.53247       0.40370      -0.26147
                        -----------------------------------------
Magnitude (a.u.)       :      0.71755
Magnitude (Debye)      :      1.82386

Rotational constants in cm-1:     5.477725     0.878859     0.878857
Rotational constants in MHz : 164218.064700 26347.517988 26347.482187

                             ****ORCA TERMINATED NORMALLY****
TOTAL RUN TIME: 0 days 0 hours 0 minutes 3 seconds 41 msec
