                         Program Version 5.0.0 -  RELEASE  -
|  1> !wB97X-D3 RIJCOSX def2-SVP def2/J TightSCF
|  2> *xyz 0 1
|  3> C          2.20996       -2.81239       -3.66571
|  4> C          2.48901       -1.66851       -2.73754
|  5> C          3.59631       -0.94761       -2.95225
|  6> N          1.66394       -1.41369       -1.77781
|  7> H          0.81164       -1.96318       -1.70275
|  8> H          1.84550       -0.63508       -1.15875
|  9> H          4.20535       -1.17600       -3.73383
| 10> H          3.81723       -0.12585       -2.40604
| 11> H          2.99011       -2.87840       -4.39503
| 12> H          1.27381       -2.65174       -4.15838
| 13> H          2.16680       -3.72339       -3.10614
| 14> *
| 15>
| 16> %MaxCore 64000
| 17> %pal nprocs 18
| 18> end
| 19>
| 20> %scf
| 21>   MaxIter 150
| 22> end
| 23>
| 24>
| 25>                          ****END OF INPUT****

CARTESIAN COORDINATES (ANGSTROEM)
---------------------------------
  C      2.209960   -2.812390   -3.665710
  C      2.489010   -1.668510   -2.737540
  C      3.596310   -0.947610   -2.952250
  N      1.663940   -1.413690   -1.777810
  H      0.811640   -1.963180   -1.702750
  H      1.845500   -0.635080   -1.158750
  H      4.205350   -1.176000   -3.733830
  H      3.817230   -0.125850   -2.406040
  H      2.990110   -2.878400   -4.395030
  H      1.273810   -2.651740   -4.158380
  H      2.166800   -3.723390   -3.106140

 Total Charge           Charge          ....    0
 Multiplicity           Mult            ....    1
 Number of Electrons    NEL             ....   32
 Basis Dimension        Dim             ....   91

ORBITAL ENERGIES
----------------

  NO   OCC          E(Eh)            E(eV)
   0   2.0000     -14.434150      -392.7732
   1   2.0000     -10.307066      -280.4695
   2   2.0000     -10.277044      -279.6526
   3   2.0000     -10.214536      -277.9517
   4   2.0000      -1.041390       -28.3377
   5   2.0000      -0.859825       -23.3970
   6   2.0000      -0.787378       -21.4256
   7   2.0000      -0.674117       -18.3437
   8   2.0000      -0.631146       -17.1744
   9   2.0000      -0.568470       -15.4688
  10   2.0000      -0.531428       -14.4609
  11   2.0000      -0.490758       -13.3542
  12   2.0000      -0.482693       -13.1348
  13   2.0000      -0.439251       -11.9526
  14   2.0000      -0.432889       -11.7795
  15   2.0000      -0.267069        -7.2673
  16   0.0000       0.139810         3.8044
  17   0.0000       0.151608         4.1255
  18   0.0000       0.185434         5.0459
  19   0.0000       0.199777         5.4362
  20   0.0000       0.214096         5.8259

MULLIKEN ATOMIC CHARGES
-----------------------
   0 C :    0.071236
   1 C :   -0.191543
   2 C :   -0.086045
   3 N :   -0.077580
   4 H :    0.122926
   5 H :    0.130254
   6 H :   -0.022296
   7 H :   -0.037242
   8 H :    0.028807
   9 H :    0.030417
  10 H :    0.031064
Sum of atomic charges:   -0.0000000

LOEWDIN ATOMIC CHARGES
----------------------
   0 C :   -0.042879
   1 C :    0.000493
   2 C :   -0.196554
   3 N :   -0.002185
   4 H :    0.077279
   5 H :    0.082580
   6 H :   -0.000602
   7 H :   -0.009346
   8 H :    0.036915
   9 H :    0.027138
  10 H :    0.027162

  Mayer bond orders larger than 0.100000
B(  0-C ,  1-C ) :   1.0328 B(  0-C ,  8-H ) :   0.9608 B(  0-C ,  9-H ) :   0.9584
B(  0-C , 10-H ) :   0.9585 B(  1-C ,  2-C ) :   1.8410 B(  1-C ,  3-N ) :   1.2792
B(  2-C ,  6-H ) :   0.9497 B(  2-C ,  7-H ) :   0.9670 B(  3-N ,  4-H ) :   0.9524
B(  3-N ,  5-H ) :   0.9473

Dispersion correction           -0.001680036
FINAL SINGLE POINT ENERGY      -173.071345639820

DIPOLE MOMENT
-------------
                                X             Y             Z
Electronic contribution:     -0.72984       0.83327       1.56358
Nuclear contribution   :     -0.07639      -1.03653      -1.19368
                        -----------------------------------------
Total Dipole Moment    :     -0.80623      -0.20326       0.36990
                        -----------------------------------------
Magnitude (a.u.)       :      0.91003
Magnitude (Debye)      :      2.31310

Rotational constants in cm-1:     0.347569     0.308531     0.168494
Rotational constants in MHz : 10419.863808  9249.512495  5051.317883

                             ****ORCA TERMINATED NORMALLY****
TOTAL RUN TIME: 0 days 0 hours 0 minutes 6 seconds 251 msec
