                         Program Version 5.0.0 -  RELEASE  -
|  1> !wB97X-D3 RIJCOSX def2-SVP def2/J TightSCF
|  2> *xyz 0 1
|  3> C          2.20996       -2.81239       -3.66571
|  4> C          2.48901       -1.66851       -2.73754
|  5> N          3.59631       -0.94761       -2.95225
|  6> C          1.66394       -1.41369       -1.77781
|  7> H          0.81164       -1.96318       -1.70275
|  8> H          1.84550       -0.63508       -1.15875
|  9> H          4.20535       -1.17600       -3.73383
| 10> H          3.81723       -0.12585       -2.40604
| 11> H          2.99011       -2.87840       -4.39503
| 12> H          1.27381       -2.65174       -4.15838
| 13> H          2.16680       -3.72339       -3.10614
| 14> *
| 15>
| 16> %MaxCore 64000
| 17> %pal nprocs 18
| 18> end
| 19>
| 20> %scf
| 21>   MaxIter 150
| 22> end
| 23>
| 24>
| 25>                          ****END OF INPUT****

CARTESIAN COORDINATES (ANGSTROEM)
---------------------------------
  C      2.209960   -2.812390   -3.665710
  C      2.489010   -1.668510   -2.737540
  N      3.596310   -0.947610   -2.952250
  C      1.663940   -1.413690   -1.777810
  H      0.811640   -1.963180   -1.702750
  H      1.845500   -0.635080   -1.158750
  H      4.205350   -1.176000   -3.733830
  H      3.817230   -0.125850   -2.406040
  H      2.990110   -2.878400   -4.395030
  H      1.273810   -2.651740   -4.158380
  H      2.166800   -3.723390   -3.106140

 Total Charge           Charge          ....    0
 Multiplicity           Mult            ....    1
 Number of Electrons    NEL             ....   32
 Basis Dimension        Dim             ....   91

ORBITAL ENERGIES
----------------

  NO   OCC          E(Eh)            E(eV)
   0   2.0000     -14.427778      -392.5998
   1   2.0000     -10.303335      -280.3680
   2   2.0000     -10.276738      -279.6443
   3   2.0000     -10.212054      -277.8841
   4   2.0000      -1.022293       -27.8180
   5   2.0000      -0.864187       -23.5157
   6   2.0000      -0.793930       -21.6039
   7   2.0000      -0.665502       -18.1092
   8   2.0000      -0.617268       -16.7967
   9   2.0000      -0.570580       -15.5263
  10   2.0000      -0.527500       -14.3540
  11   2.0000      -0.491962       -13.3870
  12   2.0000      -0.486338       -13.2339
  13   2.0000      -0.443149       -12.0587
  14   2.0000      -0.424648       -11.5553
  15   2.0000      -0.273094        -7.4313
  16   0.0000       0.141918         3.8618
  17   0.0000       0.149658         4.0724
  18   0.0000       0.188191         5.1209
  19   0.0000       0.195561         5.3215
  20   0.0000       0.227809         6.1990

MULLIKEN ATOMIC CHARGES
-----------------------
   0 C :    0.066958
   1 C :   -0.148628
   2 N :   -0.140352
   3 C :   -0.063405
   4 H :   -0.023951
   5 H :   -0.035391
   6 H :    0.120330
   7 H :    0.123817
   8 H :   -0.000019
   9 H :    0.049961
  10 H :    0.050680
Sum of atomic charges:   -0.0000000

LOEWDIN ATOMIC CHARGES
----------------------
   0 C :   -0.042903
   1 C :    0.008747
   2 N :   -0.030518
   3 C :   -0.177426
   4 H :    0.003840
   5 H :   -0.004036
   6 H :    0.070770
   7 H :    0.075813
   8 H :    0.018148
   9 H :    0.038695
  10 H :    0.038870

  Mayer bond orders larger than 0.100000
B(  0-C ,  1-C ) :   1.0087 B(  0-C ,  8-H ) :   0.9626 B(  0-C ,  9-H ) :   0.9645
B(  0-C , 10-H ) :   0.9656 B(  1-C ,  2-N ) :   1.2276 B(  1-C ,  3-C ) :   1.9011
B(  2-N ,  6-H ) :   0.9531 B(  2-N ,  7-H ) :   0.9549 B(  3-C ,  4-H ) :   0.9511
B(  3-C ,  5-H ) :   0.9582

Dispersion correction           -0.001666506
FINAL SINGLE POINT ENERGY      -173.070933758239

DIPOLE MOMENT
-------------
                                X             Y             Z
Electronic contribution:      1.09224       1.24686       0.42701
Nuclear contribution   :     -0.50975      -1.14105      -0.93029
                        -----------------------------------------
Total Dipole Moment    :      0.58249       0.10580      -0.50328
                        -----------------------------------------
Magnitude (a.u.)       :      0.77703
Magnitude (Debye)      :      1.97506

Rotational constants in cm-1:     0.350603     0.305690     0.168346
Rotational constants in MHz : 10510.799277  9164.357607  5046.873498

                             ****ORCA TERMINATED NORMALLY****
TOTAL RUN TIME: 0 days 0 hours 0 minutes 4 seconds 715 msec
