                         Program Version 5.0.0 -  RELEASE  -
|  1> !wB97X-D3 RIJCOSX def2-SVP def2/J TightSCF xyzfile
|  2>
|  3> *xyzfile 0 1 D2.xyz
|  4>
|  5> %MaxCore 64000
|  6>
|  7> %pal nprocs 18
|  8> end
|  9>
| 10> %scf
| 11>   MaxIter 150
| 12> end
| 13>
| 14>
| 15>                          ****END OF INPUT****

CARTESIAN COORDINATES (ANGSTROEM)
---------------------------------
  C      1.647032   -2.345276   -5.020411
  C      0.217628   -1.814022   -4.924389
  C      2.209964   -2.812388   -3.665708
  C     -0.811356   -2.908780   -4.607625
  C     -1.916579   -2.485081   -3.643665
  H     -2.554525   -1.712428   -4.091993
  C     -1.363531   -1.981337   -2.293608
  H     -2.553448   -3.355667   -3.458815
  F     -0.350395   -2.749689   -1.796006
  H      2.308385   -1.588704   -5.457128
  H      1.674286   -3.203478   -5.697392
  C      2.489007   -1.668510   -2.737538
  N      3.596314   -0.947608   -2.952247
  C      1.663936   -1.413685   -1.777806
  H      0.811642   -1.963178   -1.702755
  H      1.845503   -0.635078   -1.158749
  H      4.205351   -1.176003   -3.733825
  H      3.817230   -0.125845   -2.406041
  H     -1.244829   -3.280884   -5.541040
  H     -0.306331   -3.757746   -4.142734
  H     -0.036244   -1.318555   -5.865303
  H      0.175004   -1.035382   -4.158095
  H      3.143106   -3.362803   -3.811524
  H      1.487683   -3.458935   -3.165211
  H     -2.226220   -1.908386   -1.602039
  H     -1.051353   -0.915671   -2.443331

 Total Charge           Charge          ....    0
 Multiplicity           Mult            ....    1
 Number of Electrons    NEL             ....   80
 Basis Dimension        Dim             ....  220

ORBITAL ENERGIES
----------------

  NO   OCC          E(Eh)            E(eV)
   0   2.0000     -24.792058      -674.6262
   1   2.0000     -14.413933      -392.2231
   2   2.0000     -10.368573      -282.1432
   3   2.0000     -10.294133      -280.1176
   4   2.0000     -10.283854      -279.8379
   5   2.0000     -10.282644      -279.8050
   6   2.0000     -10.279469      -279.7186
   7   2.0000     -10.275619      -279.6138
   8   2.0000     -10.272163      -279.5198
   9   2.0000     -10.181938      -277.0646
  10   2.0000      -1.320186       -35.9241
  11   2.0000      -1.009170       -27.4609
  12   2.0000      -0.922661       -25.1069
  13   2.0000      -0.885046       -24.0833
  14   2.0000      -0.831823       -22.6351
  15   2.0000      -0.805545       -21.9200
  16   2.0000      -0.761647       -20.7255
  17   2.0000      -0.706312       -19.2197
  18   2.0000      -0.672336       -18.2952
  19   2.0000      -0.666821       -18.1451
  20   2.0000      -0.626359       -17.0441
  21   2.0000      -0.613691       -16.6994
  22   2.0000      -0.595959       -16.2169
  23   2.0000      -0.586521       -15.9601
  24   2.0000      -0.560117       -15.2416
  25   2.0000      -0.544215       -14.8088
  26   2.0000      -0.539022       -14.6675
  27   2.0000      -0.527800       -14.3622
  28   2.0000      -0.497695       -13.5430
  29   2.0000      -0.477767       -13.0007
  30   2.0000      -0.462605       -12.5881
  31   2.0000      -0.450358       -12.2549
  32   2.0000      -0.443537       -12.0692
  33   2.0000      -0.429674       -11.6920
  34   2.0000      -0.418052       -11.3758
  35   2.0000      -0.414630       -11.2827
  36   2.0000      -0.402333       -10.9480
  37   2.0000      -0.396622       -10.7926
  38   2.0000      -0.382225       -10.4009
  39   2.0000      -0.259190        -7.0529
  40   0.0000       0.140905         3.8342
  41   0.0000       0.145013         3.9460
  42   0.0000       0.156709         4.2643
  43   0.0000       0.177237         4.8229
  44   0.0000       0.182123         4.9558

MULLIKEN ATOMIC CHARGES
-----------------------
   0 C :   -0.025169
   1 C :   -0.024926
   2 C :    0.046330
   3 C :   -0.056952
   4 C :   -0.099797
   5 H :    0.036224
   6 C :    0.231191
   7 H :    0.035231
   8 F :   -0.215070
   9 H :    0.008536
  10 H :    0.018599
  11 C :   -0.125560
  12 N :   -0.128126
  13 C :   -0.130471
  14 H :    0.046427
  15 H :   -0.058197
  16 H :    0.111828
  17 H :    0.119360
  18 H :    0.027340
  19 H :    0.030937
  20 H :    0.018359
  21 H :    0.020139
  22 H :    0.013950
  23 H :    0.023919
  24 H :    0.036105
  25 H :    0.039794
Sum of atomic charges:   -0.0000000

LOEWDIN ATOMIC CHARGES
----------------------
   0 C :   -0.033050
   1 C :   -0.042765
   2 C :   -0.032312
   3 C :   -0.043420
   4 C :   -0.060481
   5 H :    0.031863
   6 C :    0.113631
   7 H :    0.025883
   8 F :   -0.039106
   9 H :    0.017525
  10 H :    0.019357
  11 C :    0.000299
  12 N :   -0.035347
  13 C :   -0.177465
  14 H :   -0.047013
  15 H :   -0.014191
  16 H :    0.066292
  17 H :    0.072844
  18 H :    0.025966
  19 H :    0.021476
  20 H :    0.022571
  21 H :    0.019960
  22 H :    0.021417
  23 H :    0.028449
  24 H :    0.018751
  25 H :    0.018868

  Mayer bond orders larger than 0.100000
B(  0-C ,  1-C ) :   1.0752 B(  0-C ,  2-C ) :   1.0596 B(  0-C ,  9-H ) :   0.9471
B(  0-C , 10-H ) :   0.9523 B(  1-C ,  3-C ) :   1.0325 B(  1-C , 20-H ) :   0.9454
B(  1-C , 21-H ) :   0.9561 B(  2-C , 11-C ) :   1.0097 B(  2-C , 22-H ) :   0.9337
B(  2-C , 23-H ) :   0.9350 B(  3-C ,  4-C ) :   1.0690 B(  3-C , 18-H ) :   0.9482
B(  3-C , 19-H ) :   0.9603 B(  4-C ,  5-H ) :   0.9443 B(  4-C ,  6-C ) :   1.0625
B(  4-C ,  7-H ) :   0.9519 B(  6-C ,  8-F ) :   0.9185 B(  6-C , 24-H ) :   0.9612
B(  6-C , 25-H ) :   0.9498 B(  8-F , 14-H ) :   0.1389 B( 11-C , 12-N ) :   1.2156
B( 11-C , 13-C ) :   1.9082 B( 12-N , 16-H ) :   0.9528 B( 12-N , 17-H ) :   0.9548
B( 13-C , 14-H ) :   0.8872 B( 13-C , 15-H ) :   0.9476

Dispersion correction           -0.010964995
FINAL SINGLE POINT ENERGY      -468.547488705852

DIPOLE MOMENT
-------------
                                X             Y             Z
Electronic contribution:      0.45286      -1.29970       6.08614
Nuclear contribution   :     -0.73748       1.64619      -6.72655
                        -----------------------------------------
Total Dipole Moment    :     -0.28463       0.34649      -0.64041
                        -----------------------------------------
Magnitude (a.u.)       :      0.78179
Magnitude (Debye)      :      1.98716

Rotational constants in cm-1:     0.063169     0.031711     0.023958
Rotational constants in MHz :  1893.751676   950.657187   718.229932

                             ****ORCA TERMINATED NORMALLY****
TOTAL RUN TIME: 0 days 0 hours 0 minutes 20 seconds 340 msec
