                         Program Version 5.0.0 -  RELEASE  -
|  1> !LC-PBE RIJCOSX def2-SVPD def2/J TightSCF
|  2> *xyz -1 1
|  3> C          0.69721        3.22791       -0.52513
|  4> O          1.48929        2.37470        0.19919
|  5> H          0.26505        2.70007       -1.34946
|  6> H          1.28994        4.03943       -0.89255
|  7> H         -0.08148        3.61005        0.10138
|  8> *
|  9>
| 10> %MaxCore 64000
| 11> %pal nprocs 8
| 12> end
| 13>
| 14> %scf
| 15>   MaxIter 150
| 16> end
| 17>
| 18>
| 19>                          ****END OF INPUT****

CARTESIAN COORDINATES (ANGSTROEM)
---------------------------------
  C      0.697210    3.227910   -0.525130
  O      1.489290    2.374700    0.199190
  H      0.265050    2.700070   -1.349460
  H      1.289940    4.039430   -0.892550
  H     -0.081480    3.610050    0.101380

 Total Charge           Charge          ....   -1
 Multiplicity           Mult            ....    1
 Number of Electrons    NEL             ....   18
 Basis Dimension        Dim             ....   67

ORBITAL ENERGIES
----------------

  NO   OCC          E(Eh)            E(eV)
   0   2.0000     -18.629225      -506.9270
   1   2.0000      -9.909653      -269.6554
   2   2.0000      -0.811261       -22.0755
   3   2.0000      -0.548711       -14.9312
   4   2.0000      -0.337940        -9.1958
   5   2.0000      -0.337938        -9.1958
   6   2.0000      -0.231470        -6.2986
   7   2.0000      -0.074665        -2.0317
   8   2.0000      -0.074658        -2.0315
   9   0.0000       0.262414         7.1406
  10   0.0000       0.340492         9.2653
  11   0.0000       0.340494         9.2653
  12   0.0000       0.350103         9.5268
  13   0.0000       0.387586        10.5468

MULLIKEN ATOMIC CHARGES
-----------------------
   0 C :    0.534597
   1 O :   -1.002569
   2 H :   -0.177439
   3 H :   -0.177329
   4 H :   -0.177260
Sum of atomic charges:   -1.0000000

LOEWDIN ATOMIC CHARGES
----------------------
   0 C :   -0.150516
   1 O :   -0.661628
   2 H :   -0.062624
   3 H :   -0.062621
   4 H :   -0.062611

  Mayer bond orders larger than 0.100000
B(  0-C ,  1-O ) :   1.2893 B(  0-C ,  2-H ) :   0.9441 B(  0-C ,  3-H ) :   0.9440
B(  0-C ,  4-H ) :   0.9440

FINAL SINGLE POINT ENERGY      -114.684599232267

DIPOLE MOMENT
-------------
                                X             Y             Z
Electronic contribution:      1.00919      -1.08709       0.92274
Nuclear contribution   :     -1.66672       1.79535      -1.52413
                        -----------------------------------------
Total Dipole Moment    :     -0.65752       0.70825      -0.60139
                        -----------------------------------------
Magnitude (a.u.)       :      1.13826
Magnitude (Debye)      :      2.89322

Rotational constants in cm-1:     5.477728     0.937442     0.937441
Rotational constants in MHz : 164218.159175 28103.818547 28103.787504

                             ****ORCA TERMINATED NORMALLY****
TOTAL RUN TIME: 0 days 0 hours 0 minutes 2 seconds 730 msec
