                         Program Version 5.0.0 -  RELEASE  -
|  1> !LC-PBE RIJCOSX def2-SVPD def2/J TightSCF
|  2> *xyz 1 1
|  3> C          3.95643        0.50147       -0.37910
|  4> N          3.80389        1.96157       -0.15675
|  5> H          4.20643        2.24441        0.74536
|  6> H          2.80827        2.21132       -0.09610
|  7> H          4.28076        2.50155       -0.89104
|  8> H          3.52890        0.23799       -1.32393
|  9> H          3.45469       -0.03240        0.40073
| 10> H          4.99562        0.24661       -0.37434
| 11> *
| 12>
| 13> %MaxCore 64000
| 14> %pal nprocs 8
| 15> end
| 16>
| 17> %scf
| 18>   MaxIter 150
| 19> end
| 20>
| 21>
| 22>                          ****END OF INPUT****

CARTESIAN COORDINATES (ANGSTROEM)
---------------------------------
  C      3.956430    0.501470   -0.379100
  N      3.803890    1.961570   -0.156750
  H      4.206430    2.244410    0.745360
  H      2.808270    2.211320   -0.096100
  H      4.280760    2.501550   -0.891040
  H      3.528900    0.237990   -1.323930
  H      3.454690   -0.032400    0.400730
  H      4.995620    0.246610   -0.374340

 Total Charge           Charge          ....    1
 Multiplicity           Mult            ....    1
 Number of Electrons    NEL             ....   18
 Basis Dimension        Dim             ....   88

ORBITAL ENERGIES
----------------

  NO   OCC          E(Eh)            E(eV)
   0   2.0000     -14.579553      -396.7298
   1   2.0000     -10.383979      -282.5624
   2   2.0000      -1.392911       -37.9030
   3   2.0000      -1.101861       -29.9832
   4   2.0000      -0.964356       -26.2415
   5   2.0000      -0.952970       -25.9316
   6   2.0000      -0.857243       -23.3268
   7   2.0000      -0.763209       -20.7680
   8   2.0000      -0.761307       -20.7162
   9   0.0000      -0.119234        -3.2445
  10   0.0000      -0.054033        -1.4703
  11   0.0000      -0.046771        -1.2727
  12   0.0000      -0.046456        -1.2641
  13   0.0000      -0.002287        -0.0622

MULLIKEN ATOMIC CHARGES
-----------------------
   0 C :    0.602008
   1 N :   -0.876911
   2 H :    0.394123
   3 H :    0.402515
   4 H :    0.400751
   5 H :    0.026569
   6 H :    0.026125
   7 H :    0.024820
Sum of atomic charges:    1.0000000

LOEWDIN ATOMIC CHARGES
----------------------
   0 C :    0.247383
   1 N :    0.291996
   2 H :    0.116448
   3 H :    0.118284
   4 H :    0.120187
   5 H :    0.035296
   6 H :    0.035355
   7 H :    0.035051

  Mayer bond orders larger than 0.100000
B(  0-C ,  1-N ) :   0.8261 B(  0-C ,  5-H ) :   0.9291 B(  0-C ,  6-H ) :   0.9277
B(  0-C ,  7-H ) :   0.9313 B(  1-N ,  2-H ) :   0.7802 B(  1-N ,  3-H ) :   0.7654
B(  1-N ,  4-H ) :   0.7658

FINAL SINGLE POINT ENERGY       -95.837183017147

DIPOLE MOMENT
-------------
                                X             Y             Z
Electronic contribution:     -0.11213       1.09184       0.14486
Nuclear contribution   :      0.02154      -0.23654       0.01355
                        -----------------------------------------
Total Dipole Moment    :     -0.09058       0.85531       0.15841
                        -----------------------------------------
Magnitude (a.u.)       :      0.87456
Magnitude (Debye)      :      2.22295

Rotational constants in cm-1:     2.873586     0.687737     0.684128
Rotational constants in MHz : 86147.950763 20617.847271 20509.632222

                             ****ORCA TERMINATED NORMALLY****
TOTAL RUN TIME: 0 days 0 hours 0 minutes 3 seconds 389 msec
