                         Program Version 5.0.0 -  RELEASE  -
|  1> !LC-PBE RIJCOSX def2-SVPD def2/J TightSCF
|  2> *xyz 0 1
|  3> C          0.69721        3.22791       -0.52513
|  4> F          1.48929        2.37470        0.19919
|  5> H          0.26505        2.70007       -1.34946
|  6> H          1.28994        4.03943       -0.89255
|  7> H         -0.08148        3.61005        0.10138
|  8> *
|  9>
| 10> %MaxCore 64000
| 11> %pal nprocs 8
| 12> end
| 13>
| 14> %scf
| 15>   MaxIter 150
| 16> end
| 17>
| 18>
| 19>                          ****END OF INPUT****

CARTESIAN COORDINATES (ANGSTROEM)
---------------------------------
  C      0.697210    3.227910   -0.525130
  F      1.489290    2.374700    0.199190
  H      0.265050    2.700070   -1.349460
  H      1.289940    4.039430   -0.892550
  H     -0.081480    3.610050    0.101380

 Total Charge           Charge          ....    0
 Multiplicity           Mult            ....    1
 Number of Electrons    NEL             ....   18
 Basis Dimension        Dim             ....   67

ORBITAL ENERGIES
----------------

  NO   OCC          E(Eh)            E(eV)
   0   2.0000     -24.491042      -666.4351
   1   2.0000     -10.197692      -277.4933
   2   2.0000      -1.338595       -36.4250
   3   2.0000      -0.869594       -23.6629
   4   2.0000      -0.644818       -17.5464
   5   2.0000      -0.643130       -17.5004
   6   2.0000      -0.643125       -17.5003
   7   2.0000      -0.489725       -13.3261
   8   2.0000      -0.489721       -13.3260
   9   0.0000       0.091952         2.5021
  10   0.0000       0.147515         4.0141
  11   0.0000       0.175834         4.7847
  12   0.0000       0.175835         4.7847
  13   0.0000       0.213925         5.8212

MULLIKEN ATOMIC CHARGES
-----------------------
   0 C :    0.598315
   1 F :   -0.462367
   2 H :   -0.045376
   3 H :   -0.045305
   4 H :   -0.045268
Sum of atomic charges:    0.0000000

LOEWDIN ATOMIC CHARGES
----------------------
   0 C :    0.229955
   1 F :   -0.247817
   2 H :    0.005951
   3 H :    0.005953
   4 H :    0.005958

  Mayer bond orders larger than 0.100000
B(  0-C ,  1-F ) :   0.8902 B(  0-C ,  2-H ) :   0.9646 B(  0-C ,  3-H ) :   0.9646
B(  0-C ,  4-H ) :   0.9645

FINAL SINGLE POINT ENERGY      -139.286300583107

DIPOLE MOMENT
-------------
                                X             Y             Z
Electronic contribution:      1.66888      -1.79771       1.52600
Nuclear contribution   :     -2.11402       2.27717      -1.93317
                        -----------------------------------------
Total Dipole Moment    :     -0.44514       0.47946      -0.40717
                        -----------------------------------------
Magnitude (a.u.)       :      0.77059
Magnitude (Debye)      :      1.95870

Rotational constants in cm-1:     5.477728     0.872600     0.872599
Rotational constants in MHz : 164218.159175 26159.886777 26159.859881

                             ****ORCA TERMINATED NORMALLY****
TOTAL RUN TIME: 0 days 0 hours 0 minutes 2 seconds 542 msec
