                         Program Version 5.0.0 -  RELEASE  -
|  1> !LC-PBE RIJCOSX def2-SVPD def2/J TightSCF
|  2> *xyz 0 1
|  3> C          3.95643        0.50147       -0.37910
|  4> C          3.80389        1.96157       -0.15675
|  5> H          4.20643        2.24441        0.74536
|  6> H          2.80827        2.21132       -0.09610
|  7> H          4.28076        2.50155       -0.89104
|  8> H          3.52890        0.23799       -1.32393
|  9> H          3.45469       -0.03240        0.40073
| 10> H          4.99562        0.24661       -0.37434
| 11> *
| 12>
| 13> %MaxCore 64000
| 14> %pal nprocs 8
| 15> end
| 16>
| 17> %scf
| 18>   MaxIter 150
| 19> end
| 20>
| 21>
| 22>                          ****END OF INPUT****

CARTESIAN COORDINATES (ANGSTROEM)
---------------------------------
  C      3.956430    0.501470   -0.379100
  C      3.803890    1.961570   -0.156750
  H      4.206430    2.244410    0.745360
  H      2.808270    2.211320   -0.096100
  H      4.280760    2.501550   -0.891040
  H      3.528900    0.237990   -1.323930
  H      3.454690   -0.032400    0.400730
  H      4.995620    0.246610   -0.374340

 Total Charge           Charge          ....    0
 Multiplicity           Mult            ....    1
 Number of Electrons    NEL             ....   18
 Basis Dimension        Dim             ....   88

ORBITAL ENERGIES
----------------

  NO   OCC          E(Eh)            E(eV)
   0   2.0000     -10.102653      -274.9072
   1   2.0000     -10.089356      -274.5453
   2   2.0000      -0.940823       -25.6011
   3   2.0000      -0.778724       -21.1902
   4   2.0000      -0.596885       -16.2421
   5   2.0000      -0.590037       -16.0557
   6   2.0000      -0.505061       -13.7434
   7   2.0000      -0.478243       -13.0136
   8   2.0000      -0.471549       -12.8315
   9   0.0000       0.096504         2.6260
  10   0.0000       0.125636         3.4187
  11   0.0000       0.179988         4.8977
  12   0.0000       0.181816         4.9475
  13   0.0000       0.201218         5.4754

MULLIKEN ATOMIC CHARGES
-----------------------
   0 C :    0.011076
   1 C :    0.290924
   2 H :   -0.102871
   3 H :   -0.098698
   4 H :   -0.101999
   5 H :   -0.001677
   6 H :    0.003442
   7 H :   -0.000197
Sum of atomic charges:    0.0000000

LOEWDIN ATOMIC CHARGES
----------------------
   0 C :    0.041495
   1 C :    0.043787
   2 H :   -0.024983
   3 H :   -0.022816
   4 H :   -0.021072
   5 H :   -0.005588
   6 H :   -0.005115
   7 H :   -0.005708

  Mayer bond orders larger than 0.100000
B(  0-C ,  1-C ) :   1.4338 B(  0-C ,  2-H ) :   0.1249 B(  0-C ,  3-H ) :   0.1316
B(  0-C ,  4-H ) :   0.1304 B(  0-C ,  5-H ) :   0.9044 B(  0-C ,  6-H ) :   0.9039
B(  0-C ,  7-H ) :   0.9075 B(  1-C ,  2-H ) :   0.8445 B(  1-C ,  3-H ) :   0.8491
B(  1-C ,  4-H ) :   0.8582 B(  1-C ,  5-H ) :   0.1133 B(  1-C ,  6-H ) :   0.1145
B(  1-C ,  7-H ) :   0.1125

FINAL SINGLE POINT ENERGY       -79.467223763288

DIPOLE MOMENT
-------------
                                X             Y             Z
Electronic contribution:      0.00235       0.00801      -0.03528
Nuclear contribution   :     -0.00471       0.01526       0.05114
                        -----------------------------------------
Total Dipole Moment    :     -0.00236       0.02326       0.01586
                        -----------------------------------------
Magnitude (a.u.)       :      0.02826
Magnitude (Debye)      :      0.07182

Rotational constants in cm-1:     2.873610     0.717865     0.713933
Rotational constants in MHz : 86148.646881 21521.066032 21403.176468

                             ****ORCA TERMINATED NORMALLY****
TOTAL RUN TIME: 0 days 0 hours 0 minutes 3 seconds 416 msec
