                         Program Version 5.0.0 -  RELEASE  -
|  1> !LC-PBE RIJCOSX def2-SVPD def2/J TightSCF xyzfile
|  2>
|  3> *xyzfile 0 1 D.xyz
|  4>
|  5> %MaxCore 64000
|  6>
|  7> %pal nprocs 4
|  8> end
|  9>
| 10> %scf
| 11>   MaxIter 150
| 12> end
| 13>
| 14>
| 15>                          ****END OF INPUT****

CARTESIAN COORDINATES (ANGSTROEM)
---------------------------------
  C      3.956426    0.501466   -0.379100
  H      3.168398    0.029201    0.207383
  C      3.803893    1.961572   -0.156747
  C      3.842322    0.148490   -1.854058
  H      4.923231    0.177982    0.009371
  H      4.620021    0.694502   -2.402150
  H      4.096015   -0.910930   -1.955103
  C      2.475619    0.412708   -2.485377
  H      2.174689    1.445076   -2.287971
  C      1.383931   -0.532740   -1.995203
  H      2.575613    0.318574   -3.571460
  H      1.264698   -0.412309   -0.915491
  H      1.705223   -1.566885   -2.164984
  C      0.031398   -0.317260   -2.677791
  C     -0.587292    1.060853   -2.436460
  H     -0.662815   -1.089530   -2.329985
  H      0.149465   -0.478040   -3.755648
  H      0.104376    1.828590   -2.793130
  C     -0.951213    1.334978   -0.972500
  H     -1.478832    1.161355   -3.062484
  H     -0.317007    0.741648   -0.311389
  H     -1.980916    1.012842   -0.788958
  C     -0.774550    2.788332   -0.543943
  H     -1.352609    3.459372   -1.192585
  H     -1.171014    2.902331    0.469968
  C      0.697208    3.227911   -0.525126
  F      1.489294    2.374703    0.199189
  H      0.715998    4.264030   -0.130774
  H      1.036148    3.330920   -1.583669
  H      4.206425    2.244406    0.745359
  H      2.808269    2.211323   -0.096097
  H      4.280757    2.501552   -0.891037

 Total Charge           Charge          ....    0
 Multiplicity           Mult            ....    1
 Number of Electrons    NEL             ....   90
 Basis Dimension        Dim             ....  391

ORBITAL ENERGIES
----------------

  NO   OCC          E(Eh)            E(eV)
   0   2.0000     -24.516486      -667.1275
   1   2.0000     -10.219102      -278.0759
   2   2.0000     -10.140293      -275.9314
   3   2.0000     -10.125994      -275.5423
   4   2.0000     -10.122590      -275.4497
   5   2.0000     -10.118925      -275.3500
   6   2.0000     -10.112920      -275.1865
   7   2.0000     -10.110958      -275.1332
   8   2.0000     -10.104591      -274.9599
   9   2.0000     -10.093710      -274.6638
  10   2.0000     -10.038932      -273.1732
  11   2.0000      -1.374050       -37.3898
  12   2.0000      -0.998395       -27.1677
  13   2.0000      -0.976946       -26.5840
  14   2.0000      -0.940453       -25.5910
  15   2.0000      -0.905918       -24.6513
  16   2.0000      -0.853994       -23.2384
  17   2.0000      -0.827127       -22.5073
  18   2.0000      -0.783457       -21.3189
  19   2.0000      -0.757357       -20.6087
  20   2.0000      -0.718963       -19.5640
  21   2.0000      -0.707061       -19.2401
  22   2.0000      -0.680188       -18.5088
  23   2.0000      -0.670195       -18.2369
  24   2.0000      -0.646359       -17.5883
  25   2.0000      -0.618616       -16.8334
  26   2.0000      -0.607070       -16.5192
  27   2.0000      -0.594584       -16.1795
  28   2.0000      -0.573043       -15.5933
  29   2.0000      -0.570298       -15.5186
  30   2.0000      -0.550477       -14.9792
  31   2.0000      -0.531865       -14.4728
  32   2.0000      -0.524164       -14.2632
  33   2.0000      -0.509957       -13.8766
  34   2.0000      -0.499469       -13.5912
  35   2.0000      -0.487872       -13.2757
  36   2.0000      -0.479799       -13.0560
  37   2.0000      -0.472729       -12.8636
  38   2.0000      -0.452261       -12.3066
  39   2.0000      -0.446615       -12.1530
  40   2.0000      -0.440434       -11.9848
  41   2.0000      -0.439239       -11.9523
  42   2.0000      -0.422121       -11.4865
  43   2.0000      -0.420249       -11.4356
  44   2.0000      -0.398726       -10.8499
  45   0.0000       0.088795         2.4162
  46   0.0000       0.098589         2.6827
  47   0.0000       0.104186         2.8350
  48   0.0000       0.108964         2.9651
  49   0.0000       0.122896         3.3442

MULLIKEN ATOMIC CHARGES
-----------------------
   0 C :   -0.201616
   1 H :    0.089548
   2 C :    2.460894
   3 C :    0.142290
   4 H :   -0.228752
   5 H :    0.061331
   6 H :    0.023738
   7 C :    0.222601
   8 H :   -0.493425
   9 C :   -0.138473
  10 H :    0.031544
  11 H :   -0.045386
  12 H :   -0.070741
  13 C :    0.361434
  14 C :    0.038825
  15 H :   -0.116407
  16 H :    0.122527
  17 H :   -0.091040
  18 C :   -0.021717
  19 H :   -0.117300
  20 H :   -0.003475
  21 H :   -0.039925
  22 C :    0.008992
  23 H :   -0.016978
  24 H :    0.112324
  25 C :    0.459134
  26 F :   -0.518488
  27 H :   -0.116309
  28 H :    0.182352
  29 H :    0.167629
  30 H :   -2.202392
  31 H :   -0.062740
Sum of atomic charges:   -0.0000000

LOEWDIN ATOMIC CHARGES
----------------------
   0 C :   -0.076797
   1 H :    0.025332
   2 C :    0.105884
   3 C :   -0.059874
   4 H :    0.030443
   5 H :    0.035179
   6 H :    0.028563
   7 C :   -0.045173
   8 H :    0.001562
   9 C :   -0.052084
  10 H :    0.038133
  11 H :    0.010470
  12 H :    0.038957
  13 C :   -0.054903
  14 C :   -0.044469
  15 H :    0.035065
  16 H :    0.034775
  17 H :    0.005612
  18 C :   -0.043722
  19 H :    0.033403
  20 H :    0.012800
  21 H :    0.037411
  22 C :   -0.038184
  23 H :    0.047863
  24 H :    0.039243
  25 C :    0.128697
  26 F :   -0.169815
  27 H :    0.053143
  28 H :    0.043308
  29 H :   -0.013367
  30 H :   -0.173706
  31 H :   -0.013753

  Mayer bond orders larger than 0.100000
B(  0-C ,  1-H ) :   0.8136 B(  0-C ,  2-C ) :   0.7316 B(  0-C ,  3-C ) :   1.1669
B(  0-C ,  4-H ) :   1.0593 B(  0-C ,  6-H ) :   0.1358 B(  0-C , 29-H ) :   0.1105
B(  0-C , 30-H ) :   0.7120 B(  0-C , 31-H ) :   0.3060 B(  1-H ,  2-C ) :   0.2544
B(  1-H ,  3-C ) :   0.1534 B(  1-H ,  4-H ) :  -0.1508 B(  1-H , 30-H ) :  -0.1437
B(  2-C ,  4-H ) :  -0.1558 B(  2-C , 26-F ) :  -0.2537 B(  2-C , 29-H ) :   0.7605
B(  2-C , 30-H ) :  -3.1991 B(  3-C ,  5-H ) :   0.7609 B(  3-C ,  6-H ) :   0.8914
B(  3-C ,  7-C ) :   1.2262 B(  4-H , 29-H ) :  -0.1272 B(  4-H , 30-H ) :   0.1293
B(  4-H , 31-H ) :   0.2324 B(  5-H ,  6-H ) :  -0.1061 B(  5-H ,  7-C ) :   0.2277
B(  5-H , 31-H ) :   0.1166 B(  6-H , 31-H ) :  -0.1361 B(  7-C ,  8-H ) :   0.8868
B(  7-C ,  9-C ) :   1.2066 B(  7-C , 10-H ) :   0.7273 B(  7-C , 12-H ) :   0.1457
B(  8-H ,  9-C ) :   0.1662 B(  8-H , 10-H ) :   0.1180 B(  9-C , 10-H ) :   0.1494
B(  9-C , 11-H ) :   0.9096 B(  9-C , 12-H ) :   0.9293 B(  9-C , 13-C ) :   1.1907
B(  9-C , 15-H ) :   0.2397 B(  9-C , 16-H ) :   0.1170 B( 11-H , 20-H ) :   0.1251
B( 13-C , 14-C ) :   1.2064 B( 13-C , 15-H ) :   0.8234 B( 13-C , 16-H ) :   0.7262
B( 13-C , 17-H ) :   0.1033 B( 14-C , 16-H ) :   0.1839 B( 14-C , 17-H ) :   0.8931
B( 14-C , 18-C ) :   1.2093 B( 14-C , 19-H ) :   0.8863 B( 14-C , 21-H ) :   0.1946
B( 15-H , 16-H ) :  -0.1026 B( 18-C , 19-H ) :   0.1694 B( 18-C , 20-H ) :   0.8591
B( 18-C , 21-H ) :   0.8849 B( 18-C , 22-C ) :   1.2388 B( 18-C , 24-H ) :   0.1761
B( 20-H , 22-C ) :   0.1057 B( 22-C , 23-H ) :   0.8922 B( 22-C , 24-H ) :   0.7542
B( 22-C , 25-C ) :   1.2712 B( 23-H , 25-C ) :   0.1324 B( 25-C , 26-F ) :   0.6253
B( 25-C , 27-H ) :   0.9942 B( 25-C , 28-H ) :   0.7837 B( 25-C , 30-H ) :   0.1746
B( 26-F , 30-H ) :   0.4594 B( 29-H , 31-H ) :  -0.1923 B( 30-H , 31-H ) :   0.7794

FINAL SINGLE POINT ENERGY      -491.572358248350

DIPOLE MOMENT
-------------
                                X             Y             Z
Electronic contribution:     -1.99557       3.31468       4.25113
Nuclear contribution   :      1.09293      -2.80761      -4.51228
                        -----------------------------------------
Total Dipole Moment    :     -0.90264       0.50707      -0.26115
                        -----------------------------------------
Magnitude (a.u.)       :      1.06775
Magnitude (Debye)      :      2.71399

Rotational constants in cm-1:     0.040502     0.027818     0.018259
Rotational constants in MHz :  1214.218058   833.972871   547.398614

                             ****ORCA TERMINATED NORMALLY****
TOTAL RUN TIME: 0 days 0 hours 2 minutes 27 seconds 830 msec
