                         Program Version 5.0.0 -  RELEASE  -
|  1> !LC-PBE RIJCOSX def2-SVPD def2/J TightSCF
|  2> *xyz -1 1
|  3> C          4.90646       -3.10282       -5.95484
|  4> C          3.51177       -2.80621       -6.49228
|  5> H          2.73604       -3.37345       -5.97374
|  6> H          3.44490       -3.04083       -7.55528
|  7> S          3.00462       -1.09621       -6.38926
|  8> O          4.12886       -0.32965       -6.95372
|  9> O          1.78128       -1.00078       -7.13640
| 10> O          2.85155       -0.78368       -4.95679
| 11> H          5.62703       -2.52424       -6.49422
| 12> H          5.12164       -4.14387       -6.07654
| 13> H          4.95004       -2.84862       -4.91639
| 14> *
| 15>
| 16> %MaxCore 64000
| 17>
| 18> %pal nprocs 4
| 19> end
| 20>
| 21> %scf
| 22>   MaxIter 150
| 23> end
| 24>
| 25>
| 26>                          ****END OF INPUT****

CARTESIAN COORDINATES (ANGSTROEM)
---------------------------------
  C      4.906460   -3.102820   -5.954840
  C      3.511770   -2.806210   -6.492280
  H      2.736040   -3.373450   -5.973740
  H      3.444900   -3.040830   -7.555280
  S      3.004620   -1.096210   -6.389260
  O      4.128860   -0.329650   -6.953720
  O      1.781280   -1.000780   -7.136400
  O      2.851550   -0.783680   -4.956790
  H      5.627030   -2.524240   -6.494220
  H      5.121640   -4.143870   -6.076540
  H      4.950040   -2.848620   -4.916390

 Total Charge           Charge          ....   -1
 Multiplicity           Mult            ....    1
 Number of Electrons    NEL             ....   58
 Basis Dimension        Dim             ....  176

ORBITAL ENERGIES
----------------

  NO   OCC          E(Eh)            E(eV)
   0   2.0000     -88.313960     -2403.1450
   1   2.0000     -18.777758      -510.9688
   2   2.0000     -18.765386      -510.6321
   3   2.0000     -18.764951      -510.6203
   4   2.0000      -9.997793      -272.0538
   5   2.0000      -9.987191      -271.7653
   6   2.0000      -7.935998      -215.9495
   7   2.0000      -5.958299      -162.1336
   8   2.0000      -5.958239      -162.1319
   9   2.0000      -5.957895      -162.1226
  10   2.0000      -1.108454       -30.1626
  11   2.0000      -0.951720       -25.8976
  12   2.0000      -0.930327       -25.3155
  13   2.0000      -0.812555       -22.1108
  14   2.0000      -0.676663       -18.4129
  15   2.0000      -0.535976       -14.5847
  16   2.0000      -0.471740       -12.8367
  17   2.0000      -0.469349       -12.7716
  18   2.0000      -0.427741       -11.6394
  19   2.0000      -0.413345       -11.2477
  20   2.0000      -0.400935       -10.9100
  21   2.0000      -0.371636       -10.1127
  22   2.0000      -0.349872        -9.5205
  23   2.0000      -0.294167        -8.0047
  24   2.0000      -0.292588        -7.9617
  25   2.0000      -0.251719        -6.8496
  26   2.0000      -0.238988        -6.5032
  27   2.0000      -0.237625        -6.4661
  28   2.0000      -0.197751        -5.3811
  29   0.0000       0.204430         5.5628
  30   0.0000       0.224861         6.1188
  31   0.0000       0.228133         6.2078
  32   0.0000       0.235283         6.4024
  33   0.0000       0.256580         6.9819

MULLIKEN ATOMIC CHARGES
-----------------------
   0 C :    0.515527
   1 C :   -0.503890
   2 H :    0.025955
   3 H :    0.055145
   4 S :    1.204210
   5 O :   -0.790649
   6 O :   -0.741577
   7 O :   -0.786203
   8 H :    0.025791
   9 H :   -0.023792
  10 H :    0.019483
Sum of atomic charges:   -1.0000000

LOEWDIN ATOMIC CHARGES
----------------------
   0 C :    0.075305
   1 C :   -0.165442
   2 H :    0.020157
   3 H :    0.017070
   4 S :    0.833312
   5 O :   -0.586656
   6 O :   -0.569687
   7 O :   -0.590399
   8 H :   -0.009777
   9 H :   -0.020151
  10 H :   -0.003733

  Mayer bond orders larger than 0.100000
B(  0-C ,  1-C ) :   1.2653 B(  0-C ,  8-H ) :   0.8593 B(  0-C ,  9-H ) :   0.8024
B(  0-C , 10-H ) :   0.8506 B(  1-C ,  2-H ) :   1.0025 B(  1-C ,  3-H ) :   0.9978
B(  1-C ,  4-S ) :   0.9567 B(  1-C ,  8-H ) :   0.1645 B(  1-C ,  9-H ) :   0.1687
B(  1-C , 10-H ) :   0.1599 B(  4-S ,  5-O ) :   1.3125 B(  4-S ,  6-O ) :   1.3855
B(  4-S ,  7-O ) :   1.3122

FINAL SINGLE POINT ENERGY      -701.579225798234

DIPOLE MOMENT
-------------
                                X             Y             Z
Electronic contribution:     -4.30630       6.23270      -0.66978
Nuclear contribution   :      5.05690      -8.21735       0.57889
                        -----------------------------------------
Total Dipole Moment    :      0.75061      -1.98466      -0.09088
                        -----------------------------------------
Magnitude (a.u.)       :      2.12380
Magnitude (Debye)      :      5.39827

Rotational constants in cm-1:     0.162547     0.083494     0.081672
Rotational constants in MHz :  4873.033504  2503.090885  2448.458543

                             ****ORCA TERMINATED NORMALLY****
TOTAL RUN TIME: 0 days 0 hours 0 minutes 17 seconds 479 msec
