                         Program Version 5.0.0 -  RELEASE  -
|  1> !LC-PBE RIJCOSX def2-SVPD def2/J TightSCF
|  2> *xyz 1 1
|  3> C          4.49059        1.15590       -2.46929
|  4> N          4.30539        1.22276       -3.90832
|  5> C          4.63192        2.24637       -4.67096
|  6> N          4.54169        2.14399       -5.98714
|  7> N          5.08409        3.39358       -4.11855
|  8> H          4.92067        3.57050       -3.13587
|  9> H          5.25465        4.19739       -4.70696
| 10> H          3.82453        0.44911       -4.35093
| 11> H          4.34337        1.24932       -6.41665
| 12> H          4.67671        2.95662       -6.57411
| 13> C          5.94213        0.93950       -2.03689
| 14> H          3.86431        0.32853       -2.13661
| 15> H          4.07623        2.04999       -1.98901
| 16> H          6.32982        0.06401       -2.51451
| 17> H          5.98308        0.81426       -0.97504
| 18> H          6.52865        1.78889       -2.31873
| 19> *
| 20>
| 21> %MaxCore 64000
| 22>
| 23> %pal nprocs 4
| 24> end
| 25>
| 26> %scf
| 27>   MaxIter 150
| 28> end
| 29>
| 30>
| 31>                          ****END OF INPUT****

CARTESIAN COORDINATES (ANGSTROEM)
---------------------------------
  C      4.490590    1.155900   -2.469290
  N      4.305390    1.222760   -3.908320
  C      4.631920    2.246370   -4.670960
  N      4.541690    2.143990   -5.987140
  N      5.084090    3.393580   -4.118550
  H      4.920670    3.570500   -3.135870
  H      5.254650    4.197390   -4.706960
  H      3.824530    0.449110   -4.350930
  H      4.343370    1.249320   -6.416650
  H      4.676710    2.956620   -6.574110
  C      5.942130    0.939500   -2.036890
  H      3.864310    0.328530   -2.136610
  H      4.076230    2.049990   -1.989010
  H      6.329820    0.064010   -2.514510
  H      5.983080    0.814260   -0.975040
  H      6.528650    1.788890   -2.318730

 Total Charge           Charge          ....    1
 Multiplicity           Mult            ....    1
 Number of Electrons    NEL             ....   48
 Basis Dimension        Dim             ....  200

ORBITAL ENERGIES
----------------

  NO   OCC          E(Eh)            E(eV)
   0   2.0000     -14.457541      -393.4097
   1   2.0000     -14.455047      -393.3418
   2   2.0000     -14.452100      -393.2616
   3   2.0000     -10.473721      -285.0044
   4   2.0000     -10.335776      -281.2508
   5   2.0000     -10.260377      -279.1990
   6   2.0000      -1.390742       -37.8440
   7   2.0000      -1.272266       -34.6201
   8   2.0000      -1.253510       -34.1097
   9   2.0000      -1.098977       -29.9047
  10   2.0000      -1.002292       -27.2738
  11   2.0000      -0.957997       -26.0684
  12   2.0000      -0.941655       -25.6237
  13   2.0000      -0.892683       -24.2912
  14   2.0000      -0.838031       -22.8040
  15   2.0000      -0.832135       -22.6436
  16   2.0000      -0.809158       -22.0183
  17   2.0000      -0.774276       -21.0691
  18   2.0000      -0.746626       -20.3167
  19   2.0000      -0.697866       -18.9899
  20   2.0000      -0.664489       -18.0817
  21   2.0000      -0.641480       -17.4556
  22   2.0000      -0.610441       -16.6109
  23   2.0000      -0.579243       -15.7620
  24   0.0000      -0.079042        -2.1508
  25   0.0000      -0.073293        -1.9944
  26   0.0000      -0.039298        -1.0693
  27   0.0000      -0.035792        -0.9740
  28   0.0000      -0.007134        -0.1941

MULLIKEN ATOMIC CHARGES
-----------------------
   0 C :    0.059842
   1 N :   -0.410550
   2 C :    1.355874
   3 N :   -0.137412
   4 N :   -0.099834
   5 H :    0.016517
   6 H :   -0.105585
   7 H :   -0.155002
   8 H :   -0.001100
   9 H :    0.007483
  10 C :    0.424177
  11 H :   -0.168773
  12 H :    0.062827
  13 H :    0.026160
  14 H :    0.098865
  15 H :    0.026510
Sum of atomic charges:    1.0000000

LOEWDIN ATOMIC CHARGES
----------------------
   0 C :    0.012457
   1 N :    0.030453
   2 C :   -0.029171
   3 N :    0.245065
   4 N :    0.266342
   5 H :    0.025688
   6 H :    0.044682
   7 H :    0.071954
   8 H :    0.051367
   9 H :    0.050602
  10 C :    0.128475
  11 H :    0.052362
  12 H :    0.040387
  13 H :    0.007019
  14 H :    0.013691
  15 H :   -0.011374

  Mayer bond orders larger than 0.100000
B(  0-C ,  1-N ) :   0.9296 B(  0-C ,  2-C ) :  -0.1040 B(  0-C ,  7-H ) :  -0.1430
B(  0-C , 10-C ) :   1.2686 B(  0-C , 11-H ) :   0.9698 B(  0-C , 12-H ) :   0.9057
B(  0-C , 13-H ) :   0.1905 B(  0-C , 14-H ) :   0.1138 B(  0-C , 15-H ) :   0.1508
B(  1-N ,  2-C ) :   1.0321 B(  1-N ,  3-N ) :   0.2483 B(  1-N ,  4-N ) :   0.2140
B(  1-N ,  7-H ) :   1.2972 B(  1-N , 11-H ) :   0.1479 B(  2-C ,  3-N ) :   0.8384
B(  2-C ,  4-N ) :   0.8999 B(  2-C ,  5-H ) :  -0.1148 B(  2-C ,  6-H ) :  -0.1635
B(  2-C ,  7-H ) :  -0.2441 B(  2-C ,  8-H ) :  -0.1605 B(  2-C ,  9-H ) :  -0.1357
B(  3-N ,  4-N ) :   0.1502 B(  3-N ,  8-H ) :   1.1806 B(  3-N ,  9-H ) :   1.2059
B(  4-N ,  5-H ) :   1.0740 B(  4-N ,  6-H ) :   1.2663 B(  5-H ,  6-H ) :  -0.1909
B(  8-H ,  9-H ) :  -0.1664 B( 10-C , 13-H ) :   0.8532 B( 10-C , 14-H ) :   0.8542
B( 10-C , 15-H ) :   0.8536

FINAL SINGLE POINT ENERGY      -283.317196921966

DIPOLE MOMENT
-------------
                                X             Y             Z
Electronic contribution:     -1.82736       1.58396      -4.47593
Nuclear contribution   :      1.34333      -1.11039       3.43667
                        -----------------------------------------
Total Dipole Moment    :     -0.48403       0.47357      -1.03927
                        -----------------------------------------
Magnitude (a.u.)       :      1.24042
Magnitude (Debye)      :      3.15288

Rotational constants in cm-1:     0.227161     0.075356     0.065003
Rotational constants in MHz :  6810.114531  2259.122204  1948.738523

                             ****ORCA TERMINATED NORMALLY****
TOTAL RUN TIME: 0 days 0 hours 0 minutes 27 seconds 96 msec
