                         Program Version 5.0.0 -  RELEASE  -
|  1> !LC-PBE RIJCOSX def2-SVPD def2/J TightSCF
|  2> *xyz 0 1
|  3> C          4.90646       -3.10282       -5.95484
|  4> C          3.51177       -2.80621       -6.49228
|  5> H          2.73604       -3.37345       -5.97374
|  6> H          3.44490       -3.04083       -7.55528
|  7> S          3.00462       -1.09621       -6.38926
|  8> F          4.12886       -0.32965       -6.95372
|  9> O          1.78128       -1.00078       -7.13640
| 10> O          2.85155       -0.78368       -4.95679
| 11> H          5.62703       -2.52424       -6.49422
| 12> H          5.12164       -4.14387       -6.07654
| 13> H          4.95004       -2.84862       -4.91639
| 14> *
| 15>
| 16> %MaxCore 64000
| 17>
| 18> %pal nprocs 4
| 19> end
| 20>
| 21> %scf
| 22>   MaxIter 150
| 23> end
| 24>
| 25>
| 26>                          ****END OF INPUT****

CARTESIAN COORDINATES (ANGSTROEM)
---------------------------------
  C      4.906460   -3.102820   -5.954840
  C      3.511770   -2.806210   -6.492280
  H      2.736040   -3.373450   -5.973740
  H      3.444900   -3.040830   -7.555280
  S      3.004620   -1.096210   -6.389260
  F      4.128860   -0.329650   -6.953720
  O      1.781280   -1.000780   -7.136400
  O      2.851550   -0.783680   -4.956790
  H      5.627030   -2.524240   -6.494220
  H      5.121640   -4.143870   -6.076540
  H      4.950040   -2.848620   -4.916390

 Total Charge           Charge          ....    0
 Multiplicity           Mult            ....    1
 Number of Electrons    NEL             ....   58
 Basis Dimension        Dim             ....  176

ORBITAL ENERGIES
----------------

  NO   OCC          E(Eh)            E(eV)
   0   2.0000     -88.574816     -2410.2433
   1   2.0000     -24.618273      -669.8973
   2   2.0000     -19.013013      -517.3704
   3   2.0000     -19.000120      -517.0196
   4   2.0000     -10.200548      -277.5710
   5   2.0000     -10.155637      -276.3489
   6   2.0000      -8.197575      -223.0673
   7   2.0000      -6.224666      -169.3818
   8   2.0000      -6.217489      -169.1865
   9   2.0000      -6.216161      -169.1503
  10   2.0000      -1.518835       -41.3296
  11   2.0000      -1.287770       -35.0420
  12   2.0000      -1.177129       -32.0313
  13   2.0000      -1.009846       -27.4793
  14   2.0000      -0.892048       -24.2739
  15   2.0000      -0.843480       -22.9523
  16   2.0000      -0.749050       -20.3827
  17   2.0000      -0.730632       -19.8815
  18   2.0000      -0.700678       -19.0664
  19   2.0000      -0.649453       -17.6725
  20   2.0000      -0.629560       -17.1312
  21   2.0000      -0.604545       -16.4505
  22   2.0000      -0.584175       -15.8962
  23   2.0000      -0.554723       -15.0948
  24   2.0000      -0.541692       -14.7402
  25   2.0000      -0.523506       -14.2453
  26   2.0000      -0.477732       -12.9998
  27   2.0000      -0.463874       -12.6227
  28   2.0000      -0.451307       -12.2807
  29   0.0000       0.062217         1.6930
  30   0.0000       0.087888         2.3915
  31   0.0000       0.092188         2.5086
  32   0.0000       0.095335         2.5942
  33   0.0000       0.123723         3.3667

MULLIKEN ATOMIC CHARGES
-----------------------
   0 C :    0.505356
   1 C :   -0.538691
   2 H :    0.090956
   3 H :    0.108552
   4 S :    1.369693
   5 F :   -0.379289
   6 O :   -0.603659
   7 O :   -0.654809
   8 H :    0.032425
   9 H :    0.020379
  10 H :    0.049087
Sum of atomic charges:    0.0000000

LOEWDIN ATOMIC CHARGES
----------------------
   0 C :    0.103728
   1 C :   -0.115940
   2 H :    0.051134
   3 H :    0.035791
   4 S :    1.093920
   5 F :   -0.254283
   6 O :   -0.456898
   7 O :   -0.476186
   8 H :    0.001338
   9 H :    0.007686
  10 H :    0.009708

  Mayer bond orders larger than 0.100000
B(  0-C ,  1-C ) :   1.2751 B(  0-C ,  8-H ) :   0.8562 B(  0-C ,  9-H ) :   0.8109
B(  0-C , 10-H ) :   0.8575 B(  1-C ,  2-H ) :   0.9877 B(  1-C ,  3-H ) :   0.9906
B(  1-C ,  4-S ) :   1.0205 B(  1-C ,  8-H ) :   0.1497 B(  1-C ,  9-H ) :   0.1613
B(  1-C , 10-H ) :   0.1532 B(  4-S ,  5-F ) :   0.6827 B(  4-S ,  6-O ) :   1.6005
B(  4-S ,  7-O ) :   1.5351

FINAL SINGLE POINT ENERGY      -726.045967319203

DIPOLE MOMENT
-------------
                                X             Y             Z
Electronic contribution:     -2.92008       8.08985      -1.77468
Nuclear contribution   :      4.18919      -9.36357       1.23251
                        -----------------------------------------
Total Dipole Moment    :      1.26911      -1.27372      -0.54217
                        -----------------------------------------
Magnitude (a.u.)       :      1.87802
Magnitude (Debye)      :      4.77354

Rotational constants in cm-1:     0.153152     0.082513     0.079874
Rotational constants in MHz :  4591.373714  2473.673397  2394.575279

                             ****ORCA TERMINATED NORMALLY****
TOTAL RUN TIME: 0 days 0 hours 0 minutes 18 seconds 66 msec
