                         Program Version 5.0.0 -  RELEASE  -
|  1> !LC-PBE RIJCOSX def2-SVPD def2/J TightSCF
|  2> *xyz 0 1
|  3> C          4.49059        1.15590       -2.46929
|  4> C          4.30539        1.22276       -3.90832
|  5> C          4.63192        2.24637       -4.67096
|  6> N          4.54169        2.14399       -5.98714
|  7> N          5.08409        3.39358       -4.11855
|  8> H          4.92067        3.57050       -3.13587
|  9> H          5.25465        4.19739       -4.70696
| 10> H          3.82453        0.44911       -4.35093
| 11> H          4.34337        1.24932       -6.41665
| 12> H          4.67671        2.95662       -6.57411
| 13> C          5.94213        0.93950       -2.03689
| 14> H          3.86431        0.32853       -2.13661
| 15> H          4.07623        2.04999       -1.98901
| 16> H          6.32982        0.06401       -2.51451
| 17> H          5.98308        0.81426       -0.97504
| 18> H          6.52865        1.78889       -2.31873
| 19> *
| 20>
| 21> %MaxCore 64000
| 22>
| 23> %pal nprocs 4
| 24> end
| 25>
| 26> %scf
| 27>   MaxIter 150
| 28> end
| 29>
| 30>
| 31>                          ****END OF INPUT****

CARTESIAN COORDINATES (ANGSTROEM)
---------------------------------
  C      4.490590    1.155900   -2.469290
  C      4.305390    1.222760   -3.908320
  C      4.631920    2.246370   -4.670960
  N      4.541690    2.143990   -5.987140
  N      5.084090    3.393580   -4.118550
  H      4.920670    3.570500   -3.135870
  H      5.254650    4.197390   -4.706960
  H      3.824530    0.449110   -4.350930
  H      4.343370    1.249320   -6.416650
  H      4.676710    2.956620   -6.574110
  C      5.942130    0.939500   -2.036890
  H      3.864310    0.328530   -2.136610
  H      4.076230    2.049990   -1.989010
  H      6.329820    0.064010   -2.514510
  H      5.983080    0.814260   -0.975040
  H      6.528650    1.788890   -2.318730

 Total Charge           Charge          ....    0
 Multiplicity           Mult            ....    1
 Number of Electrons    NEL             ....   48
 Basis Dimension        Dim             ....  200

ORBITAL ENERGIES
----------------

  NO   OCC          E(Eh)            E(eV)
   0   2.0000     -14.229559      -387.2060
   1   2.0000     -14.227236      -387.1428
   2   2.0000     -10.174315      -276.8572
   3   2.0000     -10.101390      -274.8728
   4   2.0000     -10.088826      -274.5309
   5   2.0000     -10.047612      -273.4094
   6   2.0000      -1.129153       -30.7258
   7   2.0000      -1.029380       -28.0109
   8   2.0000      -0.943957       -25.6864
   9   2.0000      -0.856771       -23.3139
  10   2.0000      -0.773435       -21.0462
  11   2.0000      -0.729881       -19.8611
  12   2.0000      -0.691249       -18.8098
  13   2.0000      -0.654110       -17.7992
  14   2.0000      -0.614426       -16.7194
  15   2.0000      -0.579096       -15.7580
  16   2.0000      -0.567210       -15.4346
  17   2.0000      -0.530780       -14.4433
  18   2.0000      -0.526313       -14.3217
  19   2.0000      -0.485290       -13.2054
  20   2.0000      -0.458105       -12.4657
  21   2.0000      -0.443291       -12.0625
  22   2.0000      -0.399038       -10.8584
  23   2.0000      -0.276425        -7.5219
  24   0.0000       0.090300         2.4572
  25   0.0000       0.112332         3.0567
  26   0.0000       0.123184         3.3520
  27   0.0000       0.130988         3.5644
  28   0.0000       0.154849         4.2137

MULLIKEN ATOMIC CHARGES
-----------------------
   0 C :   -0.351419
   1 C :   -0.397274
   2 C :    1.017651
   3 N :   -0.087045
   4 N :   -0.086255
   5 H :   -0.006502
   6 H :   -0.204984
   7 H :   -0.352265
   8 H :   -0.006081
   9 H :   -0.112653
  10 C :    0.435455
  11 H :    0.073385
  12 H :    0.024839
  13 H :    0.013353
  14 H :    0.047475
  15 H :   -0.007679
Sum of atomic charges:   -0.0000000

LOEWDIN ATOMIC CHARGES
----------------------
   0 C :   -0.127729
   1 C :   -0.061819
   2 C :   -0.223539
   3 N :    0.157716
   4 N :    0.187331
   5 H :   -0.003512
   6 H :   -0.001787
   7 H :   -0.038127
   8 H :    0.018406
   9 H :    0.002375
  10 C :    0.088353
  11 H :    0.026678
  12 H :    0.018015
  13 H :   -0.006633
  14 H :   -0.015080
  15 H :   -0.020647

  Mayer bond orders larger than 0.100000
B(  0-C ,  1-C ) :   1.2621 B(  0-C ,  7-H ) :   0.2358 B(  0-C , 10-C ) :   1.2571
B(  0-C , 11-H ) :   0.8568 B(  0-C , 12-H ) :   0.9005 B(  0-C , 13-H ) :   0.1500
B(  0-C , 14-H ) :   0.1290 B(  0-C , 15-H ) :   0.1780 B(  1-C ,  2-C ) :   1.5937
B(  1-C ,  3-N ) :   0.3855 B(  1-C ,  4-N ) :   0.2194 B(  1-C ,  7-H ) :   0.9949
B(  1-C , 11-H ) :   0.2445 B(  1-C , 12-H ) :   0.1261 B(  2-C ,  3-N ) :   0.8096
B(  2-C ,  4-N ) :   0.9007 B(  2-C ,  6-H ) :  -0.1612 B(  3-N ,  4-N ) :   0.1041
B(  3-N ,  8-H ) :   1.1667 B(  3-N ,  9-H ) :   1.2252 B(  4-N ,  5-H ) :   1.0617
B(  4-N ,  6-H ) :   1.3081 B(  5-H ,  6-H ) :  -0.1778 B(  8-H ,  9-H ) :  -0.1587
B( 10-C , 13-H ) :   0.8797 B( 10-C , 14-H ) :   0.8486 B( 10-C , 15-H ) :   0.8517

FINAL SINGLE POINT ENERGY      -266.865818715387

DIPOLE MOMENT
-------------
                                X             Y             Z
Electronic contribution:     -1.27039       1.96562      -4.09724
Nuclear contribution   :      1.23062      -1.24683       3.43056
                        -----------------------------------------
Total Dipole Moment    :     -0.03977       0.71878      -0.66668
                        -----------------------------------------
Magnitude (a.u.)       :      0.98117
Magnitude (Debye)      :      2.49393

Rotational constants in cm-1:     0.231477     0.075416     0.065327
Rotational constants in MHz :  6939.497385  2260.912204  1958.442932

                             ****ORCA TERMINATED NORMALLY****
TOTAL RUN TIME: 0 days 0 hours 0 minutes 26 seconds 554 msec
