                         Program Version 5.0.0 -  RELEASE  -
|  1> !LC-PBE RIJCOSX def2-SVPD def2/J TightSCF
|  2> *xyz 0 1
|  3> C          4.90646       -3.10282       -5.95484
|  4> C          3.51177       -2.80621       -6.49228
|  5> H          2.73604       -3.37345       -5.97374
|  6> H          3.44490       -3.04083       -7.55528
|  7> S          3.00462       -1.09621       -6.38926
|  8> O          4.12886       -0.32965       -6.95372
|  9> F          1.78128       -1.00078       -7.13640
| 10> O          2.85155       -0.78368       -4.95679
| 11> H          5.62703       -2.52424       -6.49422
| 12> H          5.12164       -4.14387       -6.07654
| 13> H          4.95004       -2.84862       -4.91639
| 14> *
| 15>
| 16> %MaxCore 64000
| 17>
| 18> %pal nprocs 4
| 19> end
| 20>
| 21> %scf
| 22>   MaxIter 150
| 23> end
| 24>
| 25>
| 26>                          ****END OF INPUT****

CARTESIAN COORDINATES (ANGSTROEM)
---------------------------------
  C      4.906460   -3.102820   -5.954840
  C      3.511770   -2.806210   -6.492280
  H      2.736040   -3.373450   -5.973740
  H      3.444900   -3.040830   -7.555280
  S      3.004620   -1.096210   -6.389260
  O      4.128860   -0.329650   -6.953720
  F      1.781280   -1.000780   -7.136400
  O      2.851550   -0.783680   -4.956790
  H      5.627030   -2.524240   -6.494220
  H      5.121640   -4.143870   -6.076540
  H      4.950040   -2.848620   -4.916390

 Total Charge           Charge          ....    0
 Multiplicity           Mult            ....    1
 Number of Electrons    NEL             ....   58
 Basis Dimension        Dim             ....  176

ORBITAL ENERGIES
----------------

  NO   OCC          E(Eh)            E(eV)
   0   2.0000     -88.576703     -2410.2946
   1   2.0000     -24.637500      -670.4205
   2   2.0000     -19.000506      -517.0300
   3   2.0000     -19.000372      -517.0264
   4   2.0000     -10.201556      -277.5985
   5   2.0000     -10.150314      -276.2041
   6   2.0000      -8.199585      -223.1221
   7   2.0000      -6.226721      -169.4377
   8   2.0000      -6.219321      -169.2363
   9   2.0000      -6.218055      -169.2019
  10   2.0000      -1.550123       -42.1810
  11   2.0000      -1.275388       -34.7051
  12   2.0000      -1.163087       -31.6492
  13   2.0000      -1.006496       -27.3882
  14   2.0000      -0.907379       -24.6910
  15   2.0000      -0.845076       -22.9957
  16   2.0000      -0.754131       -20.5210
  17   2.0000      -0.751388       -20.4463
  18   2.0000      -0.712241       -19.3811
  19   2.0000      -0.650367       -17.6974
  20   2.0000      -0.633583       -17.2407
  21   2.0000      -0.585886       -15.9428
  22   2.0000      -0.577472       -15.7138
  23   2.0000      -0.551504       -15.0072
  24   2.0000      -0.527725       -14.3601
  25   2.0000      -0.524584       -14.2747
  26   2.0000      -0.467426       -12.7193
  27   2.0000      -0.460848       -12.5403
  28   2.0000      -0.439593       -11.9619
  29   0.0000       0.061396         1.6707
  30   0.0000       0.085538         2.3276
  31   0.0000       0.091347         2.4857
  32   0.0000       0.095170         2.5897
  33   0.0000       0.122365         3.3297

MULLIKEN ATOMIC CHARGES
-----------------------
   0 C :    0.488727
   1 C :   -0.559440
   2 H :    0.089682
   3 H :    0.116823
   4 S :    1.395007
   5 O :   -0.646750
   6 F :   -0.362222
   7 O :   -0.643723
   8 H :    0.052971
   9 H :    0.022988
  10 H :    0.045935
Sum of atomic charges:   -0.0000000

LOEWDIN ATOMIC CHARGES
----------------------
   0 C :    0.118636
   1 C :   -0.128060
   2 H :    0.037700
   3 H :    0.033555
   4 S :    1.099392
   5 O :   -0.475780
   6 F :   -0.238085
   7 O :   -0.476918
   8 H :    0.007288
   9 H :    0.009229
  10 H :    0.013044

  Mayer bond orders larger than 0.100000
B(  0-C ,  1-C ) :   1.3247 B(  0-C ,  8-H ) :   0.8546 B(  0-C ,  9-H ) :   0.8138
B(  0-C , 10-H ) :   0.8485 B(  1-C ,  2-H ) :   0.9788 B(  1-C ,  3-H ) :   0.9636
B(  1-C ,  4-S ) :   0.9905 B(  1-C ,  8-H ) :   0.1588 B(  1-C ,  9-H ) :   0.1590
B(  1-C , 10-H ) :   0.1538 B(  4-S ,  5-O ) :   1.5317 B(  4-S ,  6-F ) :   0.7361
B(  4-S ,  7-O ) :   1.5254

FINAL SINGLE POINT ENERGY      -726.029641479549

DIPOLE MOMENT
-------------
                                X             Y             Z
Electronic contribution:     -6.96336       6.95345      -2.08675
Nuclear contribution   :      6.63544      -8.66423       1.42287
                        -----------------------------------------
Total Dipole Moment    :     -0.32791      -1.71078      -0.66388
                        -----------------------------------------
Magnitude (a.u.)       :      1.86415
Magnitude (Debye)      :      4.73828

Rotational constants in cm-1:     0.158118     0.080978     0.078216
Rotational constants in MHz :  4740.271775  2427.649826  2344.849020

                             ****ORCA TERMINATED NORMALLY****
TOTAL RUN TIME: 0 days 0 hours 0 minutes 18 seconds 286 msec
