                         Program Version 5.0.0 -  RELEASE  -
|  1> !LC-PBE RIJCOSX def2-SVPD def2/J TightSCF
|  2> *xyz 0 1
|  3> C          4.49059        1.15590       -2.46929
|  4> N          4.30539        1.22276       -3.90832
|  5> C          4.63192        2.24637       -4.67096
|  6> C          4.54169        2.14399       -5.98714
|  7> N          5.08409        3.39358       -4.11855
|  8> H          4.92067        3.57050       -3.13587
|  9> H          5.25465        4.19739       -4.70696
| 10> H          3.82453        0.44911       -4.35093
| 11> H          4.34337        1.24932       -6.41665
| 12> H          4.67671        2.95662       -6.57411
| 13> C          5.94213        0.93950       -2.03689
| 14> H          3.86431        0.32853       -2.13661
| 15> H          4.07623        2.04999       -1.98901
| 16> H          6.32982        0.06401       -2.51451
| 17> H          5.98308        0.81426       -0.97504
| 18> H          6.52865        1.78889       -2.31873
| 19> *
| 20>
| 21> %MaxCore 64000
| 22>
| 23> %pal nprocs 4
| 24> end
| 25>
| 26> %scf
| 27>   MaxIter 150
| 28> end
| 29>
| 30>
| 31>                          ****END OF INPUT****

CARTESIAN COORDINATES (ANGSTROEM)
---------------------------------
  C      4.490590    1.155900   -2.469290
  N      4.305390    1.222760   -3.908320
  C      4.631920    2.246370   -4.670960
  C      4.541690    2.143990   -5.987140
  N      5.084090    3.393580   -4.118550
  H      4.920670    3.570500   -3.135870
  H      5.254650    4.197390   -4.706960
  H      3.824530    0.449110   -4.350930
  H      4.343370    1.249320   -6.416650
  H      4.676710    2.956620   -6.574110
  C      5.942130    0.939500   -2.036890
  H      3.864310    0.328530   -2.136610
  H      4.076230    2.049990   -1.989010
  H      6.329820    0.064010   -2.514510
  H      5.983080    0.814260   -0.975040
  H      6.528650    1.788890   -2.318730

 Total Charge           Charge          ....    0
 Multiplicity           Mult            ....    1
 Number of Electrons    NEL             ....   48
 Basis Dimension        Dim             ....  200

ORBITAL ENERGIES
----------------

  NO   OCC          E(Eh)            E(eV)
   0   2.0000     -14.230466      -387.2307
   1   2.0000     -14.227909      -387.1611
   2   2.0000     -10.177637      -276.9476
   3   2.0000     -10.168994      -276.7124
   4   2.0000     -10.114280      -275.2235
   5   2.0000     -10.035544      -273.0810
   6   2.0000      -1.139186       -30.9988
   7   2.0000      -1.043888       -28.4056
   8   2.0000      -0.940236       -25.5851
   9   2.0000      -0.864842       -23.5336
  10   2.0000      -0.788580       -21.4583
  11   2.0000      -0.750150       -20.4126
  12   2.0000      -0.685216       -18.6457
  13   2.0000      -0.645580       -17.5671
  14   2.0000      -0.621309       -16.9067
  15   2.0000      -0.592437       -16.1210
  16   2.0000      -0.566985       -15.4284
  17   2.0000      -0.542547       -14.7634
  18   2.0000      -0.517603       -14.0847
  19   2.0000      -0.509088       -13.8530
  20   2.0000      -0.495075       -13.4717
  21   2.0000      -0.483547       -13.1580
  22   2.0000      -0.386262       -10.5107
  23   2.0000      -0.280157        -7.6235
  24   0.0000       0.084614         2.3025
  25   0.0000       0.112909         3.0724
  26   0.0000       0.117944         3.2094
  27   0.0000       0.121664         3.3106
  28   0.0000       0.152589         4.1522

MULLIKEN ATOMIC CHARGES
-----------------------
   0 C :    0.075690
   1 N :   -0.329781
   2 C :    0.748899
   3 C :    0.127738
   4 N :    0.045953
   5 H :   -0.078552
   6 H :   -0.137907
   7 H :   -0.213436
   8 H :   -0.226621
   9 H :   -0.290747
  10 C :    0.436654
  11 H :   -0.227500
  12 H :    0.014662
  13 H :    0.003986
  14 H :    0.035151
  15 H :    0.015810
Sum of atomic charges:    0.0000000

LOEWDIN ATOMIC CHARGES
----------------------
   0 C :   -0.018304
   1 N :   -0.031325
   2 C :   -0.238368
   3 C :    0.107545
   4 N :    0.185006
   5 H :   -0.015835
   6 H :    0.013929
   7 H :    0.046370
   8 H :   -0.085468
   9 H :   -0.087500
  10 C :    0.101510
  11 H :    0.031770
  12 H :    0.021485
  13 H :   -0.004140
  14 H :   -0.008707
  15 H :   -0.017970

  Mayer bond orders larger than 0.100000
B(  0-C ,  1-N ) :   0.9431 B(  0-C ,  7-H ) :  -0.1607 B(  0-C , 10-C ) :   1.2554
B(  0-C , 11-H ) :   0.9780 B(  0-C , 12-H ) :   0.9116 B(  0-C , 13-H ) :   0.1980
B(  0-C , 14-H ) :   0.1242 B(  0-C , 15-H ) :   0.1623 B(  1-N ,  2-C ) :   1.0644
B(  1-N ,  3-C ) :   0.2306 B(  1-N ,  4-N ) :   0.1587 B(  1-N ,  7-H ) :   1.2803
B(  1-N , 11-H ) :   0.1529 B(  2-C ,  3-C ) :   1.4690 B(  2-C ,  4-N ) :   0.9240
B(  2-C ,  6-H ) :  -0.1169 B(  2-C ,  7-H ) :  -0.2154 B(  2-C ,  9-H ) :   0.1165
B(  3-C ,  4-N ) :   0.1841 B(  3-C ,  8-H ) :   0.8985 B(  3-C ,  9-H ) :   0.8583
B(  4-N ,  5-H ) :   1.0628 B(  4-N ,  6-H ) :   1.2150 B(  5-H ,  6-H ) :  -0.1810
B( 10-C , 13-H ) :   0.8515 B( 10-C , 14-H ) :   0.8683 B( 10-C , 15-H ) :   0.8546

FINAL SINGLE POINT ENERGY      -266.855895288954

DIPOLE MOMENT
-------------
                                X             Y             Z
Electronic contribution:     -1.42681       1.07895      -1.92330
Nuclear contribution   :      1.28075      -1.05140       2.98955
                        -----------------------------------------
Total Dipole Moment    :     -0.14606       0.02756       1.06625
                        -----------------------------------------
Magnitude (a.u.)       :      1.07656
Magnitude (Debye)      :      2.73640

Rotational constants in cm-1:     0.229858     0.078444     0.067377
Rotational constants in MHz :  6890.979812  2351.691803  2019.910665

                             ****ORCA TERMINATED NORMALLY****
TOTAL RUN TIME: 0 days 0 hours 0 minutes 26 seconds 963 msec
