                         Program Version 5.0.0 -  RELEASE  -
|  1> !LC-PBE RIJCOSX def2-SVPD def2/J TightSCF
|  2> *xyz 0 1
|  3> C          4.90646       -3.10282       -5.95484
|  4> C          3.51177       -2.80621       -6.49228
|  5> H          2.73604       -3.37345       -5.97374
|  6> H          3.44490       -3.04083       -7.55528
|  7> S          3.00462       -1.09621       -6.38926
|  8> O          4.12886       -0.32965       -6.95372
|  9> O          1.78128       -1.00078       -7.13640
| 10> F          2.85155       -0.78368       -4.95679
| 11> H          5.62703       -2.52424       -6.49422
| 12> H          5.12164       -4.14387       -6.07654
| 13> H          4.95004       -2.84862       -4.91639
| 14> *
| 15>
| 16> %MaxCore 64000
| 17>
| 18> %pal nprocs 4
| 19> end
| 20>
| 21> %scf
| 22>   MaxIter 150
| 23> end
| 24>
| 25>
| 26>                          ****END OF INPUT****

CARTESIAN COORDINATES (ANGSTROEM)
---------------------------------
  C      4.906460   -3.102820   -5.954840
  C      3.511770   -2.806210   -6.492280
  H      2.736040   -3.373450   -5.973740
  H      3.444900   -3.040830   -7.555280
  S      3.004620   -1.096210   -6.389260
  O      4.128860   -0.329650   -6.953720
  O      1.781280   -1.000780   -7.136400
  F      2.851550   -0.783680   -4.956790
  H      5.627030   -2.524240   -6.494220
  H      5.121640   -4.143870   -6.076540
  H      4.950040   -2.848620   -4.916390

 Total Charge           Charge          ....    0
 Multiplicity           Mult            ....    1
 Number of Electrons    NEL             ....   58
 Basis Dimension        Dim             ....  176

ORBITAL ENERGIES
----------------

  NO   OCC          E(Eh)            E(eV)
   0   2.0000     -88.574916     -2410.2460
   1   2.0000     -24.617900      -669.8871
   2   2.0000     -19.013227      -517.3762
   3   2.0000     -19.000574      -517.0319
   4   2.0000     -10.200402      -277.5671
   5   2.0000     -10.152408      -276.2611
   6   2.0000      -8.197660      -223.0697
   7   2.0000      -6.224701      -169.3827
   8   2.0000      -6.217565      -169.1885
   9   2.0000      -6.216309      -169.1544
  10   2.0000      -1.517977       -41.3063
  11   2.0000      -1.287872       -35.0448
  12   2.0000      -1.178880       -32.0790
  13   2.0000      -1.007339       -27.4111
  14   2.0000      -0.891512       -24.2593
  15   2.0000      -0.842311       -22.9205
  16   2.0000      -0.745934       -20.2979
  17   2.0000      -0.729582       -19.8529
  18   2.0000      -0.702825       -19.1248
  19   2.0000      -0.648151       -17.6371
  20   2.0000      -0.632092       -17.2001
  21   2.0000      -0.605884       -16.4869
  22   2.0000      -0.579750       -15.7758
  23   2.0000      -0.551187       -14.9986
  24   2.0000      -0.542133       -14.7522
  25   2.0000      -0.519871       -14.1464
  26   2.0000      -0.478506       -13.0208
  27   2.0000      -0.464158       -12.6304
  28   2.0000      -0.452859       -12.3229
  29   0.0000       0.061846         1.6829
  30   0.0000       0.088582         2.4104
  31   0.0000       0.091868         2.4999
  32   0.0000       0.094645         2.5754
  33   0.0000       0.121770         3.3135

MULLIKEN ATOMIC CHARGES
-----------------------
   0 C :    0.516523
   1 C :   -0.550393
   2 H :    0.081303
   3 H :    0.120042
   4 S :    1.374079
   5 O :   -0.659466
   6 O :   -0.605930
   7 F :   -0.376929
   8 H :    0.055682
   9 H :    0.022609
  10 H :    0.022478
Sum of atomic charges:   -0.0000000

LOEWDIN ATOMIC CHARGES
----------------------
   0 C :    0.104316
   1 C :   -0.117552
   2 H :    0.037544
   3 H :    0.047632
   4 S :    1.095654
   5 O :   -0.474059
   6 O :   -0.457229
   7 F :   -0.254477
   8 H :    0.005283
   9 H :    0.007244
  10 H :    0.005642

  Mayer bond orders larger than 0.100000
B(  0-C ,  1-C ) :   1.2848 B(  0-C ,  8-H ) :   0.8627 B(  0-C ,  9-H ) :   0.8082
B(  0-C , 10-H ) :   0.8457 B(  1-C ,  2-H ) :   0.9866 B(  1-C ,  3-H ) :   0.9826
B(  1-C ,  4-S ) :   1.0224 B(  1-C ,  8-H ) :   0.1589 B(  1-C ,  9-H ) :   0.1591
B(  1-C , 10-H ) :   0.1523 B(  4-S ,  5-O ) :   1.5385 B(  4-S ,  6-O ) :   1.5973
B(  4-S ,  7-F ) :   0.6752

FINAL SINGLE POINT ENERGY      -726.046355273184

DIPOLE MOMENT
-------------
                                X             Y             Z
Electronic contribution:     -5.12771       7.31919       1.67512
Nuclear contribution   :      5.52019      -8.89046      -0.84835
                        -----------------------------------------
Total Dipole Moment    :      0.39248      -1.57126       0.82677
                        -----------------------------------------
Magnitude (a.u.)       :      1.81837
Magnitude (Debye)      :      4.62193

Rotational constants in cm-1:     0.153332     0.082132     0.079755
Rotational constants in MHz :  4596.775407  2462.251277  2391.008596

                             ****ORCA TERMINATED NORMALLY****
TOTAL RUN TIME: 0 days 0 hours 0 minutes 18 seconds 173 msec
