                         Program Version 5.0.0 -  RELEASE  -
|  1> !LC-PBE RIJCOSX def2-SVPD def2/J TightSCF
|  2> *xyz 0 1
|  3> C          4.49059        1.15590       -2.46929
|  4> N          4.30539        1.22276       -3.90832
|  5> C          4.63192        2.24637       -4.67096
|  6> N          4.54169        2.14399       -5.98714
|  7> C          5.08409        3.39358       -4.11855
|  8> H          4.92067        3.57050       -3.13587
|  9> H          5.25465        4.19739       -4.70696
| 10> H          3.82453        0.44911       -4.35093
| 11> H          4.34337        1.24932       -6.41665
| 12> H          4.67671        2.95662       -6.57411
| 13> C          5.94213        0.93950       -2.03689
| 14> H          3.86431        0.32853       -2.13661
| 15> H          4.07623        2.04999       -1.98901
| 16> H          6.32982        0.06401       -2.51451
| 17> H          5.98308        0.81426       -0.97504
| 18> H          6.52865        1.78889       -2.31873
| 19> *
| 20>
| 21> %MaxCore 64000
| 22>
| 23> %pal nprocs 4
| 24> end
| 25>
| 26> %scf
| 27>   MaxIter 150
| 28> end
| 29>
| 30>
| 31>                          ****END OF INPUT****

CARTESIAN COORDINATES (ANGSTROEM)
---------------------------------
  C      4.490590    1.155900   -2.469290
  N      4.305390    1.222760   -3.908320
  C      4.631920    2.246370   -4.670960
  N      4.541690    2.143990   -5.987140
  C      5.084090    3.393580   -4.118550
  H      4.920670    3.570500   -3.135870
  H      5.254650    4.197390   -4.706960
  H      3.824530    0.449110   -4.350930
  H      4.343370    1.249320   -6.416650
  H      4.676710    2.956620   -6.574110
  C      5.942130    0.939500   -2.036890
  H      3.864310    0.328530   -2.136610
  H      4.076230    2.049990   -1.989010
  H      6.329820    0.064010   -2.514510
  H      5.983080    0.814260   -0.975040
  H      6.528650    1.788890   -2.318730

 Total Charge           Charge          ....    0
 Multiplicity           Mult            ....    1
 Number of Electrons    NEL             ....   48
 Basis Dimension        Dim             ....  200

ORBITAL ENERGIES
----------------

  NO   OCC          E(Eh)            E(eV)
   0   2.0000     -14.234941      -387.3524
   1   2.0000     -14.230746      -387.2383
   2   2.0000     -10.181177      -277.0439
   3   2.0000     -10.160399      -276.4785
   4   2.0000     -10.103859      -274.9400
   5   2.0000     -10.036780      -273.1147
   6   2.0000      -1.142987       -31.1022
   7   2.0000      -1.052286       -28.6341
   8   2.0000      -0.918893       -25.0043
   9   2.0000      -0.871341       -23.7104
  10   2.0000      -0.798960       -21.7408
  11   2.0000      -0.711349       -19.3568
  12   2.0000      -0.704559       -19.1720
  13   2.0000      -0.667833       -18.1727
  14   2.0000      -0.616815       -16.7844
  15   2.0000      -0.581680       -15.8283
  16   2.0000      -0.558047       -15.1852
  17   2.0000      -0.535702       -14.5772
  18   2.0000      -0.514996       -14.0138
  19   2.0000      -0.500271       -13.6131
  20   2.0000      -0.496431       -13.5086
  21   2.0000      -0.473711       -12.8903
  22   2.0000      -0.380932       -10.3657
  23   2.0000      -0.281326        -7.6553
  24   0.0000       0.088595         2.4108
  25   0.0000       0.109037         2.9670
  26   0.0000       0.116323         3.1653
  27   0.0000       0.127772         3.4769
  28   0.0000       0.155659         4.2357

MULLIKEN ATOMIC CHARGES
-----------------------
   0 C :    0.062529
   1 N :   -0.386438
   2 C :    0.648885
   3 N :   -0.017225
   4 C :    0.221298
   5 H :   -0.084018
   6 H :   -0.416682
   7 H :   -0.271113
   8 H :   -0.115136
   9 H :   -0.023436
  10 C :    0.458976
  11 H :   -0.223767
  12 H :    0.116989
  13 H :   -0.015828
  14 H :    0.046887
  15 H :   -0.001922
Sum of atomic charges:    0.0000000

LOEWDIN ATOMIC CHARGES
----------------------
   0 C :   -0.011941
   1 N :   -0.036466
   2 C :   -0.237074
   3 N :    0.164509
   4 C :    0.127439
   5 H :   -0.102364
   6 H :   -0.093602
   7 H :    0.033481
   8 H :    0.004880
   9 H :    0.019713
  10 C :    0.105360
  11 H :    0.030315
  12 H :    0.029006
  13 H :   -0.007659
  14 H :   -0.008100
  15 H :   -0.017496

  Mayer bond orders larger than 0.100000
B(  0-C ,  1-N ) :   0.9479 B(  0-C ,  5-H ) :   0.1061 B(  0-C ,  7-H ) :  -0.1488
B(  0-C , 10-C ) :   1.2269 B(  0-C , 11-H ) :   1.0107 B(  0-C , 12-H ) :   0.8784
B(  0-C , 13-H ) :   0.1878 B(  0-C , 14-H ) :   0.1201 B(  0-C , 15-H ) :   0.1616
B(  1-N ,  2-C ) :   0.9773 B(  1-N ,  3-N ) :   0.1692 B(  1-N ,  4-C ) :   0.3417
B(  1-N ,  7-H ) :   1.3862 B(  1-N , 11-H ) :   0.1296 B(  2-C ,  3-N ) :   0.9171
B(  2-C ,  4-C ) :   1.7546 B(  2-C ,  5-H ) :   0.2150 B(  2-C ,  6-H ) :   0.1451
B(  2-C ,  7-H ) :  -0.2902 B(  3-N ,  4-C ) :   0.2262 B(  3-N ,  8-H ) :   1.1962
B(  3-N ,  9-H ) :   1.1881 B(  4-C ,  5-H ) :   0.7235 B(  4-C ,  6-H ) :   0.9181
B(  5-H ,  6-H ) :   0.1063 B(  8-H ,  9-H ) :  -0.1617 B( 10-C , 13-H ) :   0.8514
B( 10-C , 14-H ) :   0.8625 B( 10-C , 15-H ) :   0.8703

FINAL SINGLE POINT ENERGY      -266.855284446606

DIPOLE MOMENT
-------------
                                X             Y             Z
Electronic contribution:     -1.90913      -0.13769      -3.82924
Nuclear contribution   :      1.39581      -0.78630       3.38596
                        -----------------------------------------
Total Dipole Moment    :     -0.51331      -0.92400      -0.44328
                        -----------------------------------------
Magnitude (a.u.)       :      1.14619
Magnitude (Debye)      :      2.91339

Rotational constants in cm-1:     0.239249     0.075811     0.066261
Rotational constants in MHz :  7172.504830  2272.756282  1986.457543

                             ****ORCA TERMINATED NORMALLY****
TOTAL RUN TIME: 0 days 0 hours 0 minutes 26 seconds 830 msec
