                         Program Version 5.0.0 -  RELEASE  -
|  1> !LC-PBE RIJCOSX def2-SVPD def2/J TightSCF xyzfile
|  2>
|  3> *xyzfile 0 1 D1.xyz
|  4>
|  5> %MaxCore 64000
|  6>
|  7> %pal nprocs 4
|  8> end
|  9>
| 10> %scf
| 11>   MaxIter 150
| 12> end
| 13>
| 14>
| 15>                          ****END OF INPUT****

CARTESIAN COORDINATES (ANGSTROEM)
---------------------------------
  C      4.490588    1.155899   -2.469290
  C      4.305394    1.222762   -3.908317
  C      4.906458   -3.102816   -5.954844
  C      3.511771   -2.806215   -6.492283
  H      2.736044   -3.373445   -5.973736
  H      3.444904   -3.040831   -7.555281
  S      3.004618   -1.096206   -6.389259
  C      4.631918    2.246365   -4.670958
  N      4.541686    2.143990   -5.987139
  N      5.084086    3.393584   -4.118545
  H      4.920675    3.570501   -3.135870
  H      5.254652    4.197390   -4.706956
  H      3.824530    0.449113   -4.350926
  H      4.343373    1.249318   -6.416646
  H      4.676712    2.956624   -6.574113
  F      4.128856   -0.329647   -6.953717
  O      1.781285   -1.000779   -7.136399
  C      5.942129    0.939500   -2.036893
  H      3.864305    0.328532   -2.136611
  H      4.076233    2.049994   -1.989010
  C      6.462677   -3.117775   -3.944671
  C      5.024977   -3.025679   -4.437625
  H      4.423321   -3.818693   -3.977648
  H      4.579350   -2.087131   -4.108727
  H      5.201533   -4.100207   -6.296905
  H      5.605922   -2.397822   -6.413368
  C      6.559957   -0.356290   -2.559086
  H      5.967976    0.952567   -0.942444
  H      6.547184    1.788331   -2.368849
  C      6.006283   -1.615917   -1.899301
  H      7.642360   -0.318000   -2.402059
  H      6.414855   -0.403433   -3.642587
  C      6.608718   -2.917014   -2.435655
  H      6.190324   -1.561115   -0.820948
  H      4.919250   -1.651245   -2.016586
  H      7.066975   -2.374258   -4.475514
  H      6.887808   -4.089747   -4.215332
  H      6.135197   -3.755573   -1.915159
  H      7.671142   -2.955503   -2.172291
  O      2.851546   -0.783683   -4.956789

 Total Charge           Charge          ....    0
 Multiplicity           Mult            ....    1
 Number of Electrons    NEL             ....  144
 Basis Dimension        Dim             ....  540

ORBITAL ENERGIES
----------------

  NO   OCC          E(Eh)            E(eV)
   0   2.0000     -88.585550     -2410.5354
   1   2.0000     -24.638070      -670.4360
   2   2.0000     -19.021039      -517.5888
   3   2.0000     -19.007689      -517.2255
   4   2.0000     -14.217522      -386.8784
   5   2.0000     -14.212970      -386.7546
   6   2.0000     -10.200857      -277.5794
   7   2.0000     -10.161788      -276.5163
   8   2.0000     -10.158255      -276.4202
   9   2.0000     -10.129107      -275.6270
  10   2.0000     -10.124135      -275.4917
  11   2.0000     -10.117181      -275.3025
  12   2.0000     -10.107893      -275.0498
  13   2.0000     -10.100749      -274.8553
  14   2.0000     -10.095729      -274.7187
  15   2.0000     -10.088495      -274.5219
  16   2.0000     -10.021323      -272.6941
  17   2.0000      -8.206878      -223.3205
  18   2.0000      -6.234253      -169.6427
  19   2.0000      -6.226878      -169.4420
  20   2.0000      -6.225271      -169.3982
  21   2.0000      -1.538941       -41.8767
  22   2.0000      -1.297464       -35.3058
  23   2.0000      -1.187976       -32.3265
  24   2.0000      -1.116662       -30.3859
  25   2.0000      -1.026241       -27.9254
  26   2.0000      -1.018107       -27.7041
  27   2.0000      -0.984356       -26.7857
  28   2.0000      -0.952435       -25.9171
  29   2.0000      -0.923363       -25.1260
  30   2.0000      -0.893577       -24.3155
  31   2.0000      -0.868951       -23.6454
  32   2.0000      -0.835866       -22.7451
  33   2.0000      -0.802977       -21.8501
  34   2.0000      -0.777648       -21.1609
  35   2.0000      -0.769729       -20.9454
  36   2.0000      -0.754657       -20.5353
  37   2.0000      -0.739459       -20.1217
  38   2.0000      -0.717504       -19.5243
  39   2.0000      -0.714083       -19.4312
  40   2.0000      -0.695278       -18.9195
  41   2.0000      -0.676927       -18.4201
  42   2.0000      -0.653189       -17.7742
  43   2.0000      -0.641904       -17.4671
  44   2.0000      -0.635014       -17.2796
  45   2.0000      -0.623910       -16.9775
  46   2.0000      -0.610611       -16.6156
  47   2.0000      -0.598674       -16.2907
  48   2.0000      -0.596840       -16.2409
  49   2.0000      -0.592287       -16.1169
  50   2.0000      -0.570493       -15.5239
  51   2.0000      -0.562431       -15.3045
  52   2.0000      -0.561141       -15.2694
  53   2.0000      -0.550003       -14.9663
  54   2.0000      -0.533127       -14.5071
  55   2.0000      -0.525012       -14.2863
  56   2.0000      -0.520080       -14.1521
  57   2.0000      -0.506497       -13.7825
  58   2.0000      -0.505571       -13.7573
  59   2.0000      -0.489164       -13.3108
  60   2.0000      -0.486780       -13.2460
  61   2.0000      -0.476579       -12.9684
  62   2.0000      -0.469764       -12.7829
  63   2.0000      -0.453141       -12.3306
  64   2.0000      -0.451602       -12.2887
  65   2.0000      -0.446178       -12.1411
  66   2.0000      -0.435366       -11.8469
  67   2.0000      -0.425361       -11.5747
  68   2.0000      -0.418253       -11.3813
  69   2.0000      -0.402934       -10.9644
  70   2.0000      -0.386804       -10.5255
  71   2.0000      -0.261003        -7.1023
  72   0.0000       0.060901         1.6572
  73   0.0000       0.082399         2.2422
  74   0.0000       0.089395         2.4326
  75   0.0000       0.093487         2.5439
  76   0.0000       0.105114         2.8603

MULLIKEN ATOMIC CHARGES
-----------------------
   0 C :   -0.018510
   1 C :    0.143269
   2 C :    0.110497
   3 C :    0.058876
   4 H :    0.143593
   5 H :    0.096279
   6 S :    1.355536
   7 C :    0.891492
   8 N :    0.190949
   9 N :   -0.070988
  10 H :    0.001394
  11 H :   -0.207777
  12 H :   -0.732514
  13 H :   -0.295724
  14 H :   -0.152425
  15 F :   -0.369380
  16 O :   -0.636857
  17 C :    0.269792
  18 H :    0.213798
  19 H :   -0.100562
  20 C :   -0.134620
  21 C :    0.166676
  22 H :    0.102412
  23 H :   -0.485176
  24 H :   -0.009978
  25 H :    0.085701
  26 C :   -0.072868
  27 H :    0.013193
  28 H :   -0.049926
  29 C :   -0.228493
  30 H :   -0.041746
  31 H :   -0.008457
  32 C :    0.459225
  33 H :   -0.225786
  34 H :    0.158050
  35 H :    0.180595
  36 H :   -0.226507
  37 H :    0.037427
  38 H :    0.086914
  39 O :   -0.697371
Sum of atomic charges:    0.0000000

LOEWDIN ATOMIC CHARGES
----------------------
   0 C :   -0.061513
   1 C :   -0.034783
   2 C :   -0.056241
   3 C :   -0.058920
   4 H :    0.057567
   5 H :    0.038643
   6 S :    1.139617
   7 C :   -0.198062
   8 N :    0.183888
   9 N :    0.185788
  10 H :   -0.005032
  11 H :   -0.004678
  12 H :   -0.141099
  13 H :   -0.076288
  14 H :    0.007222
  15 F :   -0.243234
  16 O :   -0.435970
  17 C :   -0.052208
  18 H :    0.024222
  19 H :    0.020590
  20 C :   -0.059852
  21 C :   -0.048359
  22 H :    0.054465
  23 H :   -0.004196
  24 H :    0.049133
  25 H :    0.038612
  26 C :   -0.054389
  27 H :    0.028171
  28 H :    0.022079
  29 C :   -0.058891
  30 H :    0.035694
  31 H :    0.017875
  32 C :   -0.054588
  33 H :    0.035676
  34 H :    0.019441
  35 H :    0.029016
  36 H :    0.034529
  37 H :    0.033141
  38 H :    0.034331
  39 O :   -0.441396

  Mayer bond orders larger than 0.100000
B(  0-C ,  1-C ) :   1.2469 B(  0-C , 12-H ) :   0.7084 B(  0-C , 17-C ) :   1.1296
B(  0-C , 18-H ) :   0.7219 B(  0-C , 19-H ) :   0.9359 B(  0-C , 27-H ) :   0.1526
B(  0-C , 28-H ) :   0.1273 B(  1-C ,  7-C ) :   1.7834 B(  1-C ,  8-N ) :   0.3134
B(  1-C ,  9-N ) :   0.2910 B(  1-C , 18-H ) :   0.3106 B(  1-C , 19-H ) :   0.1531
B(  2-C ,  3-C ) :   1.2029 B(  2-C ,  5-H ) :   0.2059 B(  2-C , 21-C ) :   1.1467
B(  2-C , 24-H ) :   0.8841 B(  2-C , 25-H ) :   0.8684 B(  3-C ,  4-H ) :   0.9118
B(  3-C ,  5-H ) :   0.7919 B(  3-C ,  6-S ) :   1.0582 B(  6-S , 15-F ) :   0.6085
B(  6-S , 16-O ) :   1.5510 B(  6-S , 39-O ) :   1.5463 B(  7-C ,  8-N ) :   0.7938
B(  7-C ,  9-N ) :   0.7903 B(  7-C , 11-H ) :  -0.1539 B(  7-C , 12-H ) :  -0.1909
B(  7-C , 13-H ) :  -0.2265 B(  7-C , 14-H ) :  -0.1415 B(  8-N , 13-H ) :   1.2424
B(  8-N , 14-H ) :   1.3033 B(  9-N , 10-H ) :   1.0568 B(  9-N , 11-H ) :   1.3090
B( 10-H , 11-H ) :  -0.1818 B( 12-H , 18-H ) :  -0.1825 B( 12-H , 39-O ) :   0.1983
B( 13-H , 14-H ) :  -0.1996 B( 13-H , 15-F ) :   0.1351 B( 16-O , 39-O ) :   0.1106
B( 17-C , 18-H ) :   0.1126 B( 17-C , 26-C ) :   1.3010 B( 17-C , 27-H ) :   0.8327
B( 17-C , 28-H ) :   0.7765 B( 17-C , 31-H ) :   0.1261 B( 20-C , 21-C ) :   1.2516
B( 20-C , 32-C ) :   1.1539 B( 20-C , 35-H ) :   0.8662 B( 20-C , 36-H ) :   1.0161
B( 20-C , 38-H ) :   0.1846 B( 21-C , 22-H ) :   0.7408 B( 21-C , 23-H ) :   0.8142
B( 21-C , 24-H ) :   0.1628 B( 21-C , 36-H ) :   0.1837 B( 22-H , 23-H ) :   0.2391
B( 23-H , 34-H ) :   0.1106 B( 26-C , 27-H ) :   0.1074 B( 26-C , 28-H ) :   0.2002
B( 26-C , 29-C ) :   1.2248 B( 26-C , 30-H ) :   0.8782 B( 26-C , 31-H ) :   0.9299
B( 26-C , 33-H ) :   0.1272 B( 29-C , 30-H ) :   0.1231 B( 29-C , 32-C ) :   1.1531
B( 29-C , 33-H ) :   1.0674 B( 29-C , 34-H ) :   0.8663 B( 29-C , 37-H ) :   0.2370
B( 29-C , 38-H ) :   0.1144 B( 32-C , 37-H ) :   0.7438 B( 32-C , 38-H ) :   0.7440

FINAL SINGLE POINT ENERGY     -1187.454189715849

DIPOLE MOMENT
-------------
                                X             Y             Z
Electronic contribution:    -16.26128       4.75851     -21.40485
Nuclear contribution   :     17.24138      -5.45913      20.34076
                        -----------------------------------------
Total Dipole Moment    :      0.98010      -0.70062      -1.06409
                        -----------------------------------------
Magnitude (a.u.)       :      1.60740
Magnitude (Debye)      :      4.08569

Rotational constants in cm-1:     0.014201     0.012275     0.007453
Rotational constants in MHz :   425.728191   368.008875   223.435232

                             ****ORCA TERMINATED NORMALLY****
TOTAL RUN TIME: 0 days 0 hours 5 minutes 52 seconds 634 msec
