                         Program Version 5.0.0 -  RELEASE  -
|  1> !LC-PBE RIJCOSX def2-SVPD def2/J TightSCF xyzfile
|  2>
|  3> *xyzfile 0 1 D7.xyz
|  4>
|  5> %MaxCore 64000
|  6>
|  7> %pal nprocs 4
|  8> end
|  9>
| 10> %scf
| 11>   MaxIter 150
| 12> end
| 13>
| 14>
| 15>                          ****END OF INPUT****

CARTESIAN COORDINATES (ANGSTROEM)
---------------------------------
  C      4.490588    1.155899   -2.469290
  C      4.305394    1.222762   -3.908317
  C      4.906458   -3.102816   -5.954844
  C      3.511771   -2.806215   -6.492283
  H      2.736044   -3.373445   -5.973736
  H      3.444904   -3.040831   -7.555281
  S      3.004618   -1.096206   -6.389259
  C      4.631918    2.246365   -4.670958
  N      4.541686    2.143990   -5.987139
  N      5.084086    3.393584   -4.118545
  H      4.920675    3.570501   -3.135870
  H      5.254652    4.197390   -4.706956
  H      3.824530    0.449113   -4.350926
  H      4.343373    1.249318   -6.416646
  H      4.676712    2.956624   -6.574113
  O      4.128856   -0.329647   -6.953717
  O      1.781285   -1.000779   -7.136399
  C      5.942129    0.939500   -2.036893
  H      3.864305    0.328532   -2.136611
  H      4.076233    2.049994   -1.989010
  C      6.462677   -3.117775   -3.944671
  C      5.024977   -3.025679   -4.437625
  H      4.423321   -3.818693   -3.977648
  H      4.579350   -2.087131   -4.108727
  H      5.201533   -4.100207   -6.296905
  H      5.605922   -2.397822   -6.413368
  C      6.559957   -0.356290   -2.559086
  H      5.967976    0.952567   -0.942444
  H      6.547184    1.788331   -2.368849
  C      6.006283   -1.615917   -1.899301
  H      7.642360   -0.318000   -2.402059
  H      6.414855   -0.403433   -3.642587
  C      6.608718   -2.917014   -2.435655
  H      6.190324   -1.561115   -0.820948
  H      4.919250   -1.651245   -2.016586
  H      7.066975   -2.374258   -4.475514
  H      6.887808   -4.089747   -4.215332
  H      6.135197   -3.755573   -1.915159
  H      7.671142   -2.955503   -2.172291
  F      2.851546   -0.783683   -4.956789

 Total Charge           Charge          ....    0
 Multiplicity           Mult            ....    1
 Number of Electrons    NEL             ....  144
 Basis Dimension        Dim             ....  540

ORBITAL ENERGIES
----------------

  NO   OCC          E(Eh)            E(eV)
   0   2.0000     -88.588226     -2410.6082
   1   2.0000     -24.623998      -670.0530
   2   2.0000     -19.022055      -517.6164
   3   2.0000     -19.017932      -517.5042
   4   2.0000     -14.218862      -386.9149
   5   2.0000     -14.195044      -386.2668
   6   2.0000     -10.201162      -277.5877
   7   2.0000     -10.161750      -276.5153
   8   2.0000     -10.158297      -276.4213
   9   2.0000     -10.138504      -275.8827
  10   2.0000     -10.127894      -275.5940
  11   2.0000     -10.121253      -275.4133
  12   2.0000     -10.113295      -275.1968
  13   2.0000     -10.103999      -274.9438
  14   2.0000     -10.099509      -274.8216
  15   2.0000     -10.095871      -274.7226
  16   2.0000     -10.031518      -272.9715
  17   2.0000      -8.209199      -223.3837
  18   2.0000      -6.236319      -169.6989
  19   2.0000      -6.229494      -169.5132
  20   2.0000      -6.227736      -169.4653
  21   2.0000      -1.526760       -41.5453
  22   2.0000      -1.299706       -35.3668
  23   2.0000      -1.194949       -32.5162
  24   2.0000      -1.112323       -30.2678
  25   2.0000      -1.026065       -27.9206
  26   2.0000      -1.011127       -27.5142
  27   2.0000      -0.987860       -26.8810
  28   2.0000      -0.956172       -26.0188
  29   2.0000      -0.927008       -25.2252
  30   2.0000      -0.886558       -24.1245
  31   2.0000      -0.873760       -23.7762
  32   2.0000      -0.834216       -22.7002
  33   2.0000      -0.806110       -21.9354
  34   2.0000      -0.784505       -21.3475
  35   2.0000      -0.752610       -20.4796
  36   2.0000      -0.748114       -20.3572
  37   2.0000      -0.736934       -20.0530
  38   2.0000      -0.731524       -19.9058
  39   2.0000      -0.705841       -19.2069
  40   2.0000      -0.698571       -19.0091
  41   2.0000      -0.674780       -18.3617
  42   2.0000      -0.653220       -17.7750
  43   2.0000      -0.637099       -17.3364
  44   2.0000      -0.634123       -17.2554
  45   2.0000      -0.627438       -17.0734
  46   2.0000      -0.624328       -16.9888
  47   2.0000      -0.605609       -16.4795
  48   2.0000      -0.594876       -16.1874
  49   2.0000      -0.585304       -15.9269
  50   2.0000      -0.572708       -15.5842
  51   2.0000      -0.567047       -15.4301
  52   2.0000      -0.565259       -15.3815
  53   2.0000      -0.548978       -14.9385
  54   2.0000      -0.535763       -14.5789
  55   2.0000      -0.525704       -14.3051
  56   2.0000      -0.514644       -14.0042
  57   2.0000      -0.508385       -13.8339
  58   2.0000      -0.504817       -13.7368
  59   2.0000      -0.489991       -13.3333
  60   2.0000      -0.484481       -13.1834
  61   2.0000      -0.474514       -12.9122
  62   2.0000      -0.471157       -12.8208
  63   2.0000      -0.466973       -12.7070
  64   2.0000      -0.457599       -12.4519
  65   2.0000      -0.456363       -12.4183
  66   2.0000      -0.448998       -12.2179
  67   2.0000      -0.431072       -11.7301
  68   2.0000      -0.424237       -11.5441
  69   2.0000      -0.418674       -11.3927
  70   2.0000      -0.380354       -10.3500
  71   2.0000      -0.263877        -7.1805
  72   0.0000       0.066010         1.7962
  73   0.0000       0.082592         2.2475
  74   0.0000       0.090540         2.4637
  75   0.0000       0.094796         2.5795
  76   0.0000       0.106884         2.9085

MULLIKEN ATOMIC CHARGES
-----------------------
   0 C :   -0.011981
   1 C :    0.237421
   2 C :    0.084201
   3 C :    0.047569
   4 H :    0.118209
   5 H :    0.136565
   6 S :    1.427864
   7 C :    0.864744
   8 N :    0.156918
   9 N :   -0.061634
  10 H :    0.002394
  11 H :   -0.206645
  12 H :   -0.776208
  13 H :   -0.288188
  14 H :   -0.154201
  15 O :   -0.616503
  16 O :   -0.639933
  17 C :    0.258959
  18 H :    0.200152
  19 H :   -0.104604
  20 C :   -0.152006
  21 C :    0.140923
  22 H :    0.099009
  23 H :   -0.516414
  24 H :    0.012185
  25 H :    0.144008
  26 C :   -0.062115
  27 H :    0.013710
  28 H :   -0.041760
  29 C :   -0.222562
  30 H :   -0.038224
  31 H :   -0.010779
  32 C :    0.454780
  33 H :   -0.222970
  34 H :    0.141323
  35 H :    0.187449
  36 H :   -0.225265
  37 H :    0.035996
  38 H :    0.093134
  39 F :   -0.505523
Sum of atomic charges:    0.0000000

LOEWDIN ATOMIC CHARGES
----------------------
   0 C :   -0.069413
   1 C :   -0.043082
   2 C :   -0.054194
   3 C :   -0.059612
   4 H :    0.045339
   5 H :    0.050651
   6 S :    1.142554
   7 C :   -0.192390
   8 N :    0.191639
   9 N :    0.188994
  10 H :   -0.005273
  11 H :   -0.001695
  12 H :   -0.112017
  13 H :   -0.114627
  14 H :    0.007500
  15 O :   -0.435711
  16 O :   -0.435004
  17 C :   -0.052186
  18 H :    0.019615
  19 H :    0.020007
  20 C :   -0.056193
  21 C :   -0.052121
  22 H :    0.052230
  23 H :   -0.001655
  24 H :    0.050458
  25 H :    0.042074
  26 C :   -0.053349
  27 H :    0.028316
  28 H :    0.023522
  29 C :   -0.061105
  30 H :    0.036960
  31 H :    0.019898
  32 C :   -0.054448
  33 H :    0.035973
  34 H :    0.015438
  35 H :    0.032357
  36 H :    0.036771
  37 H :    0.032927
  38 H :    0.035411
  39 F :   -0.254557

  Mayer bond orders larger than 0.100000
B(  0-C ,  1-C ) :   1.1829 B(  0-C , 12-H ) :   0.7015 B(  0-C , 17-C ) :   1.1263
B(  0-C , 18-H ) :   0.7167 B(  0-C , 19-H ) :   0.9484 B(  0-C , 27-H ) :   0.1552
B(  0-C , 28-H ) :   0.1392 B(  1-C ,  7-C ) :   1.7467 B(  1-C ,  8-N ) :   0.3174
B(  1-C ,  9-N ) :   0.2900 B(  1-C , 12-H ) :  -0.1421 B(  1-C , 18-H ) :   0.3154
B(  1-C , 19-H ) :   0.1464 B(  2-C ,  3-C ) :   1.2397 B(  2-C ,  5-H ) :   0.2139
B(  2-C , 20-C ) :   0.1032 B(  2-C , 21-C ) :   1.1677 B(  2-C , 24-H ) :   0.8599
B(  2-C , 25-H ) :   0.8848 B(  3-C ,  4-H ) :   0.9333 B(  3-C ,  5-H ) :   0.7497
B(  3-C ,  6-S ) :   1.0177 B(  3-C , 21-C ) :   0.1066 B(  6-S , 15-O ) :   1.4108
B(  6-S , 16-O ) :   1.5428 B(  6-S , 39-F ) :   0.6867 B(  7-C ,  8-N ) :   0.7978
B(  7-C ,  9-N ) :   0.8186 B(  7-C , 11-H ) :  -0.1467 B(  7-C , 12-H ) :  -0.1098
B(  7-C , 13-H ) :  -0.2327 B(  7-C , 14-H ) :  -0.1328 B(  8-N , 13-H ) :   1.2412
B(  8-N , 14-H ) :   1.2980 B(  9-N , 10-H ) :   1.0565 B(  9-N , 11-H ) :   1.3012
B( 10-H , 11-H ) :  -0.1816 B( 12-H , 18-H ) :  -0.1688 B( 12-H , 39-F ) :   0.2134
B( 13-H , 14-H ) :  -0.2240 B( 13-H , 15-O ) :   0.1459 B( 17-C , 18-H ) :   0.1201
B( 17-C , 26-C ) :   1.3023 B( 17-C , 27-H ) :   0.8377 B( 17-C , 28-H ) :   0.7745
B( 17-C , 31-H ) :   0.1288 B( 20-C , 21-C ) :   1.2706 B( 20-C , 23-H ) :   0.1111
B( 20-C , 32-C ) :   1.1514 B( 20-C , 35-H ) :   0.8647 B( 20-C , 36-H ) :   1.0181
B( 20-C , 38-H ) :   0.1846 B( 21-C , 22-H ) :   0.7421 B( 21-C , 23-H ) :   0.7690
B( 21-C , 24-H ) :   0.1668 B( 21-C , 36-H ) :   0.1830 B( 22-H , 23-H ) :   0.2543
B( 23-H , 34-H ) :   0.1178 B( 26-C , 27-H ) :   0.1114 B( 26-C , 28-H ) :   0.1981
B( 26-C , 29-C ) :   1.2182 B( 26-C , 30-H ) :   0.8810 B( 26-C , 31-H ) :   0.9267
B( 26-C , 33-H ) :   0.1262 B( 29-C , 30-H ) :   0.1244 B( 29-C , 32-C ) :   1.1539
B( 29-C , 33-H ) :   1.0669 B( 29-C , 34-H ) :   0.8686 B( 29-C , 37-H ) :   0.2381
B( 29-C , 38-H ) :   0.1144 B( 32-C , 37-H ) :   0.7447 B( 32-C , 38-H ) :   0.7444

FINAL SINGLE POINT ENERGY     -1187.468613465828

DIPOLE MOMENT
-------------
                                X             Y             Z
Electronic contribution:    -18.38879       3.94923     -17.94522
Nuclear contribution   :     18.74089      -4.92611      17.99644
                        -----------------------------------------
Total Dipole Moment    :      0.35211      -0.97688       0.05122
                        -----------------------------------------
Magnitude (a.u.)       :      1.03966
Magnitude (Debye)      :      2.64262

Rotational constants in cm-1:     0.014210     0.012324     0.007480
Rotational constants in MHz :   425.991442   369.455467   224.259162

                             ****ORCA TERMINATED NORMALLY****
TOTAL RUN TIME: 0 days 0 hours 5 minutes 55 seconds 72 msec
