                         Program Version 5.0.0 -  RELEASE  -
|  1> !LC-PBE RIJCOSX def2-SVPD def2/J TightSCF xyzfile
|  2>
|  3> *xyzfile 0 1 D9.xyz
|  4>
|  5> %MaxCore 64000
|  6>
|  7> %pal nprocs 4
|  8> end
|  9>
| 10> %scf
| 11>   MaxIter 150
| 12> end
| 13>
| 14>
| 15>                          ****END OF INPUT****

CARTESIAN COORDINATES (ANGSTROEM)
---------------------------------
  C      4.490588    1.155899   -2.469290
  N      4.305394    1.222762   -3.908317
  C      4.906458   -3.102816   -5.954844
  C      3.511771   -2.806215   -6.492283
  H      2.736044   -3.373445   -5.973736
  H      3.444904   -3.040831   -7.555281
  S      3.004618   -1.096206   -6.389259
  C      4.631918    2.246365   -4.670958
  N      4.541686    2.143990   -5.987139
  C      5.084086    3.393584   -4.118545
  H      4.920675    3.570501   -3.135870
  H      5.254652    4.197390   -4.706956
  H      3.824530    0.449113   -4.350926
  H      4.343373    1.249318   -6.416646
  H      4.676712    2.956624   -6.574113
  O      4.128856   -0.329647   -6.953717
  O      1.781285   -1.000779   -7.136399
  C      5.942129    0.939500   -2.036893
  H      3.864305    0.328532   -2.136611
  H      4.076233    2.049994   -1.989010
  C      6.462677   -3.117775   -3.944671
  C      5.024977   -3.025679   -4.437625
  H      4.423321   -3.818693   -3.977648
  H      4.579350   -2.087131   -4.108727
  H      5.201533   -4.100207   -6.296905
  H      5.605922   -2.397822   -6.413368
  C      6.559957   -0.356290   -2.559086
  H      5.967976    0.952567   -0.942444
  H      6.547184    1.788331   -2.368849
  C      6.006283   -1.615917   -1.899301
  H      7.642360   -0.318000   -2.402059
  H      6.414855   -0.403433   -3.642587
  C      6.608718   -2.917014   -2.435655
  H      6.190324   -1.561115   -0.820948
  H      4.919250   -1.651245   -2.016586
  H      7.066975   -2.374258   -4.475514
  H      6.887808   -4.089747   -4.215332
  H      6.135197   -3.755573   -1.915159
  H      7.671142   -2.955503   -2.172291
  F      2.851546   -0.783683   -4.956789

 Total Charge           Charge          ....    0
 Multiplicity           Mult            ....    1
 Number of Electrons    NEL             ....  144
 Basis Dimension        Dim             ....  540

ORBITAL ENERGIES
----------------

  NO   OCC          E(Eh)            E(eV)
   0   2.0000     -88.603329     -2411.0192
   1   2.0000     -24.650951      -670.7865
   2   2.0000     -19.036439      -518.0079
   3   2.0000     -19.032785      -517.9084
   4   2.0000     -14.218562      -386.9067
   5   2.0000     -14.194423      -386.2499
   6   2.0000     -10.214059      -277.9387
   7   2.0000     -10.169870      -276.7362
   8   2.0000     -10.163077      -276.5514
   9   2.0000     -10.152430      -276.2617
  10   2.0000     -10.151629      -276.2399
  11   2.0000     -10.138467      -275.8817
  12   2.0000     -10.131550      -275.6935
  13   2.0000     -10.125724      -275.5350
  14   2.0000     -10.117409      -275.3087
  15   2.0000     -10.112172      -275.1662
  16   2.0000     -10.020172      -272.6627
  17   2.0000      -8.224737      -223.8065
  18   2.0000      -6.252065      -170.1273
  19   2.0000      -6.244870      -169.9315
  20   2.0000      -6.243056      -169.8822
  21   2.0000      -1.552012       -42.2324
  22   2.0000      -1.315523       -35.7972
  23   2.0000      -1.209748       -32.9189
  24   2.0000      -1.125881       -30.6368
  25   2.0000      -1.039155       -28.2769
  26   2.0000      -1.032914       -28.1070
  27   2.0000      -0.997270       -27.1371
  28   2.0000      -0.959996       -26.1228
  29   2.0000      -0.924513       -25.1573
  30   2.0000      -0.901397       -24.5282
  31   2.0000      -0.865692       -23.5567
  32   2.0000      -0.853705       -23.2305
  33   2.0000      -0.827011       -22.5041
  34   2.0000      -0.802527       -21.8379
  35   2.0000      -0.776362       -21.1259
  36   2.0000      -0.763880       -20.7862
  37   2.0000      -0.754843       -20.5403
  38   2.0000      -0.737122       -20.0581
  39   2.0000      -0.718790       -19.5593
  40   2.0000      -0.687711       -18.7136
  41   2.0000      -0.678053       -18.4508
  42   2.0000      -0.668981       -18.2039
  43   2.0000      -0.657978       -17.9045
  44   2.0000      -0.644135       -17.5278
  45   2.0000      -0.643291       -17.5048
  46   2.0000      -0.623982       -16.9794
  47   2.0000      -0.620133       -16.8747
  48   2.0000      -0.601018       -16.3545
  49   2.0000      -0.596067       -16.2198
  50   2.0000      -0.583616       -15.8810
  51   2.0000      -0.580404       -15.7936
  52   2.0000      -0.564534       -15.3618
  53   2.0000      -0.552936       -15.0461
  54   2.0000      -0.539057       -14.6685
  55   2.0000      -0.530209       -14.4277
  56   2.0000      -0.523325       -14.2404
  57   2.0000      -0.516032       -14.0419
  58   2.0000      -0.506951       -13.7948
  59   2.0000      -0.502711       -13.6795
  60   2.0000      -0.495434       -13.4814
  61   2.0000      -0.489512       -13.3203
  62   2.0000      -0.484424       -13.1819
  63   2.0000      -0.479518       -13.0484
  64   2.0000      -0.474368       -12.9082
  65   2.0000      -0.470162       -12.7938
  66   2.0000      -0.465880       -12.6772
  67   2.0000      -0.446761       -12.1570
  68   2.0000      -0.443135       -12.0583
  69   2.0000      -0.434987       -11.8366
  70   2.0000      -0.361184        -9.8283
  71   2.0000      -0.264809        -7.2058
  72   0.0000       0.054822         1.4918
  73   0.0000       0.073318         1.9951
  74   0.0000       0.082571         2.2469
  75   0.0000       0.089324         2.4306
  76   0.0000       0.098124         2.6701

MULLIKEN ATOMIC CHARGES
-----------------------
   0 C :    0.716198
   1 N :    0.415022
   2 C :    0.068947
   3 C :    0.050574
   4 H :    0.119783
   5 H :    0.156632
   6 S :    1.342865
   7 C :    0.581424
   8 N :    0.493778
   9 C :    0.327775
  10 H :    0.120926
  11 H :   -0.580224
  12 H :   -1.238695
  13 H :   -0.440533
  14 H :   -0.139356
  15 O :   -0.651982
  16 O :   -0.631492
  17 C :    0.209084
  18 H :   -0.235870
  19 H :   -0.021696
  20 C :   -0.165954
  21 C :    0.098577
  22 H :    0.103507
  23 H :   -0.478927
  24 H :    0.016062
  25 H :    0.151059
  26 C :   -0.039572
  27 H :   -0.036718
  28 H :    0.038366
  29 C :   -0.285425
  30 H :   -0.076574
  31 H :   -0.060833
  32 C :    0.462337
  33 H :   -0.226104
  34 H :    0.174857
  35 H :    0.193857
  36 H :   -0.220663
  37 H :    0.038014
  38 H :    0.098964
  39 F :   -0.447989
Sum of atomic charges:    0.0000000

LOEWDIN ATOMIC CHARGES
----------------------
   0 C :    0.041695
   1 N :   -0.002642
   2 C :   -0.053128
   3 C :   -0.057299
   4 H :    0.046252
   5 H :    0.052947
   6 S :    1.142385
   7 C :   -0.216277
   8 N :    0.199075
   9 C :    0.122831
  10 H :   -0.106118
  11 H :   -0.095857
  12 H :   -0.060982
  13 H :   -0.123685
  14 H :    0.023786
  15 O :   -0.434804
  16 O :   -0.427561
  17 C :   -0.035610
  18 H :    0.024075
  19 H :    0.031195
  20 C :   -0.054858
  21 C :   -0.053858
  22 H :    0.053241
  23 H :   -0.005261
  24 H :    0.052467
  25 H :    0.042962
  26 C :   -0.054221
  27 H :    0.035040
  28 H :    0.025819
  29 C :   -0.063905
  30 H :    0.039817
  31 H :    0.018743
  32 C :   -0.052514
  33 H :    0.037389
  34 H :    0.012723
  35 H :    0.033073
  36 H :    0.038529
  37 H :    0.034072
  38 H :    0.037225
  39 F :   -0.246762

  Mayer bond orders larger than 0.100000
B(  0-C ,  1-N ) :   1.0641 B(  0-C , 10-H ) :   0.1146 B(  0-C , 12-H ) :  -0.4905
B(  0-C , 17-C ) :   1.1087 B(  0-C , 18-H ) :   0.7796 B(  0-C , 19-H ) :   0.9087
B(  0-C , 26-C ) :   0.1065 B(  1-N ,  7-C ) :   1.0437 B(  1-N ,  9-C ) :   0.2769
B(  1-N , 12-H ) :   0.6894 B(  1-N , 13-H ) :   0.1410 B(  1-N , 14-H ) :  -0.1121
B(  1-N , 18-H ) :   0.2569 B(  2-C ,  3-C ) :   1.2448 B(  2-C ,  5-H ) :   0.2153
B(  2-C , 20-C ) :   0.1063 B(  2-C , 21-C ) :   1.1750 B(  2-C , 24-H ) :   0.8649
B(  2-C , 25-H ) :   0.8836 B(  3-C ,  4-H ) :   0.9336 B(  3-C ,  5-H ) :   0.7375
B(  3-C ,  6-S ) :   1.0369 B(  3-C , 21-C ) :   0.1063 B(  6-S , 15-O ) :   1.4233
B(  6-S , 16-O ) :   1.5707 B(  6-S , 39-F ) :   0.6354 B(  7-C ,  8-N ) :   0.9552
B(  7-C ,  9-C ) :   1.7772 B(  7-C , 10-H ) :   0.3132 B(  7-C , 11-H ) :   0.3144
B(  7-C , 12-H ) :  -0.6910 B(  7-C , 13-H ) :  -0.1762 B(  7-C , 14-H ) :  -0.1039
B(  7-C , 18-H ) :   0.1092 B(  8-N ,  9-C ) :   0.1802 B(  8-N , 13-H ) :   0.9993
B(  8-N , 14-H ) :   1.2409 B(  9-C , 10-H ) :   0.5716 B(  9-C , 11-H ) :   0.7568
B( 10-H , 13-H ) :   0.1274 B( 10-H , 18-H ) :  -0.1068 B( 10-H , 19-H ) :   0.1199
B( 12-H , 39-F ) :   0.2425 B( 13-H , 14-H ) :  -0.2469 B( 13-H , 15-O ) :   0.1632
B( 17-C , 18-H ) :   0.1043 B( 17-C , 26-C ) :   1.2116 B( 17-C , 27-H ) :   0.9418
B( 17-C , 28-H ) :   0.8089 B( 18-H , 19-H ) :  -0.1774 B( 20-C , 21-C ) :   1.2803
B( 20-C , 23-H ) :   0.1103 B( 20-C , 32-C ) :   1.1542 B( 20-C , 35-H ) :   0.8646
B( 20-C , 36-H ) :   1.0169 B( 20-C , 38-H ) :   0.1822 B( 21-C , 22-H ) :   0.7500
B( 21-C , 23-H ) :   0.8065 B( 21-C , 24-H ) :   0.1661 B( 21-C , 36-H ) :   0.1830
B( 22-H , 23-H ) :   0.2411 B( 23-H , 34-H ) :   0.1187 B( 26-C , 28-H ) :   0.1782
B( 26-C , 29-C ) :   1.2270 B( 26-C , 30-H ) :   0.9292 B( 26-C , 31-H ) :   0.9536
B( 26-C , 33-H ) :   0.1305 B( 29-C , 30-H ) :   0.1382 B( 29-C , 31-H ) :   0.1051
B( 29-C , 32-C ) :   1.1632 B( 29-C , 33-H ) :   1.0808 B( 29-C , 34-H ) :   0.8612
B( 29-C , 37-H ) :   0.2410 B( 29-C , 38-H ) :   0.1134 B( 32-C , 37-H ) :   0.7378
B( 32-C , 38-H ) :   0.7478

FINAL SINGLE POINT ENERGY     -1187.460719596043

DIPOLE MOMENT
-------------
                                X             Y             Z
Electronic contribution:    -18.94036       1.75618     -17.79165
Nuclear contribution   :     18.85717      -4.60195      17.96505
                        -----------------------------------------
Total Dipole Moment    :     -0.08318      -2.84577       0.17340
                        -----------------------------------------
Magnitude (a.u.)       :      2.85226
Magnitude (Debye)      :      7.24987

Rotational constants in cm-1:     0.014436     0.012382     0.007563
Rotational constants in MHz :   432.785702   371.214592   226.743759

                             ****ORCA TERMINATED NORMALLY****
TOTAL RUN TIME: 0 days 0 hours 5 minutes 51 seconds 717 msec
