                         Program Version 5.0.0 -  RELEASE  -
|  1> !PBE D3BJ RIJCOSX def2-TZVPD def2/J TightSCF
|  2> *xyz -1 1
|  3> C         -0.10608        1.76991       -4.08984
|  4> C         -0.25875        1.00432       -5.40983
|  5> C          0.39596       -0.37070       -5.33994
|  6> H          0.23915        1.56939       -6.20125
|  7> H         -1.30936        0.88869       -5.68245
|  8> O         -0.32633       -1.39040       -5.49128
|  9> O          1.61941       -0.40073       -5.03683
| 10> H         -0.57627        2.72718       -4.17630
| 11> H          0.93321        1.90140       -3.87192
| 12> H         -0.56868        1.21534       -3.30031
| 13> *
| 14> %MaxCore 64000
| 15>
| 16> %pal nprocs 4
| 17> end
| 18>
| 19> %scf
| 20>   MaxIter 150
| 21> end
| 22>
| 23>
| 24>                          ****END OF INPUT****

CARTESIAN COORDINATES (ANGSTROEM)
---------------------------------
  C     -0.106080    1.769910   -4.089840
  C     -0.258750    1.004320   -5.409830
  C      0.395960   -0.370700   -5.339940
  H      0.239150    1.569390   -6.201250
  H     -1.309360    0.888690   -5.682450
  O     -0.326330   -1.390400   -5.491280
  O      1.619410   -0.400730   -5.036830
  H     -0.576270    2.727180   -4.176300
  H      0.933210    1.901400   -3.871920
  H     -0.568680    1.215340   -3.300310

 Total Charge           Charge          ....   -1
 Multiplicity           Mult            ....    1
 Number of Electrons    NEL             ....   40
 Basis Dimension        Dim             ....  236

ORBITAL ENERGIES
----------------

  NO   OCC          E(Eh)            E(eV)
   0   2.0000     -18.488727      -503.1038
   1   2.0000     -18.487763      -503.0776
   2   2.0000      -9.754849      -265.4429
   3   2.0000      -9.716109      -264.3888
   4   2.0000      -9.707248      -264.1477
   5   2.0000      -0.731918       -19.9165
   6   2.0000      -0.643081       -17.4991
   7   2.0000      -0.533543       -14.5184
   8   2.0000      -0.410506       -11.1704
   9   2.0000      -0.267704        -7.2846
  10   2.0000      -0.243438        -6.6243
  11   2.0000      -0.209791        -5.7087
  12   2.0000      -0.183408        -4.9908
  13   2.0000      -0.166704        -4.5362
  14   2.0000      -0.159302        -4.3348
  15   2.0000      -0.130525        -3.5518
  16   2.0000      -0.118481        -3.2240
  17   2.0000      -0.011821        -0.3217
  18   2.0000       0.000917         0.0250
  19   2.0000       0.019072         0.5190
  20   0.0000       0.120352         3.2749
  21   0.0000       0.146382         3.9833
  22   0.0000       0.159325         4.3355
  23   0.0000       0.168215         4.5774
  24   0.0000       0.192053         5.2260

MULLIKEN ATOMIC CHARGES
-----------------------
   0 C :   -0.870042
   1 C :    0.059953
   2 C :    0.269222
   3 H :    0.116497
   4 H :    0.124184
   5 O :   -0.666634
   6 O :   -0.675816
   7 H :    0.201215
   8 H :    0.210664
   9 H :    0.230757
Sum of atomic charges:   -1.0000000

LOEWDIN ATOMIC CHARGES
----------------------
   0 C :   -0.133837
   1 C :   -0.218081
   2 C :   -0.793047
   3 H :    0.090907
   4 H :    0.084684
   5 O :   -0.093298
   6 O :   -0.090347
   7 H :    0.039678
   8 H :    0.053075
   9 H :    0.060266

  Mayer bond orders larger than 0.100000
B(  0-C ,  1-C ) :   0.6933 B(  0-C ,  2-C ) :   0.1779 B(  0-C ,  6-O ) :   0.1012
B(  0-C ,  7-H ) :   0.9693 B(  0-C ,  8-H ) :   1.0208 B(  0-C ,  9-H ) :   0.9743
B(  1-C ,  2-C ) :   0.9491 B(  1-C ,  3-H ) :   0.9482 B(  1-C ,  4-H ) :   1.0225
B(  2-C ,  5-O ) :   1.4538 B(  2-C ,  6-O ) :   1.4579

Dispersion correction           -0.006554504
FINAL SINGLE POINT ENERGY      -267.642799265511

DIPOLE MOMENT
-------------
                                X             Y             Z
Electronic contribution:      1.78687      -5.40825      -1.70563
Nuclear contribution   :     -2.46071       7.20791       1.95694
                        -----------------------------------------
Total Dipole Moment    :     -0.67384       1.79967       0.25131
                        -----------------------------------------
Magnitude (a.u.)       :      1.93805
Magnitude (Debye)      :      4.92612

Rotational constants in cm-1:     0.309435     0.135317     0.107436
Rotational constants in MHz :  9276.637721  4056.700783  3220.846587

                             ****ORCA TERMINATED NORMALLY****
TOTAL RUN TIME: 0 days 0 hours 0 minutes 12 seconds 928 msec
