                         Program Version 5.0.0 -  RELEASE  -
|  1> !PBE D3BJ RIJCOSX def2-TZVPD def2/J TightSCF
|  2> *xyz 1 1
|  3> C          0.81607       -2.10149       -2.18655
|  4> H          1.69623       -2.36869       -1.60046
|  5> N          1.10055       -2.46749       -3.59927
|  6> C          0.51624       -0.61363       -2.03937
|  7> H         -0.02007       -2.71285       -1.84084
|  8> H          1.70061       -1.75723       -4.07838
|  9> H          0.29386       -2.35977       -4.25632
| 10> H          1.50132       -3.42848       -3.69491
| 11> H         -0.34841       -0.36504       -2.61858
| 12> H          1.35358       -0.04503       -2.38643
| 13> H          0.33317       -0.38682       -1.00984
| 14> *
| 15> %MaxCore 64000
| 16>
| 17> %pal nprocs 4
| 18> end
| 19>
| 20> %scf
| 21>   MaxIter 150
| 22> end
| 23>
| 24>
| 25>                          ****END OF INPUT****

CARTESIAN COORDINATES (ANGSTROEM)
---------------------------------
  C      0.816070   -2.101490   -2.186550
  H      1.696230   -2.368690   -1.600460
  N      1.100550   -2.467490   -3.599270
  C      0.516240   -0.613630   -2.039370
  H     -0.020070   -2.712850   -1.840840
  H      1.700610   -1.757230   -4.078380
  H      0.293860   -2.359770   -4.256320
  H      1.501320   -3.428480   -3.694910
  H     -0.348410   -0.365040   -2.618580
  H      1.353580   -0.045030   -2.386430
  H      0.333170   -0.386820   -1.009840

 Total Charge           Charge          ....    1
 Multiplicity           Mult            ....    1
 Number of Electrons    NEL             ....   26
 Basis Dimension        Dim             ....  183

ORBITAL ENERGIES
----------------

  NO   OCC          E(Eh)            E(eV)
   0   2.0000     -14.320606      -389.6835
   1   2.0000     -10.135209      -275.7931
   2   2.0000     -10.056700      -273.6567
   3   2.0000      -1.130957       -30.7749
   4   2.0000      -0.897883       -24.4326
   5   2.0000      -0.791572       -21.5398
   6   2.0000      -0.737611       -20.0714
   7   2.0000      -0.720895       -19.6166
   8   2.0000      -0.655217       -17.8294
   9   2.0000      -0.591493       -16.0953
  10   2.0000      -0.541025       -14.7220
  11   2.0000      -0.527119       -14.3436
  12   2.0000      -0.508746       -13.8437
  13   0.0000      -0.225903        -6.1471
  14   0.0000      -0.168796        -4.5932
  15   0.0000      -0.165825        -4.5123
  16   0.0000      -0.154312        -4.1990
  17   0.0000      -0.117442        -3.1957

MULLIKEN ATOMIC CHARGES
-----------------------
   0 C :   -0.145568
   1 H :    0.215874
   2 N :   -0.219287
   3 C :   -0.847594
   4 H :    0.215119
   5 H :    0.312186
   6 H :    0.325571
   7 H :    0.316836
   8 H :    0.292556
   9 H :    0.312409
  10 H :    0.221899
Sum of atomic charges:    1.0000000

LOEWDIN ATOMIC CHARGES
----------------------
   0 C :   -0.206996
   1 H :    0.135767
   2 N :    0.164830
   3 C :   -0.052443
   4 H :    0.137283
   5 H :    0.183710
   6 H :    0.187617
   7 H :    0.191161
   8 H :    0.082852
   9 H :    0.082645
  10 H :    0.093574

  Mayer bond orders larger than 0.100000
B(  0-C ,  1-H ) :   0.9434 B(  0-C ,  2-N ) :   0.9837 B(  0-C ,  3-C ) :   0.7854
B(  0-C ,  4-H ) :   0.9580 B(  2-N ,  5-H ) :   0.8770 B(  2-N ,  6-H ) :   0.8736
B(  2-N ,  7-H ) :   0.8764 B(  3-C ,  8-H ) :   0.9416 B(  3-C ,  9-H ) :   0.9245
B(  3-C , 10-H ) :   0.9996

Dispersion correction           -0.006143002
FINAL SINGLE POINT ENERGY      -135.397293352412

DIPOLE MOMENT
-------------
                                X             Y             Z
Electronic contribution:      0.41073      -1.41117      -1.04193
Nuclear contribution   :     -0.07506       0.54337      -0.16191
                        -----------------------------------------
Total Dipole Moment    :      0.33567      -0.86781      -1.20384
                        -----------------------------------------
Magnitude (a.u.)       :      1.52151
Magnitude (Debye)      :      3.86737

Rotational constants in cm-1:     0.999557     0.280801     0.246932
Rotational constants in MHz : 29965.963633  8418.199581  7402.841054

                             ****ORCA TERMINATED NORMALLY****
TOTAL RUN TIME: 0 days 0 hours 0 minutes 8 seconds 807 msec
