                         Program Version 5.0.0 -  RELEASE  -
|  1> !PBE D3BJ RIJCOSX def2-TZVPD def2/J TightSCF xyzfile
|  2>
|  3> *xyzfile 0 1 B.xyz
|  4>
|  5> %MaxCore 64000
|  6>
|  7> %pal nprocs 4
|  8> end
|  9>
| 10> %scf
| 11>   MaxIter 150
| 12> end
| 13>
| 14>
| 15>                          ****END OF INPUT****

CARTESIAN COORDINATES (ANGSTROEM)
---------------------------------
  C      0.816067   -2.101491   -2.186546
  H      1.696232   -2.368691   -1.600457
  N      1.100552   -2.467492   -3.599269
  C      0.516243   -0.613634   -2.039373
  H     -0.020066   -2.712849   -1.840844
  C     -0.868621   -0.193925   -2.546303
  C     -0.984801    1.284739   -2.928686
  H     -0.764939    1.904116   -2.051568
  H     -2.032613    1.478953   -3.178952
  C     -0.106085    1.769914   -4.089836
  H     -0.347744    2.822196   -4.262942
  H      0.949683    1.745875   -3.808781
  C     -0.258747    1.004323   -5.409829
  C      0.395958   -0.370696   -5.339939
  H      0.239150    1.569393   -6.201253
  H     -1.309360    0.888694   -5.682455
  H      1.700606   -1.757225   -4.078378
  H      0.293855   -2.359766   -4.256324
  H      1.501324   -3.428479   -3.694915
  O     -0.326329   -1.390398   -5.491279
  O      1.619412   -0.400726   -5.036827
  H     -1.607271   -0.412651   -1.768955
  H     -1.157234   -0.796164   -3.409254
  H      1.299044   -0.056805   -2.558982
  H      0.612393   -0.365579   -0.979171

 Total Charge           Charge          ....    0
 Multiplicity           Mult            ....    1
 Number of Electrons    NEL             ....   80
 Basis Dimension        Dim             ....  511

ORBITAL ENERGIES
----------------

  NO   OCC          E(Eh)            E(eV)
   0   2.0000     -18.688839      -508.5492
   1   2.0000     -18.687064      -508.5009
   2   2.0000     -14.068197      -382.8151
   3   2.0000      -9.952303      -270.8159
   4   2.0000      -9.947222      -270.6777
   5   2.0000      -9.896300      -269.2920
   6   2.0000      -9.878642      -268.8115
   7   2.0000      -9.874537      -268.6998
   8   2.0000      -9.867797      -268.5164
   9   2.0000      -9.858377      -268.2601
  10   2.0000      -0.943103       -25.6631
  11   2.0000      -0.897368       -24.4186
  12   2.0000      -0.847836       -23.0708
  13   2.0000      -0.741950       -20.1895
  14   2.0000      -0.701782       -19.0965
  15   2.0000      -0.657584       -17.8938
  16   2.0000      -0.598391       -16.2830
  17   2.0000      -0.566861       -15.4251
  18   2.0000      -0.523258       -14.2386
  19   2.0000      -0.509346       -13.8600
  20   2.0000      -0.487322       -13.2607
  21   2.0000      -0.465206       -12.6589
  22   2.0000      -0.430638       -11.7183
  23   2.0000      -0.419544       -11.4164
  24   2.0000      -0.407084       -11.0773
  25   2.0000      -0.396535       -10.7903
  26   2.0000      -0.377746       -10.2790
  27   2.0000      -0.370048       -10.0695
  28   2.0000      -0.353446        -9.6178
  29   2.0000      -0.345125        -9.3913
  30   2.0000      -0.340104        -9.2547
  31   2.0000      -0.329652        -8.9703
  32   2.0000      -0.309612        -8.4250
  33   2.0000      -0.306530        -8.3411
  34   2.0000      -0.285033        -7.7561
  35   2.0000      -0.271787        -7.3957
  36   2.0000      -0.268200        -7.2981
  37   2.0000      -0.214017        -5.8237
  38   2.0000      -0.195789        -5.3277
  39   2.0000      -0.184002        -5.0069
  40   0.0000      -0.038364        -1.0439
  41   0.0000      -0.008178        -0.2225
  42   0.0000       0.000980         0.0267
  43   0.0000       0.005695         0.1550
  44   0.0000       0.009220         0.2509

MULLIKEN ATOMIC CHARGES
-----------------------
   0 C :   -0.557447
   1 H :    0.189200
   2 N :   -0.087499
   3 C :   -0.059906
   4 H :    0.190229
   5 C :   -0.402498
   6 C :   -0.346467
   7 H :    0.113531
   8 H :    0.176526
   9 C :   -0.402445
  10 H :    0.082855
  11 H :    0.201589
  12 C :   -0.092717
  13 C :    0.504797
  14 H :    0.180259
  15 H :    0.102405
  16 H :    0.258131
  17 H :    0.247080
  18 H :    0.282704
  19 O :   -0.743295
  20 O :   -0.754357
  21 H :    0.168409
  22 H :    0.353098
  23 H :    0.162296
  24 H :    0.233520
Sum of atomic charges:   -0.0000000

LOEWDIN ATOMIC CHARGES
----------------------
   0 C :   -0.171861
   1 H :    0.119141
   2 N :    0.131253
   3 C :   -0.185393
   4 H :    0.125259
   5 C :   -0.201115
   6 C :   -0.199955
   7 H :    0.109821
   8 H :    0.111416
   9 C :   -0.205786
  10 H :    0.106868
  11 H :    0.102908
  12 C :   -0.115005
  13 C :   -0.686660
  14 H :    0.116816
  15 H :    0.114748
  16 H :    0.089769
  17 H :    0.089546
  18 H :    0.171439
  19 O :   -0.036281
  20 O :   -0.026453
  21 H :    0.113740
  22 H :    0.099014
  23 H :    0.107711
  24 H :    0.119060

  Mayer bond orders larger than 0.100000
B(  0-C ,  1-H ) :   0.9396 B(  0-C ,  2-N ) :   1.0400 B(  0-C ,  3-C ) :   0.8856
B(  0-C ,  4-H ) :   0.9463 B(  0-C ,  5-C ) :   0.3228 B(  2-N , 16-H ) :   0.7891
B(  2-N , 17-H ) :   0.7968 B(  2-N , 18-H ) :   0.8620 B(  3-C ,  5-C ) :   0.5855
B(  3-C ,  6-C ) :   0.2588 B(  3-C ,  9-C ) :   0.1266 B(  3-C , 23-H ) :   0.9877
B(  3-C , 24-H ) :   0.9174 B(  5-C ,  6-C ) :   1.1005 B(  5-C , 21-H ) :   0.9686
B(  5-C , 22-H ) :   0.9039 B(  6-C ,  7-H ) :   0.9753 B(  6-C ,  8-H ) :   0.9064
B(  6-C ,  9-C ) :   0.9761 B(  9-C , 10-H ) :   0.9855 B(  9-C , 11-H ) :   0.8961
B(  9-C , 12-C ) :   0.9412 B(  9-C , 13-C ) :   0.2089 B( 12-C , 13-C ) :   1.0219
B( 12-C , 14-H ) :   0.8542 B( 12-C , 15-H ) :   1.0407 B( 13-C , 19-O ) :   1.2622
B( 13-C , 20-O ) :   1.2562 B( 16-H , 20-O ) :   0.2215 B( 17-H , 19-O ) :   0.2103
B( 19-O , 20-O ) :   0.1421

Dispersion correction           -0.026802072
FINAL SINGLE POINT ENERGY      -480.604660176833

DIPOLE MOMENT
-------------
                                X             Y             Z
Electronic contribution:      2.29575      -3.06739      -6.32573
Nuclear contribution   :     -2.02598       1.95876       8.24116
                        -----------------------------------------
Total Dipole Moment    :      0.26977      -1.10863       1.91543
                        -----------------------------------------
Magnitude (a.u.)       :      2.22951
Magnitude (Debye)      :      5.66696

Rotational constants in cm-1:     0.052900     0.041948     0.028766
Rotational constants in MHz :  1585.892512  1257.572595   862.390225

                             ****ORCA TERMINATED NORMALLY****
TOTAL RUN TIME: 0 days 0 hours 0 minutes 49 seconds 751 msec
