                         Program Version 5.0.0 -  RELEASE  -
|  1> !PBE D3BJ RIJCOSX def2-TZVPD def2/J TightSCF
|  2> *xyz 0 1
|  3> C         -0.10608        1.76991       -4.08984
|  4> C         -0.25875        1.00432       -5.40983
|  5> C          0.39596       -0.37070       -5.33994
|  6> H          0.23915        1.56939       -6.20125
|  7> H         -1.30936        0.88869       -5.68245
|  8> F         -0.32633       -1.39040       -5.49128
|  9> O          1.61941       -0.40073       -5.03683
| 10> H         -0.57627        2.72718       -4.17630
| 11> H          0.93321        1.90140       -3.87192
| 12> H         -0.56868        1.21534       -3.30031
| 13> *
| 14> %MaxCore 64000
| 15>
| 16> %pal nprocs 4
| 17> end
| 18>
| 19> %scf
| 20>   MaxIter 150
| 21> end
| 22>
| 23>
| 24>                          ****END OF INPUT****

CARTESIAN COORDINATES (ANGSTROEM)
---------------------------------
  C     -0.106080    1.769910   -4.089840
  C     -0.258750    1.004320   -5.409830
  C      0.395960   -0.370700   -5.339940
  H      0.239150    1.569390   -6.201250
  H     -1.309360    0.888690   -5.682450
  F     -0.326330   -1.390400   -5.491280
  O      1.619410   -0.400730   -5.036830
  H     -0.576270    2.727180   -4.176300
  H      0.933210    1.901400   -3.871920
  H     -0.568680    1.215340   -3.300310

 Total Charge           Charge          ....    0
 Multiplicity           Mult            ....    1
 Number of Electrons    NEL             ....   40
 Basis Dimension        Dim             ....  236

ORBITAL ENERGIES
----------------

  NO   OCC          E(Eh)            E(eV)
   0   2.0000     -24.326385      -661.9546
   1   2.0000     -18.753611      -510.3117
   2   2.0000     -10.048348      -273.4294
   3   2.0000      -9.913787      -269.7678
   4   2.0000      -9.885581      -269.0003
   5   2.0000      -1.213989       -33.0343
   6   2.0000      -0.943249       -25.6671
   7   2.0000      -0.729049       -19.8384
   8   2.0000      -0.623979       -16.9793
   9   2.0000      -0.576288       -15.6816
  10   2.0000      -0.488476       -13.2921
  11   2.0000      -0.473516       -12.8850
  12   2.0000      -0.451613       -12.2890
  13   2.0000      -0.416558       -11.3351
  14   2.0000      -0.384749       -10.4695
  15   2.0000      -0.355961        -9.6862
  16   2.0000      -0.333546        -9.0763
  17   2.0000      -0.329481        -8.9656
  18   2.0000      -0.305778        -8.3207
  19   2.0000      -0.244312        -6.6481
  20   0.0000      -0.070609        -1.9214
  21   0.0000      -0.014017        -0.3814
  22   0.0000       0.014672         0.3992
  23   0.0000       0.025055         0.6818
  24   0.0000       0.033110         0.9010

MULLIKEN ATOMIC CHARGES
-----------------------
   0 C :   -0.860114
   1 C :    0.073272
   2 C :    0.368831
   3 H :    0.143632
   4 H :    0.155369
   5 F :   -0.149265
   6 O :   -0.436730
   7 H :    0.202041
   8 H :    0.241707
   9 H :    0.261257
Sum of atomic charges:    0.0000000

LOEWDIN ATOMIC CHARGES
----------------------
   0 C :   -0.085999
   1 C :   -0.161601
   2 C :   -0.512731
   3 H :    0.120820
   4 H :    0.107627
   5 F :    0.223204
   6 O :    0.093180
   7 H :    0.068756
   8 H :    0.072277
   9 H :    0.074467

  Mayer bond orders larger than 0.100000
B(  0-C ,  1-C ) :   0.7683 B(  0-C ,  2-C ) :   0.1686 B(  0-C ,  7-H ) :   0.9765
B(  0-C ,  8-H ) :   1.0014 B(  0-C ,  9-H ) :   0.9371 B(  1-C ,  2-C ) :   0.9325
B(  1-C ,  3-H ) :   0.9320 B(  1-C ,  4-H ) :   0.9759 B(  2-C ,  5-F ) :   1.0698
B(  2-C ,  6-O ) :   1.7890

Dispersion correction           -0.006229910
FINAL SINGLE POINT ENERGY      -292.193383191283

DIPOLE MOMENT
-------------
                                X             Y             Z
Electronic contribution:      0.88365      -8.20795      -2.55783
Nuclear contribution   :     -1.80992       8.85192       2.42184
                        -----------------------------------------
Total Dipole Moment    :     -0.92628       0.64397      -0.13598
                        -----------------------------------------
Magnitude (a.u.)       :      1.13630
Magnitude (Debye)      :      2.88824

Rotational constants in cm-1:     0.298360     0.128849     0.102271
Rotational constants in MHz :  8944.606599  3862.796179  3066.020510

                             ****ORCA TERMINATED NORMALLY****
TOTAL RUN TIME: 0 days 0 hours 0 minutes 12 seconds 48 msec
