                         Program Version 5.0.0 -  RELEASE  -
|  1> !PBE D3BJ RIJCOSX def2-TZVPD def2/J TightSCF
|  2> *xyz 0 1
|  3> C          0.81607       -2.10149       -2.18655
|  4> H          1.69623       -2.36869       -1.60046
|  5> C          1.10055       -2.46749       -3.59927
|  6> C          0.51624       -0.61363       -2.03937
|  7> H         -0.02007       -2.71285       -1.84084
|  8> H          1.70061       -1.75723       -4.07838
|  9> H          0.29386       -2.35977       -4.25632
| 10> H          1.50132       -3.42848       -3.69491
| 11> H         -0.34841       -0.36504       -2.61858
| 12> H          1.35358       -0.04503       -2.38643
| 13> H          0.33317       -0.38682       -1.00984
| 14> *
| 15> %MaxCore 64000
| 16>
| 17> %pal nprocs 4
| 18> end
| 19>
| 20> %scf
| 21>   MaxIter 150
| 22> end
| 23>
| 24>
| 25>                          ****END OF INPUT****

CARTESIAN COORDINATES (ANGSTROEM)
---------------------------------
  C      0.816070   -2.101490   -2.186550
  H      1.696230   -2.368690   -1.600460
  C      1.100550   -2.467490   -3.599270
  C      0.516240   -0.613630   -2.039370
  H     -0.020070   -2.712850   -1.840840
  H      1.700610   -1.757230   -4.078380
  H      0.293860   -2.359770   -4.256320
  H      1.501320   -3.428480   -3.694910
  H     -0.348410   -0.365040   -2.618580
  H      1.353580   -0.045030   -2.386430
  H      0.333170   -0.386820   -1.009840

 Total Charge           Charge          ....    0
 Multiplicity           Mult            ....    1
 Number of Electrons    NEL             ....   26
 Basis Dimension        Dim             ....  183

ORBITAL ENERGIES
----------------

  NO   OCC          E(Eh)            E(eV)
   0   2.0000      -9.870263      -268.5835
   1   2.0000      -9.858787      -268.2712
   2   2.0000      -9.846031      -267.9241
   3   2.0000      -0.717198       -19.5159
   4   2.0000      -0.621704       -16.9174
   5   2.0000      -0.529793       -14.4164
   6   2.0000      -0.411329       -11.1928
   7   2.0000      -0.398190       -10.8353
   8   2.0000      -0.367003        -9.9866
   9   2.0000      -0.331531        -9.0214
  10   2.0000      -0.300150        -8.1675
  11   2.0000      -0.296023        -8.0552
  12   2.0000      -0.278981        -7.5915
  13   0.0000      -0.002292        -0.0624
  14   0.0000       0.024205         0.6586
  15   0.0000       0.025415         0.6916
  16   0.0000       0.044733         1.2173
  17   0.0000       0.066004         1.7961

MULLIKEN ATOMIC CHARGES
-----------------------
   0 C :    0.248113
   1 H :    0.134861
   2 C :   -1.086136
   3 C :   -0.890188
   4 H :    0.131008
   5 H :    0.277280
   6 H :    0.291164
   7 H :    0.214254
   8 H :    0.238926
   9 H :    0.248794
  10 H :    0.191924
Sum of atomic charges:   -0.0000000

LOEWDIN ATOMIC CHARGES
----------------------
   0 C :   -0.319697
   1 H :    0.102907
   2 C :   -0.139897
   3 C :   -0.116069
   4 H :    0.104012
   5 H :    0.057427
   6 H :    0.059249
   7 H :    0.059446
   8 H :    0.066564
   9 H :    0.065695
  10 H :    0.060363

  Mayer bond orders larger than 0.100000
B(  0-C ,  1-H ) :   0.9724 B(  0-C ,  2-C ) :   0.7130 B(  0-C ,  3-C ) :   0.7187
B(  0-C ,  4-H ) :   0.9649 B(  2-C ,  3-C ) :   0.2216 B(  2-C ,  5-H ) :   0.9770
B(  2-C ,  6-H ) :   0.9741 B(  2-C ,  7-H ) :   1.0011 B(  3-C ,  8-H ) :   0.9871
B(  3-C ,  9-H ) :   0.9882 B(  3-C , 10-H ) :   1.0121

Dispersion correction           -0.006140592
FINAL SINGLE POINT ENERGY      -118.993564031231

DIPOLE MOMENT
-------------
                                X             Y             Z
Electronic contribution:     -0.01849      -0.31029       0.46675
Nuclear contribution   :      0.01737       0.30387      -0.47422
                        -----------------------------------------
Total Dipole Moment    :     -0.00112      -0.00642      -0.00747
                        -----------------------------------------
Magnitude (a.u.)       :      0.00991
Magnitude (Debye)      :      0.02519

Rotational constants in cm-1:     1.006891     0.295208     0.258491
Rotational constants in MHz : 30185.831813  8850.104914  7749.351732

                             ****ORCA TERMINATED NORMALLY****
TOTAL RUN TIME: 0 days 0 hours 0 minutes 7 seconds 380 msec
