                         Program Version 5.0.0 -  RELEASE  -
|  1> !PBE D3BJ RIJCOSX def2-TZVPD def2/J TightSCF
|  2> *xyz 0 1
|  3> C         -0.10608        1.76991       -4.08984
|  4> C         -0.25875        1.00432       -5.40983
|  5> C          0.39596       -0.37070       -5.33994
|  6> H          0.23915        1.56939       -6.20125
|  7> H         -1.30936        0.88869       -5.68245
|  8> O         -0.32633       -1.39040       -5.49128
|  9> F          1.61941       -0.40073       -5.03683
| 10> H         -0.57627        2.72718       -4.17630
| 11> H          0.93321        1.90140       -3.87192
| 12> H         -0.56868        1.21534       -3.30031
| 13> *
| 14> %MaxCore 64000
| 15>
| 16> %pal nprocs 4
| 17> end
| 18>
| 19> %scf
| 20>   MaxIter 150
| 21> end
| 22>
| 23>
| 24>                          ****END OF INPUT****

CARTESIAN COORDINATES (ANGSTROEM)
---------------------------------
  C     -0.106080    1.769910   -4.089840
  C     -0.258750    1.004320   -5.409830
  C      0.395960   -0.370700   -5.339940
  H      0.239150    1.569390   -6.201250
  H     -1.309360    0.888690   -5.682450
  O     -0.326330   -1.390400   -5.491280
  F      1.619410   -0.400730   -5.036830
  H     -0.576270    2.727180   -4.176300
  H      0.933210    1.901400   -3.871920
  H     -0.568680    1.215340   -3.300310

 Total Charge           Charge          ....    0
 Multiplicity           Mult            ....    1
 Number of Electrons    NEL             ....   40
 Basis Dimension        Dim             ....  236

ORBITAL ENERGIES
----------------

  NO   OCC          E(Eh)            E(eV)
   0   2.0000     -24.324893      -661.9140
   1   2.0000     -18.754121      -510.3256
   2   2.0000     -10.047580      -273.4086
   3   2.0000      -9.913561      -269.7617
   4   2.0000      -9.890463      -269.1332
   5   2.0000      -1.212478       -32.9932
   6   2.0000      -0.943120       -25.6636
   7   2.0000      -0.733454       -19.9583
   8   2.0000      -0.621442       -16.9103
   9   2.0000      -0.579645       -15.7729
  10   2.0000      -0.489602       -13.3227
  11   2.0000      -0.476535       -12.9672
  12   2.0000      -0.446132       -12.1399
  13   2.0000      -0.416478       -11.3329
  14   2.0000      -0.386331       -10.5126
  15   2.0000      -0.358370        -9.7517
  16   2.0000      -0.337138        -9.1740
  17   2.0000      -0.333991        -9.0883
  18   2.0000      -0.310920        -8.4606
  19   2.0000      -0.241171        -6.5626
  20   0.0000      -0.067538        -1.8378
  21   0.0000      -0.016025        -0.4361
  22   0.0000       0.014642         0.3984
  23   0.0000       0.024297         0.6612
  24   0.0000       0.033548         0.9129

MULLIKEN ATOMIC CHARGES
-----------------------
   0 C :   -0.884449
   1 C :    0.111609
   2 C :    0.362851
   3 H :    0.164154
   4 H :    0.123185
   5 O :   -0.427896
   6 F :   -0.163627
   7 H :    0.198829
   8 H :    0.246490
   9 H :    0.268856
Sum of atomic charges:   -0.0000000

LOEWDIN ATOMIC CHARGES
----------------------
   0 C :   -0.088604
   1 C :   -0.156637
   2 C :   -0.519030
   3 H :    0.117058
   4 H :    0.117543
   5 O :    0.095561
   6 F :    0.220282
   7 H :    0.069215
   8 H :    0.068649
   9 H :    0.075964

  Mayer bond orders larger than 0.100000
B(  0-C ,  1-C ) :   0.7178 B(  0-C ,  2-C ) :   0.1674 B(  0-C ,  7-H ) :   0.9868
B(  0-C ,  8-H ) :   0.9764 B(  0-C ,  9-H ) :   0.9625 B(  1-C ,  2-C ) :   0.9339
B(  1-C ,  3-H ) :   0.9257 B(  1-C ,  4-H ) :   1.0027 B(  2-C ,  5-O ) :   1.7821
B(  2-C ,  6-F ) :   1.0561

Dispersion correction           -0.006191723
FINAL SINGLE POINT ENERGY      -292.194654617923

DIPOLE MOMENT
-------------
                                X             Y             Z
Electronic contribution:      4.07552      -6.54744      -1.80533
Nuclear contribution   :     -3.93139       7.77287       1.92635
                        -----------------------------------------
Total Dipole Moment    :      0.14414       1.22543       0.12102
                        -----------------------------------------
Magnitude (a.u.)       :      1.23980
Magnitude (Debye)      :      3.15132

Rotational constants in cm-1:     0.286068     0.133630     0.103472
Rotational constants in MHz :  8576.109806  4006.118234  3102.010802

                             ****ORCA TERMINATED NORMALLY****
TOTAL RUN TIME: 0 days 0 hours 0 minutes 12 seconds 783 msec
