                         Program Version 5.0.0 -  RELEASE  -
|  1> !PBE D3BJ RIJCOSX def2-TZVPD def2/J TightSCF xyzfile
|  2>
|  3> *xyzfile 0 1 D1.xyz
|  4>
|  5> %MaxCore 64000
|  6>
|  7> %pal nprocs 4
|  8> end
|  9>
| 10> %scf
| 11>   MaxIter 150
| 12> end
| 13>
| 14>
| 15>                          ****END OF INPUT****

CARTESIAN COORDINATES (ANGSTROEM)
---------------------------------
  C      0.816067   -2.101491   -2.186546
  H      1.696232   -2.368691   -1.600457
  C      1.100552   -2.467492   -3.599269
  C      0.516243   -0.613634   -2.039373
  H     -0.020066   -2.712849   -1.840844
  C     -0.868621   -0.193925   -2.546303
  C     -0.984801    1.284739   -2.928686
  H     -0.764939    1.904116   -2.051568
  H     -2.032613    1.478953   -3.178952
  C     -0.106085    1.769914   -4.089836
  H     -0.347744    2.822196   -4.262942
  H      0.949683    1.745875   -3.808781
  C     -0.258747    1.004323   -5.409829
  C      0.395958   -0.370696   -5.339939
  H      0.239150    1.569393   -6.201253
  H     -1.309360    0.888694   -5.682455
  H      1.700606   -1.757225   -4.078378
  H      0.293855   -2.359766   -4.256324
  H      1.501324   -3.428479   -3.694915
  F     -0.326329   -1.390398   -5.491279
  O      1.619412   -0.400726   -5.036827
  H     -1.607271   -0.412651   -1.768955
  H     -1.157234   -0.796164   -3.409254
  H      1.299044   -0.056805   -2.558982
  H      0.612393   -0.365579   -0.979171

 Total Charge           Charge          ....    0
 Multiplicity           Mult            ....    1
 Number of Electrons    NEL             ....   80
 Basis Dimension        Dim             ....  511

ORBITAL ENERGIES
----------------

  NO   OCC          E(Eh)            E(eV)
   0   2.0000     -24.333783      -662.1559
   1   2.0000     -18.760535      -510.5001
   2   2.0000     -10.055699      -273.6295
   3   2.0000      -9.914681      -269.7922
   4   2.0000      -9.896303      -269.2921
   5   2.0000      -9.885053      -268.9860
   6   2.0000      -9.877727      -268.7866
   7   2.0000      -9.864568      -268.4285
   8   2.0000      -9.855486      -268.1814
   9   2.0000      -9.806495      -266.8483
  10   2.0000      -1.226939       -33.3867
  11   2.0000      -0.957685       -26.0599
  12   2.0000      -0.751690       -20.4545
  13   2.0000      -0.720764       -19.6130
  14   2.0000      -0.675884       -18.3917
  15   2.0000      -0.640084       -17.4176
  16   2.0000      -0.601611       -16.3707
  17   2.0000      -0.575769       -15.6675
  18   2.0000      -0.538858       -14.6631
  19   2.0000      -0.499586       -13.5944
  20   2.0000      -0.498719       -13.5708
  21   2.0000      -0.480115       -13.0646
  22   2.0000      -0.468830       -12.7575
  23   2.0000      -0.428002       -11.6465
  24   2.0000      -0.408778       -11.1234
  25   2.0000      -0.397100       -10.8056
  26   2.0000      -0.391476       -10.6526
  27   2.0000      -0.377192       -10.2639
  28   2.0000      -0.365296        -9.9402
  29   2.0000      -0.354974        -9.6593
  30   2.0000      -0.335165        -9.1203
  31   2.0000      -0.325250        -8.8505
  32   2.0000      -0.320954        -8.7336
  33   2.0000      -0.309343        -8.4177
  34   2.0000      -0.297746        -8.1021
  35   2.0000      -0.285049        -7.7566
  36   2.0000      -0.275265        -7.4903
  37   2.0000      -0.267039        -7.2665
  38   2.0000      -0.256932        -6.9915
  39   2.0000      -0.222131        -6.0445
  40   0.0000      -0.080097        -2.1796
  41   0.0000      -0.015023        -0.4088
  42   0.0000       0.004836         0.1316
  43   0.0000       0.008137         0.2214
  44   0.0000       0.009997         0.2720

MULLIKEN ATOMIC CHARGES
-----------------------
   0 C :    0.108601
   1 H :    0.115797
   2 C :   -1.596061
   3 C :   -0.198161
   4 H :    0.098641
   5 C :   -0.390278
   6 C :   -0.312475
   7 H :    0.114453
   8 H :    0.166655
   9 C :   -0.386439
  10 H :    0.089838
  11 H :    0.233636
  12 C :   -0.099473
  13 C :    0.397080
  14 H :    0.178994
  15 H :    0.132626
  16 H :    0.553359
  17 H :    0.512849
  18 H :    0.247332
  19 F :   -0.224093
  20 O :   -0.497090
  21 H :    0.183664
  22 H :    0.239248
  23 H :    0.128981
  24 H :    0.202315
Sum of atomic charges:    0.0000000

LOEWDIN ATOMIC CHARGES
----------------------
   0 C :   -0.242785
   1 H :    0.107416
   2 C :   -0.126079
   3 C :   -0.207458
   4 H :    0.109714
   5 C :   -0.200310
   6 C :   -0.201230
   7 H :    0.114584
   8 H :    0.109558
   9 C :   -0.195556
  10 H :    0.112737
  11 H :    0.109078
  12 C :   -0.091581
  13 C :   -0.487334
  14 H :    0.127075
  15 H :    0.119500
  16 H :    0.022948
  17 H :    0.036644
  18 H :    0.072595
  19 F :    0.194113
  20 O :    0.084287
  21 H :    0.117133
  22 H :    0.100203
  23 H :    0.103304
  24 H :    0.111444

  Mayer bond orders larger than 0.100000
B(  0-C ,  1-H ) :   0.9132 B(  0-C ,  2-C ) :   0.5006 B(  0-C ,  3-C ) :   1.0011
B(  0-C ,  4-H ) :   0.9353 B(  0-C ,  5-C ) :   0.3691 B(  2-C , 13-C ) :   0.1442
B(  2-C , 16-H ) :   0.8701 B(  2-C , 17-H ) :   0.8429 B(  2-C , 18-H ) :   0.8944
B(  2-C , 19-F ) :   0.1041 B(  2-C , 20-O ) :   0.1336 B(  3-C ,  5-C ) :   0.6103
B(  3-C ,  6-C ) :   0.2517 B(  3-C ,  9-C ) :   0.1285 B(  3-C , 23-H ) :   1.0190
B(  3-C , 24-H ) :   0.8952 B(  5-C ,  6-C ) :   1.0758 B(  5-C , 13-C ) :   0.1183
B(  5-C , 21-H ) :   0.9563 B(  5-C , 22-H ) :   0.9250 B(  6-C ,  7-H ) :   0.9768
B(  6-C ,  8-H ) :   0.9181 B(  6-C ,  9-C ) :   0.9931 B(  6-C , 12-C ) :   0.1090
B(  9-C , 10-H ) :   0.9830 B(  9-C , 11-H ) :   0.8859 B(  9-C , 12-C ) :   0.9383
B(  9-C , 13-C ) :   0.1851 B( 12-C , 13-C ) :   0.9916 B( 12-C , 14-H ) :   0.8667
B( 12-C , 15-H ) :   1.0141 B( 13-C , 19-F ) :   0.9369 B( 13-C , 20-O ) :   1.7243
B( 16-H , 20-O ) :  -0.1445 B( 19-F , 20-O ) :   0.1202

Dispersion correction           -0.026146394
FINAL SINGLE POINT ENERGY      -488.502407825374

DIPOLE MOMENT
-------------
                                X             Y             Z
Electronic contribution:      0.38394      -2.02005     -10.56038
Nuclear contribution   :     -1.21560       2.80077      10.24180
                        -----------------------------------------
Total Dipole Moment    :     -0.83166       0.78072      -0.31857
                        -----------------------------------------
Magnitude (a.u.)       :      1.18434
Magnitude (Debye)      :      3.01036

Rotational constants in cm-1:     0.051255     0.042531     0.028894
Rotational constants in MHz :  1536.587743  1275.050721   866.218876

                             ****ORCA TERMINATED NORMALLY****
TOTAL RUN TIME: 0 days 0 hours 0 minutes 49 seconds 730 msec
