                         Program Version 5.0.0 -  RELEASE  -
|  1> !PBE D3BJ RIJCOSX def2-TZVPD def2/J TightSCF xyzfile
|  2>
|  3> *xyzfile 0 1 D2.xyz
|  4>
|  5> %MaxCore 64000
|  6>
|  7> %pal nprocs 4
|  8> end
|  9>
| 10> %scf
| 11>   MaxIter 150
| 12> end
| 13>
| 14>
| 15>                          ****END OF INPUT****

CARTESIAN COORDINATES (ANGSTROEM)
---------------------------------
  C      0.816067   -2.101491   -2.186546
  H      1.696232   -2.368691   -1.600457
  C      1.100552   -2.467492   -3.599269
  C      0.516243   -0.613634   -2.039373
  H     -0.020066   -2.712849   -1.840844
  C     -0.868621   -0.193925   -2.546303
  C     -0.984801    1.284739   -2.928686
  H     -0.764939    1.904116   -2.051568
  H     -2.032613    1.478953   -3.178952
  C     -0.106085    1.769914   -4.089836
  H     -0.347744    2.822196   -4.262942
  H      0.949683    1.745875   -3.808781
  C     -0.258747    1.004323   -5.409829
  C      0.395958   -0.370696   -5.339939
  H      0.239150    1.569393   -6.201253
  H     -1.309360    0.888694   -5.682455
  H      1.700606   -1.757225   -4.078378
  H      0.293855   -2.359766   -4.256324
  H      1.501324   -3.428479   -3.694915
  O     -0.326329   -1.390398   -5.491279
  F      1.619412   -0.400726   -5.036827
  H     -1.607271   -0.412651   -1.768955
  H     -1.157234   -0.796164   -3.409254
  H      1.299044   -0.056805   -2.558982
  H      0.612393   -0.365579   -0.979171

 Total Charge           Charge          ....    0
 Multiplicity           Mult            ....    1
 Number of Electrons    NEL             ....   80
 Basis Dimension        Dim             ....  511

ORBITAL ENERGIES
----------------

  NO   OCC          E(Eh)            E(eV)
   0   2.0000     -24.334010      -662.1621
   1   2.0000     -18.760192      -510.4908
   2   2.0000     -10.055376      -273.6207
   3   2.0000      -9.914556      -269.7888
   4   2.0000      -9.900073      -269.3947
   5   2.0000      -9.885059      -268.9861
   6   2.0000      -9.872589      -268.6468
   7   2.0000      -9.868246      -268.5286
   8   2.0000      -9.856471      -268.2082
   9   2.0000      -9.807670      -266.8803
  10   2.0000      -1.226830       -33.3837
  11   2.0000      -0.957345       -26.0507
  12   2.0000      -0.754084       -20.5197
  13   2.0000      -0.722367       -19.6566
  14   2.0000      -0.676565       -18.4103
  15   2.0000      -0.639329       -17.3970
  16   2.0000      -0.601240       -16.3606
  17   2.0000      -0.576484       -15.6869
  18   2.0000      -0.539970       -14.6933
  19   2.0000      -0.504633       -13.7318
  20   2.0000      -0.499260       -13.5855
  21   2.0000      -0.485619       -13.2144
  22   2.0000      -0.455971       -12.4076
  23   2.0000      -0.429325       -11.6825
  24   2.0000      -0.408021       -11.1028
  25   2.0000      -0.397815       -10.8251
  26   2.0000      -0.392572       -10.6824
  27   2.0000      -0.382982       -10.4215
  28   2.0000      -0.366195        -9.9647
  29   2.0000      -0.347350        -9.4519
  30   2.0000      -0.342378        -9.3166
  31   2.0000      -0.331589        -9.0230
  32   2.0000      -0.325442        -8.8557
  33   2.0000      -0.308712        -8.4005
  34   2.0000      -0.292545        -7.9606
  35   2.0000      -0.286507        -7.7963
  36   2.0000      -0.277200        -7.5430
  37   2.0000      -0.263610        -7.1732
  38   2.0000      -0.258860        -7.0439
  39   2.0000      -0.222491        -6.0543
  40   0.0000      -0.078785        -2.1439
  41   0.0000      -0.016557        -0.4505
  42   0.0000       0.004708         0.1281
  43   0.0000       0.006174         0.1680
  44   0.0000       0.010311         0.2806

MULLIKEN ATOMIC CHARGES
-----------------------
   0 C :    0.123488
   1 H :    0.108831
   2 C :   -1.568592
   3 C :   -0.202280
   4 H :    0.103248
   5 C :   -0.429705
   6 C :   -0.249266
   7 H :    0.119092
   8 H :    0.169965
   9 C :   -0.430670
  10 H :    0.078446
  11 H :    0.239194
  12 C :   -0.057019
  13 C :    0.405426
  14 H :    0.186164
  15 H :    0.106916
  16 H :    0.453181
  17 H :    0.584383
  18 H :    0.241027
  19 O :   -0.502587
  20 F :   -0.231325
  21 H :    0.184857
  22 H :    0.271077
  23 H :    0.101716
  24 H :    0.194432
Sum of atomic charges:   -0.0000000

LOEWDIN ATOMIC CHARGES
----------------------
   0 C :   -0.243118
   1 H :    0.105343
   2 C :   -0.122988
   3 C :   -0.208441
   4 H :    0.112464
   5 C :   -0.199678
   6 C :   -0.200390
   7 H :    0.113308
   8 H :    0.111386
   9 C :   -0.200349
  10 H :    0.111862
  11 H :    0.105707
  12 C :   -0.085572
  13 C :   -0.492600
  14 H :    0.124018
  15 H :    0.128347
  16 H :    0.040328
  17 H :    0.020880
  18 H :    0.073581
  19 O :    0.076624
  20 F :    0.199298
  21 H :    0.117053
  22 H :    0.101448
  23 H :    0.100297
  24 H :    0.111191

  Mayer bond orders larger than 0.100000
B(  0-C ,  1-H ) :   0.9268 B(  0-C ,  2-C ) :   0.4958 B(  0-C ,  3-C ) :   1.0003
B(  0-C ,  4-H ) :   0.9299 B(  0-C ,  5-C ) :   0.3411 B(  2-C , 13-C ) :   0.1305
B(  2-C , 16-H ) :   0.9186 B(  2-C , 17-H ) :   0.8133 B(  2-C , 18-H ) :   0.8884
B(  2-C , 19-O ) :   0.1039 B(  2-C , 20-F ) :   0.1153 B(  3-C ,  5-C ) :   0.6240
B(  3-C ,  6-C ) :   0.2225 B(  3-C ,  9-C ) :   0.1423 B(  3-C , 23-H ) :   1.0230
B(  3-C , 24-H ) :   0.9013 B(  5-C ,  6-C ) :   1.0747 B(  5-C , 13-C ) :   0.1280
B(  5-C , 21-H ) :   0.9463 B(  5-C , 22-H ) :   0.9539 B(  6-C ,  7-H ) :   0.9869
B(  6-C ,  8-H ) :   0.9151 B(  6-C ,  9-C ) :   0.9949 B(  9-C , 10-H ) :   1.0050
B(  9-C , 11-H ) :   0.8815 B(  9-C , 12-C ) :   0.9024 B(  9-C , 13-C ) :   0.1699
B( 12-C , 13-C ) :   1.0061 B( 12-C , 14-H ) :   0.8809 B( 12-C , 15-H ) :   1.0111
B( 13-C , 19-O ) :   1.6980 B( 13-C , 20-F ) :   0.9215 B( 17-H , 19-O ) :  -0.1075
B( 19-O , 20-F ) :   0.1172

Dispersion correction           -0.026099238
FINAL SINGLE POINT ENERGY      -488.502296294748

DIPOLE MOMENT
-------------
                                X             Y             Z
Electronic contribution:      3.59916      -0.37512      -9.80629
Nuclear contribution   :     -3.57245       1.60200       9.69133
                        -----------------------------------------
Total Dipole Moment    :      0.02671       1.22688      -0.11496
                        -----------------------------------------
Magnitude (a.u.)       :      1.23254
Magnitude (Debye)      :      3.13287

Rotational constants in cm-1:     0.051520     0.042563     0.028962
Rotational constants in MHz :  1544.537298  1275.996546   868.258224

                             ****ORCA TERMINATED NORMALLY****
TOTAL RUN TIME: 0 days 0 hours 0 minutes 54 seconds 763 msec
