                         Program Version 5.0.0 -  RELEASE  -
|  1> !M062X D3Zero RIJCOSX def2-SVP def2/J TightSCF
|  2> *xyz -1 1
|  3> C         -0.77455        2.78833       -0.54394
|  4> C          0.69721        3.22791       -0.52513
|  5> O          1.48929        2.37470        0.19919
|  6> H          0.71600        4.26403       -0.13077
|  7> H          1.03615        3.33092       -1.58367
|  8> H         -1.34746        3.48478       -1.11982
|  9> H         -1.15078        2.75876        0.45729
| 10> H         -0.85058        1.81526       -0.98241
| 11> *
| 12>
| 13> %MaxCore 64000
| 14> %pal nprocs 4
| 15> end
| 16>
| 17> %scf
| 18>   MaxIter 150
| 19> end
| 20>
| 21>
| 22>                          ****END OF INPUT****

CARTESIAN COORDINATES (ANGSTROEM)
---------------------------------
  C     -0.774550    2.788330   -0.543940
  C      0.697210    3.227910   -0.525130
  O      1.489290    2.374700    0.199190
  H      0.716000    4.264030   -0.130770
  H      1.036150    3.330920   -1.583670
  H     -1.347460    3.484780   -1.119820
  H     -1.150780    2.758760    0.457290
  H     -0.850580    1.815260   -0.982410

 Total Charge           Charge          ....   -1
 Multiplicity           Mult            ....    1
 Number of Electrons    NEL             ....   26
 Basis Dimension        Dim             ....   67

ORBITAL ENERGIES
----------------

  NO   OCC          E(Eh)            E(eV)
   0   2.0000     -19.239348      -523.5293
   1   2.0000     -10.340058      -281.3673
   2   2.0000     -10.327414      -281.0232
   3   2.0000      -0.736181       -20.0325
   4   2.0000      -0.592674       -16.1275
   5   2.0000      -0.427391       -11.6299
   6   2.0000      -0.301914        -8.2155
   7   2.0000      -0.278498        -7.5783
   8   2.0000      -0.217952        -5.9308
   9   2.0000      -0.200252        -5.4491
  10   2.0000      -0.136237        -3.7072
  11   2.0000       0.009974         0.2714
  12   2.0000       0.011534         0.3139
  13   0.0000       0.291694         7.9374
  14   0.0000       0.336302         9.1512
  15   0.0000       0.350331         9.5330
  16   0.0000       0.357273         9.7219
  17   0.0000       0.399799        10.8791

MULLIKEN ATOMIC CHARGES
-----------------------
   0 C :   -0.020296
   1 C :    0.238445
   2 O :   -0.747524
   3 H :   -0.153528
   4 H :   -0.153770
   5 H :   -0.090465
   6 H :   -0.035909
   7 H :   -0.036953
Sum of atomic charges:   -1.0000000

LOEWDIN ATOMIC CHARGES
----------------------
   0 C :   -0.116199
   1 C :    0.012054
   2 O :   -0.690666
   3 H :   -0.078510
   4 H :   -0.079151
   5 H :   -0.029376
   6 H :   -0.008805
   7 H :   -0.009348

  Mayer bond orders larger than 0.100000
B(  0-C ,  1-C ) :   0.9996 B(  0-C ,  5-H ) :   0.9341 B(  0-C ,  6-H ) :   0.9650
B(  0-C ,  7-H ) :   0.9644 B(  1-C ,  2-O ) :   1.4691 B(  1-C ,  3-H ) :   0.8815
B(  1-C ,  4-H ) :   0.8811

Dispersion correction           -0.000014828
FINAL SINGLE POINT ENERGY      -154.193566616494

DIPOLE MOMENT
-------------
                                X             Y             Z
Electronic contribution:      2.52724      -1.21018       1.31974
Nuclear contribution   :     -3.69910       1.55962      -1.78699
                        -----------------------------------------
Total Dipole Moment    :     -1.17186       0.34945      -0.46725
                        -----------------------------------------
Magnitude (a.u.)       :      1.30908
Magnitude (Debye)      :      3.32741

Rotational constants in cm-1:     1.268893     0.327436     0.287754
Rotational constants in MHz : 38040.440181  9816.269339  8626.646564

                             ****ORCA TERMINATED NORMALLY****
TOTAL RUN TIME: 0 days 0 hours 0 minutes 8 seconds 659 msec
