                         Program Version 5.0.0 -  RELEASE  -
|  1> !M062X D3Zero RIJCOSX def2-SVP def2/J TightSCF
|  2> *xyz 1 1
|  3> C          3.95643        0.50147       -0.37910
|  4> H          3.16840        0.02920        0.20738
|  5> N          3.80389        1.96157       -0.15675
|  6> C          3.84232        0.14849       -1.85406
|  7> H          4.92323        0.17798        0.00937
|  8> H          4.20643        2.24441        0.74536
|  9> H          2.80827        2.21132       -0.09610
| 10> H          4.28076        2.50155       -0.89104
| 11> H          4.62951        0.62800       -2.39748
| 12> H          2.89665        0.48102       -2.22825
| 13> H          3.92053       -0.91187       -1.97413
| 14> *
| 15>
| 16> %MaxCore 64000
| 17> %pal nprocs 4
| 18> end
| 19>
| 20> %scf
| 21>   MaxIter 150
| 22> end
| 23>
| 24>
| 25>                          ****END OF INPUT****

CARTESIAN COORDINATES (ANGSTROEM)
---------------------------------
  C      3.956430    0.501470   -0.379100
  H      3.168400    0.029200    0.207380
  N      3.803890    1.961570   -0.156750
  C      3.842320    0.148490   -1.854060
  H      4.923230    0.177980    0.009370
  H      4.206430    2.244410    0.745360
  H      2.808270    2.211320   -0.096100
  H      4.280760    2.501550   -0.891040
  H      4.629510    0.628000   -2.397480
  H      2.896650    0.481020   -2.228250
  H      3.920530   -0.911870   -1.974130

 Total Charge           Charge          ....    1
 Multiplicity           Mult            ....    1
 Number of Electrons    NEL             ....   26
 Basis Dimension        Dim             ....   82

ORBITAL ENERGIES
----------------

  NO   OCC          E(Eh)            E(eV)
   0   2.0000     -15.099472      -410.8775
   1   2.0000     -10.804946      -294.0175
   2   2.0000     -10.725972      -291.8685
   3   2.0000      -1.316413       -35.8214
   4   2.0000      -1.054608       -28.6973
   5   2.0000      -0.925327       -25.1794
   6   2.0000      -0.880708       -23.9653
   7   2.0000      -0.861712       -23.4484
   8   2.0000      -0.767602       -20.8875
   9   2.0000      -0.711694       -19.3662
  10   2.0000      -0.646081       -17.5808
  11   2.0000      -0.630875       -17.1670
  12   2.0000      -0.613367       -16.6906
  13   0.0000      -0.147333        -4.0091
  14   0.0000      -0.089282        -2.4295
  15   0.0000      -0.082570        -2.2469
  16   0.0000      -0.051406        -1.3988
  17   0.0000      -0.008991        -0.2447

MULLIKEN ATOMIC CHARGES
-----------------------
   0 C :   -0.084385
   1 H :    0.120155
   2 N :   -0.047779
   3 C :   -0.081211
   4 H :    0.126875
   5 H :    0.229984
   6 H :    0.232506
   7 H :    0.228545
   8 H :    0.081477
   9 H :    0.077452
  10 H :    0.116382
Sum of atomic charges:    1.0000000

LOEWDIN ATOMIC CHARGES
----------------------
   0 C :    0.047646
   1 H :    0.056038
   2 N :    0.283384
   3 C :   -0.044643
   4 H :    0.058181
   5 H :    0.151349
   6 H :    0.151376
   7 H :    0.147266
   8 H :    0.041916
   9 H :    0.041177
  10 H :    0.066311

  Mayer bond orders larger than 0.100000
B(  0-C ,  1-H ) :   0.9515 B(  0-C ,  2-N ) :   0.9091 B(  0-C ,  3-C ) :   1.0899
B(  0-C ,  4-H ) :   0.9523 B(  2-N ,  5-H ) :   0.9280 B(  2-N ,  6-H ) :   0.9292
B(  2-N ,  7-H ) :   0.9260 B(  3-C ,  8-H ) :   0.9662 B(  3-C ,  9-H ) :   0.9708
B(  3-C , 10-H ) :   0.9580

Dispersion correction           -0.000053630
FINAL SINGLE POINT ENERGY      -135.349079889723

DIPOLE MOMENT
-------------
                                X             Y             Z
Electronic contribution:     -0.01338       1.38209       1.27627
Nuclear contribution   :     -0.06214      -0.04120      -0.39947
                        -----------------------------------------
Total Dipole Moment    :     -0.07552       1.34088       0.87680
                        -----------------------------------------
Magnitude (a.u.)       :      1.60389
Magnitude (Debye)      :      4.07675

Rotational constants in cm-1:     1.011771     0.281435     0.249812
Rotational constants in MHz : 30332.138762  8437.210602  7489.166323

                             ****ORCA TERMINATED NORMALLY****
TOTAL RUN TIME: 0 days 0 hours 0 minutes 9 seconds 471 msec
