                         Program Version 5.0.0 -  RELEASE  -
|  1> !M062X D3Zero RIJCOSX def2-SVP def2/J TightSCF
|  2> *xyz 0 1
|  3> C         -0.77455        2.78833       -0.54394
|  4> C          0.69721        3.22791       -0.52513
|  5> F          1.48929        2.37470        0.19919
|  6> H          0.71600        4.26403       -0.13077
|  7> H          1.03615        3.33092       -1.58367
|  8> H         -1.34746        3.48478       -1.11982
|  9> H         -1.15078        2.75876        0.45729
| 10> H         -0.85058        1.81526       -0.98241
| 11> *
| 12>
| 13> %MaxCore 64000
| 14> %pal nprocs 4
| 15> end
| 16>
| 17> %scf
| 18>   MaxIter 150
| 19> end
| 20>
| 21>
| 22>                          ****END OF INPUT****

CARTESIAN COORDINATES (ANGSTROEM)
---------------------------------
  C     -0.774550    2.788330   -0.543940
  C      0.697210    3.227910   -0.525130
  F      1.489290    2.374700    0.199190
  H      0.716000    4.264030   -0.130770
  H      1.036150    3.330920   -1.583670
  H     -1.347460    3.484780   -1.119820
  H     -1.150780    2.758760    0.457290
  H     -0.850580    1.815260   -0.982410

 Total Charge           Charge          ....    0
 Multiplicity           Mult            ....    1
 Number of Electrons    NEL             ....   26
 Basis Dimension        Dim             ....   67

ORBITAL ENERGIES
----------------

  NO   OCC          E(Eh)            E(eV)
   0   2.0000     -25.223977      -686.3793
   1   2.0000     -10.625958      -289.1470
   2   2.0000     -10.544449      -286.9290
   3   2.0000      -1.305671       -35.5291
   4   2.0000      -0.851063       -23.1586
   5   2.0000      -0.709559       -19.3081
   6   2.0000      -0.581312       -15.8183
   7   2.0000      -0.572620       -15.5818
   8   2.0000      -0.535107       -14.5610
   9   2.0000      -0.475472       -12.9383
  10   2.0000      -0.464740       -12.6462
  11   2.0000      -0.400489       -10.8979
  12   2.0000      -0.394019       -10.7218
  13   0.0000       0.103658         2.8207
  14   0.0000       0.150305         4.0900
  15   0.0000       0.157960         4.2983
  16   0.0000       0.176172         4.7939
  17   0.0000       0.195210         5.3119

MULLIKEN ATOMIC CHARGES
-----------------------
   0 C :   -0.112658
   1 C :    0.197762
   2 F :   -0.287049
   3 H :    0.029781
   4 H :    0.031841
   5 H :    0.039322
   6 H :    0.050690
   7 H :    0.050310
Sum of atomic charges:   -0.0000000

LOEWDIN ATOMIC CHARGES
----------------------
   0 C :   -0.079250
   1 C :    0.111574
   2 F :   -0.146833
   3 H :    0.012423
   4 H :    0.013654
   5 H :    0.032059
   6 H :    0.028334
   7 H :    0.028039

  Mayer bond orders larger than 0.100000
B(  0-C ,  1-C ) :   1.0900 B(  0-C ,  5-H ) :   0.9639 B(  0-C ,  6-H ) :   0.9721
B(  0-C ,  7-H ) :   0.9723 B(  1-C ,  2-F ) :   0.9663 B(  1-C ,  3-H ) :   0.9618
B(  1-C ,  4-H ) :   0.9617

Dispersion correction           -0.000018827
FINAL SINGLE POINT ENERGY      -178.833786543974

DIPOLE MOMENT
-------------
                                X             Y             Z
Electronic contribution:      4.42834      -1.65097       2.00171
Nuclear contribution   :     -4.89513       2.05627      -2.36166
                        -----------------------------------------
Total Dipole Moment    :     -0.46680       0.40530      -0.35995
                        -----------------------------------------
Magnitude (a.u.)       :      0.71535
Magnitude (Debye)      :      1.81829

Rotational constants in cm-1:     1.247826     0.304622     0.269019
Rotational constants in MHz : 37408.889506  9132.346906  8064.979146

                             ****ORCA TERMINATED NORMALLY****
TOTAL RUN TIME: 0 days 0 hours 0 minutes 7 seconds 882 msec
