                         Program Version 5.0.0 -  RELEASE  -
|  1> !M062X D3Zero RIJCOSX def2-SVP def2/J TightSCF
|  2> *xyz 0 1
|  3> C          3.95643        0.50147       -0.37910
|  4> H          3.16840        0.02920        0.20738
|  5> C          3.80389        1.96157       -0.15675
|  6> C          3.84232        0.14849       -1.85406
|  7> H          4.92323        0.17798        0.00937
|  8> H          4.20643        2.24441        0.74536
|  9> H          2.80827        2.21132       -0.09610
| 10> H          4.28076        2.50155       -0.89104
| 11> H          4.62951        0.62800       -2.39748
| 12> H          2.89665        0.48102       -2.22825
| 13> H          3.92053       -0.91187       -1.97413
| 14> *
| 15>
| 16> %MaxCore 64000
| 17> %pal nprocs 4
| 18> end
| 19>
| 20> %scf
| 21>   MaxIter 150
| 22> end
| 23>
| 24>
| 25>                          ****END OF INPUT****

CARTESIAN COORDINATES (ANGSTROEM)
---------------------------------
  C      3.956430    0.501470   -0.379100
  H      3.168400    0.029200    0.207380
  C      3.803890    1.961570   -0.156750
  C      3.842320    0.148490   -1.854060
  H      4.923230    0.177980    0.009370
  H      4.206430    2.244410    0.745360
  H      2.808270    2.211320   -0.096100
  H      4.280760    2.501550   -0.891040
  H      4.629510    0.628000   -2.397480
  H      2.896650    0.481020   -2.228250
  H      3.920530   -0.911870   -1.974130

 Total Charge           Charge          ....    0
 Multiplicity           Mult            ....    1
 Number of Electrons    NEL             ....   26
 Basis Dimension        Dim             ....   82

ORBITAL ENERGIES
----------------

  NO   OCC          E(Eh)            E(eV)
   0   2.0000     -10.534200      -286.6502
   1   2.0000     -10.528167      -286.4860
   2   2.0000     -10.511396      -286.0296
   3   2.0000      -0.881481       -23.9863
   4   2.0000      -0.772496       -21.0207
   5   2.0000      -0.660150       -17.9636
   6   2.0000      -0.538149       -14.6438
   7   2.0000      -0.512900       -13.9567
   8   2.0000      -0.466079       -12.6826
   9   2.0000      -0.454294       -12.3620
  10   2.0000      -0.395861       -10.7719
  11   2.0000      -0.393437       -10.7060
  12   2.0000      -0.384308       -10.4576
  13   0.0000       0.103002         2.8028
  14   0.0000       0.151156         4.1132
  15   0.0000       0.153857         4.1866
  16   0.0000       0.158277         4.3069
  17   0.0000       0.186327         5.0702

MULLIKEN ATOMIC CHARGES
-----------------------
   0 C :   -0.148827
   1 H :    0.031182
   2 C :    0.012297
   3 C :   -0.051866
   4 H :    0.032724
   5 H :    0.008093
   6 H :    0.013180
   7 H :    0.008749
   8 H :    0.031908
   9 H :    0.029591
  10 H :    0.032969
Sum of atomic charges:    0.0000000

LOEWDIN ATOMIC CHARGES
----------------------
   0 C :   -0.048863
   1 H :    0.022390
   2 C :   -0.049893
   3 C :   -0.058107
   4 H :    0.020730
   5 H :    0.017628
   6 H :    0.016878
   7 H :    0.013720
   8 H :    0.021547
   9 H :    0.021479
  10 H :    0.022492

  Mayer bond orders larger than 0.100000
B(  0-C ,  1-H ) :   0.9591 B(  0-C ,  2-C ) :   1.0942 B(  0-C ,  3-C ) :   1.0933
B(  0-C ,  4-H ) :   0.9611 B(  2-C ,  5-H ) :   0.9655 B(  2-C ,  6-H ) :   0.9720
B(  2-C ,  7-H ) :   0.9748 B(  3-C ,  8-H ) :   0.9741 B(  3-C ,  9-H ) :   0.9771
B(  3-C , 10-H ) :   0.9728

Dispersion correction           -0.000052251
FINAL SINGLE POINT ENERGY      -118.956254789877

DIPOLE MOMENT
-------------
                                X             Y             Z
Electronic contribution:      0.07928      -0.28982       0.22533
Nuclear contribution   :     -0.08172       0.30475      -0.19303
                        -----------------------------------------
Total Dipole Moment    :     -0.00243       0.01493       0.03230
                        -----------------------------------------
Magnitude (a.u.)       :      0.03567
Magnitude (Debye)      :      0.09066

Rotational constants in cm-1:     1.020248     0.295755     0.261591
Rotational constants in MHz : 30586.266829  8866.511639  7842.297953

                             ****ORCA TERMINATED NORMALLY****
TOTAL RUN TIME: 0 days 0 hours 0 minutes 9 seconds 288 msec
