                         Program Version 5.0.0 -  RELEASE  -
|  1> !M062X D3Zero RIJCOSX def2-TZVP def2/J TightSCF xyzfile
|  2>
|  3> *xyzfile 0 1 D.xyz
|  4>
|  5> %MaxCore 64000
|  6>
|  7> %pal nprocs 18
|  8> end
|  9>
| 10> %scf
| 11>   MaxIter 150
| 12> end
| 13>
| 14>
| 15>                          ****END OF INPUT****

CARTESIAN COORDINATES (ANGSTROEM)
---------------------------------
  C      3.956426    0.501466   -0.379100
  H      3.168398    0.029201    0.207383
  C      3.803893    1.961572   -0.156747
  C      3.842322    0.148490   -1.854058
  H      4.923231    0.177982    0.009371
  H      4.620021    0.694502   -2.402150
  H      4.096015   -0.910930   -1.955103
  C      2.475619    0.412708   -2.485377
  H      2.174689    1.445076   -2.287971
  C      1.383931   -0.532740   -1.995203
  H      2.575613    0.318574   -3.571460
  H      1.264698   -0.412309   -0.915491
  H      1.705223   -1.566885   -2.164984
  C      0.031398   -0.317260   -2.677791
  C     -0.587292    1.060853   -2.436460
  H     -0.662815   -1.089530   -2.329985
  H      0.149465   -0.478040   -3.755648
  H      0.104376    1.828590   -2.793130
  C     -0.951213    1.334978   -0.972500
  H     -1.478832    1.161355   -3.062484
  H     -0.317007    0.741648   -0.311389
  H     -1.980916    1.012842   -0.788958
  C     -0.774550    2.788332   -0.543943
  H     -1.352609    3.459372   -1.192585
  H     -1.171014    2.902331    0.469968
  C      0.697208    3.227911   -0.525126
  F      1.489294    2.374703    0.199189
  H      0.715998    4.264030   -0.130774
  H      1.036148    3.330920   -1.583669
  H      4.206425    2.244406    0.745359
  H      2.808269    2.211323   -0.096097
  H      4.280757    2.501552   -0.891037

 Total Charge           Charge          ....    0
 Multiplicity           Mult            ....    1
 Number of Electrons    NEL             ....   90
 Basis Dimension        Dim             ....  467

ORBITAL ENERGIES
----------------

  NO   OCC          E(Eh)            E(eV)
   0   2.0000     -25.254410      -687.2074
   1   2.0000     -10.624138      -289.0975
   2   2.0000     -10.545336      -286.9532
   3   2.0000     -10.531964      -286.5893
   4   2.0000     -10.528608      -286.4980
   5   2.0000     -10.525410      -286.4110
   6   2.0000     -10.519533      -286.2511
   7   2.0000     -10.517497      -286.1957
   8   2.0000     -10.511266      -286.0261
   9   2.0000     -10.500195      -285.7248
  10   2.0000     -10.447093      -284.2799
  11   2.0000      -1.377960       -37.4962
  12   2.0000      -0.921355       -25.0714
  13   2.0000      -0.901423       -24.5290
  14   2.0000      -0.866322       -23.5738
  15   2.0000      -0.834099       -22.6970
  16   2.0000      -0.783365       -21.3164
  17   2.0000      -0.755685       -20.5632
  18   2.0000      -0.711222       -19.3533
  19   2.0000      -0.685960       -18.6659
  20   2.0000      -0.647260       -17.6129
  21   2.0000      -0.636755       -17.3270
  22   2.0000      -0.611515       -16.6402
  23   2.0000      -0.602812       -16.4033
  24   2.0000      -0.577019       -15.7015
  25   2.0000      -0.541887       -14.7455
  26   2.0000      -0.531737       -14.4693
  27   2.0000      -0.519046       -14.1239
  28   2.0000      -0.499317       -13.5871
  29   2.0000      -0.497323       -13.5329
  30   2.0000      -0.478094       -13.0096
  31   2.0000      -0.459585       -12.5059
  32   2.0000      -0.453514       -12.3407
  33   2.0000      -0.437199       -11.8968
  34   2.0000      -0.429974       -11.7002
  35   2.0000      -0.421397       -11.4668
  36   2.0000      -0.410416       -11.1680
  37   2.0000      -0.403923       -10.9913
  38   2.0000      -0.384441       -10.4612
  39   2.0000      -0.379025       -10.3138
  40   2.0000      -0.371989       -10.1223
  41   2.0000      -0.370213       -10.0740
  42   2.0000      -0.355148        -9.6641
  43   2.0000      -0.354108        -9.6358
  44   2.0000      -0.336635        -9.1603
  45   0.0000       0.062564         1.7025
  46   0.0000       0.072744         1.9795
  47   0.0000       0.080443         2.1890
  48   0.0000       0.088576         2.4103
  49   0.0000       0.099997         2.7211

MULLIKEN ATOMIC CHARGES
-----------------------
   0 C :   -0.248864
   1 H :    0.135213
   2 C :   -0.486219
   3 C :   -0.281300
   4 H :    0.122614
   5 H :    0.146014
   6 H :    0.132702
   7 C :   -0.275776
   8 H :    0.123453
   9 C :   -0.298098
  10 H :    0.144480
  11 H :    0.150478
  12 H :    0.144909
  13 C :   -0.280232
  14 C :   -0.313348
  15 H :    0.147699
  16 H :    0.147314
  17 H :    0.149189
  18 C :   -0.275524
  19 H :    0.145163
  20 H :    0.164569
  21 H :    0.146543
  22 C :   -0.286274
  23 H :    0.150995
  24 H :    0.148250
  25 C :   -0.095508
  26 F :   -0.187462
  27 H :    0.143780
  28 H :    0.152368
  29 H :    0.132899
  30 H :    0.172194
  31 H :    0.127778
Sum of atomic charges:    0.0000000

LOEWDIN ATOMIC CHARGES
----------------------
   0 C :   -0.307748
   1 H :    0.133725
   2 C :   -0.325019
   3 C :   -0.274464
   4 H :    0.131852
   5 H :    0.136892
   6 H :    0.135239
   7 C :   -0.270090
   8 H :    0.132428
   9 C :   -0.273816
  10 H :    0.137627
  11 H :    0.133839
  12 H :    0.139437
  13 C :   -0.273314
  14 C :   -0.269977
  15 H :    0.138323
  16 H :    0.138033
  17 H :    0.133822
  18 C :   -0.271096
  19 H :    0.136727
  20 H :    0.142009
  21 H :    0.138678
  22 C :   -0.280445
  23 H :    0.144885
  24 H :    0.140739
  25 C :   -0.343497
  26 F :    0.167378
  27 H :    0.127791
  28 H :    0.125383
  29 H :    0.104910
  30 H :    0.065674
  31 H :    0.104078

  Mayer bond orders larger than 0.100000
B(  0-C ,  1-H ) :   0.9942 B(  0-C ,  2-C ) :   0.8680 B(  0-C ,  3-C ) :   0.9177
B(  0-C ,  4-H ) :   0.9882 B(  2-C , 29-H ) :   0.9993 B(  2-C , 30-H ) :   0.9831
B(  2-C , 31-H ) :   0.9782 B(  3-C ,  5-H ) :   0.9960 B(  3-C ,  6-H ) :   0.9894
B(  3-C ,  7-C ) :   0.9305 B(  7-C ,  8-H ) :   0.9849 B(  7-C ,  9-C ) :   0.8750
B(  7-C , 10-H ) :   0.9795 B(  9-C , 11-H ) :   0.9903 B(  9-C , 12-H ) :   0.9815
B(  9-C , 13-C ) :   0.9206 B( 13-C , 14-C ) :   0.9106 B( 13-C , 15-H ) :   0.9895
B( 13-C , 16-H ) :   0.9898 B( 14-C , 17-H ) :   0.9984 B( 14-C , 18-C ) :   0.8680
B( 14-C , 19-H ) :   0.9771 B( 18-C , 20-H ) :   0.9893 B( 18-C , 21-H ) :   0.9744
B( 18-C , 22-C ) :   0.9182 B( 22-C , 23-H ) :   0.9658 B( 22-C , 24-H ) :   0.9786
B( 22-C , 25-C ) :   0.9593 B( 25-C , 26-F ) :   0.9033 B( 25-C , 27-H ) :   0.9848
B( 25-C , 28-H ) :   0.9786

Dispersion correction           -0.001653482
FINAL SINGLE POINT ENERGY      -493.448078605439

DIPOLE MOMENT
-------------
                                X             Y             Z
Electronic contribution:     -1.96355       3.28351       4.27302
Nuclear contribution   :      1.09293      -2.80761      -4.51228
                        -----------------------------------------
Total Dipole Moment    :     -0.87062       0.47590      -0.23926
                        -----------------------------------------
Magnitude (a.u.)       :      1.02064
Magnitude (Debye)      :      2.59426

Rotational constants in cm-1:     0.040502     0.027818     0.018259
Rotational constants in MHz :  1214.218058   833.972871   547.398614

                             ****ORCA TERMINATED NORMALLY****
TOTAL RUN TIME: 0 days 0 hours 1 minutes 4 seconds 242 msec
