                         Program Version 5.0.0 -  RELEASE  -
|  1> !B3LYP D3BJ RIJCOSX def2-SVPD def2/J TightSCF xyzfile
|  2>
|  3> *xyzfile 0 1 B.xyz
|  4>
|  5> %MaxCore 64000
|  6>
|  7> %pal nprocs 4
|  8> end
|  9>
| 10> %scf
| 11>   MaxIter 150
| 12> end
| 13>
| 14>
| 15>                          ****END OF INPUT****

CARTESIAN COORDINATES (ANGSTROEM)
---------------------------------
  C      3.913853   -1.658291    3.015134
  N      5.039266   -0.901154    2.492821
  C      4.084215    1.742081   -2.114724
  C      4.265245    2.500518   -0.795890
  H      4.868534    3.392674   -0.981134
  H      3.307640    2.824571   -0.387809
  C      4.982240    1.650257    0.247422
  C      6.210384   -1.417261    2.178244
  N      6.535913   -2.677122    2.556078
  N      7.076754   -0.700820    1.478906
  H      7.954643   -1.121554    1.207554
  H      6.756161    0.106637    0.960278
  H      4.842168    0.017609    2.115191
  H      5.993876   -3.126918    3.282784
  H      7.498441   -2.975482    2.468776
  O      4.368065    1.389270    1.313706
  O      6.128919    1.233512   -0.045620
  C      3.139159   -2.376572    1.910609
  H      3.267235   -0.939401    3.520693
  H      4.247195   -2.355095    3.790065
  C      1.997274    0.430918   -1.399218
  C      3.412746    0.376886   -1.965497
  H      4.047407   -0.246590   -1.326706
  H      3.390774   -0.118719   -2.942839
  H      5.068475    1.598504   -2.565728
  H      3.503356    2.363939   -2.804565
  C      2.399946   -1.389579    1.009490
  H      2.440750   -3.087118    2.362976
  H      3.844475   -2.970462    1.318677
  C      2.070177   -1.936705   -0.372401
  H      1.481611   -1.061542    1.509912
  H      3.008628   -0.490001    0.897451
  C      1.322238   -0.935775   -1.256413
  H      1.472747   -2.850902   -0.283997
  H      3.003539   -2.234041   -0.862535
  H      1.376444    1.058920   -2.047420
  H      2.015341    0.929780   -0.426535
  H      0.316648   -0.787213   -0.848278
  H      1.185611   -1.379252   -2.248613

 Total Charge           Charge          ....    0
 Multiplicity           Mult            ....    1
 Number of Electrons    NEL             ....  126
 Basis Dimension        Dim             ....  510

ORBITAL ENERGIES
----------------

  NO   OCC          E(Eh)            E(eV)
   0   2.0000     -19.061789      -518.6977
   1   2.0000     -19.060624      -518.6659
   2   2.0000     -14.396994      -391.7621
   3   2.0000     -14.360702      -390.7746
   4   2.0000     -14.356122      -390.6499
   5   2.0000     -10.341991      -281.4199
   6   2.0000     -10.245050      -278.7820
   7   2.0000     -10.240470      -278.6574
   8   2.0000     -10.190280      -277.2916
   9   2.0000     -10.168147      -276.6894
  10   2.0000     -10.167586      -276.6741
  11   2.0000     -10.163819      -276.5716
  12   2.0000     -10.154951      -276.3303
  13   2.0000     -10.153527      -276.2915
  14   2.0000     -10.152581      -276.2658
  15   2.0000     -10.143706      -276.0243
  16   2.0000      -1.033582       -28.1252
  17   2.0000      -0.999821       -27.2065
  18   2.0000      -0.927233       -25.2313
  19   2.0000      -0.913240       -24.8505
  20   2.0000      -0.902617       -24.5615
  21   2.0000      -0.804168       -21.8825
  22   2.0000      -0.779889       -21.2219
  23   2.0000      -0.751308       -20.4441
  24   2.0000      -0.712376       -19.3847
  25   2.0000      -0.674736       -18.3605
  26   2.0000      -0.659336       -17.9414
  27   2.0000      -0.628394       -17.0995
  28   2.0000      -0.615704       -16.7542
  29   2.0000      -0.600347       -16.3363
  30   2.0000      -0.573351       -15.6017
  31   2.0000      -0.566565       -15.4170
  32   2.0000      -0.534633       -14.5481
  33   2.0000      -0.526693       -14.3321
  34   2.0000      -0.518994       -14.1226
  35   2.0000      -0.498655       -13.5691
  36   2.0000      -0.470608       -12.8059
  37   2.0000      -0.463873       -12.6226
  38   2.0000      -0.458576       -12.4785
  39   2.0000      -0.453960       -12.3529
  40   2.0000      -0.440237       -11.9795
  41   2.0000      -0.422289       -11.4911
  42   2.0000      -0.420958       -11.4548
  43   2.0000      -0.416549       -11.3349
  44   2.0000      -0.408276       -11.1097
  45   2.0000      -0.399143       -10.8612
  46   2.0000      -0.384236       -10.4556
  47   2.0000      -0.371752       -10.1159
  48   2.0000      -0.367163        -9.9910
  49   2.0000      -0.355512        -9.6740
  50   2.0000      -0.349184        -9.5018
  51   2.0000      -0.341501        -9.2927
  52   2.0000      -0.328409        -8.9365
  53   2.0000      -0.320723        -8.7273
  54   2.0000      -0.315533        -8.5861
  55   2.0000      -0.310386        -8.4460
  56   2.0000      -0.300829        -8.1860
  57   2.0000      -0.296363        -8.0644
  58   2.0000      -0.289591        -7.8802
  59   2.0000      -0.277684        -7.5562
  60   2.0000      -0.236182        -6.4268
  61   2.0000      -0.225420        -6.1340
  62   2.0000      -0.219269        -5.9666
  63   0.0000      -0.017994        -0.4897
  64   0.0000      -0.004464        -0.1215
  65   0.0000       0.012070         0.3285
  66   0.0000       0.031088         0.8460
  67   0.0000       0.038969         1.0604

MULLIKEN ATOMIC CHARGES
-----------------------
   0 C :    1.426004
   1 N :    0.179278
   2 C :    0.580686
   3 C :    0.506045
   4 H :   -0.223860
   5 H :    0.049807
   6 C :    0.233000
   7 C :    1.073698
   8 N :    0.197716
   9 N :    0.534241
  10 H :   -0.141692
  11 H :   -0.438961
  12 H :   -0.968939
  13 H :   -0.082809
  14 H :   -0.232378
  15 O :   -0.707683
  16 O :   -0.618330
  17 C :    0.489871
  18 H :   -0.386824
  19 H :   -0.367778
  20 C :    0.055446
  21 C :    0.031669
  22 H :   -0.091182
  23 H :   -0.258691
  24 H :   -0.075925
  25 H :   -0.229030
  26 C :    0.861484
  27 H :   -0.210554
  28 H :   -0.110962
  29 C :    0.182982
  30 H :   -0.099294
  31 H :   -1.036218
  32 C :    0.879593
  33 H :   -0.515604
  34 H :    0.065028
  35 H :   -0.500765
  36 H :    0.129818
  37 H :   -0.074548
  38 H :   -0.104341
Sum of atomic charges:    0.0000000

LOEWDIN ATOMIC CHARGES
----------------------
   0 C :    0.078949
   1 N :    0.083762
   2 C :   -0.016992
   3 C :    0.040218
   4 H :    0.025090
   5 H :    0.010976
   6 C :   -0.190225
   7 C :   -0.038555
   8 N :    0.252776
   9 N :    0.290513
  10 H :    0.019667
  11 H :   -0.111396
  12 H :   -0.081447
  13 H :   -0.010433
  14 H :    0.009686
  15 O :   -0.241547
  16 O :   -0.229956
  17 C :   -0.008792
  18 H :    0.037507
  19 H :    0.003014
  20 C :   -0.025504
  21 C :   -0.025015
  22 H :    0.008639
  23 H :    0.021896
  24 H :    0.018464
  25 H :    0.015690
  26 C :   -0.020641
  27 H :    0.022264
  28 H :    0.014213
  29 C :   -0.034323
  30 H :    0.036235
  31 H :   -0.022224
  32 C :   -0.026206
  33 H :    0.017583
  34 H :    0.014025
  35 H :    0.021001
  36 H :    0.007166
  37 H :    0.017424
  38 H :    0.016499

  Mayer bond orders larger than 0.100000
B(  0-C ,  1-N ) :   0.8987 B(  0-C , 12-H ) :  -0.4773 B(  0-C , 17-C ) :   1.0369
B(  0-C , 18-H ) :   0.5212 B(  0-C , 19-H ) :   0.6929 B(  0-C , 26-C ) :   0.1719
B(  1-N ,  7-C ) :   1.1657 B(  1-N ,  8-N ) :   0.2120 B(  1-N , 12-H ) :   1.1388
B(  1-N , 18-H ) :   0.2589 B(  1-N , 19-H ) :   0.1210 B(  2-C ,  3-C ) :   1.1526
B(  2-C ,  4-H ) :   0.1828 B(  2-C ,  5-H ) :   0.1092 B(  2-C ,  6-C ) :   0.1051
B(  2-C , 21-C ) :   1.2171 B(  2-C , 22-H ) :   0.1232 B(  2-C , 24-H ) :   0.5995
B(  2-C , 25-H ) :   0.7436 B(  3-C ,  4-H ) :   0.5827 B(  3-C ,  5-H ) :   0.7106
B(  3-C ,  6-C ) :   1.1087 B(  3-C , 21-C ) :   0.1387 B(  3-C , 24-H ) :   0.1330
B(  3-C , 25-H ) :   0.1717 B(  4-H ,  6-C ) :   0.2905 B(  5-H ,  6-C ) :   0.2860
B(  6-C , 15-O ) :   1.4432 B(  6-C , 16-O ) :   1.3369 B(  7-C ,  8-N ) :   0.8915
B(  7-C ,  9-N ) :   0.9938 B(  7-C , 11-H ) :  -0.2565 B(  7-C , 12-H ) :  -0.6269
B(  7-C , 13-H ) :  -0.1047 B(  8-N ,  9-N ) :   0.1345 B(  8-N , 13-H ) :   1.0775
B(  8-N , 14-H ) :   1.2176 B(  9-N , 10-H ) :   1.1419 B(  9-N , 11-H ) :   1.1140
B( 10-H , 11-H ) :  -0.2521 B( 11-H , 16-O ) :   0.1409 B( 12-H , 15-O ) :   0.2436
B( 12-H , 18-H ) :   0.1755 B( 13-H , 14-H ) :  -0.2067 B( 15-O , 31-H ) :   0.1024
B( 17-C , 19-H ) :   0.2011 B( 17-C , 26-C ) :   1.1011 B( 17-C , 27-H ) :   0.8269
B( 17-C , 28-H ) :   0.8464 B( 17-C , 29-C ) :   0.1149 B( 17-C , 30-H ) :   0.1529
B( 18-H , 19-H ) :  -0.2645 B( 20-C , 21-C ) :   1.2152 B( 20-C , 22-H ) :   0.1280
B( 20-C , 23-H ) :   0.1602 B( 20-C , 29-C ) :   0.1457 B( 20-C , 32-C ) :   1.1212
B( 20-C , 35-H ) :   0.9154 B( 20-C , 36-H ) :   0.8083 B( 20-C , 37-H ) :   0.3213
B( 20-C , 38-H ) :   0.1562 B( 21-C , 22-H ) :   0.8914 B( 21-C , 23-H ) :   0.8032
B( 21-C , 24-H ) :   0.2811 B( 21-C , 25-H ) :   0.1968 B( 21-C , 35-H ) :   0.1228
B( 21-C , 36-H ) :   0.1268 B( 24-H , 25-H ) :  -0.1518 B( 26-C , 27-H ) :   0.1680
B( 26-C , 28-H ) :   0.1160 B( 26-C , 29-C ) :   1.2276 B( 26-C , 30-H ) :   0.5457
B( 26-C , 31-H ) :  -0.1285 B( 26-C , 34-H ) :   0.1906 B( 27-H , 31-H ) :   0.1374
B( 28-H , 33-H ) :  -0.1068 B( 29-C , 30-H ) :   0.1038 B( 29-C , 31-H ) :   0.1668
B( 29-C , 32-C ) :   1.0889 B( 29-C , 33-H ) :   0.9283 B( 29-C , 34-H ) :   0.7895
B( 29-C , 37-H ) :   0.1258 B( 29-C , 38-H ) :   0.2656 B( 30-H , 31-H ) :   0.2913
B( 31-H , 36-H ) :   0.1127 B( 32-C , 37-H ) :   0.5861 B( 32-C , 38-H ) :   0.6172
B( 33-H , 34-H ) :  -0.1000 B( 37-H , 38-H ) :  -0.1420

Dispersion correction           -0.072499165
FINAL SINGLE POINT ENERGY      -746.908184878168

DIPOLE MOMENT
-------------
                                X             Y             Z
Electronic contribution:     12.27335       3.31200       7.67820
Nuclear contribution   :    -11.44764      -6.21818      -6.18483
                        -----------------------------------------
Total Dipole Moment    :      0.82571      -2.90617       1.49337
                        -----------------------------------------
Magnitude (a.u.)       :      3.37013
Magnitude (Debye)      :      8.56620

Rotational constants in cm-1:     0.020281     0.013510     0.009451
Rotational constants in MHz :   608.005987   405.034308   283.324538

                             ****ORCA TERMINATED NORMALLY****
TOTAL RUN TIME: 0 days 0 hours 4 minutes 19 seconds 615 msec
