                         Program Version 5.0.0 -  RELEASE  -
|  1> !B3LYP D3BJ RIJCOSX def2-SVPD def2/J TightSCF xyzfile
|  2>
|  3> *xyzfile 0 1 D2.xyz
|  4>
|  5> %MaxCore 64000
|  6>
|  7> %pal nprocs 4
|  8> end
|  9>
| 10> %scf
| 11>   MaxIter 150
| 12> end
| 13>
| 14>
| 15>                          ****END OF INPUT****

CARTESIAN COORDINATES (ANGSTROEM)
---------------------------------
  C      3.913853   -1.658291    3.015134
  N      5.039266   -0.901154    2.492821
  C      4.084215    1.742081   -2.114724
  C      4.265245    2.500518   -0.795890
  H      4.868534    3.392674   -0.981134
  H      3.307640    2.824571   -0.387809
  C      4.982240    1.650257    0.247422
  C      6.210384   -1.417261    2.178244
  C      6.535913   -2.677122    2.556078
  N      7.076754   -0.700820    1.478906
  H      7.954643   -1.121554    1.207554
  H      6.756161    0.106637    0.960278
  H      4.842168    0.017609    2.115191
  H      5.993876   -3.126918    3.282784
  H      7.498441   -2.975482    2.468776
  F      4.368065    1.389270    1.313706
  O      6.128919    1.233512   -0.045620
  C      3.139159   -2.376572    1.910609
  H      3.267235   -0.939401    3.520693
  H      4.247195   -2.355095    3.790065
  C      1.997274    0.430918   -1.399218
  C      3.412746    0.376886   -1.965497
  H      4.047407   -0.246590   -1.326706
  H      3.390774   -0.118719   -2.942839
  H      5.068475    1.598504   -2.565728
  H      3.503356    2.363939   -2.804565
  C      2.399946   -1.389579    1.009490
  H      2.440750   -3.087118    2.362976
  H      3.844475   -2.970462    1.318677
  C      2.070177   -1.936705   -0.372401
  H      1.481611   -1.061542    1.509912
  H      3.008628   -0.490001    0.897451
  C      1.322238   -0.935775   -1.256413
  H      1.472747   -2.850902   -0.283997
  H      3.003539   -2.234041   -0.862535
  H      1.376444    1.058920   -2.047420
  H      2.015341    0.929780   -0.426535
  H      0.316648   -0.787213   -0.848278
  H      1.185611   -1.379252   -2.248613

 Total Charge           Charge          ....    0
 Multiplicity           Mult            ....    1
 Number of Electrons    NEL             ....  126
 Basis Dimension        Dim             ....  510

ORBITAL ENERGIES
----------------

  NO   OCC          E(Eh)            E(eV)
   0   2.0000     -24.810127      -675.1179
   1   2.0000     -19.185043      -522.0516
   2   2.0000     -14.309904      -389.3923
   3   2.0000     -14.290467      -388.8634
   4   2.0000     -10.399896      -282.9956
   5   2.0000     -10.232647      -278.4445
   6   2.0000     -10.210469      -277.8410
   7   2.0000     -10.207625      -277.7636
   8   2.0000     -10.202670      -277.6288
   9   2.0000     -10.194797      -277.4145
  10   2.0000     -10.189794      -277.2784
  11   2.0000     -10.183169      -277.0981
  12   2.0000     -10.177098      -276.9329
  13   2.0000     -10.175511      -276.8897
  14   2.0000     -10.166875      -276.6547
  15   2.0000     -10.075831      -274.1773
  16   2.0000      -1.349440       -36.7201
  17   2.0000      -1.068214       -29.0676
  18   2.0000      -0.942272       -25.6405
  19   2.0000      -0.856841       -23.3158
  20   2.0000      -0.836007       -22.7489
  21   2.0000      -0.805084       -21.9074
  22   2.0000      -0.771207       -20.9856
  23   2.0000      -0.738631       -20.0992
  24   2.0000      -0.712626       -19.3915
  25   2.0000      -0.688438       -18.7334
  26   2.0000      -0.675572       -18.3833
  27   2.0000      -0.650781       -17.7087
  28   2.0000      -0.617396       -16.8002
  29   2.0000      -0.597950       -16.2710
  30   2.0000      -0.590042       -16.0559
  31   2.0000      -0.579458       -15.7678
  32   2.0000      -0.565309       -15.3828
  33   2.0000      -0.548830       -14.9344
  34   2.0000      -0.532810       -14.4985
  35   2.0000      -0.513857       -13.9828
  36   2.0000      -0.497830       -13.5466
  37   2.0000      -0.488064       -13.2809
  38   2.0000      -0.487478       -13.2650
  39   2.0000      -0.468989       -12.7619
  40   2.0000      -0.455212       -12.3869
  41   2.0000      -0.448403       -12.2017
  42   2.0000      -0.436608       -11.8807
  43   2.0000      -0.429520       -11.6878
  44   2.0000      -0.421069       -11.4579
  45   2.0000      -0.410537       -11.1713
  46   2.0000      -0.404990       -11.0203
  47   2.0000      -0.394016       -10.7217
  48   2.0000      -0.383379       -10.4323
  49   2.0000      -0.379051       -10.3145
  50   2.0000      -0.371117       -10.0986
  51   2.0000      -0.364598        -9.9212
  52   2.0000      -0.361070        -9.8252
  53   2.0000      -0.351874        -9.5750
  54   2.0000      -0.344937        -9.3862
  55   2.0000      -0.340528        -9.2662
  56   2.0000      -0.331544        -9.0218
  57   2.0000      -0.321030        -8.7357
  58   2.0000      -0.319979        -8.7071
  59   2.0000      -0.317856        -8.6493
  60   2.0000      -0.313516        -8.5312
  61   2.0000      -0.228335        -6.2133
  62   2.0000      -0.144733        -3.9384
  63   0.0000      -0.070671        -1.9231
  64   0.0000       0.003030         0.0825
  65   0.0000       0.021480         0.5845
  66   0.0000       0.024258         0.6601
  67   0.0000       0.029355         0.7988

MULLIKEN ATOMIC CHARGES
-----------------------
   0 C :    1.365063
   1 N :    0.443734
   2 C :    0.586288
   3 C :    0.448820
   4 H :   -0.203999
   5 H :    0.083472
   6 C :    0.536689
   7 C :    0.570327
   8 C :    0.748847
   9 N :    0.596494
  10 H :   -0.133902
  11 H :   -0.613376
  12 H :   -1.213519
  13 H :   -0.154318
  14 H :   -0.753122
  15 F :   -0.538566
  16 O :   -0.458650
  17 C :    0.498904
  18 H :   -0.471569
  19 H :   -0.231933
  20 C :    0.073555
  21 C :    0.060337
  22 H :   -0.112003
  23 H :   -0.242366
  24 H :   -0.061283
  25 H :   -0.200376
  26 C :    0.807235
  27 H :   -0.226543
  28 H :   -0.104541
  29 C :    0.196416
  30 H :   -0.097295
  31 H :   -1.036620
  32 C :    0.871013
  33 H :   -0.505507
  34 H :    0.055461
  35 H :   -0.500877
  36 H :    0.089193
  37 H :   -0.074138
  38 H :   -0.097346
Sum of atomic charges:   -0.0000000

LOEWDIN ATOMIC CHARGES
----------------------
   0 C :    0.068747
   1 N :    0.013262
   2 C :   -0.003250
   3 C :    0.066910
   4 H :    0.042474
   5 H :    0.021110
   6 C :    0.050477
   7 C :   -0.220357
   8 C :    0.159464
   9 N :    0.220507
  10 H :    0.007909
  11 H :   -0.133193
  12 H :   -0.060752
  13 H :   -0.130350
  14 H :   -0.114865
  15 F :   -0.025877
  16 O :   -0.094081
  17 C :   -0.005382
  18 H :    0.019620
  19 H :    0.009704
  20 C :   -0.030232
  21 C :   -0.020137
  22 H :    0.012357
  23 H :    0.032014
  24 H :    0.028154
  25 H :    0.028375
  26 C :   -0.033312
  27 H :    0.021236
  28 H :    0.016877
  29 C :   -0.029998
  30 H :    0.031192
  31 H :   -0.029736
  32 C :   -0.023375
  33 H :    0.023970
  34 H :    0.017922
  35 H :    0.023004
  36 H :   -0.000165
  37 H :    0.020269
  38 H :    0.019507

  Mayer bond orders larger than 0.100000
B(  0-C ,  1-N ) :   0.9516 B(  0-C , 12-H ) :  -0.5032 B(  0-C , 17-C ) :   1.0206
B(  0-C , 18-H ) :   0.5703 B(  0-C , 19-H ) :   0.6814 B(  0-C , 26-C ) :   0.1718
B(  1-N ,  7-C ) :   0.9105 B(  1-N ,  8-C ) :   0.4467 B(  1-N , 12-H ) :   0.5952
B(  1-N , 18-H ) :   0.2327 B(  2-C ,  3-C ) :   1.1423 B(  2-C ,  4-H ) :   0.1930
B(  2-C ,  5-H ) :   0.1084 B(  2-C ,  6-C ) :   0.1149 B(  2-C , 21-C ) :   1.2266
B(  2-C , 22-H ) :   0.1172 B(  2-C , 24-H ) :   0.6174 B(  2-C , 25-H ) :   0.7522
B(  3-C ,  4-H ) :   0.5725 B(  3-C ,  5-H ) :   0.7317 B(  3-C ,  6-C ) :   1.2221
B(  3-C , 21-C ) :   0.1278 B(  3-C , 24-H ) :   0.1169 B(  3-C , 25-H ) :   0.1681
B(  4-H ,  6-C ) :   0.3016 B(  5-H ,  6-C ) :   0.2226 B(  6-C , 15-F ) :   0.6752
B(  6-C , 16-O ) :   1.6845 B(  7-C ,  8-C ) :   1.5173 B(  7-C ,  9-N ) :   0.9446
B(  7-C , 11-H ) :  -0.1370 B(  7-C , 12-H ) :  -0.5436 B(  7-C , 13-H ) :   0.3903
B(  7-C , 14-H ) :   0.4054 B(  8-C ,  9-N ) :   0.2612 B(  8-C , 12-H ) :  -0.1087
B(  8-C , 13-H ) :   0.5519 B(  8-C , 14-H ) :   0.4442 B(  9-N , 10-H ) :   1.1273
B(  9-N , 11-H ) :   0.9759 B( 10-H , 11-H ) :  -0.2656 B( 11-H , 12-H ) :   0.1083
B( 11-H , 16-O ) :   0.1171 B( 12-H , 15-F ) :   0.2947 B( 12-H , 18-H ) :   0.1511
B( 13-H , 18-H ) :  -0.1035 B( 13-H , 19-H ) :   0.1483 B( 15-F , 31-H ) :   0.1029
B( 17-C , 19-H ) :   0.1704 B( 17-C , 26-C ) :   1.1051 B( 17-C , 27-H ) :   0.8468
B( 17-C , 28-H ) :   0.8709 B( 17-C , 29-C ) :   0.1088 B( 17-C , 30-H ) :   0.1483
B( 18-H , 19-H ) :  -0.3097 B( 20-C , 21-C ) :   1.2024 B( 20-C , 22-H ) :   0.1204
B( 20-C , 23-H ) :   0.1651 B( 20-C , 29-C ) :   0.1510 B( 20-C , 32-C ) :   1.1335
B( 20-C , 35-H ) :   0.9105 B( 20-C , 36-H ) :   0.8088 B( 20-C , 37-H ) :   0.3257
B( 20-C , 38-H ) :   0.1564 B( 21-C , 22-H ) :   0.8946 B( 21-C , 23-H ) :   0.8067
B( 21-C , 24-H ) :   0.2755 B( 21-C , 25-H ) :   0.1919 B( 21-C , 35-H ) :   0.1227
B( 21-C , 36-H ) :   0.1236 B( 24-H , 25-H ) :  -0.1535 B( 26-C , 27-H ) :   0.1784
B( 26-C , 28-H ) :   0.1159 B( 26-C , 29-C ) :   1.2251 B( 26-C , 30-H ) :   0.5480
B( 26-C , 34-H ) :   0.1797 B( 27-H , 31-H ) :   0.1227 B( 28-H , 33-H ) :  -0.1028
B( 29-C , 30-H ) :   0.1035 B( 29-C , 31-H ) :   0.1607 B( 29-C , 32-C ) :   1.0846
B( 29-C , 33-H ) :   0.9320 B( 29-C , 34-H ) :   0.8026 B( 29-C , 37-H ) :   0.1271
B( 29-C , 38-H ) :   0.2684 B( 30-H , 31-H ) :   0.2944 B( 31-H , 36-H ) :   0.1071
B( 32-C , 37-H ) :   0.5811 B( 32-C , 38-H ) :   0.6213 B( 33-H , 34-H ) :  -0.1023
B( 37-H , 38-H ) :  -0.1407

Dispersion correction           -0.071972220
FINAL SINGLE POINT ENERGY      -754.759772109471

DIPOLE MOMENT
-------------
                                X             Y             Z
Electronic contribution:      9.76672      10.51060       5.54894
Nuclear contribution   :    -11.22009      -8.67117      -6.77523
                        -----------------------------------------
Total Dipole Moment    :     -1.45337       1.83943      -1.22629
                        -----------------------------------------
Magnitude (a.u.)       :      2.64567
Magnitude (Debye)      :      6.72476

Rotational constants in cm-1:     0.020086     0.013778     0.009581
Rotational constants in MHz :   602.172053   413.051122   287.243919

                             ****ORCA TERMINATED NORMALLY****
TOTAL RUN TIME: 0 days 0 hours 4 minutes 41 seconds 67 msec
