                         Program Version 5.0.0 -  RELEASE  -
|  1> !PBE D3BJ RIJCOSX def2-SVPD def2/J TightSCF
|  2> *xyz -1 1
|  3> C          4.99986       -1.59613       -5.92488
|  4> C          3.76678       -2.26611       -6.51175
|  5> C          2.49670       -1.84416       -5.73570
|  6> H          1.62642       -2.21743       -6.30895
|  7> H          2.48182       -2.45607       -4.79341
|  8> O          2.45973       -0.50920       -5.50576
|  9> H          3.88619       -3.35708       -6.53360
| 10> H          3.68560       -1.92217       -7.54713
| 11> H          5.86637       -1.89999       -6.47418
| 12> H          5.10830       -1.88372       -4.89997
| 13> H          4.89230       -0.53341       -5.98765
| 14> *
| 15>
| 16> %MaxCore 64000
| 17>
| 18> %pal nprocs 4
| 19> end
| 20>
| 21> %scf
| 22>   MaxIter 150
| 23> end
| 24>
| 25>
| 26>                          ****END OF INPUT****

CARTESIAN COORDINATES (ANGSTROEM)
---------------------------------
  C      4.999860   -1.596130   -5.924880
  C      3.766780   -2.266110   -6.511750
  C      2.496700   -1.844160   -5.735700
  H      1.626420   -2.217430   -6.308950
  H      2.481820   -2.456070   -4.793410
  O      2.459730   -0.509200   -5.505760
  H      3.886190   -3.357080   -6.533600
  H      3.685600   -1.922170   -7.547130
  H      5.866370   -1.899990   -6.474180
  H      5.108300   -1.883720   -4.899970
  H      4.892300   -0.533410   -5.987650

 Total Charge           Charge          ....   -1
 Multiplicity           Mult            ....    1
 Number of Electrons    NEL             ....   34
 Basis Dimension        Dim             ....  139

ORBITAL ENERGIES
----------------

  NO   OCC          E(Eh)            E(eV)
   0   2.0000     -18.448683      -502.0142
   1   2.0000      -9.713409      -264.3153
   2   2.0000      -9.706355      -264.1234
   3   2.0000      -9.703455      -264.0444
   4   2.0000      -0.606971       -16.5165
   5   2.0000      -0.503412       -13.6985
   6   2.0000      -0.394001       -10.7213
   7   2.0000      -0.301583        -8.2065
   8   2.0000      -0.225372        -6.1327
   9   2.0000      -0.216655        -5.8955
  10   2.0000      -0.166834        -4.5398
  11   2.0000      -0.144307        -3.9268
  12   2.0000      -0.117929        -3.2090
  13   2.0000      -0.107169        -2.9162
  14   2.0000      -0.077669        -2.1135
  15   2.0000       0.059294         1.6135
  16   2.0000       0.063654         1.7321
  17   0.0000       0.151549         4.1239
  18   0.0000       0.175267         4.7692
  19   0.0000       0.190663         5.1882
  20   0.0000       0.211933         5.7670
  21   0.0000       0.232327         6.3219

MULLIKEN ATOMIC CHARGES
-----------------------
   0 C :    0.594161
   1 C :   -0.586828
   2 C :    0.407562
   3 H :   -0.187215
   4 H :   -0.080663
   5 O :   -0.823461
   6 H :   -0.088585
   7 H :   -0.026005
   8 H :   -0.126692
   9 H :   -0.076523
  10 H :   -0.005750
Sum of atomic charges:   -1.0000000

LOEWDIN ATOMIC CHARGES
----------------------
   0 C :    0.070625
   1 C :   -0.120574
   2 C :   -0.228912
   3 H :   -0.041146
   4 H :   -0.031465
   5 O :   -0.504893
   6 H :   -0.016204
   7 H :   -0.004376
   8 H :   -0.052401
   9 H :   -0.032581
  10 H :   -0.038073

  Mayer bond orders larger than 0.100000
B(  0-C ,  1-C ) :   1.3183 B(  0-C ,  6-H ) :   0.1025 B(  0-C ,  7-H ) :   0.1133
B(  0-C ,  8-H ) :   0.8051 B(  0-C ,  9-H ) :   0.8265 B(  0-C , 10-H ) :   0.8057
B(  1-C ,  2-C ) :   1.0369 B(  1-C ,  3-H ) :   0.1683 B(  1-C ,  4-H ) :   0.1664
B(  1-C ,  5-O ) :   0.2033 B(  1-C ,  6-H ) :   1.0403 B(  1-C ,  7-H ) :   0.9496
B(  1-C ,  8-H ) :   0.2146 B(  1-C ,  9-H ) :   0.2133 B(  1-C , 10-H ) :   0.2179
B(  2-C ,  3-H ) :   0.9686 B(  2-C ,  4-H ) :   0.9329 B(  2-C ,  5-O ) :   1.1300
B(  2-C ,  6-H ) :   0.1022 B(  2-C ,  7-H ) :   0.1026 B(  3-H ,  4-H ) :   0.1101

Dispersion correction           -0.006682498
FINAL SINGLE POINT ENERGY      -193.369741380397

DIPOLE MOMENT
-------------
                                X             Y             Z
Electronic contribution:     -2.06951       2.14907       0.59864
Nuclear contribution   :      3.33375      -3.25054      -1.09297
                        -----------------------------------------
Total Dipole Moment    :      1.26424      -1.10147      -0.49433
                        -----------------------------------------
Magnitude (a.u.)       :      1.74811
Magnitude (Debye)      :      4.44335

Rotational constants in cm-1:     0.478390     0.193336     0.154822
Rotational constants in MHz : 14341.777399  5796.063993  4641.443060

                             ****ORCA TERMINATED NORMALLY****
TOTAL RUN TIME: 0 days 0 hours 0 minutes 4 seconds 829 msec
