                         Program Version 5.0.0 -  RELEASE  -
|  1> !PBE D3BJ RIJCOSX def2-SVPD def2/J TightSCF
|  2> *xyz 1 1
|  3> C          4.99986       -1.59613       -5.92488
|  4> N          5.28156       -1.97413       -4.53576
|  5> C          3.76678       -2.26611       -6.51175
|  6> C          2.49670       -1.84416       -5.73570
|  7> C          4.79250       -1.36132       -3.45730
|  8> N          3.93990       -0.37492       -3.55736
|  9> N          5.25986       -1.75422       -2.23913
| 10> H          5.92282       -2.52145       -2.18672
| 11> H          4.65468       -1.64040       -1.44202
| 12> H          5.70914       -2.87560       -4.38702
| 13> H          3.33010       -0.31764       -4.36125
| 14> H          3.69849        0.11447       -2.70833
| 15> H          4.84333       -0.51793       -5.94302
| 16> H          5.90170       -1.82250       -6.49647
| 17> H          3.88619       -3.35708       -6.53360
| 18> H          3.68560       -1.92217       -7.54713
| 19> H          1.64155       -2.32499       -6.16281
| 20> H          2.37707       -0.78268       -5.79763
| 21> H          2.59306       -2.13299       -4.70994
| 22> *
| 23>
| 24> %MaxCore 64000
| 25>
| 26> %pal nprocs 4
| 27> end
| 28>
| 29> %scf
| 30>   MaxIter 150
| 31> end
| 32>
| 33>
| 34>                          ****END OF INPUT****

CARTESIAN COORDINATES (ANGSTROEM)
---------------------------------
  C      4.999860   -1.596130   -5.924880
  N      5.281560   -1.974130   -4.535760
  C      3.766780   -2.266110   -6.511750
  C      2.496700   -1.844160   -5.735700
  C      4.792500   -1.361320   -3.457300
  N      3.939900   -0.374920   -3.557360
  N      5.259860   -1.754220   -2.239130
  H      5.922820   -2.521450   -2.186720
  H      4.654680   -1.640400   -1.442020
  H      5.709140   -2.875600   -4.387020
  H      3.330100   -0.317640   -4.361250
  H      3.698490    0.114470   -2.708330
  H      4.843330   -0.517930   -5.943020
  H      5.901700   -1.822500   -6.496470
  H      3.886190   -3.357080   -6.533600
  H      3.685600   -1.922170   -7.547130
  H      1.641550   -2.324990   -6.162810
  H      2.377070   -0.782680   -5.797630
  H      2.593060   -2.132990   -4.709940

 Total Charge           Charge          ....    1
 Multiplicity           Mult            ....    1
 Number of Electrons    NEL             ....   56
 Basis Dimension        Dim             ....  236

ORBITAL ENERGIES
----------------

  NO   OCC          E(Eh)            E(eV)
   0   2.0000     -14.221467      -386.9858
   1   2.0000     -14.217599      -386.8805
   2   2.0000     -14.214845      -386.8056
   3   2.0000     -10.214140      -277.9409
   4   2.0000     -10.097017      -274.7538
   5   2.0000     -10.048123      -273.4233
   6   2.0000     -10.035062      -273.0679
   7   2.0000      -1.118824       -30.4447
   8   2.0000      -1.016383       -27.6572
   9   2.0000      -1.002531       -27.2803
  10   2.0000      -0.870366       -23.6839
  11   2.0000      -0.799171       -21.7465
  12   2.0000      -0.764743       -20.8097
  13   2.0000      -0.732123       -19.9221
  14   2.0000      -0.704417       -19.1681
  15   2.0000      -0.676421       -18.4064
  16   2.0000      -0.644943       -17.5498
  17   2.0000      -0.639546       -17.4029
  18   2.0000      -0.594438       -16.1755
  19   2.0000      -0.582490       -15.8503
  20   2.0000      -0.559266       -15.2184
  21   2.0000      -0.534112       -14.5339
  22   2.0000      -0.516888       -14.0652
  23   2.0000      -0.478815       -13.0292
  24   2.0000      -0.460471       -12.5301
  25   2.0000      -0.456503       -12.4221
  26   2.0000      -0.432086       -11.7577
  27   2.0000      -0.409363       -11.1393
  28   0.0000      -0.205683        -5.5969
  29   0.0000      -0.168762        -4.5922
  30   0.0000      -0.136762        -3.7215
  31   0.0000      -0.125233        -3.4078
  32   0.0000      -0.115840        -3.1522

MULLIKEN ATOMIC CHARGES
-----------------------
   0 C :    0.766034
   1 N :   -0.415262
   2 C :   -0.048473
   3 C :    0.515471
   4 C :    1.277516
   5 N :    0.230340
   6 N :   -0.055522
   7 H :   -0.054099
   8 H :   -0.040910
   9 H :   -0.267688
  10 H :   -0.373313
  11 H :   -0.107501
  12 H :    0.048972
  13 H :   -0.381513
  14 H :   -0.117810
  15 H :    0.026965
  16 H :   -0.379302
  17 H :    0.233174
  18 H :    0.142922
Sum of atomic charges:    1.0000000

LOEWDIN ATOMIC CHARGES
----------------------
   0 C :    0.070041
   1 N :    0.065966
   2 C :   -0.026520
   3 C :    0.138403
   4 C :   -0.060721
   5 N :    0.305147
   6 N :    0.274307
   7 H :    0.030165
   8 H :    0.024732
   9 H :    0.053982
  10 H :   -0.037143
  11 H :    0.046502
  12 H :    0.034153
  13 H :    0.041499
  14 H :    0.035310
  15 H :    0.040878
  16 H :    0.003006
  17 H :   -0.011578
  18 H :   -0.028127

  Mayer bond orders larger than 0.100000
B(  0-C ,  1-N ) :   0.9624 B(  0-C ,  2-C ) :   1.1223 B(  0-C ,  9-H ) :  -0.2122
B(  0-C , 12-H ) :   0.7125 B(  0-C , 13-H ) :   0.9183 B(  0-C , 14-H ) :   0.1398
B(  0-C , 15-H ) :   0.1196 B(  1-N ,  4-C ) :   0.9658 B(  1-N ,  5-N ) :   0.2094
B(  1-N ,  6-N ) :   0.2399 B(  1-N ,  9-H ) :   1.3128 B(  1-N , 12-H ) :   0.1789
B(  1-N , 13-H ) :   0.1423 B(  2-C ,  3-C ) :   1.3184 B(  2-C , 12-H ) :   0.1162
B(  2-C , 14-H ) :   0.9390 B(  2-C , 15-H ) :   0.8489 B(  2-C , 16-H ) :   0.1881
B(  2-C , 17-H ) :   0.1376 B(  2-C , 18-H ) :   0.1499 B(  3-C , 10-H ) :   0.1774
B(  3-C , 15-H ) :   0.1065 B(  3-C , 16-H ) :   0.9889 B(  3-C , 17-H ) :   0.6648
B(  3-C , 18-H ) :   0.8057 B(  4-C ,  5-N ) :   1.0688 B(  4-C ,  6-N ) :   0.7964
B(  4-C ,  7-H ) :  -0.1174 B(  4-C ,  9-H ) :  -0.2297 B(  4-C , 10-H ) :  -0.1327
B(  4-C , 11-H ) :  -0.1297 B(  5-N ,  6-N ) :   0.2034 B(  5-N , 10-H ) :   1.1486
B(  5-N , 11-H ) :   1.2280 B(  5-N , 12-H ) :   0.1141 B(  6-N ,  7-H ) :   1.0919
B(  6-N ,  8-H ) :   1.1519 B(  7-H ,  8-H ) :  -0.1414 B( 10-H , 11-H ) :  -0.2248
B( 10-H , 17-H ) :   0.1717 B( 12-H , 13-H ) :  -0.1560 B( 16-H , 17-H ) :  -0.1388

Dispersion correction           -0.016707974
FINAL SINGLE POINT ENERGY      -323.097267831861

DIPOLE MOMENT
-------------
                                X             Y             Z
Electronic contribution:      3.87068       0.79800       4.80725
Nuclear contribution   :     -3.69451      -0.93313      -3.60402
                        -----------------------------------------
Total Dipole Moment    :      0.17616      -0.13513       1.20323
                        -----------------------------------------
Magnitude (a.u.)       :      1.22354
Magnitude (Debye)      :      3.11000

Rotational constants in cm-1:     0.152547     0.057272     0.048491
Rotational constants in MHz :  4573.230603  1716.968614  1453.721796

                             ****ORCA TERMINATED NORMALLY****
TOTAL RUN TIME: 0 days 0 hours 0 minutes 10 seconds 247 msec
