                         Program Version 5.0.0 -  RELEASE  -
|  1> !PBE D3BJ RIJCOSX def2-SVPD def2/J TightSCF
|  2> *xyz 0 1
|  3> C          4.99986       -1.59613       -5.92488
|  4> C          3.76678       -2.26611       -6.51175
|  5> C          2.49670       -1.84416       -5.73570
|  6> H          1.62642       -2.21743       -6.30895
|  7> H          2.48182       -2.45607       -4.79341
|  8> F          2.45973       -0.50920       -5.50576
|  9> H          3.88619       -3.35708       -6.53360
| 10> H          3.68560       -1.92217       -7.54713
| 11> H          5.86637       -1.89999       -6.47418
| 12> H          5.10830       -1.88372       -4.89997
| 13> H          4.89230       -0.53341       -5.98765
| 14> *
| 15>
| 16> %MaxCore 64000
| 17>
| 18> %pal nprocs 4
| 19> end
| 20>
| 21> %scf
| 22>   MaxIter 150
| 23> end
| 24>
| 25>
| 26>                          ****END OF INPUT****

CARTESIAN COORDINATES (ANGSTROEM)
---------------------------------
  C      4.999860   -1.596130   -5.924880
  C      3.766780   -2.266110   -6.511750
  C      2.496700   -1.844160   -5.735700
  H      1.626420   -2.217430   -6.308950
  H      2.481820   -2.456070   -4.793410
  F      2.459730   -0.509200   -5.505760
  H      3.886190   -3.357080   -6.533600
  H      3.685600   -1.922170   -7.547130
  H      5.866370   -1.899990   -6.474180
  H      5.108300   -1.883720   -4.899970
  H      4.892300   -0.533410   -5.987650

 Total Charge           Charge          ....    0
 Multiplicity           Mult            ....    1
 Number of Electrons    NEL             ....   34
 Basis Dimension        Dim             ....  139

ORBITAL ENERGIES
----------------

  NO   OCC          E(Eh)            E(eV)
   0   2.0000     -24.269344      -660.4024
   1   2.0000      -9.972179      -271.3568
   2   2.0000      -9.901463      -269.4325
   3   2.0000      -9.880517      -268.8625
   4   2.0000      -1.095016       -29.7969
   5   2.0000      -0.710619       -19.3369
   6   2.0000      -0.617314       -16.7980
   7   2.0000      -0.531474       -14.4622
   8   2.0000      -0.461316       -12.5530
   9   2.0000      -0.441708       -12.0195
  10   2.0000      -0.425263       -11.5720
  11   2.0000      -0.387462       -10.5434
  12   2.0000      -0.347166        -9.4469
  13   2.0000      -0.328488        -8.9386
  14   2.0000      -0.311643        -8.4802
  15   2.0000      -0.281705        -7.6656
  16   2.0000      -0.278073        -7.5668
  17   0.0000       0.003268         0.0889
  18   0.0000       0.028406         0.7730
  19   0.0000       0.039292         1.0692
  20   0.0000       0.049042         1.3345
  21   0.0000       0.067899         1.8476

MULLIKEN ATOMIC CHARGES
-----------------------
   0 C :    0.622784
   1 C :   -0.480569
   2 C :    0.717735
   3 H :   -0.115550
   4 H :   -0.012755
   5 F :   -0.400610
   6 H :   -0.099916
   7 H :   -0.042226
   8 H :   -0.110029
   9 H :   -0.070088
  10 H :   -0.008777
Sum of atomic charges:    0.0000000

LOEWDIN ATOMIC CHARGES
----------------------
   0 C :    0.112533
   1 C :   -0.069413
   2 C :    0.078272
   3 H :    0.026010
   4 H :    0.038083
   5 F :   -0.182461
   6 H :    0.027813
   7 H :    0.020563
   8 H :   -0.018590
   9 H :   -0.014699
  10 H :   -0.018111

  Mayer bond orders larger than 0.100000
B(  0-C ,  1-C ) :   1.3647 B(  0-C ,  8-H ) :   0.8194 B(  0-C ,  9-H ) :   0.8156
B(  0-C , 10-H ) :   0.8088 B(  1-C ,  2-C ) :   1.1838 B(  1-C ,  3-H ) :   0.1204
B(  1-C ,  4-H ) :   0.1204 B(  1-C ,  6-H ) :   0.9705 B(  1-C ,  7-H ) :   0.9204
B(  1-C ,  8-H ) :   0.1998 B(  1-C ,  9-H ) :   0.1864 B(  1-C , 10-H ) :   0.1857
B(  2-C ,  3-H ) :   0.9162 B(  2-C ,  4-H ) :   0.8785 B(  2-C ,  5-F ) :   0.7691

Dispersion correction           -0.006308605
FINAL SINGLE POINT ENERGY      -217.957491534170

DIPOLE MOMENT
-------------
                                X             Y             Z
Electronic contribution:     -4.39580       3.90036       1.42445
Nuclear contribution   :      4.50596      -4.50325      -1.58424
                        -----------------------------------------
Total Dipole Moment    :      0.11016      -0.60289      -0.15979
                        -----------------------------------------
Magnitude (a.u.)       :      0.63336
Magnitude (Debye)      :      1.60987

Rotational constants in cm-1:     0.464063     0.182606     0.146573
Rotational constants in MHz : 13912.251583  5474.398056  4394.141907

                             ****ORCA TERMINATED NORMALLY****
TOTAL RUN TIME: 0 days 0 hours 0 minutes 3 seconds 808 msec
