                         Program Version 5.0.0 -  RELEASE  -
|  1> !PBE D3BJ RIJCOSX def2-SVPD def2/J TightSCF
|  2> *xyz 0 1
|  3> C          4.99986       -1.59613       -5.92488
|  4> C          5.28156       -1.97413       -4.53576
|  5> C          3.76678       -2.26611       -6.51175
|  6> C          2.49670       -1.84416       -5.73570
|  7> C          4.79250       -1.36132       -3.45730
|  8> N          3.93990       -0.37492       -3.55736
|  9> N          5.25986       -1.75422       -2.23913
| 10> H          5.92282       -2.52145       -2.18672
| 11> H          4.65468       -1.64040       -1.44202
| 12> H          5.70914       -2.87560       -4.38702
| 13> H          3.33010       -0.31764       -4.36125
| 14> H          3.69849        0.11447       -2.70833
| 15> H          4.84333       -0.51793       -5.94302
| 16> H          5.90170       -1.82250       -6.49647
| 17> H          3.88619       -3.35708       -6.53360
| 18> H          3.68560       -1.92217       -7.54713
| 19> H          1.64155       -2.32499       -6.16281
| 20> H          2.37707       -0.78268       -5.79763
| 21> H          2.59306       -2.13299       -4.70994
| 22> *
| 23>
| 24> %MaxCore 64000
| 25>
| 26> %pal nprocs 4
| 27> end
| 28>
| 29> %scf
| 30>   MaxIter 150
| 31> end
| 32>
| 33>
| 34>                          ****END OF INPUT****

CARTESIAN COORDINATES (ANGSTROEM)
---------------------------------
  C      4.999860   -1.596130   -5.924880
  C      5.281560   -1.974130   -4.535760
  C      3.766780   -2.266110   -6.511750
  C      2.496700   -1.844160   -5.735700
  C      4.792500   -1.361320   -3.457300
  N      3.939900   -0.374920   -3.557360
  N      5.259860   -1.754220   -2.239130
  H      5.922820   -2.521450   -2.186720
  H      4.654680   -1.640400   -1.442020
  H      5.709140   -2.875600   -4.387020
  H      3.330100   -0.317640   -4.361250
  H      3.698490    0.114470   -2.708330
  H      4.843330   -0.517930   -5.943020
  H      5.901700   -1.822500   -6.496470
  H      3.886190   -3.357080   -6.533600
  H      3.685600   -1.922170   -7.547130
  H      1.641550   -2.324990   -6.162810
  H      2.377070   -0.782680   -5.797630
  H      2.593060   -2.132990   -4.709940

 Total Charge           Charge          ....    0
 Multiplicity           Mult            ....    1
 Number of Electrons    NEL             ....   56
 Basis Dimension        Dim             ....  236

ORBITAL ENERGIES
----------------

  NO   OCC          E(Eh)            E(eV)
   0   2.0000     -14.000955      -380.9854
   1   2.0000     -13.997486      -380.8910
   2   2.0000      -9.931939      -270.2618
   3   2.0000      -9.880300      -268.8566
   4   2.0000      -9.878192      -268.7993
   5   2.0000      -9.869296      -268.5572
   6   2.0000      -9.823135      -267.3011
   7   2.0000      -0.872395       -23.7391
   8   2.0000      -0.786836       -21.4109
   9   2.0000      -0.710124       -19.3234
  10   2.0000      -0.648789       -17.6545
  11   2.0000      -0.590865       -16.0783
  12   2.0000      -0.544893       -14.8273
  13   2.0000      -0.503487       -13.7006
  14   2.0000      -0.491538       -13.3754
  15   2.0000      -0.454589       -12.3700
  16   2.0000      -0.432677       -11.7737
  17   2.0000      -0.399689       -10.8761
  18   2.0000      -0.389456       -10.5976
  19   2.0000      -0.372402       -10.1336
  20   2.0000      -0.342687        -9.3250
  21   2.0000      -0.329442        -8.9646
  22   2.0000      -0.312406        -8.5010
  23   2.0000      -0.294546        -8.0150
  24   2.0000      -0.279356        -7.6017
  25   2.0000      -0.274549        -7.4709
  26   2.0000      -0.221838        -6.0365
  27   2.0000      -0.134615        -3.6631
  28   0.0000      -0.003806        -0.1036
  29   0.0000       0.019175         0.5218
  30   0.0000       0.028840         0.7848
  31   0.0000       0.038863         1.0575
  32   0.0000       0.042577         1.1586

MULLIKEN ATOMIC CHARGES
-----------------------
   0 C :    0.160997
   1 C :   -0.261764
   2 C :   -0.088642
   3 C :    0.525326
   4 C :    0.891846
   5 N :    0.314367
   6 N :   -0.088517
   7 H :   -0.058396
   8 H :   -0.110038
   9 H :   -0.275170
  10 H :   -0.406222
  11 H :   -0.238606
  12 H :    0.052289
  13 H :   -0.210367
  14 H :   -0.138111
  15 H :   -0.037529
  16 H :   -0.365157
  17 H :    0.224392
  18 H :    0.109300
Sum of atomic charges:    0.0000000

LOEWDIN ATOMIC CHARGES
----------------------
   0 C :   -0.068793
   1 C :   -0.016376
   2 C :   -0.059355
   3 C :    0.119710
   4 C :   -0.235694
   5 N :    0.225682
   6 N :    0.194927
   7 H :   -0.003311
   8 H :   -0.027589
   9 H :   -0.051832
  10 H :   -0.061608
  11 H :   -0.002486
  12 H :    0.011735
  13 H :    0.013129
  14 H :    0.022605
  15 H :    0.013025
  16 H :   -0.020505
  17 H :   -0.023339
  18 H :   -0.029925

  Mayer bond orders larger than 0.100000
B(  0-C ,  1-C ) :   1.1736 B(  0-C ,  2-C ) :   1.1335 B(  0-C ,  9-H ) :   0.2610
B(  0-C , 12-H ) :   0.7471 B(  0-C , 13-H ) :   0.8922 B(  0-C , 14-H ) :   0.1844
B(  0-C , 15-H ) :   0.1394 B(  1-C ,  4-C ) :   1.4469 B(  1-C ,  5-N ) :   0.3045
B(  1-C ,  6-N ) :   0.3485 B(  1-C ,  9-H ) :   0.8918 B(  1-C , 10-H ) :  -0.1050
B(  1-C , 12-H ) :   0.2705 B(  1-C , 13-H ) :   0.1661 B(  2-C ,  3-C ) :   1.3216
B(  2-C , 12-H ) :   0.1144 B(  2-C , 14-H ) :   0.9402 B(  2-C , 15-H ) :   0.8524
B(  2-C , 16-H ) :   0.2091 B(  2-C , 17-H ) :   0.1492 B(  2-C , 18-H ) :   0.1793
B(  3-C , 10-H ) :   0.1657 B(  3-C , 15-H ) :   0.1222 B(  3-C , 16-H ) :   0.9378
B(  3-C , 17-H ) :   0.6728 B(  3-C , 18-H ) :   0.7912 B(  4-C ,  5-N ) :   1.0108
B(  4-C ,  6-N ) :   0.7036 B(  4-C ,  9-H ) :   0.1141 B(  4-C , 11-H ) :  -0.1509
B(  4-C , 12-H ) :  -0.1390 B(  5-N ,  6-N ) :   0.1392 B(  5-N , 10-H ) :   1.0955
B(  5-N , 11-H ) :   1.2785 B(  6-N ,  7-H ) :   1.1114 B(  6-N ,  8-H ) :   1.1417
B(  6-N ,  9-H ) :   0.1004 B(  7-H ,  8-H ) :  -0.1310 B( 10-H , 11-H ) :  -0.2082
B( 10-H , 17-H ) :   0.1665 B( 16-H , 17-H ) :  -0.1096

Dispersion correction           -0.017235638
FINAL SINGLE POINT ENERGY      -306.632130309831

DIPOLE MOMENT
-------------
                                X             Y             Z
Electronic contribution:      2.91340       1.04184       4.32337
Nuclear contribution   :     -3.49027      -1.01686      -3.60427
                        -----------------------------------------
Total Dipole Moment    :     -0.57687       0.02498       0.71910
                        -----------------------------------------
Magnitude (a.u.)       :      0.92223
Magnitude (Debye)      :      2.34412

Rotational constants in cm-1:     0.155200     0.057307     0.048781
Rotational constants in MHz :  4652.781345  1718.017305  1462.410307

                             ****ORCA TERMINATED NORMALLY****
TOTAL RUN TIME: 0 days 0 hours 0 minutes 11 seconds 812 msec
