                         Program Version 5.0.0 -  RELEASE  -
|  1> !PBE D3BJ RIJCOSX def2-SVPD def2/J TightSCF
|  2> *xyz 0 1
|  3> C          4.99986       -1.59613       -5.92488
|  4> N          5.28156       -1.97413       -4.53576
|  5> C          3.76678       -2.26611       -6.51175
|  6> C          2.49670       -1.84416       -5.73570
|  7> C          4.79250       -1.36132       -3.45730
|  8> C          3.93990       -0.37492       -3.55736
|  9> N          5.25986       -1.75422       -2.23913
| 10> H          5.92282       -2.52145       -2.18672
| 11> H          4.65468       -1.64040       -1.44202
| 12> H          5.70914       -2.87560       -4.38702
| 13> H          3.33010       -0.31764       -4.36125
| 14> H          3.69849        0.11447       -2.70833
| 15> H          4.84333       -0.51793       -5.94302
| 16> H          5.90170       -1.82250       -6.49647
| 17> H          3.88619       -3.35708       -6.53360
| 18> H          3.68560       -1.92217       -7.54713
| 19> H          1.64155       -2.32499       -6.16281
| 20> H          2.37707       -0.78268       -5.79763
| 21> H          2.59306       -2.13299       -4.70994
| 22> *
| 23>
| 24> %MaxCore 64000
| 25>
| 26> %pal nprocs 4
| 27> end
| 28>
| 29> %scf
| 30>   MaxIter 150
| 31> end
| 32>
| 33>
| 34>                          ****END OF INPUT****

CARTESIAN COORDINATES (ANGSTROEM)
---------------------------------
  C      4.999860   -1.596130   -5.924880
  N      5.281560   -1.974130   -4.535760
  C      3.766780   -2.266110   -6.511750
  C      2.496700   -1.844160   -5.735700
  C      4.792500   -1.361320   -3.457300
  C      3.939900   -0.374920   -3.557360
  N      5.259860   -1.754220   -2.239130
  H      5.922820   -2.521450   -2.186720
  H      4.654680   -1.640400   -1.442020
  H      5.709140   -2.875600   -4.387020
  H      3.330100   -0.317640   -4.361250
  H      3.698490    0.114470   -2.708330
  H      4.843330   -0.517930   -5.943020
  H      5.901700   -1.822500   -6.496470
  H      3.886190   -3.357080   -6.533600
  H      3.685600   -1.922170   -7.547130
  H      1.641550   -2.324990   -6.162810
  H      2.377070   -0.782680   -5.797630
  H      2.593060   -2.132990   -4.709940

 Total Charge           Charge          ....    0
 Multiplicity           Mult            ....    1
 Number of Electrons    NEL             ....   56
 Basis Dimension        Dim             ....  236

ORBITAL ENERGIES
----------------

  NO   OCC          E(Eh)            E(eV)
   0   2.0000     -14.004784      -381.0895
   1   2.0000     -13.998475      -380.9179
   2   2.0000      -9.933158      -270.2950
   3   2.0000      -9.923744      -270.0388
   4   2.0000      -9.894050      -269.2308
   5   2.0000      -9.873312      -268.6665
   6   2.0000      -9.808695      -266.9082
   7   2.0000      -0.873805       -23.7775
   8   2.0000      -0.796045       -21.6615
   9   2.0000      -0.699531       -19.0352
  10   2.0000      -0.649568       -17.6756
  11   2.0000      -0.610771       -16.6199
  12   2.0000      -0.544032       -14.8039
  13   2.0000      -0.506037       -13.7700
  14   2.0000      -0.485482       -13.2106
  15   2.0000      -0.461591       -12.5605
  16   2.0000      -0.419755       -11.4221
  17   2.0000      -0.408485       -11.1154
  18   2.0000      -0.386528       -10.5180
  19   2.0000      -0.358041        -9.7428
  20   2.0000      -0.349020        -9.4973
  21   2.0000      -0.332256        -9.0411
  22   2.0000      -0.328544        -8.9401
  23   2.0000      -0.301844        -8.2136
  24   2.0000      -0.299877        -8.1601
  25   2.0000      -0.287017        -7.8101
  26   2.0000      -0.210296        -5.7225
  27   2.0000      -0.142741        -3.8842
  28   0.0000      -0.006097        -0.1659
  29   0.0000       0.017568         0.4781
  30   0.0000       0.024718         0.6726
  31   0.0000       0.034235         0.9316
  32   0.0000       0.045157         1.2288

MULLIKEN ATOMIC CHARGES
-----------------------
   0 C :    0.739287
   1 N :   -0.444558
   2 C :   -0.120248
   3 C :    0.380885
   4 C :    0.747665
   5 C :    0.690577
   6 N :    0.030951
   7 H :   -0.132935
   8 H :   -0.030497
   9 H :   -0.361216
  10 H :   -0.895488
  11 H :   -0.388854
  12 H :    0.118159
  13 H :   -0.406535
  14 H :   -0.133940
  15 H :   -0.016276
  16 H :   -0.442732
  17 H :    0.424006
  18 H :    0.241750
Sum of atomic charges:   -0.0000000

LOEWDIN ATOMIC CHARGES
----------------------
   0 C :    0.043124
   1 N :    0.002266
   2 C :   -0.051333
   3 C :    0.122279
   4 C :   -0.241635
   5 C :    0.165551
   6 N :    0.199445
   7 H :   -0.019718
   8 H :   -0.008435
   9 H :    0.013647
  10 H :   -0.145627
  11 H :   -0.086060
  12 H :    0.024550
  13 H :    0.016054
  14 H :    0.017683
  15 H :    0.017539
  16 H :   -0.022561
  17 H :   -0.018315
  18 H :   -0.028451

  Mayer bond orders larger than 0.100000
B(  0-C ,  1-N ) :   0.9478 B(  0-C ,  2-C ) :   1.0984 B(  0-C ,  5-C ) :   0.1143
B(  0-C ,  9-H ) :  -0.1998 B(  0-C , 12-H ) :   0.6909 B(  0-C , 13-H ) :   0.9413
B(  0-C , 14-H ) :   0.1311 B(  0-C , 15-H ) :   0.1266 B(  1-N ,  4-C ) :   0.8918
B(  1-N ,  5-C ) :   0.3481 B(  1-N ,  6-N ) :   0.1794 B(  1-N ,  9-H ) :   1.3924
B(  1-N , 12-H ) :   0.1587 B(  1-N , 13-H ) :   0.1409 B(  2-C ,  3-C ) :   1.3387
B(  2-C , 12-H ) :   0.1394 B(  2-C , 14-H ) :   0.9494 B(  2-C , 15-H ) :   0.8614
B(  2-C , 16-H ) :   0.1951 B(  2-C , 17-H ) :   0.1246 B(  2-C , 18-H ) :   0.1454
B(  3-C , 10-H ) :   0.3652 B(  3-C , 15-H ) :   0.1187 B(  3-C , 16-H ) :   1.0148
B(  3-C , 17-H ) :   0.5697 B(  3-C , 18-H ) :   0.7853 B(  4-C ,  5-C ) :   1.6413
B(  4-C ,  6-N ) :   0.8156 B(  4-C ,  9-H ) :  -0.2599 B(  4-C , 10-H ) :   0.1071
B(  4-C , 11-H ) :   0.3864 B(  5-C ,  6-N ) :   0.3573 B(  5-C , 10-H ) :   0.4086
B(  5-C , 11-H ) :   0.5664 B(  6-N ,  7-H ) :   1.0465 B(  6-N ,  8-H ) :   1.0825
B(  6-N , 11-H ) :   0.1935 B(  7-H ,  8-H ) :  -0.1357 B( 10-H , 12-H ) :   0.1076
B( 10-H , 17-H ) :   0.1453 B( 12-H , 13-H ) :  -0.1656 B( 16-H , 17-H ) :  -0.1975
B( 16-H , 18-H ) :  -0.1075

Dispersion correction           -0.017205920
FINAL SINGLE POINT ENERGY      -306.618361409666

DIPOLE MOMENT
-------------
                                X             Y             Z
Electronic contribution:      4.05669      -0.34348       3.38654
Nuclear contribution   :     -3.78417      -0.66655      -3.38995
                        -----------------------------------------
Total Dipole Moment    :      0.27253      -1.01003      -0.00341
                        -----------------------------------------
Magnitude (a.u.)       :      1.04615
Magnitude (Debye)      :      2.65911

Rotational constants in cm-1:     0.157710     0.057795     0.049101
Rotational constants in MHz :  4728.033540  1732.635996  1472.015132

                             ****ORCA TERMINATED NORMALLY****
TOTAL RUN TIME: 0 days 0 hours 0 minutes 10 seconds 894 msec
