                         Program Version 5.0.0 -  RELEASE  -
|  1> !PBE D3BJ RIJCOSX def2-SVPD def2/J TightSCF
|  2> *xyz 0 1
|  3> C          4.99986       -1.59613       -5.92488
|  4> N          5.28156       -1.97413       -4.53576
|  5> C          3.76678       -2.26611       -6.51175
|  6> C          2.49670       -1.84416       -5.73570
|  7> C          4.79250       -1.36132       -3.45730
|  8> N          3.93990       -0.37492       -3.55736
|  9> C          5.25986       -1.75422       -2.23913
| 10> H          5.92282       -2.52145       -2.18672
| 11> H          4.65468       -1.64040       -1.44202
| 12> H          5.70914       -2.87560       -4.38702
| 13> H          3.33010       -0.31764       -4.36125
| 14> H          3.69849        0.11447       -2.70833
| 15> H          4.84333       -0.51793       -5.94302
| 16> H          5.90170       -1.82250       -6.49647
| 17> H          3.88619       -3.35708       -6.53360
| 18> H          3.68560       -1.92217       -7.54713
| 19> H          1.64155       -2.32499       -6.16281
| 20> H          2.37707       -0.78268       -5.79763
| 21> H          2.59306       -2.13299       -4.70994
| 22> *
| 23>
| 24> %MaxCore 64000
| 25>
| 26> %pal nprocs 4
| 27> end
| 28>
| 29> %scf
| 30>   MaxIter 150
| 31> end
| 32>
| 33>
| 34>                          ****END OF INPUT****

CARTESIAN COORDINATES (ANGSTROEM)
---------------------------------
  C      4.999860   -1.596130   -5.924880
  N      5.281560   -1.974130   -4.535760
  C      3.766780   -2.266110   -6.511750
  C      2.496700   -1.844160   -5.735700
  C      4.792500   -1.361320   -3.457300
  N      3.939900   -0.374920   -3.557360
  C      5.259860   -1.754220   -2.239130
  H      5.922820   -2.521450   -2.186720
  H      4.654680   -1.640400   -1.442020
  H      5.709140   -2.875600   -4.387020
  H      3.330100   -0.317640   -4.361250
  H      3.698490    0.114470   -2.708330
  H      4.843330   -0.517930   -5.943020
  H      5.901700   -1.822500   -6.496470
  H      3.886190   -3.357080   -6.533600
  H      3.685600   -1.922170   -7.547130
  H      1.641550   -2.324990   -6.162810
  H      2.377070   -0.782680   -5.797630
  H      2.593060   -2.132990   -4.709940

 Total Charge           Charge          ....    0
 Multiplicity           Mult            ....    1
 Number of Electrons    NEL             ....   56
 Basis Dimension        Dim             ....  236

ORBITAL ENERGIES
----------------

  NO   OCC          E(Eh)            E(eV)
   0   2.0000     -14.003382      -381.0514
   1   2.0000     -13.999165      -380.9366
   2   2.0000      -9.935281      -270.3528
   3   2.0000      -9.932147      -270.2675
   4   2.0000      -9.905446      -269.5409
   5   2.0000      -9.895640      -269.2741
   6   2.0000      -9.805932      -266.8330
   7   2.0000      -0.881658       -23.9911
   8   2.0000      -0.803690       -21.8695
   9   2.0000      -0.718662       -19.5558
  10   2.0000      -0.645391       -17.5620
  11   2.0000      -0.604814       -16.4578
  12   2.0000      -0.545953       -14.8561
  13   2.0000      -0.537564       -14.6279
  14   2.0000      -0.492671       -13.4063
  15   2.0000      -0.451600       -12.2887
  16   2.0000      -0.432415       -11.7666
  17   2.0000      -0.413970       -11.2647
  18   2.0000      -0.405464       -11.0332
  19   2.0000      -0.363868        -9.9013
  20   2.0000      -0.348543        -9.4843
  21   2.0000      -0.339855        -9.2479
  22   2.0000      -0.330934        -9.0052
  23   2.0000      -0.313203        -8.5227
  24   2.0000      -0.309447        -8.4205
  25   2.0000      -0.300807        -8.1854
  26   2.0000      -0.214763        -5.8440
  27   2.0000      -0.128985        -3.5099
  28   0.0000      -0.005104        -0.1389
  29   0.0000       0.014477         0.3939
  30   0.0000       0.023526         0.6402
  31   0.0000       0.029141         0.7930
  32   0.0000       0.038059         1.0356

MULLIKEN ATOMIC CHARGES
-----------------------
   0 C :    0.743118
   1 N :   -0.220933
   2 C :   -0.078963
   3 C :    0.493903
   4 C :    0.335166
   5 N :    0.382203
   6 C :    0.399774
   7 H :   -0.290260
   8 H :   -0.290625
   9 H :   -0.335788
  10 H :   -0.474302
  11 H :   -0.106892
  12 H :    0.022579
  13 H :   -0.441784
  14 H :   -0.130187
  15 H :    0.001630
  16 H :   -0.407079
  17 H :    0.223548
  18 H :    0.174890
Sum of atomic charges:    0.0000000

LOEWDIN ATOMIC CHARGES
----------------------
   0 C :    0.037592
   1 N :    0.012549
   2 C :   -0.052674
   3 C :    0.124176
   4 C :   -0.254386
   5 N :    0.223642
   6 C :    0.146828
   7 H :   -0.110318
   8 H :   -0.115685
   9 H :    0.029194
  10 H :   -0.070591
  11 H :    0.014661
  12 H :    0.018365
  13 H :    0.016702
  14 H :    0.022452
  15 H :    0.019123
  16 H :   -0.016938
  17 H :   -0.020851
  18 H :   -0.023840

  Mayer bond orders larger than 0.100000
B(  0-C ,  1-N ) :   0.9814 B(  0-C ,  2-C ) :   1.0961 B(  0-C ,  9-H ) :  -0.2339
B(  0-C , 12-H ) :   0.7307 B(  0-C , 13-H ) :   0.9253 B(  0-C , 14-H ) :   0.1535
B(  0-C , 15-H ) :   0.1327 B(  1-N ,  4-C ) :   1.0643 B(  1-N ,  5-N ) :   0.1572
B(  1-N ,  6-C ) :   0.2360 B(  1-N ,  9-H ) :   1.2192 B(  1-N , 12-H ) :   0.1857
B(  1-N , 13-H ) :   0.1448 B(  2-C ,  3-C ) :   1.3120 B(  2-C , 12-H ) :   0.1197
B(  2-C , 14-H ) :   0.9354 B(  2-C , 15-H ) :   0.8524 B(  2-C , 16-H ) :   0.1933
B(  2-C , 17-H ) :   0.1427 B(  2-C , 18-H ) :   0.1593 B(  3-C , 10-H ) :   0.1669
B(  3-C , 15-H ) :   0.1073 B(  3-C , 16-H ) :   0.9712 B(  3-C , 17-H ) :   0.6741
B(  3-C , 18-H ) :   0.7955 B(  4-C ,  5-N ) :   1.1164 B(  4-C ,  6-C ) :   1.6463
B(  4-C ,  7-H ) :   0.1958 B(  4-C ,  8-H ) :   0.2128 B(  4-C ,  9-H ) :  -0.1676
B(  5-N ,  6-C ) :   0.1865 B(  5-N , 10-H ) :   1.0475 B(  5-N , 11-H ) :   1.2081
B(  5-N , 12-H ) :   0.1196 B(  6-C ,  7-H ) :   0.7288 B(  6-C ,  8-H ) :   0.7949
B(  7-H ,  8-H ) :   0.2108 B( 10-H , 11-H ) :  -0.2099 B( 10-H , 17-H ) :   0.1583
B( 12-H , 13-H ) :  -0.1623 B( 16-H , 17-H ) :  -0.1423

Dispersion correction           -0.017082196
FINAL SINGLE POINT ENERGY      -306.617785139117

DIPOLE MOMENT
-------------
                                X             Y             Z
Electronic contribution:      2.77017       0.91480       1.96139
Nuclear contribution   :     -3.49502      -0.96869      -3.10119
                        -----------------------------------------
Total Dipole Moment    :     -0.72485      -0.05389      -1.13980
                        -----------------------------------------
Magnitude (a.u.)       :      1.35184
Magnitude (Debye)      :      3.43609

Rotational constants in cm-1:     0.153385     0.059790     0.050215
Rotational constants in MHz :  4598.376479  1792.462869  1505.410199

                             ****ORCA TERMINATED NORMALLY****
TOTAL RUN TIME: 0 days 0 hours 0 minutes 11 seconds 742 msec
