                         Program Version 5.0.0 -  RELEASE  -
|  1> !PBE D3BJ RIJCOSX def2-SVPD def2/J TightSCF
|  2> *xyz -1 1
|  3> C          4.12921        0.89839       -3.41895
|  4> C          5.01734        1.31521       -2.22130
|  5> O          4.73706        0.85411       -1.12283
|  6> O          5.92815        2.16811       -2.49136
|  7> H          4.48610        1.37210       -4.30953
|  8> H          3.11885        1.19903       -3.23540
|  9> H          4.16886       -0.16404       -3.53966
| 10> *
| 11> %MaxCore 64000
| 12>
| 13> %pal nprocs 4
| 14> end
| 15>
| 16> %scf
| 17>   MaxIter 150
| 18> end
| 19>
| 20>
| 21>                          ****END OF INPUT****

CARTESIAN COORDINATES (ANGSTROEM)
---------------------------------
  C      4.129210    0.898390   -3.418950
  C      5.017340    1.315210   -2.221300
  O      4.737060    0.854110   -1.122830
  O      5.928150    2.168110   -2.491360
  H      4.486100    1.372100   -4.309530
  H      3.118850    1.199030   -3.235400
  H      4.168860   -0.164040   -3.539660

 Total Charge           Charge          ....   -1
 Multiplicity           Mult            ....    1
 Number of Electrons    NEL             ....   32
 Basis Dimension        Dim             ....  110

ORBITAL ENERGIES
----------------

  NO   OCC          E(Eh)            E(eV)
   0   2.0000     -18.507676      -503.6195
   1   2.0000     -18.498903      -503.3807
   2   2.0000      -9.771770      -265.9034
   3   2.0000      -9.704306      -264.0676
   4   2.0000      -0.727585       -19.7986
   5   2.0000      -0.635661       -17.2972
   6   2.0000      -0.463264       -12.6061
   7   2.0000      -0.242651        -6.6029
   8   2.0000      -0.209730        -5.7070
   9   2.0000      -0.192988        -5.2515
  10   2.0000      -0.172410        -4.6915
  11   2.0000      -0.136877        -3.7246
  12   2.0000      -0.124938        -3.3997
  13   2.0000      -0.012991        -0.3535
  14   2.0000       0.002833         0.0771
  15   2.0000       0.019323         0.5258
  16   0.0000       0.157151         4.2763
  17   0.0000       0.199153         5.4192
  18   0.0000       0.200428         5.4539
  19   0.0000       0.225383         6.1330
  20   0.0000       0.242587         6.6011

MULLIKEN ATOMIC CHARGES
-----------------------
   0 C :    0.448972
   1 C :   -0.053038
   2 O :   -0.554819
   3 O :   -0.641903
   4 H :   -0.079494
   5 H :   -0.060712
   6 H :   -0.059005
Sum of atomic charges:   -1.0000000

LOEWDIN ATOMIC CHARGES
----------------------
   0 C :    0.141692
   1 C :   -0.356405
   2 O :   -0.300054
   3 O :   -0.341328
   4 H :   -0.052127
   5 H :   -0.044695
   6 H :   -0.047084

  Mayer bond orders larger than 0.100000
B(  0-C ,  1-C ) :   1.2757 B(  0-C ,  4-H ) :   0.8886 B(  0-C ,  5-H ) :   0.8421
B(  0-C ,  6-H ) :   0.8338 B(  1-C ,  2-O ) :   1.5536 B(  1-C ,  3-O ) :   1.4311
B(  1-C ,  4-H ) :   0.2393 B(  1-C ,  5-H ) :   0.1579 B(  1-C ,  6-H ) :   0.1659

Dispersion correction           -0.003677094
FINAL SINGLE POINT ENERGY      -228.122750847920

DIPOLE MOMENT
-------------
                                X             Y             Z
Electronic contribution:      2.09304       0.97476       2.96386
Nuclear contribution   :     -2.87913      -1.42371      -3.86600
                        -----------------------------------------
Total Dipole Moment    :     -0.78609      -0.44895      -0.90214
                        -----------------------------------------
Magnitude (a.u.)       :      1.27802
Magnitude (Debye)      :      3.24848

Rotational constants in cm-1:     0.390018     0.334370     0.186171
Rotational constants in MHz : 11692.450907 10024.149143  5581.251544

                             ****ORCA TERMINATED NORMALLY****
TOTAL RUN TIME: 0 days 0 hours 0 minutes 3 seconds 529 msec
