                         Program Version 5.0.0 -  RELEASE  -
|  1> !PBE D3BJ RIJCOSX def2-SVPD def2/J TightSCF
|  2> *xyz 1 1
|  3> C          3.34350        3.35457       -3.59200
|  4> C          4.25587        3.70385       -4.72605
|  5> N          3.73403        4.29378       -5.80077
|  6> N          5.51504        3.40725       -4.63718
|  7> H          6.14919        3.60120       -5.39905
|  8> H          5.81358        2.89950       -3.80879
|  9> H          2.74138        4.51311       -5.82470
| 10> H          4.28755        4.52126       -6.61434
| 11> H          2.34726        3.66659       -3.82664
| 12> H          3.67283        3.85124       -2.70331
| 13> H          3.35820        2.29620       -3.43538
| 14> *
| 15> %MaxCore 64000
| 16>
| 17> %pal nprocs 4
| 18> end
| 19>
| 20> %scf
| 21>   MaxIter 150
| 22> end
| 23>
| 24>
| 25>                          ****END OF INPUT****

CARTESIAN COORDINATES (ANGSTROEM)
---------------------------------
  C      3.343500    3.354570   -3.592000
  C      4.255870    3.703850   -4.726050
  N      3.734030    4.293780   -5.800770
  N      5.515040    3.407250   -4.637180
  H      6.149190    3.601200   -5.399050
  H      5.813580    2.899500   -3.808790
  H      2.741380    4.513110   -5.824700
  H      4.287550    4.521260   -6.614340
  H      2.347260    3.666590   -3.826640
  H      3.672830    3.851240   -2.703310
  H      3.358200    2.296200   -3.435380

 Total Charge           Charge          ....    1
 Multiplicity           Mult            ....    1
 Number of Electrons    NEL             ....   32
 Basis Dimension        Dim             ....  136

ORBITAL ENERGIES
----------------

  NO   OCC          E(Eh)            E(eV)
   0   2.0000     -14.253987      -387.8707
   1   2.0000     -14.251060      -387.7911
   2   2.0000     -10.219281      -278.0808
   3   2.0000     -10.094572      -274.6873
   4   2.0000      -1.121497       -30.5175
   5   2.0000      -1.032576       -28.0978
   6   2.0000      -0.882050       -24.0018
   7   2.0000      -0.784553       -21.3488
   8   2.0000      -0.734014       -19.9735
   9   2.0000      -0.718851       -19.5609
  10   2.0000      -0.662105       -18.0168
  11   2.0000      -0.615726       -16.7547
  12   2.0000      -0.574505       -15.6331
  13   2.0000      -0.557174       -15.1615
  14   2.0000      -0.534994       -14.5579
  15   2.0000      -0.463694       -12.6178
  16   0.0000      -0.250743        -6.8231
  17   0.0000      -0.187474        -5.1014
  18   0.0000      -0.142463        -3.8766
  19   0.0000      -0.139450        -3.7946
  20   0.0000      -0.117697        -3.2027

MULLIKEN ATOMIC CHARGES
-----------------------
   0 C :    0.631902
   1 C :    0.401429
   2 N :   -0.013709
   3 N :    0.207750
   4 H :   -0.176895
   5 H :    0.042145
   6 H :    0.045782
   7 H :   -0.149852
   8 H :   -0.004203
   9 H :    0.011501
  10 H :    0.004150
Sum of atomic charges:    1.0000000

LOEWDIN ATOMIC CHARGES
----------------------
   0 C :    0.233981
   1 C :   -0.083629
   2 N :    0.292937
   3 N :    0.291632
   4 H :    0.052257
   5 H :    0.063610
   6 H :    0.050751
   7 H :    0.043744
   8 H :    0.006395
   9 H :    0.024149
  10 H :    0.024172

  Mayer bond orders larger than 0.100000
B(  0-C ,  1-C ) :   1.2856 B(  0-C ,  8-H ) :   0.7714 B(  0-C ,  9-H ) :   0.7466
B(  0-C , 10-H ) :   0.7708 B(  1-C ,  2-N ) :   0.9504 B(  1-C ,  3-N ) :   1.2375
B(  1-C ,  4-H ) :  -0.1685 B(  1-C ,  7-H ) :  -0.2686 B(  1-C ,  8-H ) :   0.2608
B(  1-C ,  9-H ) :   0.1755 B(  1-C , 10-H ) :   0.1514 B(  2-N ,  3-N ) :   0.1931
B(  2-N ,  6-H ) :   1.0622 B(  2-N ,  7-H ) :   1.3646 B(  3-N ,  4-H ) :   1.2636
B(  3-N ,  5-H ) :   1.0778 B(  4-H ,  5-H ) :  -0.1564 B(  6-H ,  7-H ) :  -0.1837
B(  9-H , 10-H ) :   0.1009

Dispersion correction           -0.006919044
FINAL SINGLE POINT ENERGY      -189.358007124352

DIPOLE MOMENT
-------------
                                X             Y             Z
Electronic contribution:      1.42689       0.51129      -1.61866
Nuclear contribution   :     -1.09951      -0.46604       1.22975
                        -----------------------------------------
Total Dipole Moment    :      0.32739       0.04525      -0.38891
                        -----------------------------------------
Magnitude (a.u.)       :      0.51037
Magnitude (Debye)      :      1.29727

Rotational constants in cm-1:     0.329035     0.303839     0.162676
Rotational constants in MHz :  9864.215808  9108.853745  4876.907929

                             ****ORCA TERMINATED NORMALLY****
TOTAL RUN TIME: 0 days 0 hours 0 minutes 4 seconds 521 msec
