                         Program Version 5.0.0 -  RELEASE  -
|  1> !PBE D3BJ RIJCOSX def2-SVPD def2/J TightSCF
|  2> *xyz 0 1
|  3> C          4.12921        0.89839       -3.41895
|  4> C          5.01734        1.31521       -2.22130
|  5> F          4.73706        0.85411       -1.12283
|  6> O          5.92815        2.16811       -2.49136
|  7> H          4.48610        1.37210       -4.30953
|  8> H          3.11885        1.19903       -3.23540
|  9> H          4.16886       -0.16404       -3.53966
| 10> *
| 11> %MaxCore 64000
| 12>
| 13> %pal nprocs 4
| 14> end
| 15>
| 16> %scf
| 17>   MaxIter 150
| 18> end
| 19>
| 20>
| 21>                          ****END OF INPUT****

CARTESIAN COORDINATES (ANGSTROEM)
---------------------------------
  C      4.129210    0.898390   -3.418950
  C      5.017340    1.315210   -2.221300
  F      4.737060    0.854110   -1.122830
  O      5.928150    2.168110   -2.491360
  H      4.486100    1.372100   -4.309530
  H      3.118850    1.199030   -3.235400
  H      4.168860   -0.164040   -3.539660

 Total Charge           Charge          ....    0
 Multiplicity           Mult            ....    1
 Number of Electrons    NEL             ....   32
 Basis Dimension        Dim             ....  110

ORBITAL ENERGIES
----------------

  NO   OCC          E(Eh)            E(eV)
   0   2.0000     -24.360813      -662.8914
   1   2.0000     -18.771494      -510.7983
   2   2.0000     -10.075348      -274.1641
   3   2.0000      -9.920797      -269.9586
   4   2.0000      -1.232458       -33.5369
   5   2.0000      -0.929214       -25.2852
   6   2.0000      -0.693541       -18.8722
   7   2.0000      -0.609376       -16.5820
   8   2.0000      -0.508828       -13.8459
   9   2.0000      -0.497370       -13.5341
  10   2.0000      -0.446112       -12.1393
  11   2.0000      -0.398072       -10.8321
  12   2.0000      -0.385830       -10.4990
  13   2.0000      -0.349540        -9.5115
  14   2.0000      -0.313907        -8.5418
  15   2.0000      -0.241922        -6.5830
  16   0.0000      -0.071761        -1.9527
  17   0.0000      -0.005375        -0.1463
  18   0.0000       0.042616         1.1596
  19   0.0000       0.066044         1.7972
  20   0.0000       0.075632         2.0580

MULLIKEN ATOMIC CHARGES
-----------------------
   0 C :    0.426975
   1 C :    0.367002
   2 F :   -0.282778
   3 O :   -0.459173
   4 H :   -0.065138
   5 H :    0.007992
   6 H :    0.005120
Sum of atomic charges:   -0.0000000

LOEWDIN ATOMIC CHARGES
----------------------
   0 C :    0.213861
   1 C :   -0.064387
   2 F :    0.006614
   3 O :   -0.136529
   4 H :   -0.005276
   5 H :   -0.005829
   6 H :   -0.008454

  Mayer bond orders larger than 0.100000
B(  0-C ,  1-C ) :   1.2507 B(  0-C ,  4-H ) :   0.8930 B(  0-C ,  5-H ) :   0.8171
B(  0-C ,  6-H ) :   0.8124 B(  1-C ,  2-F ) :   0.8437 B(  1-C ,  3-O ) :   1.7938
B(  1-C ,  4-H ) :   0.2059 B(  1-C ,  5-H ) :   0.1213 B(  1-C ,  6-H ) :   0.1265
B(  2-F ,  3-O ) :   0.1036

Dispersion correction           -0.003397731
FINAL SINGLE POINT ENERGY      -252.630947894587

DIPOLE MOMENT
-------------
                                X             Y             Z
Electronic contribution:      1.75042       0.24333       4.87085
Nuclear contribution   :     -2.65749      -0.95231      -5.09883
                        -----------------------------------------
Total Dipole Moment    :     -0.90706      -0.70898      -0.22798
                        -----------------------------------------
Magnitude (a.u.)       :      1.17363
Magnitude (Debye)      :      2.98312

Rotational constants in cm-1:     0.365278     0.322469     0.176821
Rotational constants in MHz : 10950.755781  9667.377070  5300.957073

                             ****ORCA TERMINATED NORMALLY****
TOTAL RUN TIME: 0 days 0 hours 0 minutes 3 seconds 359 msec
