                         Program Version 5.0.0 -  RELEASE  -
|  1> !PBE D3BJ RIJCOSX def2-SVPD def2/J TightSCF
|  2> *xyz 0 1
|  3> C          3.34350        3.35457       -3.59200
|  4> C          4.25587        3.70385       -4.72605
|  5> C          3.73403        4.29378       -5.80077
|  6> N          5.51504        3.40725       -4.63718
|  7> H          6.14919        3.60120       -5.39905
|  8> H          5.81358        2.89950       -3.80879
|  9> H          2.74138        4.51311       -5.82470
| 10> H          4.28755        4.52126       -6.61434
| 11> H          2.34726        3.66659       -3.82664
| 12> H          3.67283        3.85124       -2.70331
| 13> H          3.35820        2.29620       -3.43538
| 14> *
| 15> %MaxCore 64000
| 16>
| 17> %pal nprocs 4
| 18> end
| 19>
| 20> %scf
| 21>   MaxIter 150
| 22> end
| 23>
| 24>
| 25>                          ****END OF INPUT****

CARTESIAN COORDINATES (ANGSTROEM)
---------------------------------
  C      3.343500    3.354570   -3.592000
  C      4.255870    3.703850   -4.726050
  C      3.734030    4.293780   -5.800770
  N      5.515040    3.407250   -4.637180
  H      6.149190    3.601200   -5.399050
  H      5.813580    2.899500   -3.808790
  H      2.741380    4.513110   -5.824700
  H      4.287550    4.521260   -6.614340
  H      2.347260    3.666590   -3.826640
  H      3.672830    3.851240   -2.703310
  H      3.358200    2.296200   -3.435380

 Total Charge           Charge          ....    0
 Multiplicity           Mult            ....    1
 Number of Electrons    NEL             ....   32
 Basis Dimension        Dim             ....  136

ORBITAL ENERGIES
----------------

  NO   OCC          E(Eh)            E(eV)
   0   2.0000     -14.005648      -381.1131
   1   2.0000      -9.913854      -269.7697
   2   2.0000      -9.885436      -268.9964
   3   2.0000      -9.828243      -267.4401
   4   2.0000      -0.850316       -23.1383
   5   2.0000      -0.679226       -18.4827
   6   2.0000      -0.613966       -16.7069
   7   2.0000      -0.519008       -14.1229
   8   2.0000      -0.482116       -13.1191
   9   2.0000      -0.422308       -11.4916
  10   2.0000      -0.386320       -10.5123
  11   2.0000      -0.351681        -9.5697
  12   2.0000      -0.344997        -9.3878
  13   2.0000      -0.307501        -8.3675
  14   2.0000      -0.296126        -8.0580
  15   2.0000      -0.158464        -4.3120
  16   0.0000      -0.001412        -0.0384
  17   0.0000       0.018859         0.5132
  18   0.0000       0.036665         0.9977
  19   0.0000       0.045971         1.2509
  20   0.0000       0.069314         1.8861

MULLIKEN ATOMIC CHARGES
-----------------------
   0 C :    0.870696
   1 C :   -0.573636
   2 C :    0.456876
   3 N :    0.362280
   4 H :   -0.226307
   5 H :   -0.151264
   6 H :   -0.107827
   7 H :   -0.507574
   8 H :   -0.000884
   9 H :   -0.061157
  10 H :   -0.061202
Sum of atomic charges:    0.0000000

LOEWDIN ATOMIC CHARGES
----------------------
   0 C :    0.162964
   1 C :   -0.309258
   2 C :    0.173375
   3 N :    0.175916
   4 H :    0.010423
   5 H :    0.006177
   6 H :   -0.086826
   7 H :   -0.092508
   8 H :   -0.014827
   9 H :   -0.012996
  10 H :   -0.012442

  Mayer bond orders larger than 0.100000
B(  0-C ,  1-C ) :   1.2952 B(  0-C ,  8-H ) :   0.7880 B(  0-C ,  9-H ) :   0.6425
B(  0-C , 10-H ) :   0.6645 B(  1-C ,  2-C ) :   1.6000 B(  1-C ,  3-N ) :   1.2792
B(  1-C ,  7-H ) :   0.1425 B(  1-C ,  8-H ) :   0.2439 B(  1-C ,  9-H ) :   0.2922
B(  1-C , 10-H ) :   0.2731 B(  2-C ,  3-N ) :   0.2775 B(  2-C ,  6-H ) :   0.9390
B(  2-C ,  7-H ) :   0.7855 B(  3-N ,  4-H ) :   1.2156 B(  3-N ,  5-H ) :   1.1217
B(  4-H ,  5-H ) :  -0.1256

Dispersion correction           -0.007239438
FINAL SINGLE POINT ENERGY      -172.906661536491

DIPOLE MOMENT
-------------
                                X             Y             Z
Electronic contribution:      1.79209      -0.04030      -0.56902
Nuclear contribution   :     -1.20871      -0.33119       0.98382
                        -----------------------------------------
Total Dipole Moment    :      0.58338      -0.37149       0.41479
                        -----------------------------------------
Magnitude (a.u.)       :      0.80647
Magnitude (Debye)      :      2.04988

Rotational constants in cm-1:     0.348453     0.308655     0.168735
Rotational constants in MHz : 10446.369928  9253.232733  5058.539653

                             ****ORCA TERMINATED NORMALLY****
TOTAL RUN TIME: 0 days 0 hours 0 minutes 4 seconds 878 msec
