                         Program Version 5.0.0 -  RELEASE  -
|  1> !PBE D3BJ RIJCOSX def2-SVPD def2/J TightSCF
|  2> *xyz 0 1
|  3> C          4.12921        0.89839       -3.41895
|  4> C          5.01734        1.31521       -2.22130
|  5> O          4.73706        0.85411       -1.12283
|  6> F          5.92815        2.16811       -2.49136
|  7> H          4.48610        1.37210       -4.30953
|  8> H          3.11885        1.19903       -3.23540
|  9> H          4.16886       -0.16404       -3.53966
| 10> *
| 11> %MaxCore 64000
| 12>
| 13> %pal nprocs 4
| 14> end
| 15>
| 16> %scf
| 17>   MaxIter 150
| 18> end
| 19>
| 20>
| 21>                          ****END OF INPUT****

CARTESIAN COORDINATES (ANGSTROEM)
---------------------------------
  C      4.129210    0.898390   -3.418950
  C      5.017340    1.315210   -2.221300
  O      4.737060    0.854110   -1.122830
  F      5.928150    2.168110   -2.491360
  H      4.486100    1.372100   -4.309530
  H      3.118850    1.199030   -3.235400
  H      4.168860   -0.164040   -3.539660

 Total Charge           Charge          ....    0
 Multiplicity           Mult            ....    1
 Number of Electrons    NEL             ....   32
 Basis Dimension        Dim             ....  110

ORBITAL ENERGIES
----------------

  NO   OCC          E(Eh)            E(eV)
   0   2.0000     -24.340543      -662.3399
   1   2.0000     -18.780381      -511.0402
   2   2.0000     -10.071445      -274.0579
   3   2.0000      -9.920904      -269.9615
   4   2.0000      -1.192799       -32.4577
   5   2.0000      -0.961157       -26.1544
   6   2.0000      -0.692206       -18.8359
   7   2.0000      -0.589500       -16.0411
   8   2.0000      -0.486497       -13.2382
   9   2.0000      -0.481278       -13.0962
  10   2.0000      -0.446806       -12.1582
  11   2.0000      -0.397175       -10.8077
  12   2.0000      -0.386963       -10.5298
  13   2.0000      -0.354875        -9.6566
  14   2.0000      -0.328355        -8.9350
  15   2.0000      -0.256628        -6.9832
  16   0.0000      -0.069374        -1.8878
  17   0.0000      -0.004939        -0.1344
  18   0.0000       0.043751         1.1905
  19   0.0000       0.068414         1.8616
  20   0.0000       0.070833         1.9275

MULLIKEN ATOMIC CHARGES
-----------------------
   0 C :    0.414981
   1 C :    0.334663
   2 O :   -0.400085
   3 F :   -0.322636
   4 H :   -0.047479
   5 H :    0.012075
   6 H :    0.008482
Sum of atomic charges:   -0.0000000

LOEWDIN ATOMIC CHARGES
----------------------
   0 C :    0.216421
   1 C :   -0.061160
   2 O :   -0.101430
   3 F :   -0.034323
   4 H :   -0.019048
   5 H :    0.000411
   6 H :   -0.000872

  Mayer bond orders larger than 0.100000
B(  0-C ,  1-C ) :   1.2601 B(  0-C ,  4-H ) :   0.8874 B(  0-C ,  5-H ) :   0.8202
B(  0-C ,  6-H ) :   0.8122 B(  1-C ,  2-O ) :   1.8507 B(  1-C ,  3-F ) :   0.8066
B(  1-C ,  4-H ) :   0.1588 B(  1-C ,  5-H ) :   0.1310 B(  1-C ,  6-H ) :   0.1414

Dispersion correction           -0.003398877
FINAL SINGLE POINT ENERGY      -252.645845444178

DIPOLE MOMENT
-------------
                                X             Y             Z
Electronic contribution:      3.66779       2.35732       2.66288
Nuclear contribution   :     -3.88824      -2.31007      -3.68473
                        -----------------------------------------
Total Dipole Moment    :     -0.22045       0.04725      -1.02184
                        -----------------------------------------
Magnitude (a.u.)       :      1.04642
Magnitude (Debye)      :      2.65979

Rotational constants in cm-1:     0.367620     0.319924     0.176595
Rotational constants in MHz : 11020.955969  9591.092757  5294.190719

                             ****ORCA TERMINATED NORMALLY****
TOTAL RUN TIME: 0 days 0 hours 0 minutes 3 seconds 398 msec
