                         Program Version 5.0.0 -  RELEASE  -
|  1> !PBE D3BJ RIJCOSX def2-SVPD def2/J TightSCF
|  2> *xyz 0 1
|  3> C          3.34350        3.35457       -3.59200
|  4> C          4.25587        3.70385       -4.72605
|  5> N          3.73403        4.29378       -5.80077
|  6> C          5.51504        3.40725       -4.63718
|  7> H          6.14919        3.60120       -5.39905
|  8> H          5.81358        2.89950       -3.80879
|  9> H          2.74138        4.51311       -5.82470
| 10> H          4.28755        4.52126       -6.61434
| 11> H          2.34726        3.66659       -3.82664
| 12> H          3.67283        3.85124       -2.70331
| 13> H          3.35820        2.29620       -3.43538
| 14> *
| 15> %MaxCore 64000
| 16>
| 17> %pal nprocs 4
| 18> end
| 19>
| 20> %scf
| 21>   MaxIter 150
| 22> end
| 23>
| 24>
| 25>                          ****END OF INPUT****

CARTESIAN COORDINATES (ANGSTROEM)
---------------------------------
  C      3.343500    3.354570   -3.592000
  C      4.255870    3.703850   -4.726050
  N      3.734030    4.293780   -5.800770
  C      5.515040    3.407250   -4.637180
  H      6.149190    3.601200   -5.399050
  H      5.813580    2.899500   -3.808790
  H      2.741380    4.513110   -5.824700
  H      4.287550    4.521260   -6.614340
  H      2.347260    3.666590   -3.826640
  H      3.672830    3.851240   -2.703310
  H      3.358200    2.296200   -3.435380

 Total Charge           Charge          ....    0
 Multiplicity           Mult            ....    1
 Number of Electrons    NEL             ....   32
 Basis Dimension        Dim             ....  136

ORBITAL ENERGIES
----------------

  NO   OCC          E(Eh)            E(eV)
   0   2.0000     -14.002765      -381.0346
   1   2.0000      -9.911326      -269.7009
   2   2.0000      -9.885513      -268.9985
   3   2.0000      -9.824739      -267.3447
   4   2.0000      -0.836812       -22.7708
   5   2.0000      -0.683730       -18.6052
   6   2.0000      -0.617099       -16.7921
   7   2.0000      -0.514332       -13.9957
   8   2.0000      -0.472601       -12.8601
   9   2.0000      -0.423625       -11.5274
  10   2.0000      -0.383308       -10.4303
  11   2.0000      -0.352018        -9.5789
  12   2.0000      -0.346084        -9.4174
  13   2.0000      -0.311324        -8.4716
  14   2.0000      -0.291093        -7.9210
  15   2.0000      -0.160377        -4.3641
  16   0.0000      -0.000367        -0.0100
  17   0.0000       0.017697         0.4816
  18   0.0000       0.037207         1.0125
  19   0.0000       0.045147         1.2285
  20   0.0000       0.069429         1.8893

MULLIKEN ATOMIC CHARGES
-----------------------
   0 C :    0.821517
   1 C :   -0.314735
   2 N :    0.132325
   3 C :    0.373994
   4 H :   -0.409580
   5 H :   -0.127617
   6 H :   -0.110294
   7 H :   -0.205417
   8 H :   -0.157938
   9 H :    0.002395
  10 H :   -0.004648
Sum of atomic charges:   -0.0000000

LOEWDIN ATOMIC CHARGES
----------------------
   0 C :    0.164773
   1 C :   -0.297238
   2 N :    0.178952
   3 C :    0.156035
   4 H :   -0.083061
   5 H :   -0.071006
   6 H :   -0.008205
   7 H :    0.000364
   8 H :   -0.029271
   9 H :   -0.005650
  10 H :   -0.005691

  Mayer bond orders larger than 0.100000
B(  0-C ,  1-C ) :   1.1173 B(  0-C ,  2-N ) :   0.1277 B(  0-C ,  3-C ) :   0.1224
B(  0-C ,  8-H ) :   0.7070 B(  0-C ,  9-H ) :   0.7309 B(  0-C , 10-H ) :   0.7435
B(  1-C ,  2-N ) :   1.0176 B(  1-C ,  3-C ) :   1.7682 B(  1-C ,  4-H ) :   0.2456
B(  1-C ,  5-H ) :   0.1604 B(  1-C ,  7-H ) :  -0.1726 B(  1-C ,  8-H ) :   0.2799
B(  1-C ,  9-H ) :   0.1855 B(  1-C , 10-H ) :   0.1685 B(  2-N ,  3-C ) :   0.2808
B(  2-N ,  6-H ) :   1.1150 B(  2-N ,  7-H ) :   1.3245 B(  3-C ,  4-H ) :   0.7515
B(  3-C ,  5-H ) :   0.7625 B(  6-H ,  7-H ) :  -0.1658

Dispersion correction           -0.007239006
FINAL SINGLE POINT ENERGY      -172.905155687333

DIPOLE MOMENT
-------------
                                X             Y             Z
Electronic contribution:      0.19255       0.75557      -1.57791
Nuclear contribution   :     -0.80929      -0.53001       1.24477
                        -----------------------------------------
Total Dipole Moment    :     -0.61674       0.22556      -0.33314
                        -----------------------------------------
Magnitude (a.u.)       :      0.73636
Magnitude (Debye)      :      1.87167

Rotational constants in cm-1:     0.352070     0.305406     0.168593
Rotational constants in MHz : 10554.792117  9155.853997  5054.288053

                             ****ORCA TERMINATED NORMALLY****
TOTAL RUN TIME: 0 days 0 hours 0 minutes 4 seconds 591 msec
