                         Program Version 5.0.0 -  RELEASE  -
|  1> !DLPNO-CCSD(T) aug-cc-pVTZ aug-cc-pVTZ/C TightSCF TightPNO RIJCOSX def2/J
|  2> *xyz 1 1
|  3> C          3.91385       -1.65829        3.01513
|  4> N          5.03927       -0.90115        2.49282
|  5> C          6.21038       -1.41726        2.17824
|  6> N          6.53591       -2.67712        2.55608
|  7> N          7.07675       -0.70082        1.47891
|  8> H          7.95464       -1.12155        1.20755
|  9> H          6.75616        0.10664        0.96028
| 10> H          4.84217        0.01761        2.11519
| 11> H          5.99388       -3.12692        3.28278
| 12> H          7.49844       -2.97548        2.46878
| 13> H          3.08844       -0.99893        3.18495
| 14> H          4.19412       -2.12366        3.93697
| 15> H          3.63051       -2.40965        2.30798
| 16> *
| 17> %MaxCore 64000
| 18> %pal nprocs 2
| 19> end
| 20> %scf
| 21>   MaxIter 150
| 22> end
| 23>
| 24>
| 25>                          ****END OF INPUT****

CARTESIAN COORDINATES (ANGSTROEM)
---------------------------------
  C      3.913850   -1.658290    3.015130
  N      5.039270   -0.901150    2.492820
  C      6.210380   -1.417260    2.178240
  N      6.535910   -2.677120    2.556080
  N      7.076750   -0.700820    1.478910
  H      7.954640   -1.121550    1.207550
  H      6.756160    0.106640    0.960280
  H      4.842170    0.017610    2.115190
  H      5.993880   -3.126920    3.282780
  H      7.498440   -2.975480    2.468780
  H      3.088440   -0.998930    3.184950
  H      4.194120   -2.123660    3.936970
  H      3.630510   -2.409650    2.307980

 Total Charge           Charge          ....    1
 Multiplicity           Mult            ....    1
 Number of Electrons    NEL             ....   40
 Basis Dimension        Dim             ....  414

ORBITAL ENERGIES
----------------

  NO   OCC          E(Eh)            E(eV)
   0   2.0000     -15.791236      -429.7014
   1   2.0000     -15.790353      -429.6773
   2   2.0000     -15.789524      -429.6548
   3   2.0000     -11.593007      -315.4618
   4   2.0000     -11.430947      -311.0519
   5   2.0000      -1.546613       -42.0855
   6   2.0000      -1.411104       -38.3981
   7   2.0000      -1.391584       -37.8669
   8   2.0000      -1.154858       -31.4253
   9   2.0000      -1.042320       -28.3630
  10   2.0000      -0.978826       -26.6352
  11   2.0000      -0.943309       -25.6687
  12   2.0000      -0.866448       -23.5772
  13   2.0000      -0.861108       -23.4319
  14   2.0000      -0.828872       -22.5547
  15   2.0000      -0.804585       -21.8939
  16   2.0000      -0.752071       -20.4649
  17   2.0000      -0.736729       -20.0474
  18   2.0000      -0.629462       -17.1285
  19   2.0000      -0.596945       -16.2437
  20   0.0000      -0.096495        -2.6258
  21   0.0000      -0.077385        -2.1058
  22   0.0000      -0.071840        -1.9549
  23   0.0000      -0.058537        -1.5929
  24   0.0000      -0.049579        -1.3491

MULLIKEN ATOMIC CHARGES
-----------------------
   0 C :   -0.869772
   1 N :    0.028559
   2 C :    0.485019
   3 N :   -0.254840
   4 N :   -0.370856
   5 H :    0.164458
   6 H :    0.167474
   7 H :    0.146882
   8 H :    0.197724
   9 H :    0.157852
  10 H :    0.396398
  11 H :    0.376941
  12 H :    0.374161
Sum of atomic charges:    1.0000000

LOEWDIN ATOMIC CHARGES
----------------------
   0 C :    0.580468
   1 N :    0.607426
   2 C :   -0.365331
   3 N :    0.945990
   4 N :    0.933666
   5 H :   -0.242297
   6 H :   -0.237011
   7 H :   -0.237301
   8 H :   -0.270002
   9 H :   -0.245450
  10 H :   -0.145287
  11 H :   -0.168869
  12 H :   -0.156003

  Mayer bond orders larger than 0.100000
B(  0-C ,  1-N ) :   0.8441 B(  0-C ,  2-C ) :  -0.1095 B(  0-C , 10-H ) :   0.8928
B(  0-C , 11-H ) :   0.8622 B(  0-C , 12-H ) :   0.8746 B(  1-N ,  2-C ) :   1.0261
B(  1-N ,  7-H ) :   1.0220 B(  2-C ,  3-N ) :   1.0323 B(  2-C ,  4-N ) :   1.0783
B(  3-N ,  8-H ) :   1.0041 B(  3-N ,  9-H ) :   1.0299 B(  4-N ,  5-H ) :   1.0646
B(  4-N ,  6-H ) :   1.0462

E(0)                                       ...   -243.656821591
E(0)                                       ...   -243.656821591
E(CORR)(strong-pairs)                      ...     -0.995232932
E(CORR)(weak-pairs)                        ...     -0.000980008
E(CORR)(corrected)                         ...     -0.996212941
E(TOT)                                     ...   -244.653034532
E(CCSD(T))                                 ...   -244.692740028
FINAL SINGLE POINT ENERGY      -244.692740027899

DIPOLE MOMENT
-------------
                                X             Y             Z
Electronic contribution:      2.44434       0.84609      -0.97258
Nuclear contribution   :     -2.01473      -0.74897       0.69347
                        -----------------------------------------
Total Dipole Moment    :      0.42961       0.09712      -0.27911
                        -----------------------------------------
Magnitude (a.u.)       :      0.52144
Magnitude (Debye)      :      1.32540

Rotational constants in cm-1:     0.313249     0.134439     0.096258
Rotational constants in MHz :  9390.961986  4030.377472  2885.728233

                             ****ORCA TERMINATED NORMALLY****
TOTAL RUN TIME: 0 days 1 hours 55 minutes 24 seconds 66 msec
