                         Program Version 5.0.0 -  RELEASE  -
|  1> !DLPNO-CCSD(T) aug-cc-pVTZ aug-cc-pVTZ/C TightSCF TightPNO RIJCOSX def2/J
|  2> *xyz 0 1
|  3> C          3.91385       -1.65829        3.01513
|  4> N          5.03927       -0.90115        2.49282
|  5> C          6.21038       -1.41726        2.17824
|  6> C          6.53591       -2.67712        2.55608
|  7> N          7.07675       -0.70082        1.47891
|  8> H          7.95464       -1.12155        1.20755
|  9> H          6.75616        0.10664        0.96028
| 10> H          4.84217        0.01761        2.11519
| 11> H          5.99388       -3.12692        3.28278
| 12> H          7.49844       -2.97548        2.46878
| 13> H          3.08844       -0.99893        3.18495
| 14> H          4.19412       -2.12366        3.93697
| 15> H          3.63051       -2.40965        2.30798
| 16> *
| 17> %MaxCore 64000
| 18> %pal nprocs 2
| 19> end
| 20> %scf
| 21>   MaxIter 150
| 22> end
| 23>
| 24>
| 25>                          ****END OF INPUT****

CARTESIAN COORDINATES (ANGSTROEM)
---------------------------------
  C      3.913850   -1.658290    3.015130
  N      5.039270   -0.901150    2.492820
  C      6.210380   -1.417260    2.178240
  C      6.535910   -2.677120    2.556080
  N      7.076750   -0.700820    1.478910
  H      7.954640   -1.121550    1.207550
  H      6.756160    0.106640    0.960280
  H      4.842170    0.017610    2.115190
  H      5.993880   -3.126920    3.282780
  H      7.498440   -2.975480    2.468780
  H      3.088440   -0.998930    3.184950
  H      4.194120   -2.123660    3.936970
  H      3.630510   -2.409650    2.307980

 Total Charge           Charge          ....    0
 Multiplicity           Mult            ....    1
 Number of Electrons    NEL             ....   40
 Basis Dimension        Dim             ....  414

ORBITAL ENERGIES
----------------

  NO   OCC          E(Eh)            E(eV)
   0   2.0000     -15.566551      -423.5874
   1   2.0000     -15.564641      -423.5354
   2   2.0000     -11.290887      -307.2407
   3   2.0000     -11.250733      -306.1480
   4   2.0000     -11.130178      -302.8675
   5   2.0000      -1.293413       -35.1956
   6   2.0000      -1.186432       -32.2845
   7   2.0000      -0.977255       -26.5924
   8   2.0000      -0.942593       -25.6493
   9   2.0000      -0.775248       -21.0956
  10   2.0000      -0.733890       -19.9702
  11   2.0000      -0.702168       -19.1070
  12   2.0000      -0.624738       -17.0000
  13   2.0000      -0.606438       -16.5020
  14   2.0000      -0.579070       -15.7573
  15   2.0000      -0.541449       -14.7336
  16   2.0000      -0.530419       -14.4334
  17   2.0000      -0.520368       -14.1599
  18   2.0000      -0.396529       -10.7901
  19   2.0000      -0.266320        -7.2469
  20   0.0000       0.023584         0.6417
  21   0.0000       0.034343         0.9345
  22   0.0000       0.041790         1.1372
  23   0.0000       0.052311         1.4235
  24   0.0000       0.055122         1.5000

MULLIKEN ATOMIC CHARGES
-----------------------
   0 C :   -0.961514
   1 N :   -0.090648
   2 C :    0.502168
   3 C :   -1.203803
   4 N :   -0.474663
   5 H :    0.083939
   6 H :    0.139004
   7 H :    0.094867
   8 H :    0.503403
   9 H :    0.292289
  10 H :    0.379680
  11 H :    0.382912
  12 H :    0.352366
Sum of atomic charges:    0.0000000

LOEWDIN ATOMIC CHARGES
----------------------
   0 C :    0.524598
   1 N :    0.546781
   2 C :   -0.463523
   3 C :    0.545954
   4 N :    0.851890
   5 H :   -0.272218
   6 H :   -0.279350
   7 H :   -0.272072
   8 H :   -0.334512
   9 H :   -0.316853
  10 H :   -0.172445
  11 H :   -0.185485
  12 H :   -0.172765

  Mayer bond orders larger than 0.100000
B(  0-C ,  1-N ) :   0.9283 B(  0-C , 10-H ) :   0.9034 B(  0-C , 11-H ) :   0.8714
B(  0-C , 12-H ) :   0.8942 B(  1-N ,  2-C ) :   0.8086 B(  1-N ,  3-C ) :  -0.1661
B(  1-N ,  4-N ) :  -0.1678 B(  1-N ,  7-H ) :   1.1029 B(  2-C ,  3-C ) :   1.1454
B(  2-C ,  4-N ) :   0.8883 B(  3-C ,  4-N ) :  -0.1160 B(  3-C ,  8-H ) :   0.7313
B(  3-C ,  9-H ) :   1.0466 B(  4-N ,  5-H ) :   1.1393 B(  4-N ,  6-H ) :   1.0546

E(0)                                       ...   -227.200537568
E(0)                                       ...   -227.200537568
E(CORR)(strong-pairs)                      ...     -0.975588468
E(CORR)(weak-pairs)                        ...     -0.000978212
E(CORR)(corrected)                         ...     -0.976566680
E(TOT)                                     ...   -228.177104248
E(CCSD(T))                                 ...   -228.217116317
FINAL SINGLE POINT ENERGY      -228.217116317032

DIPOLE MOMENT
-------------
                                X             Y             Z
Electronic contribution:      1.45221       2.06651      -1.16538
Nuclear contribution   :     -1.85843      -0.99162       0.73717
                        -----------------------------------------
Total Dipole Moment    :     -0.40622       1.07489      -0.42821
                        -----------------------------------------
Magnitude (a.u.)       :      1.22628
Magnitude (Debye)      :      3.11696

Rotational constants in cm-1:     0.336495     0.135025     0.098658
Rotational constants in MHz : 10087.870488  4047.943278  2957.678786

                             ****ORCA TERMINATED NORMALLY****
TOTAL RUN TIME: 0 days 2 hours 11 minutes 37 seconds 639 msec
