                         Program Version 5.0.0 -  RELEASE  -
|  1> !DLPNO-CCSD(T) aug-cc-pVTZ aug-cc-pVTZ/C TightSCF TightPNO RIJCOSX def2/J
|  2> *xyz 0 1
|  3> C          3.91385       -1.65829        3.01513
|  4> N          5.03927       -0.90115        2.49282
|  5> C          6.21038       -1.41726        2.17824
|  6> N          6.53591       -2.67712        2.55608
|  7> C          7.07675       -0.70082        1.47891
|  8> H          7.95464       -1.12155        1.20755
|  9> H          6.75616        0.10664        0.96028
| 10> H          4.84217        0.01761        2.11519
| 11> H          5.99388       -3.12692        3.28278
| 12> H          7.49844       -2.97548        2.46878
| 13> H          3.08844       -0.99893        3.18495
| 14> H          4.19412       -2.12366        3.93697
| 15> H          3.63051       -2.40965        2.30798
| 16> *
| 17> %MaxCore 64000
| 18> %pal nprocs 2
| 19> end
| 20> %scf
| 21>   MaxIter 150
| 22> end
| 23>
| 24>
| 25>                          ****END OF INPUT****

CARTESIAN COORDINATES (ANGSTROEM)
---------------------------------
  C      3.913850   -1.658290    3.015130
  N      5.039270   -0.901150    2.492820
  C      6.210380   -1.417260    2.178240
  N      6.535910   -2.677120    2.556080
  C      7.076750   -0.700820    1.478910
  H      7.954640   -1.121550    1.207550
  H      6.756160    0.106640    0.960280
  H      4.842170    0.017610    2.115190
  H      5.993880   -3.126920    3.282780
  H      7.498440   -2.975480    2.468780
  H      3.088440   -0.998930    3.184950
  H      4.194120   -2.123660    3.936970
  H      3.630510   -2.409650    2.307980

 Total Charge           Charge          ....    0
 Multiplicity           Mult            ....    1
 Number of Electrons    NEL             ....   40
 Basis Dimension        Dim             ....  414

ORBITAL ENERGIES
----------------

  NO   OCC          E(Eh)            E(eV)
   0   2.0000     -15.563050      -423.4921
   1   2.0000     -15.561024      -423.4370
   2   2.0000     -11.287277      -307.1424
   3   2.0000     -11.258950      -306.3716
   4   2.0000     -11.126746      -302.7741
   5   2.0000      -1.286726       -35.0136
   6   2.0000      -1.178120       -32.0583
   7   2.0000      -1.007001       -27.4019
   8   2.0000      -0.914594       -24.8874
   9   2.0000      -0.802837       -21.8463
  10   2.0000      -0.716587       -19.4993
  11   2.0000      -0.667897       -18.1744
  12   2.0000      -0.642408       -17.4808
  13   2.0000      -0.630705       -17.1623
  14   2.0000      -0.563651       -15.3377
  15   2.0000      -0.551350       -15.0030
  16   2.0000      -0.538099       -14.6424
  17   2.0000      -0.515118       -14.0171
  18   2.0000      -0.404176       -10.9982
  19   2.0000      -0.264928        -7.2090
  20   0.0000       0.025401         0.6912
  21   0.0000       0.034545         0.9400
  22   0.0000       0.042182         1.1478
  23   0.0000       0.046892         1.2760
  24   0.0000       0.054796         1.4911

MULLIKEN ATOMIC CHARGES
-----------------------
   0 C :   -0.943596
   1 N :   -0.018814
   2 C :    0.415135
   3 N :   -0.403188
   4 C :   -1.210560
   5 H :    0.403391
   6 H :    0.382466
   7 H :    0.056661
   8 H :    0.151335
   9 H :    0.067684
  10 H :    0.375894
  11 H :    0.369087
  12 H :    0.354506
Sum of atomic charges:    0.0000000

LOEWDIN ATOMIC CHARGES
----------------------
   0 C :    0.525114
   1 N :    0.548105
   2 C :   -0.460201
   3 N :    0.865162
   4 C :    0.529991
   5 H :   -0.316173
   6 H :   -0.310462
   7 H :   -0.263162
   8 H :   -0.309038
   9 H :   -0.274936
  10 H :   -0.170275
  11 H :   -0.188391
  12 H :   -0.175735

  Mayer bond orders larger than 0.100000
B(  0-C ,  1-N ) :   0.8694 B(  0-C ,  2-C ) :  -0.1263 B(  0-C , 10-H ) :   0.9163
B(  0-C , 11-H ) :   0.8734 B(  0-C , 12-H ) :   0.8987 B(  1-N ,  2-C ) :   0.7670
B(  1-N ,  3-N ) :  -0.1149 B(  1-N ,  4-C ) :  -0.2081 B(  1-N ,  7-H ) :   1.1115
B(  2-C ,  3-N ) :   0.8782 B(  2-C ,  4-C ) :   1.1284 B(  3-N ,  4-C ) :  -0.1711
B(  3-N ,  8-H ) :   1.0240 B(  3-N ,  9-H ) :   1.1173 B(  4-C ,  5-H ) :   0.9050
B(  4-C ,  6-H ) :   0.9301

E(0)                                       ...   -227.199065470
E(0)                                       ...   -227.199065470
E(CORR)(strong-pairs)                      ...     -0.975092900
E(CORR)(weak-pairs)                        ...     -0.000962798
E(CORR)(corrected)                         ...     -0.976055698
E(TOT)                                     ...   -228.175121168
E(CCSD(T))                                 ...   -228.214889887
FINAL SINGLE POINT ENERGY      -228.214889887345

DIPOLE MOMENT
-------------
                                X             Y             Z
Electronic contribution:      0.89135       0.05762       0.04799
Nuclear contribution   :     -1.74889      -0.59133       0.51900
                        -----------------------------------------
Total Dipole Moment    :     -0.85754      -0.53371       0.56699
                        -----------------------------------------
Magnitude (a.u.)       :      1.15832
Magnitude (Debye)      :      2.94421

Rotational constants in cm-1:     0.319878     0.140238     0.099847
Rotational constants in MHz :  9589.703832  4204.215525  2993.343846

                             ****ORCA TERMINATED NORMALLY****
TOTAL RUN TIME: 0 days 2 hours 11 minutes 10 seconds 61 msec
