                         Program Version 5.0.0 -  RELEASE  -
|  1> !DLPNO-CCSD(T) aug-cc-pVTZ aug-cc-pVTZ/C TightSCF TightPNO RIJCOSX def2/J
|  2>
|  3> *xyzfile 0 1 D3.xyz
|  4>
|  5> %MaxCore 64000
|  6>
|  7> %pal nprocs 18
|  8> end
|  9>
| 10> %scf
| 11>   MaxIter 150
| 12> end
| 13>
| 14>
| 15>                          ****END OF INPUT****

CARTESIAN COORDINATES (ANGSTROEM)
---------------------------------
  C      3.913853   -1.658291    3.015134
  N      5.039266   -0.901154    2.492821
  C      4.084215    1.742081   -2.114724
  C      4.265245    2.500518   -0.795890
  H      4.868534    3.392674   -0.981134
  H      3.307640    2.824571   -0.387809
  C      4.982240    1.650257    0.247422
  C      6.210384   -1.417261    2.178244
  N      6.535913   -2.677122    2.556078
  C      7.076754   -0.700820    1.478906
  H      7.954643   -1.121554    1.207554
  H      6.756161    0.106637    0.960278
  H      4.842168    0.017609    2.115191
  H      5.993876   -3.126918    3.282784
  H      7.498441   -2.975482    2.468776
  F      4.368065    1.389270    1.313706
  O      6.128919    1.233512   -0.045620
  C      3.139159   -2.376572    1.910609
  H      3.267235   -0.939401    3.520693
  H      4.247195   -2.355095    3.790065
  C      1.997274    0.430918   -1.399218
  C      3.412746    0.376886   -1.965497
  H      4.047407   -0.246590   -1.326706
  H      3.390774   -0.118719   -2.942839
  H      5.068475    1.598504   -2.565728
  H      3.503356    2.363939   -2.804565
  C      2.399946   -1.389579    1.009490
  H      2.440750   -3.087118    2.362976
  H      3.844475   -2.970462    1.318677
  C      2.070177   -1.936705   -0.372401
  H      1.481611   -1.061542    1.509912
  H      3.008628   -0.490001    0.897451
  C      1.322238   -0.935775   -1.256413
  H      1.472747   -2.850902   -0.283997
  H      3.003539   -2.234041   -0.862535
  H      1.376444    1.058920   -2.047420
  H      2.015341    0.929780   -0.426535
  H      0.316648   -0.787213   -0.848278
  H      1.185611   -1.379252   -2.248613

 Total Charge           Charge          ....    0
 Multiplicity           Mult            ....    1
 Number of Electrons    NEL             ....  126
 Basis Dimension        Dim             .... 1265

ORBITAL ENERGIES
----------------

  NO   OCC          E(Eh)            E(eV)
   0   2.0000     -26.398455      -718.3385
   1   2.0000     -20.567400      -559.6674
   2   2.0000     -15.540854      -422.8881
   3   2.0000     -15.532766      -422.6681
   4   2.0000     -11.441961      -311.3516
   5   2.0000     -11.264700      -306.5281
   6   2.0000     -11.258682      -306.3643
   7   2.0000     -11.254502      -306.2506
   8   2.0000     -11.242615      -305.9271
   9   2.0000     -11.228155      -305.5336
  10   2.0000     -11.226008      -305.4752
  11   2.0000     -11.222080      -305.3683
  12   2.0000     -11.218047      -305.2586
  13   2.0000     -11.217423      -305.2416
  14   2.0000     -11.213983      -305.1480
  15   2.0000     -11.086235      -301.6718
  16   2.0000      -1.757245       -47.8171
  17   2.0000      -1.390413       -37.8351
  18   2.0000      -1.266433       -34.4614
  19   2.0000      -1.161104       -31.5953
  20   2.0000      -1.116855       -30.3912
  21   2.0000      -1.086290       -29.5595
  22   2.0000      -1.049404       -28.5557
  23   2.0000      -1.002882       -27.2898
  24   2.0000      -0.970179       -26.3999
  25   2.0000      -0.940044       -25.5799
  26   2.0000      -0.910044       -24.7636
  27   2.0000      -0.878939       -23.9172
  28   2.0000      -0.836199       -22.7541
  29   2.0000      -0.818212       -22.2647
  30   2.0000      -0.798657       -21.7326
  31   2.0000      -0.795983       -21.6598
  32   2.0000      -0.771652       -20.9977
  33   2.0000      -0.761021       -20.7084
  34   2.0000      -0.730106       -19.8672
  35   2.0000      -0.690775       -18.7969
  36   2.0000      -0.663891       -18.0654
  37   2.0000      -0.656335       -17.8598
  38   2.0000      -0.644431       -17.5359
  39   2.0000      -0.633776       -17.2459
  40   2.0000      -0.624450       -16.9922
  41   2.0000      -0.608545       -16.5594
  42   2.0000      -0.597252       -16.2521
  43   2.0000      -0.590632       -16.0719
  44   2.0000      -0.579358       -15.7651
  45   2.0000      -0.560479       -15.2514
  46   2.0000      -0.554508       -15.0889
  47   2.0000      -0.543608       -14.7923
  48   2.0000      -0.539908       -14.6916
  49   2.0000      -0.522161       -14.2087
  50   2.0000      -0.515364       -14.0238
  51   2.0000      -0.511392       -13.9157
  52   2.0000      -0.500659       -13.6236
  53   2.0000      -0.496908       -13.5215
  54   2.0000      -0.483611       -13.1597
  55   2.0000      -0.478347       -13.0165
  56   2.0000      -0.470107       -12.7922
  57   2.0000      -0.452972       -12.3260
  58   2.0000      -0.452592       -12.3157
  59   2.0000      -0.447012       -12.1638
  60   2.0000      -0.429096       -11.6763
  61   2.0000      -0.380313       -10.3489
  62   2.0000      -0.236315        -6.4305
  63   0.0000       0.021847         0.5945
  64   0.0000       0.028193         0.7672
  65   0.0000       0.030245         0.8230
  66   0.0000       0.033146         0.9019
  67   0.0000       0.041380         1.1260

MULLIKEN ATOMIC CHARGES
-----------------------
   0 C :   -0.737196
   1 N :   -0.102875
   2 C :   -0.635226
   3 C :   -0.219111
   4 H :    0.403229
   5 H :    0.174735
   6 C :    0.996859
   7 C :    0.462097
   8 N :   -0.616520
   9 C :   -1.444908
  10 H :    0.370335
  11 H :    0.664533
  12 H :    0.674590
  13 H :    0.071798
  14 H :    0.056530
  15 F :   -0.521113
  16 O :   -0.973800
  17 C :   -0.474167
  18 H :    0.189422
  19 H :    0.303172
  20 C :   -0.296315
  21 C :   -0.406417
  22 H :    0.284692
  23 H :    0.329670
  24 H :    0.140548
  25 H :    0.284985
  26 C :   -0.502846
  27 H :    0.323142
  28 H :    0.141491
  29 C :   -0.395574
  30 H :    0.260796
  31 H :    0.564819
  32 C :   -0.737768
  33 H :    0.524759
  34 H :    0.015273
  35 H :    0.485161
  36 H :    0.072343
  37 H :    0.100757
  38 H :    0.168099
Sum of atomic charges:    0.0000000

LOEWDIN ATOMIC CHARGES
----------------------
   0 C :    0.222524
   1 N :    0.578076
   2 C :    0.293651
   3 C :    0.291938
   4 H :   -0.143268
   5 H :   -0.170361
   6 C :   -0.770780
   7 C :   -0.434826
   8 N :    0.866013
   9 C :    0.542857
  10 H :   -0.298948
  11 H :   -0.618243
  12 H :   -0.511983
  13 H :   -0.320423
  14 H :   -0.276022
  15 F :    0.744147
  16 O :    0.583271
  17 C :    0.311011
  18 H :   -0.135722
  19 H :   -0.154605
  20 C :    0.281477
  21 C :    0.284946
  22 H :   -0.162675
  23 H :   -0.122364
  24 H :   -0.142466
  25 H :   -0.133443
  26 C :    0.277325
  27 H :   -0.138268
  28 H :   -0.142231
  29 C :    0.292078
  30 H :   -0.122814
  31 H :   -0.213846
  32 C :    0.303015
  33 H :   -0.130761
  34 H :   -0.146459
  35 H :   -0.131412
  36 H :   -0.170671
  37 H :   -0.140222
  38 H :   -0.139515

  Mayer bond orders larger than 0.100000
B(  0-C ,  1-N ) :   1.1219 B(  0-C ,  7-C ) :  -0.1408 B(  0-C , 12-H ) :  -0.1647
B(  0-C , 17-C ) :   0.9997 B(  0-C , 18-H ) :   1.1106 B(  0-C , 19-H ) :   0.9096
B(  0-C , 26-C ) :   0.1177 B(  1-N ,  7-C ) :   1.0006 B(  1-N ,  8-N ) :  -0.1193
B(  1-N , 12-H ) :   0.3286 B(  1-N , 15-F ) :  -0.2133 B(  2-C ,  3-C ) :   0.9761
B(  2-C ,  6-C ) :   0.1374 B(  2-C , 21-C ) :   0.8799 B(  2-C , 24-H ) :   1.1001
B(  2-C , 25-H ) :   0.8989 B(  3-C ,  4-H ) :   0.8878 B(  3-C ,  5-H ) :   1.0684
B(  3-C ,  6-C ) :   0.5486 B(  4-H ,  6-C ) :  -0.1278 B(  6-C , 15-F ) :   0.5403
B(  6-C , 16-O ) :   1.3423 B(  7-C ,  8-N ) :   0.6606 B(  7-C ,  9-C ) :   1.1311
B(  7-C , 10-H ) :  -0.1303 B(  7-C , 12-H ) :  -0.2023 B(  7-C , 13-H ) :  -0.1240
B(  8-N ,  9-C ) :  -0.2449 B(  8-N , 13-H ) :   1.1619 B(  8-N , 14-H ) :   1.1188
B(  9-C , 10-H ) :   1.0187 B(  9-C , 11-H ) :   0.6945 B( 12-H , 15-F ) :  -0.1777
B( 17-C , 26-C ) :   0.8291 B( 17-C , 27-H ) :   0.9119 B( 17-C , 28-H ) :   1.0795
B( 20-C , 21-C ) :   0.8144 B( 20-C , 32-C ) :   0.9187 B( 20-C , 35-H ) :   0.7556
B( 20-C , 36-H ) :   1.1183 B( 21-C , 22-H ) :   0.9784 B( 21-C , 23-H ) :   0.9206
B( 26-C , 29-C ) :   0.7493 B( 26-C , 30-H ) :   1.0346 B( 26-C , 31-H ) :   0.7566
B( 29-C , 32-C ) :   0.9166 B( 29-C , 33-H ) :   0.7066 B( 29-C , 34-H ) :   1.1980
B( 32-C , 37-H ) :   1.1382 B( 32-C , 38-H ) :   1.0493

E(0)                                       ...   -751.197685397
E(0)                                       ...   -751.197685397
E(CORR)(strong-pairs)                      ...     -3.109850051
E(CORR)(weak-pairs)                        ...     -0.006258274
E(CORR)(corrected)                         ...     -3.116108325
E(TOT)                                     ...   -754.313793722
E(CCSD(T))                                 ...   -754.444059477
FINAL SINGLE POINT ENERGY      -754.444059476563

DIPOLE MOMENT
-------------
                                X             Y             Z
Electronic contribution:      9.27670       8.72499       6.66636
Nuclear contribution   :    -11.12616      -8.32792      -6.96231
                        -----------------------------------------
Total Dipole Moment    :     -1.84946       0.39707      -0.29596
                        -----------------------------------------
Magnitude (a.u.)       :      1.91462
Magnitude (Debye)      :      4.86657

Rotational constants in cm-1:     0.020226     0.013574     0.009520
Rotational constants in MHz :   606.360011   406.923773   285.390769

                             ****ORCA TERMINATED NORMALLY****
TOTAL RUN TIME: 0 days 6 hours 2 minutes 33 seconds 970 msec
