                         Program Version 5.0.0 -  RELEASE  -
|  1> !LC-BLYP RIJCOSX def2-TZVP def2/J TightSCF
|  2> *xyz -1 1
|  3> C         -0.72184       -0.99951       -3.43931
|  4> C          0.28725       -1.71177       -2.52740
|  5> H          1.13178       -2.06738       -3.15940
|  6> H         -0.20414       -2.63733       -2.17048
|  7> O          0.71050       -0.92751       -1.48177
|  8> H         -1.01315       -1.65739       -4.23129
|  9> H         -0.27123       -0.12142       -3.85259
| 10> H         -1.58442       -0.72333       -2.86958
| 11> *
| 12> %MaxCore 64000
| 13>
| 14> %pal nprocs 4
| 15> end
| 16>
| 17> %scf
| 18>   MaxIter 150
| 19> end
| 20>
| 21>
| 22>                          ****END OF INPUT****

CARTESIAN COORDINATES (ANGSTROEM)
---------------------------------
  C     -0.721840   -0.999510   -3.439310
  C      0.287250   -1.711770   -2.527400
  H      1.131780   -2.067380   -3.159400
  H     -0.204140   -2.637330   -2.170480
  O      0.710500   -0.927510   -1.481770
  H     -1.013150   -1.657390   -4.231290
  H     -0.271230   -0.121420   -3.852590
  H     -1.584420   -0.723330   -2.869580

 Total Charge           Charge          ....   -1
 Multiplicity           Mult            ....    1
 Number of Electrons    NEL             ....   26
 Basis Dimension        Dim             ....  123

ORBITAL ENERGIES
----------------

  NO   OCC          E(Eh)            E(eV)
   0   2.0000     -18.577353      -505.5155
   1   2.0000      -9.872188      -268.6359
   2   2.0000      -9.852149      -268.0906
   3   2.0000      -0.757666       -20.6171
   4   2.0000      -0.626131       -17.0379
   5   2.0000      -0.470826       -12.8118
   6   2.0000      -0.350225        -9.5301
   7   2.0000      -0.325258        -8.8507
   8   2.0000      -0.267590        -7.2815
   9   2.0000      -0.247906        -6.7459
  10   2.0000      -0.195143        -5.3101
  11   2.0000      -0.049298        -1.3415
  12   2.0000      -0.046567        -1.2671
  13   0.0000       0.280498         7.6327
  14   0.0000       0.318494         8.6667
  15   0.0000       0.344915         9.3856
  16   0.0000       0.346038         9.4162
  17   0.0000       0.381801        10.3893

MULLIKEN ATOMIC CHARGES
-----------------------
   0 C :   -0.217933
   1 C :   -0.016849
   2 H :   -0.053011
   3 H :   -0.051041
   4 O :   -0.741214
   5 H :   -0.007489
   6 H :    0.042862
   7 H :    0.044674
Sum of atomic charges:   -1.0000000

LOEWDIN ATOMIC CHARGES
----------------------
   0 C :   -0.377614
   1 C :   -0.569108
   2 H :    0.057391
   3 H :    0.058625
   4 O :   -0.432604
   5 H :    0.079527
   6 H :    0.091569
   7 H :    0.092214

  Mayer bond orders larger than 0.100000
B(  0-C ,  1-C ) :   0.8713 B(  0-C ,  4-O ) :  -0.2205 B(  0-C ,  5-H ) :   0.9366
B(  0-C ,  6-H ) :   0.9719 B(  0-C ,  7-H ) :   0.9733 B(  1-C ,  2-H ) :   0.9336
B(  1-C ,  3-H ) :   0.9340 B(  1-C ,  4-O ) :   1.6723

FINAL SINGLE POINT ENERGY      -154.100328755698

DIPOLE MOMENT
-------------
                                X             Y             Z
Electronic contribution:      1.47519       0.77350       2.42043
Nuclear contribution   :     -2.24828      -1.06600      -3.62481
                        -----------------------------------------
Total Dipole Moment    :     -0.77308      -0.29250      -1.20438
                        -----------------------------------------
Magnitude (a.u.)       :      1.46073
Magnitude (Debye)      :      3.71288

Rotational constants in cm-1:     1.278116     0.325414     0.286672
Rotational constants in MHz : 38316.964654  9755.653004  8594.216906

                             ****ORCA TERMINATED NORMALLY****
TOTAL RUN TIME: 0 days 0 hours 0 minutes 12 seconds 911 msec
