                         Program Version 5.0.0 -  RELEASE  -
|  1> !LC-BLYP RIJCOSX def2-TZVP def2/J TightSCF
|  2> *xyz 1 1
|  3> C          3.48828        1.60092       -1.52204
|  4> C          4.34297        1.31342       -2.75683
|  5> N          2.81029        0.42878       -1.01420
|  6> H          2.71455        2.33145       -1.76030
|  7> H          4.09099        2.06315       -0.73338
|  8> C          3.29098       -0.41802       -0.12908
|  9> N          2.51754       -1.43202        0.23936
| 10> N          4.53549       -0.28441        0.39580
| 11> H          5.04363        0.57189        0.22290
| 12> H          4.72335       -0.73327        1.28180
| 13> H          1.93479        0.10230       -1.40379
| 14> H          1.67464       -1.50562       -0.31610
| 15> H          2.92850       -2.21850        0.72549
| 16> H          3.73575        0.86277       -3.51385
| 17> H          5.13754        0.64699       -2.49333
| 18> H          4.75374        2.22930       -3.12740
| 19> *
| 20> %MaxCore 64000
| 21>
| 22> %pal nprocs 4
| 23> end
| 24>
| 25> %scf
| 26>   MaxIter 150
| 27> end
| 28>
| 29>
| 30>                          ****END OF INPUT****

CARTESIAN COORDINATES (ANGSTROEM)
---------------------------------
  C      3.488280    1.600920   -1.522040
  C      4.342970    1.313420   -2.756830
  N      2.810290    0.428780   -1.014200
  H      2.714550    2.331450   -1.760300
  H      4.090990    2.063150   -0.733380
  C      3.290980   -0.418020   -0.129080
  N      2.517540   -1.432020    0.239360
  N      4.535490   -0.284410    0.395800
  H      5.043630    0.571890    0.222900
  H      4.723350   -0.733270    1.281800
  H      1.934790    0.102300   -1.403790
  H      1.674640   -1.505620   -0.316100
  H      2.928500   -2.218500    0.725490
  H      3.735750    0.862770   -3.513850
  H      5.137540    0.646990   -2.493330
  H      4.753740    2.229300   -3.127400

 Total Charge           Charge          ....    1
 Multiplicity           Mult            ....    1
 Number of Electrons    NEL             ....   48
 Basis Dimension        Dim             ....  246

ORBITAL ENERGIES
----------------

  NO   OCC          E(Eh)            E(eV)
   0   2.0000     -14.398938      -391.8150
   1   2.0000     -14.393176      -391.6582
   2   2.0000     -14.391065      -391.6008
   3   2.0000     -10.405974      -283.1610
   4   2.0000     -10.278613      -279.6953
   5   2.0000     -10.203152      -277.6419
   6   2.0000      -1.322248       -35.9802
   7   2.0000      -1.209898       -32.9230
   8   2.0000      -1.195983       -32.5444
   9   2.0000      -1.043172       -28.3862
  10   2.0000      -0.945312       -25.7232
  11   2.0000      -0.916053       -24.9271
  12   2.0000      -0.887831       -24.1591
  13   2.0000      -0.852964       -23.2103
  14   2.0000      -0.794997       -21.6330
  15   2.0000      -0.783997       -21.3337
  16   2.0000      -0.759597       -20.6697
  17   2.0000      -0.749331       -20.3903
  18   2.0000      -0.707301       -19.2467
  19   2.0000      -0.665480       -18.1086
  20   2.0000      -0.633197       -17.2302
  21   2.0000      -0.612024       -16.6540
  22   2.0000      -0.579169       -15.7600
  23   2.0000      -0.549832       -14.9617
  24   0.0000      -0.093753        -2.5511
  25   0.0000      -0.084137        -2.2895
  26   0.0000      -0.059514        -1.6195
  27   0.0000      -0.044404        -1.2083
  28   0.0000      -0.015184        -0.4132

MULLIKEN ATOMIC CHARGES
-----------------------
   0 C :   -0.281411
   1 C :   -0.340086
   2 N :   -0.181088
   3 H :    0.193350
   4 H :    0.159399
   5 C :    0.354132
   6 N :   -0.346274
   7 N :   -0.385338
   8 H :    0.277631
   9 H :    0.280699
  10 H :    0.243117
  11 H :    0.261372
  12 H :    0.289567
  13 H :    0.155185
  14 H :    0.140519
  15 H :    0.179225
Sum of atomic charges:    1.0000000

LOEWDIN ATOMIC CHARGES
----------------------
   0 C :   -0.297556
   1 C :   -0.295267
   2 N :    0.182242
   3 H :    0.157293
   4 H :    0.144457
   5 C :   -0.408105
   6 N :    0.064786
   7 N :    0.048092
   8 H :    0.192757
   9 H :    0.198276
  10 H :    0.212235
  11 H :    0.199891
  12 H :    0.202791
  13 H :    0.131168
  14 H :    0.125950
  15 H :    0.140988

  Mayer bond orders larger than 0.100000
B(  0-C ,  1-C ) :   0.9271 B(  0-C ,  2-N ) :   0.8578 B(  0-C ,  3-H ) :   0.9618
B(  0-C ,  4-H ) :   0.9765 B(  1-C , 13-H ) :   0.9648 B(  1-C , 14-H ) :   0.9575
B(  1-C , 15-H ) :   0.9706 B(  2-N ,  5-C ) :   1.4024 B(  2-N , 10-H ) :   0.9072
B(  5-C ,  6-N ) :   1.3319 B(  5-C ,  7-N ) :   1.3055 B(  6-N , 11-H ) :   0.9062
B(  6-N , 12-H ) :   0.8965 B(  7-N ,  8-H ) :   0.8993 B(  7-N ,  9-H ) :   0.9006

FINAL SINGLE POINT ENERGY      -283.775768995193

DIPOLE MOMENT
-------------
                                X             Y             Z
Electronic contribution:     -1.94487      -3.01391       3.75061
Nuclear contribution   :      1.59382       2.33278      -3.02574
                        -----------------------------------------
Total Dipole Moment    :     -0.35105      -0.68113       0.72487
                        -----------------------------------------
Magnitude (a.u.)       :      1.05480
Magnitude (Debye)      :      2.68110

Rotational constants in cm-1:     0.232230     0.073139     0.063030
Rotational constants in MHz :  6962.079716  2192.649203  1889.578947

                             ****ORCA TERMINATED NORMALLY****
TOTAL RUN TIME: 0 days 0 hours 0 minutes 40 seconds 68 msec
