                         Program Version 5.0.0 -  RELEASE  -
|  1> !LC-BLYP RIJCOSX def2-TZVP def2/J TightSCF
|  2> *xyz 0 1
|  3> C         -0.72184       -0.99951       -3.43931
|  4> C          0.28725       -1.71177       -2.52740
|  5> H          1.13178       -2.06738       -3.15940
|  6> H         -0.20414       -2.63733       -2.17048
|  7> F          0.71050       -0.92751       -1.48177
|  8> H         -1.01315       -1.65739       -4.23129
|  9> H         -0.27123       -0.12142       -3.85259
| 10> H         -1.58442       -0.72333       -2.86958
| 11> *
| 12> %MaxCore 64000
| 13>
| 14> %pal nprocs 4
| 15> end
| 16>
| 17> %scf
| 18>   MaxIter 150
| 19> end
| 20>
| 21>
| 22>                          ****END OF INPUT****

CARTESIAN COORDINATES (ANGSTROEM)
---------------------------------
  C     -0.721840   -0.999510   -3.439310
  C      0.287250   -1.711770   -2.527400
  H      1.131780   -2.067380   -3.159400
  H     -0.204140   -2.637330   -2.170480
  F      0.710500   -0.927510   -1.481770
  H     -1.013150   -1.657390   -4.231290
  H     -0.271230   -0.121420   -3.852590
  H     -1.584420   -0.723330   -2.869580

 Total Charge           Charge          ....    0
 Multiplicity           Mult            ....    1
 Number of Electrons    NEL             ....   26
 Basis Dimension        Dim             ....  123

ORBITAL ENERGIES
----------------

  NO   OCC          E(Eh)            E(eV)
   0   2.0000     -24.436955      -664.9634
   1   2.0000     -10.146980      -276.1134
   2   2.0000     -10.063209      -273.8338
   3   2.0000      -1.274728       -34.6871
   4   2.0000      -0.874721       -23.8024
   5   2.0000      -0.738750       -20.1024
   6   2.0000      -0.611228       -16.6324
   7   2.0000      -0.601571       -16.3696
   8   2.0000      -0.559824       -15.2336
   9   2.0000      -0.505555       -13.7569
  10   2.0000      -0.501728       -13.6527
  11   2.0000      -0.434778       -11.8309
  12   2.0000      -0.427103       -11.6221
  13   0.0000       0.105249         2.8640
  14   0.0000       0.144713         3.9378
  15   0.0000       0.165541         4.5046
  16   0.0000       0.167941         4.5699
  17   0.0000       0.180966         4.9243

MULLIKEN ATOMIC CHARGES
-----------------------
   0 C :   -0.379648
   1 C :   -0.011280
   2 H :    0.106705
   3 H :    0.106121
   4 F :   -0.218397
   5 H :    0.125661
   6 H :    0.135217
   7 H :    0.135622
Sum of atomic charges:    0.0000000

LOEWDIN ATOMIC CHARGES
----------------------
   0 C :   -0.324396
   1 C :   -0.386515
   2 H :    0.121346
   3 H :    0.120808
   4 F :    0.099849
   5 H :    0.126023
   6 H :    0.121319
   7 H :    0.121566

  Mayer bond orders larger than 0.100000
B(  0-C ,  1-C ) :   0.9561 B(  0-C ,  5-H ) :   0.9568 B(  0-C ,  6-H ) :   0.9699
B(  0-C ,  7-H ) :   0.9697 B(  1-C ,  2-H ) :   0.9714 B(  1-C ,  3-H ) :   0.9719
B(  1-C ,  4-F ) :   1.0252

FINAL SINGLE POINT ENERGY      -178.740006386636

DIPOLE MOMENT
-------------
                                X             Y             Z
Electronic contribution:      2.70065       1.04176       4.21789
Nuclear contribution   :     -2.97459      -1.40206      -4.79987
                        -----------------------------------------
Total Dipole Moment    :     -0.27394      -0.36030      -0.58198
                        -----------------------------------------
Magnitude (a.u.)       :      0.73726
Magnitude (Debye)      :      1.87398

Rotational constants in cm-1:     1.257024     0.302702     0.267953
Rotational constants in MHz : 37684.643733  9074.792567  8033.038070

                             ****ORCA TERMINATED NORMALLY****
TOTAL RUN TIME: 0 days 0 hours 0 minutes 11 seconds 408 msec
