                         Program Version 5.0.0 -  RELEASE  -
|  1> !LC-BLYP RIJCOSX def2-TZVP def2/J TightSCF
|  2> *xyz 0 1
|  3> C          3.48828        1.60092       -1.52204
|  4> C          4.34297        1.31342       -2.75683
|  5> C          2.81029        0.42878       -1.01420
|  6> H          2.71455        2.33145       -1.76030
|  7> H          4.09099        2.06315       -0.73338
|  8> C          3.29098       -0.41802       -0.12908
|  9> N          2.51754       -1.43202        0.23936
| 10> N          4.53549       -0.28441        0.39580
| 11> H          5.04363        0.57189        0.22290
| 12> H          4.72335       -0.73327        1.28180
| 13> H          1.93479        0.10230       -1.40379
| 14> H          1.67464       -1.50562       -0.31610
| 15> H          2.92850       -2.21850        0.72549
| 16> H          3.73575        0.86277       -3.51385
| 17> H          5.13754        0.64699       -2.49333
| 18> H          4.75374        2.22930       -3.12740
| 19> *
| 20> %MaxCore 64000
| 21>
| 22> %pal nprocs 4
| 23> end
| 24>
| 25> %scf
| 26>   MaxIter 150
| 27> end
| 28>
| 29>
| 30>                          ****END OF INPUT****

CARTESIAN COORDINATES (ANGSTROEM)
---------------------------------
  C      3.488280    1.600920   -1.522040
  C      4.342970    1.313420   -2.756830
  C      2.810290    0.428780   -1.014200
  H      2.714550    2.331450   -1.760300
  H      4.090990    2.063150   -0.733380
  C      3.290980   -0.418020   -0.129080
  N      2.517540   -1.432020    0.239360
  N      4.535490   -0.284410    0.395800
  H      5.043630    0.571890    0.222900
  H      4.723350   -0.733270    1.281800
  H      1.934790    0.102300   -1.403790
  H      1.674640   -1.505620   -0.316100
  H      2.928500   -2.218500    0.725490
  H      3.735750    0.862770   -3.513850
  H      5.137540    0.646990   -2.493330
  H      4.753740    2.229300   -3.127400

 Total Charge           Charge          ....    0
 Multiplicity           Mult            ....    1
 Number of Electrons    NEL             ....   48
 Basis Dimension        Dim             ....  246

ORBITAL ENERGIES
----------------

  NO   OCC          E(Eh)            E(eV)
   0   2.0000     -14.167911      -385.5285
   1   2.0000     -14.162761      -385.3883
   2   2.0000     -10.109079      -275.0820
   3   2.0000     -10.043751      -273.3043
   4   2.0000     -10.031328      -272.9663
   5   2.0000      -9.990119      -271.8449
   6   2.0000      -1.059686       -28.8355
   7   2.0000      -0.970830       -26.4176
   8   2.0000      -0.883462       -24.0402
   9   2.0000      -0.802143       -21.8274
  10   2.0000      -0.720801       -19.6140
  11   2.0000      -0.685326       -18.6487
  12   2.0000      -0.642076       -17.4718
  13   2.0000      -0.613899       -16.7050
  14   2.0000      -0.565255       -15.3814
  15   2.0000      -0.542028       -14.7493
  16   2.0000      -0.522587       -14.2203
  17   2.0000      -0.503903       -13.7119
  18   2.0000      -0.482269       -13.1232
  19   2.0000      -0.453931       -12.3521
  20   2.0000      -0.429919       -11.6987
  21   2.0000      -0.416692       -11.3388
  22   2.0000      -0.364898        -9.9294
  23   2.0000      -0.254955        -6.9377
  24   0.0000       0.085621         2.3299
  25   0.0000       0.115358         3.1391
  26   0.0000       0.124836         3.3970
  27   0.0000       0.144802         3.9403
  28   0.0000       0.154473         4.2034

MULLIKEN ATOMIC CHARGES
-----------------------
   0 C :   -0.332452
   1 C :   -0.328435
   2 C :   -0.302955
   3 H :    0.117268
   4 H :    0.088201
   5 C :    0.312391
   6 N :   -0.427208
   7 N :   -0.452266
   8 H :    0.232627
   9 H :    0.214074
  10 H :    0.085905
  11 H :    0.227566
  12 H :    0.215927
  13 H :    0.119174
  14 H :    0.114881
  15 H :    0.115301
Sum of atomic charges:   -0.0000000

LOEWDIN ATOMIC CHARGES
----------------------
   0 C :   -0.316205
   1 C :   -0.315064
   2 C :   -0.284866
   3 H :    0.143615
   4 H :    0.131390
   5 C :   -0.457202
   6 N :   -0.020822
   7 N :   -0.031502
   8 H :    0.171048
   9 H :    0.161588
  10 H :    0.123639
  11 H :    0.182272
  12 H :    0.163673
  13 H :    0.118827
  14 H :    0.116766
  15 H :    0.112844

  Mayer bond orders larger than 0.100000
B(  0-C ,  1-C ) :   0.9201 B(  0-C ,  2-C ) :   0.9861 B(  0-C ,  3-H ) :   0.9968
B(  0-C ,  4-H ) :   0.9946 B(  1-C , 13-H ) :   0.9814 B(  1-C , 14-H ) :   0.9743
B(  1-C , 15-H ) :   0.9857 B(  2-C ,  5-C ) :   1.6326 B(  2-C , 10-H ) :   0.9831
B(  5-C ,  6-N ) :   1.1540 B(  5-C ,  7-N ) :   1.1346 B(  6-N , 11-H ) :   0.9275
B(  6-N , 12-H ) :   0.9311 B(  7-N ,  8-H ) :   0.9292 B(  7-N ,  9-H ) :   0.9306

FINAL SINGLE POINT ENERGY      -267.299662263689

DIPOLE MOMENT
-------------
                                X             Y             Z
Electronic contribution:     -1.25756      -2.95558       3.69276
Nuclear contribution   :      1.44676       2.38443      -3.07370
                        -----------------------------------------
Total Dipole Moment    :      0.18920      -0.57116       0.61906
                        -----------------------------------------
Magnitude (a.u.)       :      0.86328
Magnitude (Debye)      :      2.19428

Rotational constants in cm-1:     0.235977     0.073199     0.063283
Rotational constants in MHz :  7074.404583  2194.453291  1897.179599

                             ****ORCA TERMINATED NORMALLY****
TOTAL RUN TIME: 0 days 0 hours 0 minutes 45 seconds 586 msec
