                         Program Version 5.0.0 -  RELEASE  -
|  1> !LC-BLYP RIJCOSX def2-TZVP def2/J TightSCF
|  2> *xyz 0 1
|  3> C          3.48828        1.60092       -1.52204
|  4> C          4.34297        1.31342       -2.75683
|  5> N          2.81029        0.42878       -1.01420
|  6> H          2.71455        2.33145       -1.76030
|  7> H          4.09099        2.06315       -0.73338
|  8> C          3.29098       -0.41802       -0.12908
|  9> C          2.51754       -1.43202        0.23936
| 10> N          4.53549       -0.28441        0.39580
| 11> H          5.04363        0.57189        0.22290
| 12> H          4.72335       -0.73327        1.28180
| 13> H          1.93479        0.10230       -1.40379
| 14> H          1.67464       -1.50562       -0.31610
| 15> H          2.92850       -2.21850        0.72549
| 16> H          3.73575        0.86277       -3.51385
| 17> H          5.13754        0.64699       -2.49333
| 18> H          4.75374        2.22930       -3.12740
| 19> *
| 20> %MaxCore 64000
| 21>
| 22> %pal nprocs 4
| 23> end
| 24>
| 25> %scf
| 26>   MaxIter 150
| 27> end
| 28>
| 29>
| 30>                          ****END OF INPUT****

CARTESIAN COORDINATES (ANGSTROEM)
---------------------------------
  C      3.488280    1.600920   -1.522040
  C      4.342970    1.313420   -2.756830
  N      2.810290    0.428780   -1.014200
  H      2.714550    2.331450   -1.760300
  H      4.090990    2.063150   -0.733380
  C      3.290980   -0.418020   -0.129080
  C      2.517540   -1.432020    0.239360
  N      4.535490   -0.284410    0.395800
  H      5.043630    0.571890    0.222900
  H      4.723350   -0.733270    1.281800
  H      1.934790    0.102300   -1.403790
  H      1.674640   -1.505620   -0.316100
  H      2.928500   -2.218500    0.725490
  H      3.735750    0.862770   -3.513850
  H      5.137540    0.646990   -2.493330
  H      4.753740    2.229300   -3.127400

 Total Charge           Charge          ....    0
 Multiplicity           Mult            ....    1
 Number of Electrons    NEL             ....   48
 Basis Dimension        Dim             ....  246

ORBITAL ENERGIES
----------------

  NO   OCC          E(Eh)            E(eV)
   0   2.0000     -14.169980      -385.5848
   1   2.0000     -14.168356      -385.5406
   2   2.0000     -10.114383      -275.2264
   3   2.0000     -10.111368      -275.1443
   4   2.0000     -10.058223      -273.6982
   5   2.0000      -9.975677      -271.4520
   6   2.0000      -1.071739       -29.1635
   7   2.0000      -0.985225       -26.8093
   8   2.0000      -0.885419       -24.0935
   9   2.0000      -0.809608       -22.0306
  10   2.0000      -0.737597       -20.0710
  11   2.0000      -0.704646       -19.1744
  12   2.0000      -0.642139       -17.4735
  13   2.0000      -0.605246       -16.4696
  14   2.0000      -0.580323       -15.7914
  15   2.0000      -0.543898       -14.8002
  16   2.0000      -0.536966       -14.6116
  17   2.0000      -0.507095       -13.7988
  18   2.0000      -0.477818       -13.0021
  19   2.0000      -0.471868       -12.8402
  20   2.0000      -0.466927       -12.7057
  21   2.0000      -0.455833       -12.4038
  22   2.0000      -0.356814        -9.7094
  23   2.0000      -0.255665        -6.9570
  24   0.0000       0.084599         2.3021
  25   0.0000       0.111612         3.0371
  26   0.0000       0.122347         3.3292
  27   0.0000       0.141507         3.8506
  28   0.0000       0.154881         4.2145

MULLIKEN ATOMIC CHARGES
-----------------------
   0 C :   -0.253721
   1 C :   -0.314013
   2 N :   -0.239115
   3 H :    0.139586
   4 H :    0.121932
   5 C :    0.334128
   6 C :   -0.528532
   7 N :   -0.455055
   8 H :    0.214751
   9 H :    0.241307
  10 H :    0.213904
  11 H :    0.053006
  12 H :    0.097439
  13 H :    0.123980
  14 H :    0.126876
  15 H :    0.123527
Sum of atomic charges:    0.0000000

LOEWDIN ATOMIC CHARGES
----------------------
   0 C :   -0.328588
   1 C :   -0.318517
   2 N :    0.128310
   3 H :    0.136702
   4 H :    0.130841
   5 C :   -0.459594
   6 C :   -0.357334
   7 N :   -0.026539
   8 H :    0.158340
   9 H :    0.177460
  10 H :    0.198773
  11 H :    0.099688
  12 H :    0.099403
  13 H :    0.120328
  14 H :    0.120667
  15 H :    0.120060

  Mayer bond orders larger than 0.100000
B(  0-C ,  1-C ) :   0.9120 B(  0-C ,  2-N ) :   0.9379 B(  0-C ,  3-H ) :   0.9840
B(  0-C ,  4-H ) :   0.9882 B(  1-C , 13-H ) :   0.9735 B(  1-C , 14-H ) :   0.9680
B(  1-C , 15-H ) :   0.9751 B(  2-N ,  5-C ) :   1.1872 B(  2-N , 10-H ) :   0.9290
B(  5-C ,  6-C ) :   1.6313 B(  5-C ,  7-N ) :   1.1261 B(  6-C , 11-H ) :   1.0151
B(  6-C , 12-H ) :   1.0103 B(  7-N ,  8-H ) :   0.9336 B(  7-N ,  9-H ) :   0.9283

FINAL SINGLE POINT ENERGY      -267.287730953026

DIPOLE MOMENT
-------------
                                X             Y             Z
Electronic contribution:     -0.85382      -1.02424       2.42518
Nuclear contribution   :      1.38466       1.98967      -2.80776
                        -----------------------------------------
Total Dipole Moment    :      0.53083       0.96543      -0.38258
                        -----------------------------------------
Magnitude (a.u.)       :      1.16628
Magnitude (Debye)      :      2.96445

Rotational constants in cm-1:     0.235618     0.075969     0.065309
Rotational constants in MHz :  7063.646698  2277.495424  1957.925383

                             ****ORCA TERMINATED NORMALLY****
TOTAL RUN TIME: 0 days 0 hours 0 minutes 46 seconds 370 msec
