                         Program Version 5.0.0 -  RELEASE  -
|  1> !LC-BLYP RIJCOSX def2-TZVP def2/J TightSCF
|  2> *xyz 0 1
|  3> C          3.48828        1.60092       -1.52204
|  4> C          4.34297        1.31342       -2.75683
|  5> N          2.81029        0.42878       -1.01420
|  6> H          2.71455        2.33145       -1.76030
|  7> H          4.09099        2.06315       -0.73338
|  8> C          3.29098       -0.41802       -0.12908
|  9> N          2.51754       -1.43202        0.23936
| 10> C          4.53549       -0.28441        0.39580
| 11> H          5.04363        0.57189        0.22290
| 12> H          4.72335       -0.73327        1.28180
| 13> H          1.93479        0.10230       -1.40379
| 14> H          1.67464       -1.50562       -0.31610
| 15> H          2.92850       -2.21850        0.72549
| 16> H          3.73575        0.86277       -3.51385
| 17> H          5.13754        0.64699       -2.49333
| 18> H          4.75374        2.22930       -3.12740
| 19> *
| 20> %MaxCore 64000
| 21>
| 22> %pal nprocs 4
| 23> end
| 24>
| 25> %scf
| 26>   MaxIter 150
| 27> end
| 28>
| 29>
| 30>                          ****END OF INPUT****

CARTESIAN COORDINATES (ANGSTROEM)
---------------------------------
  C      3.488280    1.600920   -1.522040
  C      4.342970    1.313420   -2.756830
  N      2.810290    0.428780   -1.014200
  H      2.714550    2.331450   -1.760300
  H      4.090990    2.063150   -0.733380
  C      3.290980   -0.418020   -0.129080
  N      2.517540   -1.432020    0.239360
  C      4.535490   -0.284410    0.395800
  H      5.043630    0.571890    0.222900
  H      4.723350   -0.733270    1.281800
  H      1.934790    0.102300   -1.403790
  H      1.674640   -1.505620   -0.316100
  H      2.928500   -2.218500    0.725490
  H      3.735750    0.862770   -3.513850
  H      5.137540    0.646990   -2.493330
  H      4.753740    2.229300   -3.127400

 Total Charge           Charge          ....    0
 Multiplicity           Mult            ....    1
 Number of Electrons    NEL             ....   48
 Basis Dimension        Dim             ....  246

ORBITAL ENERGIES
----------------

  NO   OCC          E(Eh)            E(eV)
   0   2.0000     -14.175989      -385.7483
   1   2.0000     -14.170263      -385.5924
   2   2.0000     -10.117320      -275.3063
   3   2.0000     -10.103180      -274.9215
   4   2.0000     -10.050006      -273.4746
   5   2.0000      -9.976379      -271.4711
   6   2.0000      -1.080482       -29.4014
   7   2.0000      -0.990954       -26.9652
   8   2.0000      -0.864835       -23.5334
   9   2.0000      -0.813680       -22.1414
  10   2.0000      -0.752571       -20.4785
  11   2.0000      -0.668521       -18.1914
  12   2.0000      -0.648811       -17.6550
  13   2.0000      -0.633353       -17.2344
  14   2.0000      -0.570972       -15.5369
  15   2.0000      -0.544997       -14.8301
  16   2.0000      -0.534138       -14.5346
  17   2.0000      -0.495557       -13.4848
  18   2.0000      -0.479202       -13.0397
  19   2.0000      -0.470267       -12.7966
  20   2.0000      -0.460692       -12.5361
  21   2.0000      -0.444821       -12.1042
  22   2.0000      -0.350484        -9.5372
  23   2.0000      -0.258655        -7.0384
  24   0.0000       0.080035         2.1779
  25   0.0000       0.113805         3.0968
  26   0.0000       0.126590         3.4447
  27   0.0000       0.144178         3.9233
  28   0.0000       0.158783         4.3207

MULLIKEN ATOMIC CHARGES
-----------------------
   0 C :   -0.213042
   1 C :   -0.337514
   2 N :   -0.248038
   3 H :    0.132019
   4 H :    0.145623
   5 C :    0.307988
   6 N :   -0.414481
   7 C :   -0.553602
   8 H :    0.077088
   9 H :    0.092990
  10 H :    0.178229
  11 H :    0.195312
  12 H :    0.248779
  13 H :    0.110801
  14 H :    0.152975
  15 H :    0.124873
Sum of atomic charges:   -0.0000000

LOEWDIN ATOMIC CHARGES
----------------------
   0 C :   -0.311791
   1 C :   -0.316366
   2 N :    0.126326
   3 H :    0.133999
   4 H :    0.142073
   5 C :   -0.470337
   6 N :   -0.010789
   7 C :   -0.376567
   8 H :    0.096075
   9 H :    0.097457
  10 H :    0.179560
  11 H :    0.163910
  12 H :    0.181958
  13 H :    0.116456
  14 H :    0.127199
  15 H :    0.120837

  Mayer bond orders larger than 0.100000
B(  0-C ,  1-C ) :   0.9221 B(  0-C ,  2-N ) :   0.9152 B(  0-C ,  3-H ) :   0.9839
B(  0-C ,  4-H ) :   0.9777 B(  1-C , 13-H ) :   0.9740 B(  1-C , 14-H ) :   0.9698
B(  1-C , 15-H ) :   0.9778 B(  2-N ,  5-C ) :   1.1869 B(  2-N , 10-H ) :   0.9365
B(  5-C ,  6-N ) :   1.1521 B(  5-C ,  7-C ) :   1.6163 B(  6-N , 11-H ) :   0.9368
B(  6-N , 12-H ) :   0.9240 B(  7-C ,  8-H ) :   1.0196 B(  7-C ,  9-H ) :   1.0004

FINAL SINGLE POINT ENERGY      -267.287643376431

DIPOLE MOMENT
-------------
                                X             Y             Z
Electronic contribution:     -2.88231      -2.31301       2.17148
Nuclear contribution   :      1.81275       2.23313      -2.77458
                        -----------------------------------------
Total Dipole Moment    :     -1.06955      -0.07988      -0.60310
                        -----------------------------------------
Magnitude (a.u.)       :      1.23047
Magnitude (Debye)      :      3.12761

Rotational constants in cm-1:     0.245202     0.073668     0.064348
Rotational constants in MHz :  7350.977980  2208.513334  1929.108541

                             ****ORCA TERMINATED NORMALLY****
TOTAL RUN TIME: 0 days 0 hours 0 minutes 41 seconds 127 msec
