                         Program Version 5.0.0 -  RELEASE  -
|  1> !LC-BLYP RIJCOSX def2-TZVP def2/J TightSCF xyzfile
|  2>
|  3> *xyzfile 0 1 D3.xyz
|  4>
|  5> %MaxCore 64000
|  6>
|  7> %pal nprocs 18
|  8> end
|  9>
| 10> %scf
| 11>   MaxIter 150
| 12> end
| 13>
| 14>
| 15>                          ****END OF INPUT****

CARTESIAN COORDINATES (ANGSTROEM)
---------------------------------
  C      3.488276    1.600919   -1.522040
  C      4.342970    1.313419   -2.756826
  N      2.810285    0.428783   -1.014196
  H      5.132033    0.604994   -2.484466
  C      3.535896    0.749253   -3.924604
  H      4.841247    2.242136   -3.054083
  H      2.991617   -0.132199   -3.574137
  H      4.225505    0.392784   -4.695962
  C      2.564776    1.750890   -4.544523
  H      1.918749    2.171679   -3.769419
  C      1.686235    1.161657   -5.650111
  H      3.132494    2.594775   -4.951604
  C      0.839616   -0.037582   -5.220473
  H      2.323886    0.866395   -6.490796
  H      1.029518    1.951850   -6.029329
  C     -0.151019    0.254955   -4.094256
  H      1.499442   -0.857141   -4.922958
  H      0.290097   -0.410143   -6.091131
  H      0.328265    0.833022   -3.299125
  C     -0.721843   -0.999513   -3.439309
  H     -0.957367    0.884951   -4.485450
  H     -1.083403   -1.697555   -4.205656
  H     -1.581056   -0.723848   -2.820490
  C      0.287250   -1.711771   -2.527405
  H      1.131780   -2.067380   -3.159396
  H     -0.204137   -2.637326   -2.170480
  F      0.710505   -0.927506   -1.481767
  H      2.714548    2.331455   -1.760302
  H      4.090991    2.063151   -0.733382
  C      3.290978   -0.418021   -0.129083
  N      2.517536   -1.432017    0.239360
  C      4.535490   -0.284410    0.395800
  H      5.043627    0.571888    0.222899
  H      4.723346   -0.733273    1.281800
  H      1.934787    0.102305   -1.403788
  H      1.674638   -1.505616   -0.316095
  H      2.928503   -2.218502    0.725494

 Total Charge           Charge          ....    0
 Multiplicity           Mult            ....    1
 Number of Electrons    NEL             ....  112
 Basis Dimension        Dim             ....  572

ORBITAL ENERGIES
----------------

  NO   OCC          E(Eh)            E(eV)
   0   2.0000     -24.497785      -666.6186
   1   2.0000     -14.147140      -384.9633
   2   2.0000     -14.140411      -384.7801
   3   2.0000     -10.175900      -276.9003
   4   2.0000     -10.097723      -274.7730
   5   2.0000     -10.094604      -274.6881
   6   2.0000     -10.086378      -274.4643
   7   2.0000     -10.079470      -274.2763
   8   2.0000     -10.073315      -274.1088
   9   2.0000     -10.068200      -273.9696
  10   2.0000     -10.062326      -273.8098
  11   2.0000     -10.058386      -273.7026
  12   2.0000     -10.052527      -273.5432
  13   2.0000      -9.958703      -270.9901
  14   2.0000      -1.342411       -36.5289
  15   2.0000      -1.058318       -28.7983
  16   2.0000      -0.970746       -26.4153
  17   2.0000      -0.944474       -25.7005
  18   2.0000      -0.913609       -24.8606
  19   2.0000      -0.879070       -23.9207
  20   2.0000      -0.836526       -22.7630
  21   2.0000      -0.804727       -21.8977
  22   2.0000      -0.795151       -21.6372
  23   2.0000      -0.764032       -20.7904
  24   2.0000      -0.730215       -19.8702
  25   2.0000      -0.703636       -19.1469
  26   2.0000      -0.682382       -18.5686
  27   2.0000      -0.668593       -18.1933
  28   2.0000      -0.663705       -18.0603
  29   2.0000      -0.632899       -17.2221
  30   2.0000      -0.627004       -17.0616
  31   2.0000      -0.615363       -16.7449
  32   2.0000      -0.598232       -16.2787
  33   2.0000      -0.585408       -15.9298
  34   2.0000      -0.569097       -15.4859
  35   2.0000      -0.558780       -15.2052
  36   2.0000      -0.545713       -14.8496
  37   2.0000      -0.540675       -14.7125
  38   2.0000      -0.532828       -14.4990
  39   2.0000      -0.512146       -13.9362
  40   2.0000      -0.505486       -13.7550
  41   2.0000      -0.485902       -13.2221
  42   2.0000      -0.480388       -13.0720
  43   2.0000      -0.472815       -12.8659
  44   2.0000      -0.472377       -12.8540
  45   2.0000      -0.460042       -12.5184
  46   2.0000      -0.450553       -12.2602
  47   2.0000      -0.447285       -12.1713
  48   2.0000      -0.438455       -11.9310
  49   2.0000      -0.433862       -11.8060
  50   2.0000      -0.428009       -11.6467
  51   2.0000      -0.413394       -11.2490
  52   2.0000      -0.411101       -11.1866
  53   2.0000      -0.404122       -10.9967
  54   2.0000      -0.327890        -8.9223
  55   2.0000      -0.240520        -6.5449
  56   0.0000       0.082736         2.2514
  57   0.0000       0.096598         2.6286
  58   0.0000       0.104807         2.8520
  59   0.0000       0.110084         2.9955
  60   0.0000       0.122936         3.3452

MULLIKEN ATOMIC CHARGES
-----------------------
   0 C :   -0.316372
   1 C :   -0.142854
   2 N :   -0.251140
   3 H :    0.151554
   4 C :   -0.290453
   5 H :    0.116576
   6 H :    0.120665
   7 H :    0.131478
   8 C :   -0.295472
   9 H :    0.134325
  10 C :   -0.211098
  11 H :    0.131722
  12 C :   -0.314078
  13 H :    0.132818
  14 H :    0.130192
  15 C :   -0.261538
  16 H :    0.137733
  17 H :    0.137264
  18 H :    0.140087
  19 C :   -0.243857
  20 H :    0.140366
  21 H :    0.141619
  22 H :    0.147673
  23 C :   -0.078992
  24 H :    0.144275
  25 H :    0.156393
  26 F :   -0.236349
  27 H :    0.157456
  28 H :    0.160547
  29 C :    0.302216
  30 N :   -0.440627
  31 C :   -0.575981
  32 H :    0.074110
  33 H :    0.087261
  34 H :    0.224571
  35 H :    0.223400
  36 H :    0.234511
Sum of atomic charges:   -0.0000000

LOEWDIN ATOMIC CHARGES
----------------------
   0 C :   -0.293474
   1 C :   -0.275371
   2 N :    0.125165
   3 H :    0.148821
   4 C :   -0.279596
   5 H :    0.140347
   6 H :    0.134442
   7 H :    0.141796
   8 C :   -0.280053
   9 H :    0.134502
  10 C :   -0.276669
  11 H :    0.142480
  12 C :   -0.280343
  13 H :    0.142514
  14 H :    0.141508
  15 C :   -0.277179
  16 H :    0.135732
  17 H :    0.141524
  18 H :    0.142067
  19 C :   -0.281576
  20 H :    0.144599
  21 H :    0.152030
  22 H :    0.146856
  23 C :   -0.357506
  24 H :    0.132618
  25 H :    0.135855
  26 F :    0.151853
  27 H :    0.132986
  28 H :    0.143492
  29 C :   -0.467221
  30 N :   -0.020980
  31 C :   -0.391133
  32 H :    0.093742
  33 H :    0.094812
  34 H :    0.161234
  35 H :    0.145855
  36 H :    0.174269

  Mayer bond orders larger than 0.100000
B(  0-C ,  1-C ) :   0.8786 B(  0-C ,  2-N ) :   0.9056 B(  0-C , 27-H ) :   1.0039
B(  0-C , 28-H ) :   0.9881 B(  1-C ,  3-H ) :   0.9738 B(  1-C ,  4-C ) :   0.9388
B(  1-C ,  5-H ) :   0.9863 B(  2-N , 29-C ) :   1.2078 B(  2-N , 34-H ) :   0.8939
B(  4-C ,  6-H ) :   0.9843 B(  4-C ,  7-H ) :   0.9810 B(  4-C ,  8-C ) :   0.8752
B(  8-C ,  9-H ) :   0.9952 B(  8-C , 10-C ) :   0.9277 B(  8-C , 11-H ) :   0.9805
B( 10-C , 12-C ) :   0.9279 B( 10-C , 13-H ) :   0.9863 B( 10-C , 14-H ) :   0.9920
B( 12-C , 15-C ) :   0.8723 B( 12-C , 16-H ) :   0.9969 B( 12-C , 17-H ) :   0.9786
B( 15-C , 18-H ) :   0.9936 B( 15-C , 19-C ) :   0.9296 B( 15-C , 20-H ) :   0.9744
B( 19-C , 21-H ) :   0.9630 B( 19-C , 22-H ) :   0.9799 B( 19-C , 23-C ) :   0.9539
B( 23-C , 24-H ) :   0.9756 B( 23-C , 25-H ) :   0.9715 B( 23-C , 26-F ) :   0.8689
B( 29-C , 30-N ) :   1.1580 B( 29-C , 31-C ) :   1.5829 B( 30-N , 35-H ) :   0.9067
B( 30-N , 36-H ) :   0.9297 B( 31-C , 32-H ) :   1.0167 B( 31-C , 33-H ) :   1.0004

FINAL SINGLE POINT ENERGY      -640.888041324372

DIPOLE MOMENT
-------------
                                X             Y             Z
Electronic contribution:     -3.27770      -4.33466       9.05777
Nuclear contribution   :      1.49917       3.80845     -10.61369
                        -----------------------------------------
Total Dipole Moment    :     -1.77853      -0.52621      -1.55592
                        -----------------------------------------
Magnitude (a.u.)       :      2.42094
Magnitude (Debye)      :      6.15355

Rotational constants in cm-1:     0.026547     0.016542     0.011018
Rotational constants in MHz :   795.873737   495.912559   330.323979

                             ****ORCA TERMINATED NORMALLY****
TOTAL RUN TIME: 0 days 0 hours 1 minutes 17 seconds 844 msec
