                         Program Version 5.0.0 -  RELEASE  -
|  1> !BLYP D3BJ RIJCOSX def2-SVPD def2/J TightSCF
|  2> *xyz -1 1
|  3> C         -0.95121        1.33498       -0.97250
|  4> C         -0.77455        2.78833       -0.54394
|  5> H         -1.35261        3.45937       -1.19259
|  6> H         -1.17101        2.90233        0.46997
|  7> C          0.69721        3.22791       -0.52513
|  8> O          1.48929        2.37470        0.19919
|  9> H          0.71600        4.26403       -0.13077
| 10> H          1.03615        3.33092       -1.58367
| 11> H         -0.56808        1.20618       -1.96322
| 12> H         -1.99081        1.08225       -0.95647
| 13> H         -0.41866        0.69710       -0.29841
| 14> *
| 15>
| 16> %MaxCore 64000
| 17> %pal nprocs 4
| 18> end
| 19>
| 20> %scf
| 21>   MaxIter 150
| 22> end
| 23>
| 24>
| 25>                          ****END OF INPUT****

CARTESIAN COORDINATES (ANGSTROEM)
---------------------------------
  C     -0.951210    1.334980   -0.972500
  C     -0.774550    2.788330   -0.543940
  H     -1.352610    3.459370   -1.192590
  H     -1.171010    2.902330    0.469970
  C      0.697210    3.227910   -0.525130
  O      1.489290    2.374700    0.199190
  H      0.716000    4.264030   -0.130770
  H      1.036150    3.330920   -1.583670
  H     -0.568080    1.206180   -1.963220
  H     -1.990810    1.082250   -0.956470
  H     -0.418660    0.697100   -0.298410

 Total Charge           Charge          ....   -1
 Multiplicity           Mult            ....    1
 Number of Electrons    NEL             ....   34
 Basis Dimension        Dim             ....  139

ORBITAL ENERGIES
----------------

  NO   OCC          E(Eh)            E(eV)
   0   2.0000     -18.474133      -502.7067
   1   2.0000      -9.741318      -265.0747
   2   2.0000      -9.738370      -264.9945
   3   2.0000      -9.731367      -264.8040
   4   2.0000      -0.593197       -16.1417
   5   2.0000      -0.498701       -13.5704
   6   2.0000      -0.393235       -10.7005
   7   2.0000      -0.298595        -8.1252
   8   2.0000      -0.222347        -6.0504
   9   2.0000      -0.214138        -5.8270
  10   2.0000      -0.168909        -4.5962
  11   2.0000      -0.142293        -3.8720
  12   2.0000      -0.117989        -3.2106
  13   2.0000      -0.107433        -2.9234
  14   2.0000      -0.070529        -1.9192
  15   2.0000       0.062941         1.7127
  16   2.0000       0.067164         1.8276
  17   0.0000       0.149594         4.0707
  18   0.0000       0.173556         4.7227
  19   0.0000       0.189293         5.1509
  20   0.0000       0.212319         5.7775
  21   0.0000       0.230605         6.2751

MULLIKEN ATOMIC CHARGES
-----------------------
   0 C :    0.984260
   1 C :   -0.310554
   2 H :   -0.206406
   3 H :   -0.174881
   4 C :    0.603317
   5 O :   -0.806699
   6 H :   -0.301682
   7 H :   -0.224410
   8 H :   -0.189704
   9 H :   -0.236795
  10 H :   -0.136446
Sum of atomic charges:   -1.0000000

LOEWDIN ATOMIC CHARGES
----------------------
   0 C :    0.094992
   1 C :   -0.109046
   2 H :   -0.022434
   3 H :   -0.007410
   4 C :   -0.218281
   5 O :   -0.515065
   6 H :   -0.045241
   7 H :   -0.038849
   8 H :   -0.040153
   9 H :   -0.057020
  10 H :   -0.041492

  Mayer bond orders larger than 0.100000
B(  0-C ,  1-C ) :   1.2696 B(  0-C ,  2-H ) :   0.1106 B(  0-C ,  3-H ) :   0.1143
B(  0-C ,  8-H ) :   0.7289 B(  0-C ,  9-H ) :   0.6831 B(  0-C , 10-H ) :   0.7415
B(  1-C ,  2-H ) :   0.9718 B(  1-C ,  3-H ) :   0.8849 B(  1-C ,  4-C ) :   1.0458
B(  1-C ,  5-O ) :   0.2063 B(  1-C ,  6-H ) :   0.2104 B(  1-C ,  7-H ) :   0.1956
B(  1-C ,  8-H ) :   0.2572 B(  1-C ,  9-H ) :   0.2740 B(  1-C , 10-H ) :   0.2638
B(  2-H ,  4-C ) :   0.1360 B(  3-H ,  4-C ) :   0.1566 B(  4-C ,  5-O ) :   1.1734
B(  4-C ,  6-H ) :   0.8786 B(  4-C ,  7-H ) :   0.8871 B(  6-H ,  7-H ) :   0.1085

Dispersion correction           -0.013598573
FINAL SINGLE POINT ENERGY      -193.535754255158

DIPOLE MOMENT
-------------
                                X             Y             Z
Electronic contribution:      2.65192      -0.03873       1.52097
Nuclear contribution   :     -4.35230      -0.04018      -2.29108
                        -----------------------------------------
Total Dipole Moment    :     -1.70038      -0.07892      -0.77012
                        -----------------------------------------
Magnitude (a.u.)       :      1.86832
Magnitude (Debye)      :      4.74889

Rotational constants in cm-1:     0.489965     0.184028     0.151025
Rotational constants in MHz : 14688.769521  5517.006179  4527.605157

                             ****ORCA TERMINATED NORMALLY****
TOTAL RUN TIME: 0 days 0 hours 0 minutes 4 seconds 596 msec
