                         Program Version 5.0.0 -  RELEASE  -
|  1> !BLYP D3BJ RIJCOSX def2-SVPD def2/J TightSCF
|  2> *xyz 1 1
|  3> C          3.95643        0.50147       -0.37910
|  4> H          3.16840        0.02920        0.20738
|  5> N          3.80389        1.96157       -0.15675
|  6> C          3.84232        0.14849       -1.85406
|  7> H          4.92323        0.17798        0.00937
|  8> H          4.62002        0.69450       -2.40215
|  9> H          4.09601       -0.91093       -1.95510
| 10> C          2.47562        0.41271       -2.48538
| 11> H          4.20643        2.24441        0.74536
| 12> H          2.80827        2.21132       -0.09610
| 13> H          4.28076        2.50155       -0.89104
| 14> H          2.49958        0.13290       -3.51787
| 15> H          2.23992        1.45318       -2.40319
| 16> H          1.73061       -0.16300       -1.97702
| 17> *
| 18>
| 19> %MaxCore 64000
| 20> %pal nprocs 4
| 21> end
| 22>
| 23> %scf
| 24>   MaxIter 150
| 25> end
| 26>
| 27>
| 28>                          ****END OF INPUT****

CARTESIAN COORDINATES (ANGSTROEM)
---------------------------------
  C      3.956430    0.501470   -0.379100
  H      3.168400    0.029200    0.207380
  N      3.803890    1.961570   -0.156750
  C      3.842320    0.148490   -1.854060
  H      4.923230    0.177980    0.009370
  H      4.620020    0.694500   -2.402150
  H      4.096010   -0.910930   -1.955100
  C      2.475620    0.412710   -2.485380
  H      4.206430    2.244410    0.745360
  H      2.808270    2.211320   -0.096100
  H      4.280760    2.501550   -0.891040
  H      2.499580    0.132900   -3.517870
  H      2.239920    1.453180   -2.403190
  H      1.730610   -0.163000   -1.977020

 Total Charge           Charge          ....    1
 Multiplicity           Mult            ....    1
 Number of Electrons    NEL             ....   34
 Basis Dimension        Dim             ....  160

ORBITAL ENERGIES
----------------

  NO   OCC          E(Eh)            E(eV)
   0   2.0000     -14.352959      -390.5639
   1   2.0000     -10.168539      -276.7000
   2   2.0000     -10.101693      -274.8810
   3   2.0000     -10.069041      -273.9925
   4   2.0000      -1.118101       -30.4251
   5   2.0000      -0.890773       -24.2392
   6   2.0000      -0.807762       -21.9803
   7   2.0000      -0.749825       -20.4038
   8   2.0000      -0.732552       -19.9338
   9   2.0000      -0.707385       -19.2489
  10   2.0000      -0.637210       -17.3394
  11   2.0000      -0.581126       -15.8133
  12   2.0000      -0.558789       -15.2054
  13   2.0000      -0.538590       -14.6558
  14   2.0000      -0.482263       -13.1230
  15   2.0000      -0.476594       -12.9688
  16   2.0000      -0.469633       -12.7794
  17   0.0000      -0.216365        -5.8876
  18   0.0000      -0.163069        -4.4373
  19   0.0000      -0.159605        -4.3431
  20   0.0000      -0.141711        -3.8562
  21   0.0000      -0.115609        -3.1459

MULLIKEN ATOMIC CHARGES
-----------------------
   0 C :    0.876168
   1 H :   -0.207379
   2 N :   -0.615353
   3 C :   -0.069276
   4 H :   -0.223347
   5 H :   -0.180829
   6 H :   -0.229134
   7 C :    1.156101
   8 H :    0.277932
   9 H :    0.346425
  10 H :    0.371224
  11 H :   -0.185174
  12 H :   -0.214619
  13 H :   -0.102740
Sum of atomic charges:    1.0000000

LOEWDIN ATOMIC CHARGES
----------------------
   0 C :    0.088357
   1 H :    0.050330
   2 N :    0.344758
   3 C :   -0.039944
   4 H :    0.049964
   5 H :    0.030454
   6 H :    0.042679
   7 C :    0.164208
   8 H :    0.101965
   9 H :    0.099341
  10 H :    0.101732
  11 H :    0.001478
  12 H :   -0.029350
  13 H :   -0.005972

  Mayer bond orders larger than 0.100000
B(  0-C ,  1-H ) :   0.7516 B(  0-C ,  2-N ) :   0.8254 B(  0-C ,  3-C ) :   1.1638
B(  0-C ,  4-H ) :   0.8111 B(  0-C ,  5-H ) :   0.1297 B(  0-C ,  6-H ) :   0.1590
B(  1-H ,  2-N ) :   0.1699 B(  1-H ,  3-C ) :   0.1150 B(  2-N ,  8-H ) :   0.8119
B(  2-N ,  9-H ) :   0.7846 B(  2-N , 10-H ) :   0.7056 B(  3-C ,  5-H ) :   0.8447
B(  3-C ,  6-H ) :   0.8828 B(  3-C ,  7-C ) :   1.2913 B(  3-C , 11-H ) :   0.2773
B(  3-C , 12-H ) :   0.2492 B(  3-C , 13-H ) :   0.2447 B(  7-C , 11-H ) :   0.6718
B(  7-C , 12-H ) :   0.7122 B(  7-C , 13-H ) :   0.7092

Dispersion correction           -0.018876922
FINAL SINGLE POINT ENERGY      -174.638534112105

DIPOLE MOMENT
-------------
                                X             Y             Z
Electronic contribution:      1.00967       1.14885       1.80961
Nuclear contribution   :     -0.57302       0.26376      -0.39709
                        -----------------------------------------
Total Dipole Moment    :      0.43665       1.41261       1.41252
                        -----------------------------------------
Magnitude (a.u.)       :      2.04483
Magnitude (Debye)      :      5.19755

Rotational constants in cm-1:     0.449370     0.157244     0.134525
Rotational constants in MHz : 13471.775278  4714.062641  4032.958796

                             ****ORCA TERMINATED NORMALLY****
TOTAL RUN TIME: 0 days 0 hours 0 minutes 4 seconds 849 msec
