                         Program Version 5.0.0 -  RELEASE  -
|  1> !BLYP D3BJ RIJCOSX def2-SVPD def2/J TightSCF
|  2> *xyz 0 1
|  3> C         -0.95121        1.33498       -0.97250
|  4> C         -0.77455        2.78833       -0.54394
|  5> H         -1.35261        3.45937       -1.19259
|  6> H         -1.17101        2.90233        0.46997
|  7> C          0.69721        3.22791       -0.52513
|  8> F          1.48929        2.37470        0.19919
|  9> H          0.71600        4.26403       -0.13077
| 10> H          1.03615        3.33092       -1.58367
| 11> H         -0.56808        1.20618       -1.96322
| 12> H         -1.99081        1.08225       -0.95647
| 13> H         -0.41866        0.69710       -0.29841
| 14> *
| 15>
| 16> %MaxCore 64000
| 17> %pal nprocs 4
| 18> end
| 19>
| 20> %scf
| 21>   MaxIter 150
| 22> end
| 23>
| 24>
| 25>                          ****END OF INPUT****

CARTESIAN COORDINATES (ANGSTROEM)
---------------------------------
  C     -0.951210    1.334980   -0.972500
  C     -0.774550    2.788330   -0.543940
  H     -1.352610    3.459370   -1.192590
  H     -1.171010    2.902330    0.469970
  C      0.697210    3.227910   -0.525130
  F      1.489290    2.374700    0.199190
  H      0.716000    4.264030   -0.130770
  H      1.036150    3.330920   -1.583670
  H     -0.568080    1.206180   -1.963220
  H     -1.990810    1.082250   -0.956470
  H     -0.418660    0.697100   -0.298410

 Total Charge           Charge          ....    0
 Multiplicity           Mult            ....    1
 Number of Electrons    NEL             ....   34
 Basis Dimension        Dim             ....  139

ORBITAL ENERGIES
----------------

  NO   OCC          E(Eh)            E(eV)
   0   2.0000     -24.295828      -661.1231
   1   2.0000      -9.999391      -272.0973
   2   2.0000      -9.928470      -270.1674
   3   2.0000      -9.909735      -269.6576
   4   2.0000      -1.079073       -29.3631
   5   2.0000      -0.704331       -19.1658
   6   2.0000      -0.612806       -16.6753
   7   2.0000      -0.527124       -14.3438
   8   2.0000      -0.453934       -12.3522
   9   2.0000      -0.434659       -11.8277
  10   2.0000      -0.415973       -11.3192
  11   2.0000      -0.383565       -10.4373
  12   2.0000      -0.345697        -9.4069
  13   2.0000      -0.326601        -8.8873
  14   2.0000      -0.309540        -8.4230
  15   2.0000      -0.280363        -7.6291
  16   2.0000      -0.278905        -7.5894
  17   0.0000       0.001975         0.0537
  18   0.0000       0.027266         0.7419
  19   0.0000       0.037572         1.0224
  20   0.0000       0.045964         1.2507
  21   0.0000       0.066504         1.8097

MULLIKEN ATOMIC CHARGES
-----------------------
   0 C :    1.019658
   1 C :   -0.200727
   2 H :   -0.219685
   3 H :   -0.196387
   4 C :    0.918820
   5 F :   -0.386485
   6 H :   -0.229922
   7 H :   -0.158001
   8 H :   -0.183353
   9 H :   -0.217295
  10 H :   -0.146623
Sum of atomic charges:   -0.0000000

LOEWDIN ATOMIC CHARGES
----------------------
   0 C :    0.134833
   1 C :   -0.058994
   2 H :    0.022668
   3 H :    0.016828
   4 C :    0.087064
   5 F :   -0.187109
   6 H :    0.023042
   7 H :    0.029840
   8 H :   -0.021357
   9 H :   -0.024179
  10 H :   -0.022636

  Mayer bond orders larger than 0.100000
B(  0-C ,  1-C ) :   1.3293 B(  0-C ,  8-H ) :   0.7152 B(  0-C ,  9-H ) :   0.7013
B(  0-C , 10-H ) :   0.7332 B(  1-C ,  2-H ) :   0.8877 B(  1-C ,  3-H ) :   0.8484
B(  1-C ,  4-C ) :   1.2011 B(  1-C ,  6-H ) :   0.1625 B(  1-C ,  7-H ) :   0.1511
B(  1-C ,  8-H ) :   0.2326 B(  1-C ,  9-H ) :   0.2570 B(  1-C , 10-H ) :   0.2355
B(  2-H ,  4-C ) :   0.1005 B(  3-H ,  4-C ) :   0.1087 B(  4-C ,  5-F ) :   0.8026
B(  4-C ,  6-H ) :   0.8248 B(  4-C ,  7-H ) :   0.8236

Dispersion correction           -0.012811198
FINAL SINGLE POINT ENERGY      -218.145042107830

DIPOLE MOMENT
-------------
                                X             Y             Z
Electronic contribution:      5.52050       0.33206       2.75625
Nuclear contribution   :     -6.00193       0.02246      -3.08821
                        -----------------------------------------
Total Dipole Moment    :     -0.48143       0.35452      -0.33196
                        -----------------------------------------
Magnitude (a.u.)       :      0.68385
Magnitude (Debye)      :      1.73822

Rotational constants in cm-1:     0.475356     0.173608     0.142756
Rotational constants in MHz : 14250.818869  5204.623090  4279.716550

                             ****ORCA TERMINATED NORMALLY****
TOTAL RUN TIME: 0 days 0 hours 0 minutes 3 seconds 886 msec
