                         Program Version 5.0.0 -  RELEASE  -
|  1> !BLYP D3BJ RIJCOSX def2-SVPD def2/J TightSCF
|  2> *xyz 0 1
|  3> C          3.95643        0.50147       -0.37910
|  4> H          3.16840        0.02920        0.20738
|  5> C          3.80389        1.96157       -0.15675
|  6> C          3.84232        0.14849       -1.85406
|  7> H          4.92323        0.17798        0.00937
|  8> H          4.62002        0.69450       -2.40215
|  9> H          4.09601       -0.91093       -1.95510
| 10> C          2.47562        0.41271       -2.48538
| 11> H          4.20643        2.24441        0.74536
| 12> H          2.80827        2.21132       -0.09610
| 13> H          4.28076        2.50155       -0.89104
| 14> H          2.49958        0.13290       -3.51787
| 15> H          2.23992        1.45318       -2.40319
| 16> H          1.73061       -0.16300       -1.97702
| 17> *
| 18>
| 19> %MaxCore 64000
| 20> %pal nprocs 4
| 21> end
| 22>
| 23> %scf
| 24>   MaxIter 150
| 25> end
| 26>
| 27>
| 28>                          ****END OF INPUT****

CARTESIAN COORDINATES (ANGSTROEM)
---------------------------------
  C      3.956430    0.501470   -0.379100
  H      3.168400    0.029200    0.207380
  C      3.803890    1.961570   -0.156750
  C      3.842320    0.148490   -1.854060
  H      4.923230    0.177980    0.009370
  H      4.620020    0.694500   -2.402150
  H      4.096010   -0.910930   -1.955100
  C      2.475620    0.412710   -2.485380
  H      4.206430    2.244410    0.745360
  H      2.808270    2.211320   -0.096100
  H      4.280760    2.501550   -0.891040
  H      2.499580    0.132900   -3.517870
  H      2.239920    1.453180   -2.403190
  H      1.730610   -0.163000   -1.977020

 Total Charge           Charge          ....    0
 Multiplicity           Mult            ....    1
 Number of Electrons    NEL             ....   34
 Basis Dimension        Dim             ....  160

ORBITAL ENERGIES
----------------

  NO   OCC          E(Eh)            E(eV)
   0   2.0000      -9.911183      -269.6970
   1   2.0000      -9.907239      -269.5897
   2   2.0000      -9.903248      -269.4811
   3   2.0000      -9.885244      -268.9912
   4   2.0000      -0.715847       -19.4792
   5   2.0000      -0.647644       -17.6233
   6   2.0000      -0.569681       -15.5018
   7   2.0000      -0.499041       -13.5796
   8   2.0000      -0.411449       -11.1961
   9   2.0000      -0.408278       -11.1098
  10   2.0000      -0.375666       -10.2224
  11   2.0000      -0.341765        -9.2999
  12   2.0000      -0.335224        -9.1219
  13   2.0000      -0.316814        -8.6210
  14   2.0000      -0.281278        -7.6540
  15   2.0000      -0.277816        -7.5598
  16   2.0000      -0.275664        -7.5012
  17   0.0000       0.007137         0.1942
  18   0.0000       0.034305         0.9335
  19   0.0000       0.034692         0.9440
  20   0.0000       0.042538         1.1575
  21   0.0000       0.072961         1.9854

MULLIKEN ATOMIC CHARGES
-----------------------
   0 C :    0.060074
   1 H :   -0.200405
   2 C :    1.416405
   3 C :   -0.107212
   4 H :   -0.272504
   5 H :   -0.116361
   6 H :   -0.281522
   7 C :    1.106467
   8 H :   -0.488573
   9 H :   -0.246007
  10 H :   -0.326749
  11 H :   -0.201957
  12 H :   -0.203925
  13 H :   -0.137731
Sum of atomic charges:   -0.0000000

LOEWDIN ATOMIC CHARGES
----------------------
   0 C :   -0.069778
   1 H :    0.018870
   2 C :    0.129356
   3 C :   -0.077093
   4 H :    0.017348
   5 H :    0.017099
   6 H :    0.009500
   7 C :    0.140599
   8 H :   -0.040167
   9 H :   -0.035772
  10 H :   -0.033024
  11 H :   -0.025181
  12 H :   -0.030042
  13 H :   -0.021714

  Mayer bond orders larger than 0.100000
B(  0-C ,  1-H ) :   0.7684 B(  0-C ,  2-C ) :   1.2263 B(  0-C ,  3-C ) :   1.1927
B(  0-C ,  4-H ) :   0.8118 B(  0-C ,  5-H ) :   0.1375 B(  0-C ,  6-H ) :   0.1826
B(  0-C ,  8-H ) :   0.3045 B(  0-C ,  9-H ) :   0.3382 B(  0-C , 10-H ) :   0.3052
B(  1-H ,  2-C ) :   0.1885 B(  1-H ,  3-C ) :   0.1459 B(  2-C ,  3-C ) :   0.1353
B(  2-C ,  8-H ) :   0.4834 B(  2-C ,  9-H ) :   0.5256 B(  2-C , 10-H ) :   0.5637
B(  3-C ,  4-H ) :   0.1109 B(  3-C ,  5-H ) :   0.8127 B(  3-C ,  6-H ) :   0.8594
B(  3-C ,  7-C ) :   1.2891 B(  3-C , 11-H ) :   0.2822 B(  3-C , 12-H ) :   0.2580
B(  3-C , 13-H ) :   0.2540 B(  5-H ,  7-C ) :   0.1168 B(  7-C , 11-H ) :   0.6301
B(  7-C , 12-H ) :   0.7391 B(  7-C , 13-H ) :   0.7009

Dispersion correction           -0.019003562
FINAL SINGLE POINT ENERGY      -158.227609397958

DIPOLE MOMENT
-------------
                                X             Y             Z
Electronic contribution:      0.49791      -0.62623       0.09746
Nuclear contribution   :     -0.48267       0.62853      -0.07145
                        -----------------------------------------
Total Dipole Moment    :      0.01524       0.00230       0.02602
                        -----------------------------------------
Magnitude (a.u.)       :      0.03024
Magnitude (Debye)      :      0.07686

Rotational constants in cm-1:     0.457318     0.164089     0.140183
Rotational constants in MHz : 13710.038687  4919.250587  4202.581436

                             ****ORCA TERMINATED NORMALLY****
TOTAL RUN TIME: 0 days 0 hours 0 minutes 4 seconds 954 msec
