                         Program Version 5.0.0 -  RELEASE  -
|  1> !PBE0 D3BJ RIJCOSX def2-TZVPD def2/J TightSCF
|  2> *xyz -1 1
|  3> C         -0.77455        2.78833       -0.54394
|  4> C          0.69721        3.22791       -0.52513
|  5> O          1.48929        2.37470        0.19919
|  6> H          0.71600        4.26403       -0.13077
|  7> H          1.03615        3.33092       -1.58367
|  8> H         -1.34746        3.48478       -1.11982
|  9> H         -1.15078        2.75876        0.45729
| 10> H         -0.85058        1.81526       -0.98241
| 11> *
| 12>
| 13> %MaxCore 64000
| 14> %pal nprocs 4
| 15> end
| 16>
| 17> %scf
| 18>   MaxIter 150
| 19> end
| 20>
| 21>
| 22>                          ****END OF INPUT****

CARTESIAN COORDINATES (ANGSTROEM)
---------------------------------
  C     -0.774550    2.788330   -0.543940
  C      0.697210    3.227910   -0.525130
  O      1.489290    2.374700    0.199190
  H      0.716000    4.264030   -0.130770
  H      1.036150    3.330920   -1.583670
  H     -1.347460    3.484780   -1.119820
  H     -1.150780    2.758760    0.457290
  H     -0.850580    1.815260   -0.982410

 Total Charge           Charge          ....   -1
 Multiplicity           Mult            ....    1
 Number of Electrons    NEL             ....   26
 Basis Dimension        Dim             ....  159

ORBITAL ENERGIES
----------------

  NO   OCC          E(Eh)            E(eV)
   0   2.0000     -18.874467      -513.6004
   1   2.0000     -10.033910      -273.0366
   2   2.0000     -10.009497      -272.3723
   3   2.0000      -0.707305       -19.2467
   4   2.0000      -0.547837       -14.9074
   5   2.0000      -0.390860       -10.6358
   6   2.0000      -0.262843        -7.1523
   7   2.0000      -0.240684        -6.5494
   8   2.0000      -0.185936        -5.0596
   9   2.0000      -0.167234        -4.5507
  10   2.0000      -0.126811        -3.4507
  11   2.0000       0.017721         0.4822
  12   2.0000       0.019746         0.5373
  13   0.0000       0.160417         4.3652
  14   0.0000       0.183432         4.9914
  15   0.0000       0.210038         5.7154
  16   0.0000       0.212605         5.7853
  17   0.0000       0.234166         6.3720

MULLIKEN ATOMIC CHARGES
-----------------------
   0 C :   -0.709921
   1 C :   -0.125160
   2 O :   -0.898994
   3 H :    0.081059
   4 H :    0.087034
   5 H :    0.258110
   6 H :    0.154315
   7 H :    0.153558
Sum of atomic charges:   -1.0000000

LOEWDIN ATOMIC CHARGES
----------------------
   0 C :   -0.175985
   1 C :   -0.622619
   2 O :   -0.415871
   3 H :    0.053719
   4 H :    0.056910
   5 H :    0.025915
   6 H :    0.039172
   7 H :    0.038759

  Mayer bond orders larger than 0.100000
B(  0-C ,  1-C ) :   0.9003 B(  0-C ,  2-O ) :   0.3764 B(  0-C ,  5-H ) :   0.9835
B(  0-C ,  6-H ) :   1.0167 B(  0-C ,  7-H ) :   1.0187 B(  1-C ,  2-O ) :   0.9616
B(  1-C ,  3-H ) :   1.0767 B(  1-C ,  4-H ) :   1.0700

Dispersion correction           -0.003050327
FINAL SINGLE POINT ENERGY      -154.306132745937

DIPOLE MOMENT
-------------
                                X             Y             Z
Electronic contribution:      2.45403      -1.04180       1.19494
Nuclear contribution   :     -3.69910       1.55962      -1.78699
                        -----------------------------------------
Total Dipole Moment    :     -1.24507       0.51783      -0.59205
                        -----------------------------------------
Magnitude (a.u.)       :      1.47270
Magnitude (Debye)      :      3.74332

Rotational constants in cm-1:     1.268893     0.327436     0.287754
Rotational constants in MHz : 38040.440181  9816.269339  8626.646564

                             ****ORCA TERMINATED NORMALLY****
TOTAL RUN TIME: 0 days 0 hours 0 minutes 16 seconds 588 msec
