                         Program Version 5.0.0 -  RELEASE  -
|  1> !PBE0 D3BJ RIJCOSX def2-TZVPD def2/J TightSCF
|  2> *xyz 1 1
|  3> C          3.95643        0.50147       -0.37910
|  4> H          3.16840        0.02920        0.20738
|  5> N          3.80389        1.96157       -0.15675
|  6> C          3.84232        0.14849       -1.85406
|  7> H          4.92323        0.17798        0.00937
|  8> H          4.20643        2.24441        0.74536
|  9> H          2.80827        2.21132       -0.09610
| 10> H          4.28076        2.50155       -0.89104
| 11> H          4.62951        0.62800       -2.39748
| 12> H          2.89665        0.48102       -2.22825
| 13> H          3.92053       -0.91187       -1.97413
| 14> *
| 15>
| 16> %MaxCore 64000
| 17> %pal nprocs 4
| 18> end
| 19>
| 20> %scf
| 21>   MaxIter 150
| 22> end
| 23>
| 24>
| 25>                          ****END OF INPUT****

CARTESIAN COORDINATES (ANGSTROEM)
---------------------------------
  C      3.956430    0.501470   -0.379100
  H      3.168400    0.029200    0.207380
  N      3.803890    1.961570   -0.156750
  C      3.842320    0.148490   -1.854060
  H      4.923230    0.177980    0.009370
  H      4.206430    2.244410    0.745360
  H      2.808270    2.211320   -0.096100
  H      4.280760    2.501550   -0.891040
  H      4.629510    0.628000   -2.397480
  H      2.896650    0.481020   -2.228250
  H      3.920530   -0.911870   -1.974130

 Total Charge           Charge          ....    1
 Multiplicity           Mult            ....    1
 Number of Electrons    NEL             ....   26
 Basis Dimension        Dim             ....  183

ORBITAL ENERGIES
----------------

  NO   OCC          E(Eh)            E(eV)
   0   2.0000     -14.719048      -400.5257
   1   2.0000     -10.474845      -285.0350
   2   2.0000     -10.394195      -282.8404
   3   2.0000      -1.243775       -33.8448
   4   2.0000      -0.989502       -26.9257
   5   2.0000      -0.864371       -23.5207
   6   2.0000      -0.819091       -22.2886
   7   2.0000      -0.801142       -21.8002
   8   2.0000      -0.712266       -19.3817
   9   2.0000      -0.656844       -17.8736
  10   2.0000      -0.596101       -16.2207
  11   2.0000      -0.581138       -15.8136
  12   2.0000      -0.563189       -15.3252
  13   0.0000      -0.192054        -5.2261
  14   0.0000      -0.134114        -3.6494
  15   0.0000      -0.130505        -3.5512
  16   0.0000      -0.123900        -3.3715
  17   0.0000      -0.093531        -2.5451

MULLIKEN ATOMIC CHARGES
-----------------------
   0 C :   -0.196803
   1 H :    0.210887
   2 N :   -0.206073
   3 C :   -0.781632
   4 H :    0.212458
   5 H :    0.333278
   6 H :    0.344369
   7 H :    0.315474
   8 H :    0.291246
   9 H :    0.268856
  10 H :    0.207941
Sum of atomic charges:    1.0000000

LOEWDIN ATOMIC CHARGES
----------------------
   0 C :   -0.204067
   1 H :    0.136575
   2 N :    0.181391
   3 C :   -0.057101
   4 H :    0.137026
   5 H :    0.180711
   6 H :    0.183552
   7 H :    0.180493
   8 H :    0.083887
   9 H :    0.084005
  10 H :    0.093528

  Mayer bond orders larger than 0.100000
B(  0-C ,  1-H ) :   0.9482 B(  0-C ,  2-N ) :   1.0284 B(  0-C ,  3-C ) :   0.8582
B(  0-C ,  4-H ) :   0.9432 B(  2-N ,  5-H ) :   0.8696 B(  2-N ,  6-H ) :   0.8585
B(  2-N ,  7-H ) :   0.8732 B(  3-C ,  8-H ) :   0.9228 B(  3-C ,  9-H ) :   0.9621
B(  3-C , 10-H ) :   1.0004

Dispersion correction           -0.005018800
FINAL SINGLE POINT ENERGY      -135.423364635589

DIPOLE MOMENT
-------------
                                X             Y             Z
Electronic contribution:     -0.01217       1.32304       1.24086
Nuclear contribution   :     -0.06214      -0.04120      -0.39947
                        -----------------------------------------
Total Dipole Moment    :     -0.07431       1.28184       0.84139
                        -----------------------------------------
Magnitude (a.u.)       :      1.53511
Magnitude (Debye)      :      3.90194

Rotational constants in cm-1:     1.011771     0.281435     0.249812
Rotational constants in MHz : 30332.138762  8437.210602  7489.166323

                             ****ORCA TERMINATED NORMALLY****
TOTAL RUN TIME: 0 days 0 hours 0 minutes 17 seconds 454 msec
