                         Program Version 5.0.0 -  RELEASE  -
|  1> !PBE0 D3BJ RIJCOSX def2-TZVPD def2/J TightSCF xyzfile
|  2>
|  3> *xyzfile 0 1 B.xyz
|  4>
|  5> %MaxCore 64000
|  6>
|  7> %pal nprocs 4
|  8> end
|  9>
| 10> %scf
| 11>   MaxIter 150
| 12> end
| 13>
| 14>
| 15>                          ****END OF INPUT****

CARTESIAN COORDINATES (ANGSTROEM)
---------------------------------
  C      3.956426    0.501466   -0.379100
  H      3.168398    0.029201    0.207383
  N      3.803893    1.961572   -0.156747
  C      3.842322    0.148490   -1.854058
  H      4.923231    0.177982    0.009371
  H      4.620021    0.694502   -2.402150
  H      4.096015   -0.910930   -1.955103
  C      2.475619    0.412708   -2.485377
  H      2.174689    1.445076   -2.287971
  C      1.383931   -0.532740   -1.995203
  H      2.575613    0.318574   -3.571460
  H      1.264698   -0.412309   -0.915491
  H      1.705223   -1.566885   -2.164984
  C      0.031398   -0.317260   -2.677791
  C     -0.587292    1.060853   -2.436460
  H     -0.662815   -1.089530   -2.329985
  H      0.149465   -0.478040   -3.755648
  H      0.104376    1.828590   -2.793130
  C     -0.951213    1.334978   -0.972500
  H     -1.478832    1.161355   -3.062484
  H     -0.317007    0.741648   -0.311389
  H     -1.980916    1.012842   -0.788958
  C     -0.774550    2.788332   -0.543943
  H     -1.352609    3.459372   -1.192585
  H     -1.171014    2.902331    0.469968
  C      0.697208    3.227911   -0.525126
  O      1.489294    2.374703    0.199189
  H      0.715998    4.264030   -0.130774
  H      1.036148    3.330920   -1.583669
  H      4.206425    2.244406    0.745359
  H      2.808269    2.211323   -0.096097
  H      4.280757    2.501552   -0.891037

 Total Charge           Charge          ....    0
 Multiplicity           Mult            ....    1
 Number of Electrons    NEL             ....   90
 Basis Dimension        Dim             ....  599

ORBITAL ENERGIES
----------------

  NO   OCC          E(Eh)            E(eV)
   0   2.0000     -19.076631      -519.1015
   1   2.0000     -14.464769      -393.6064
   2   2.0000     -10.288454      -279.9631
   3   2.0000     -10.244890      -278.7776
   4   2.0000     -10.218917      -278.0709
   5   2.0000     -10.206670      -277.7376
   6   2.0000     -10.202529      -277.6249
   7   2.0000     -10.201017      -277.5838
   8   2.0000     -10.188441      -277.2416
   9   2.0000     -10.175477      -276.8888
  10   2.0000     -10.168257      -276.6924
  11   2.0000      -1.016292       -27.6547
  12   2.0000      -0.918057       -24.9816
  13   2.0000      -0.841629       -22.9019
  14   2.0000      -0.802151       -21.8276
  15   2.0000      -0.763520       -20.7764
  16   2.0000      -0.719884       -19.5890
  17   2.0000      -0.681184       -18.5360
  18   2.0000      -0.640857       -17.4386
  19   2.0000      -0.612663       -16.6714
  20   2.0000      -0.587267       -15.9804
  21   2.0000      -0.583413       -15.8755
  22   2.0000      -0.563984       -15.3468
  23   2.0000      -0.526568       -14.3287
  24   2.0000      -0.507348       -13.8056
  25   2.0000      -0.481297       -13.0968
  26   2.0000      -0.480275       -13.0690
  27   2.0000      -0.450437       -12.2570
  28   2.0000      -0.435996       -11.8641
  29   2.0000      -0.431215       -11.7340
  30   2.0000      -0.413741       -11.2585
  31   2.0000      -0.403456       -10.9786
  32   2.0000      -0.393558       -10.7093
  33   2.0000      -0.376464       -10.2441
  34   2.0000      -0.367242        -9.9932
  35   2.0000      -0.355633        -9.6773
  36   2.0000      -0.348098        -9.4722
  37   2.0000      -0.336246        -9.1497
  38   2.0000      -0.326556        -8.8860
  39   2.0000      -0.321296        -8.7429
  40   2.0000      -0.300000        -8.1634
  41   2.0000      -0.294895        -8.0245
  42   2.0000      -0.290826        -7.9138
  43   2.0000      -0.194378        -5.2893
  44   2.0000      -0.186465        -5.0740
  45   0.0000      -0.017773        -0.4836
  46   0.0000       0.012098         0.3292
  47   0.0000       0.016496         0.4489
  48   0.0000       0.029142         0.7930
  49   0.0000       0.043009         1.1703

MULLIKEN ATOMIC CHARGES
-----------------------
   0 C :   -0.351277
   1 H :    0.223643
   2 N :    0.129203
   3 C :   -0.259538
   4 H :    0.155094
   5 H :    0.107337
   6 H :    0.113481
   7 C :    0.214014
   8 H :   -0.166615
   9 C :   -0.185213
  10 H :    0.160098
  11 H :    0.036158
  12 H :    0.148748
  13 C :   -0.316977
  14 C :   -0.381053
  15 H :    0.100913
  16 H :    0.157754
  17 H :    0.207088
  18 C :   -0.120047
  19 H :    0.153306
  20 H :    0.034253
  21 H :    0.144638
  22 C :   -0.272571
  23 H :    0.097580
  24 H :    0.168863
  25 C :   -0.223383
  26 O :   -0.893960
  27 H :    0.117931
  28 H :    0.152745
  29 H :    0.362331
  30 H :   -0.175777
  31 H :    0.361234
Sum of atomic charges:    0.0000000

LOEWDIN ATOMIC CHARGES
----------------------
   0 C :   -0.174558
   1 H :    0.127829
   2 N :    0.141102
   3 C :   -0.195496
   4 H :    0.118523
   5 H :    0.112059
   6 H :    0.117255
   7 C :   -0.206787
   8 H :    0.093187
   9 C :   -0.214447
  10 H :    0.120208
  11 H :    0.098276
  12 H :    0.114267
  13 C :   -0.212503
  14 C :   -0.212312
  15 H :    0.111567
  16 H :    0.107484
  17 H :    0.091976
  18 C :   -0.218510
  19 H :    0.109276
  20 H :    0.091705
  21 H :    0.107321
  22 C :   -0.206897
  23 H :    0.107568
  24 H :    0.105038
  25 C :   -0.421062
  26 O :   -0.275636
  27 H :    0.095878
  28 H :    0.087126
  29 H :    0.161531
  30 H :   -0.042524
  31 H :    0.161557

  Mayer bond orders larger than 0.100000
B(  0-C ,  1-H ) :   0.9359 B(  0-C ,  2-N ) :   1.0027 B(  0-C ,  3-C ) :   0.9114
B(  0-C ,  4-H ) :   0.9489 B(  0-C ,  9-C ) :   0.1330 B(  0-C , 30-H ) :   0.1084
B(  2-N , 26-O ) :  -0.1158 B(  2-N , 29-H ) :   0.8182 B(  2-N , 30-H ) :   0.9629
B(  2-N , 31-H ) :   0.7880 B(  3-C ,  5-H ) :   0.9388 B(  3-C ,  6-H ) :   0.9609
B(  3-C ,  7-C ) :   0.9998 B(  3-C ,  8-H ) :   0.1632 B(  3-C ,  9-C ) :   0.2776
B(  7-C ,  8-H ) :   1.2258 B(  7-C ,  9-C ) :   0.6477 B(  7-C , 10-H ) :   0.8178
B(  7-C , 13-C ) :   0.2682 B(  7-C , 14-C ) :   0.1477 B(  9-C , 11-H ) :   1.0642
B(  9-C , 12-H ) :   0.9005 B(  9-C , 13-C ) :   1.0542 B(  9-C , 18-C ) :   0.1079
B( 13-C , 14-C ) :   1.0077 B( 13-C , 15-H ) :   0.9570 B( 13-C , 16-H ) :   0.9238
B( 13-C , 18-C ) :   0.2756 B( 14-C , 17-H ) :   0.9755 B( 14-C , 18-C ) :   0.7686
B( 14-C , 19-H ) :   0.9391 B( 14-C , 22-C ) :   0.3376 B( 18-C , 20-H ) :   0.9957
B( 18-C , 21-H ) :   0.9305 B( 18-C , 22-C ) :   1.0507 B( 20-H , 22-C ) :   0.1071
B( 22-C , 23-H ) :   0.9864 B( 22-C , 24-H ) :   0.8704 B( 22-C , 25-C ) :   1.0806
B( 25-C , 26-O ) :   0.8748 B( 25-C , 27-H ) :   0.9797 B( 25-C , 28-H ) :   0.9560
B( 26-O , 30-H ) :   0.3505

Dispersion correction           -0.028718452
FINAL SINGLE POINT ENERGY      -485.161750428941

DIPOLE MOMENT
-------------
                                X             Y             Z
Electronic contribution:      2.11133       0.88928       2.56802
Nuclear contribution   :      0.61785      -1.47632      -2.91844
                        -----------------------------------------
Total Dipole Moment    :      2.72918      -0.58704      -0.35042
                        -----------------------------------------
Magnitude (a.u.)       :      2.81351
Magnitude (Debye)      :      7.15137

Rotational constants in cm-1:     0.040993     0.027400     0.018162
Rotational constants in MHz :  1228.944366   821.418004   544.476857

                             ****ORCA TERMINATED NORMALLY****
TOTAL RUN TIME: 0 days 0 hours 4 minutes 13 seconds 143 msec
