                         Program Version 5.0.0 -  RELEASE  -
|  1> !PBE0 D3BJ RIJCOSX def2-TZVPD def2/J TightSCF
|  2> *xyz 0 1
|  3> C         -0.77455        2.78833       -0.54394
|  4> C          0.69721        3.22791       -0.52513
|  5> F          1.48929        2.37470        0.19919
|  6> H          0.71600        4.26403       -0.13077
|  7> H          1.03615        3.33092       -1.58367
|  8> H         -1.34746        3.48478       -1.11982
|  9> H         -1.15078        2.75876        0.45729
| 10> H         -0.85058        1.81526       -0.98241
| 11> *
| 12>
| 13> %MaxCore 64000
| 14> %pal nprocs 4
| 15> end
| 16>
| 17> %scf
| 18>   MaxIter 150
| 19> end
| 20>
| 21>
| 22>                          ****END OF INPUT****

CARTESIAN COORDINATES (ANGSTROEM)
---------------------------------
  C     -0.774550    2.788330   -0.543940
  C      0.697210    3.227910   -0.525130
  F      1.489290    2.374700    0.199190
  H      0.716000    4.264030   -0.130770
  H      1.036150    3.330920   -1.583670
  H     -1.347460    3.484780   -1.119820
  H     -1.150780    2.758760    0.457290
  H     -0.850580    1.815260   -0.982410

 Total Charge           Charge          ....    0
 Multiplicity           Mult            ....    1
 Number of Electrons    NEL             ....   26
 Basis Dimension        Dim             ....  159

ORBITAL ENERGIES
----------------

  NO   OCC          E(Eh)            E(eV)
   0   2.0000     -24.759416      -673.7380
   1   2.0000     -10.299657      -280.2679
   2   2.0000     -10.214281      -277.9447
   3   2.0000      -1.231113       -33.5003
   4   2.0000      -0.788047       -21.4439
   5   2.0000      -0.651522       -17.7288
   6   2.0000      -0.525199       -14.2914
   7   2.0000      -0.510448       -13.8900
   8   2.0000      -0.474418       -12.9096
   9   2.0000      -0.419613       -11.4182
  10   2.0000      -0.414051       -11.2669
  11   2.0000      -0.350114        -9.5271
  12   2.0000      -0.343045        -9.3347
  13   0.0000       0.016711         0.4547
  14   0.0000       0.043405         1.1811
  15   0.0000       0.060534         1.6472
  16   0.0000       0.064300         1.7497
  17   0.0000       0.091040         2.4773

MULLIKEN ATOMIC CHARGES
-----------------------
   0 C :   -0.620005
   1 C :    0.030722
   2 F :   -0.258998
   3 H :    0.128059
   4 H :    0.133259
   5 H :    0.228932
   6 H :    0.180691
   7 H :    0.177340
Sum of atomic charges:   -0.0000000

LOEWDIN ATOMIC CHARGES
----------------------
   0 C :   -0.086558
   1 C :   -0.290677
   2 F :   -0.046283
   3 H :    0.110890
   4 H :    0.114942
   5 H :    0.067483
   6 H :    0.065287
   7 H :    0.064915

  Mayer bond orders larger than 0.100000
B(  0-C ,  1-C ) :   0.9357 B(  0-C ,  5-H ) :   0.9514 B(  0-C ,  6-H ) :   0.9765
B(  0-C ,  7-H ) :   0.9780 B(  1-C ,  2-F ) :   0.8538 B(  1-C ,  3-H ) :   0.9946
B(  1-C ,  4-H ) :   0.9889

Dispersion correction           -0.002810993
FINAL SINGLE POINT ENERGY      -178.939038838028

DIPOLE MOMENT
-------------
                                X             Y             Z
Electronic contribution:      4.41523      -1.65430       2.00168
Nuclear contribution   :     -4.89513       2.05627      -2.36166
                        -----------------------------------------
Total Dipole Moment    :     -0.47990       0.40197      -0.35999
                        -----------------------------------------
Magnitude (a.u.)       :      0.72213
Magnitude (Debye)      :      1.83551

Rotational constants in cm-1:     1.247826     0.304622     0.269019
Rotational constants in MHz : 37408.889506  9132.346906  8064.979146

                             ****ORCA TERMINATED NORMALLY****
TOTAL RUN TIME: 0 days 0 hours 0 minutes 13 seconds 68 msec
