                         Program Version 5.0.0 -  RELEASE  -
|  1> !PBE0 D3BJ RIJCOSX def2-TZVPD def2/J TightSCF
|  2> *xyz 0 1
|  3> C          3.95643        0.50147       -0.37910
|  4> H          3.16840        0.02920        0.20738
|  5> C          3.80389        1.96157       -0.15675
|  6> C          3.84232        0.14849       -1.85406
|  7> H          4.92323        0.17798        0.00937
|  8> H          4.20643        2.24441        0.74536
|  9> H          2.80827        2.21132       -0.09610
| 10> H          4.28076        2.50155       -0.89104
| 11> H          4.62951        0.62800       -2.39748
| 12> H          2.89665        0.48102       -2.22825
| 13> H          3.92053       -0.91187       -1.97413
| 14> *
| 15>
| 16> %MaxCore 64000
| 17> %pal nprocs 4
| 18> end
| 19>
| 20> %scf
| 21>   MaxIter 150
| 22> end
| 23>
| 24>
| 25>                          ****END OF INPUT****

CARTESIAN COORDINATES (ANGSTROEM)
---------------------------------
  C      3.956430    0.501470   -0.379100
  H      3.168400    0.029200    0.207380
  C      3.803890    1.961570   -0.156750
  C      3.842320    0.148490   -1.854060
  H      4.923230    0.177980    0.009370
  H      4.206430    2.244410    0.745360
  H      2.808270    2.211320   -0.096100
  H      4.280760    2.501550   -0.891040
  H      4.629510    0.628000   -2.397480
  H      2.896650    0.481020   -2.228250
  H      3.920530   -0.911870   -1.974130

 Total Charge           Charge          ....    0
 Multiplicity           Mult            ....    1
 Number of Electrons    NEL             ....   26
 Basis Dimension        Dim             ....  183

ORBITAL ENERGIES
----------------

  NO   OCC          E(Eh)            E(eV)
   0   2.0000     -10.206061      -277.7210
   1   2.0000     -10.195965      -277.4463
   2   2.0000     -10.177088      -276.9326
   3   2.0000      -0.815511       -22.1912
   4   2.0000      -0.710979       -19.3467
   5   2.0000      -0.603000       -16.4085
   6   2.0000      -0.482788       -13.1373
   7   2.0000      -0.459053       -12.4915
   8   2.0000      -0.414405       -11.2765
   9   2.0000      -0.402643       -10.9565
  10   2.0000      -0.348197        -9.4749
  11   2.0000      -0.345603        -9.4043
  12   2.0000      -0.335860        -9.1392
  13   0.0000       0.020574         0.5599
  14   0.0000       0.044606         1.2138
  15   0.0000       0.047485         1.2921
  16   0.0000       0.067096         1.8258
  17   0.0000       0.089504         2.4355

MULLIKEN ATOMIC CHARGES
-----------------------
   0 C :    0.220299
   1 H :    0.111541
   2 C :   -0.947690
   3 C :   -0.815896
   4 H :    0.125256
   5 H :    0.220277
   6 H :    0.243552
   7 H :    0.226725
   8 H :    0.220707
   9 H :    0.216694
  10 H :    0.178536
Sum of atomic charges:   -0.0000000

LOEWDIN ATOMIC CHARGES
----------------------
   0 C :   -0.319762
   1 H :    0.104462
   2 C :   -0.130914
   3 C :   -0.119394
   4 H :    0.104043
   5 H :    0.052039
   6 H :    0.057155
   7 H :    0.055797
   8 H :    0.066924
   9 H :    0.068420
  10 H :    0.061230

  Mayer bond orders larger than 0.100000
B(  0-C ,  1-H ) :   0.9711 B(  0-C ,  2-C ) :   0.7891 B(  0-C ,  3-C ) :   0.7620
B(  0-C ,  4-H ) :   0.9737 B(  2-C ,  3-C ) :   0.2148 B(  2-C ,  5-H ) :   1.0023
B(  2-C ,  6-H ) :   0.9815 B(  2-C ,  7-H ) :   0.9839 B(  3-C ,  8-H ) :   0.9924
B(  3-C ,  9-H ) :   0.9969 B(  3-C , 10-H ) :   1.0180

Dispersion correction           -0.005038215
FINAL SINGLE POINT ENERGY      -119.019884394393

DIPOLE MOMENT
-------------
                                X             Y             Z
Electronic contribution:      0.08067      -0.29629       0.23418
Nuclear contribution   :     -0.08172       0.30475      -0.19303
                        -----------------------------------------
Total Dipole Moment    :     -0.00104       0.00846       0.04115
                        -----------------------------------------
Magnitude (a.u.)       :      0.04203
Magnitude (Debye)      :      0.10682

Rotational constants in cm-1:     1.020248     0.295755     0.261591
Rotational constants in MHz : 30586.266829  8866.511639  7842.297953

                             ****ORCA TERMINATED NORMALLY****
TOTAL RUN TIME: 0 days 0 hours 0 minutes 16 seconds 797 msec
