                         Program Version 5.0.0 -  RELEASE  -
|  1> !PBE0 D3BJ RIJCOSX def2-TZVPD def2/J TightSCF xyzfile
|  2>
|  3> *xyzfile 0 1 D.xyz
|  4>
|  5> %MaxCore 64000
|  6>
|  7> %pal nprocs 4
|  8> end
|  9>
| 10> %scf
| 11>   MaxIter 150
| 12> end
| 13>
| 14>
| 15>                          ****END OF INPUT****

CARTESIAN COORDINATES (ANGSTROEM)
---------------------------------
  C      3.956426    0.501466   -0.379100
  H      3.168398    0.029201    0.207383
  C      3.803893    1.961572   -0.156747
  C      3.842322    0.148490   -1.854058
  H      4.923231    0.177982    0.009371
  H      4.620021    0.694502   -2.402150
  H      4.096015   -0.910930   -1.955103
  C      2.475619    0.412708   -2.485377
  H      2.174689    1.445076   -2.287971
  C      1.383931   -0.532740   -1.995203
  H      2.575613    0.318574   -3.571460
  H      1.264698   -0.412309   -0.915491
  H      1.705223   -1.566885   -2.164984
  C      0.031398   -0.317260   -2.677791
  C     -0.587292    1.060853   -2.436460
  H     -0.662815   -1.089530   -2.329985
  H      0.149465   -0.478040   -3.755648
  H      0.104376    1.828590   -2.793130
  C     -0.951213    1.334978   -0.972500
  H     -1.478832    1.161355   -3.062484
  H     -0.317007    0.741648   -0.311389
  H     -1.980916    1.012842   -0.788958
  C     -0.774550    2.788332   -0.543943
  H     -1.352609    3.459372   -1.192585
  H     -1.171014    2.902331    0.469968
  C      0.697208    3.227911   -0.525126
  F      1.489294    2.374703    0.199189
  H      0.715998    4.264030   -0.130774
  H      1.036148    3.330920   -1.583669
  H      4.206425    2.244406    0.745359
  H      2.808269    2.211323   -0.096097
  H      4.280757    2.501552   -0.891037

 Total Charge           Charge          ....    0
 Multiplicity           Mult            ....    1
 Number of Electrons    NEL             ....   90
 Basis Dimension        Dim             ....  599

ORBITAL ENERGIES
----------------

  NO   OCC          E(Eh)            E(eV)
   0   2.0000     -24.780367      -674.3081
   1   2.0000     -10.308118      -280.4981
   2   2.0000     -10.232130      -278.4304
   3   2.0000     -10.218908      -278.0706
   4   2.0000     -10.215540      -277.9790
   5   2.0000     -10.212422      -277.8941
   6   2.0000     -10.206531      -277.7338
   7   2.0000     -10.204346      -277.6744
   8   2.0000     -10.198505      -277.5154
   9   2.0000     -10.187436      -277.2142
  10   2.0000     -10.132503      -275.7194
  11   2.0000      -1.265371       -34.4325
  12   2.0000      -0.844561       -22.9817
  13   2.0000      -0.824864       -22.4457
  14   2.0000      -0.791544       -21.5390
  15   2.0000      -0.759966       -20.6797
  16   2.0000      -0.711631       -19.3645
  17   2.0000      -0.685316       -18.6484
  18   2.0000      -0.642314       -17.4782
  19   2.0000      -0.619066       -16.8456
  20   2.0000      -0.582183       -15.8420
  21   2.0000      -0.569017       -15.4838
  22   2.0000      -0.545867       -14.8538
  23   2.0000      -0.530541       -14.4368
  24   2.0000      -0.510570       -13.8933
  25   2.0000      -0.483490       -13.1564
  26   2.0000      -0.472449       -12.8560
  27   2.0000      -0.462667       -12.5898
  28   2.0000      -0.443142       -12.0585
  29   2.0000      -0.440363       -11.9829
  30   2.0000      -0.423626       -11.5275
  31   2.0000      -0.406172       -11.0525
  32   2.0000      -0.399352       -10.8669
  33   2.0000      -0.386765       -10.5244
  34   2.0000      -0.377759       -10.2794
  35   2.0000      -0.367261        -9.9937
  36   2.0000      -0.360140        -9.7999
  37   2.0000      -0.353730        -9.6255
  38   2.0000      -0.335434        -9.1276
  39   2.0000      -0.330627        -8.9968
  40   2.0000      -0.324452        -8.8288
  41   2.0000      -0.323443        -8.8013
  42   2.0000      -0.308254        -8.3880
  43   2.0000      -0.307076        -8.3560
  44   2.0000      -0.285070        -7.7572
  45   0.0000       0.011330         0.3083
  46   0.0000       0.019122         0.5203
  47   0.0000       0.024882         0.6771
  48   0.0000       0.030620         0.8332
  49   0.0000       0.042468         1.1556

MULLIKEN ATOMIC CHARGES
-----------------------
   0 C :    0.022282
   1 H :    0.187521
   2 C :   -0.587007
   3 C :   -0.361922
   4 H :    0.050120
   5 H :    0.147039
   6 H :    0.102600
   7 C :    0.080368
   8 H :   -0.204421
   9 C :   -0.128035
  10 H :    0.168012
  11 H :    0.020336
  12 H :    0.155182
  13 C :   -0.324190
  14 C :   -0.392600
  15 H :    0.100089
  16 H :    0.170762
  17 H :    0.243439
  18 C :   -0.185226
  19 H :    0.152829
  20 H :    0.109913
  21 H :    0.156401
  22 C :   -0.245979
  23 H :    0.118774
  24 H :    0.162616
  25 C :   -0.167497
  26 F :   -0.251411
  27 H :    0.144134
  28 H :    0.229529
  29 H :    0.189031
  30 H :   -0.121020
  31 H :    0.258330
Sum of atomic charges:    0.0000000

LOEWDIN ATOMIC CHARGES
----------------------
   0 C :   -0.254654
   1 H :    0.105244
   2 C :   -0.112504
   3 C :   -0.218640
   4 H :    0.106304
   5 H :    0.111999
   6 H :    0.106585
   7 C :   -0.208688
   8 H :    0.089532
   9 C :   -0.213673
  10 H :    0.117618
  11 H :    0.096288
  12 H :    0.117676
  13 C :   -0.211919
  14 C :   -0.210778
  15 H :    0.111792
  16 H :    0.110673
  17 H :    0.093393
  18 C :   -0.208709
  19 H :    0.112025
  20 H :    0.099128
  21 H :    0.115160
  22 C :   -0.181384
  23 H :    0.121818
  24 H :    0.111513
  25 C :   -0.204207
  26 F :   -0.036810
  27 H :    0.126389
  28 H :    0.120363
  29 H :    0.060481
  30 H :   -0.036563
  31 H :    0.064548

  Mayer bond orders larger than 0.100000
B(  0-C ,  1-H ) :   0.9263 B(  0-C ,  2-C ) :   0.6598 B(  0-C ,  3-C ) :   0.9031
B(  0-C ,  4-H ) :   0.9900 B(  0-C ,  9-C ) :   0.1520 B(  2-C ,  3-C ) :   0.3019
B(  2-C , 26-F ) :   0.2172 B(  2-C , 29-H ) :   0.9103 B(  2-C , 30-H ) :   1.2623
B(  2-C , 31-H ) :   0.9707 B(  3-C ,  5-H ) :   0.9240 B(  3-C ,  6-H ) :   0.9398
B(  3-C ,  7-C ) :   1.1580 B(  3-C ,  8-H ) :   0.1992 B(  3-C ,  9-C ) :   0.2362
B(  7-C ,  8-H ) :   1.2979 B(  7-C ,  9-C ) :   0.6439 B(  7-C , 10-H ) :   0.8013
B(  7-C , 13-C ) :   0.2479 B(  7-C , 14-C ) :   0.1380 B(  9-C , 11-H ) :   1.0731
B(  9-C , 12-H ) :   0.8908 B(  9-C , 13-C ) :   1.0482 B( 13-C , 14-C ) :   1.0201
B( 13-C , 15-H ) :   0.9616 B( 13-C , 16-H ) :   0.9247 B( 13-C , 18-C ) :   0.2790
B( 14-C , 17-H ) :   0.9579 B( 14-C , 18-C ) :   0.7887 B( 14-C , 19-H ) :   0.9437
B( 14-C , 22-C ) :   0.3105 B( 14-C , 25-C ) :   0.1099 B( 18-C , 20-H ) :   1.0036
B( 18-C , 21-H ) :   0.9318 B( 18-C , 22-C ) :   1.0243 B( 22-C , 23-H ) :   0.9521
B( 22-C , 24-H ) :   0.9013 B( 22-C , 25-C ) :   1.0595 B( 22-C , 26-F ) :   0.1019
B( 25-C , 26-F ) :   0.6917 B( 25-C , 27-H ) :   0.9242 B( 25-C , 28-H ) :   0.9650
B( 26-F , 30-H ) :  -0.1960 B( 29-H , 30-H ) :   0.1569

Dispersion correction           -0.028093737
FINAL SINGLE POINT ENERGY      -493.124188387074

DIPOLE MOMENT
-------------
                                X             Y             Z
Electronic contribution:     -1.95482       3.28039       4.28212
Nuclear contribution   :      1.09293      -2.80761      -4.51228
                        -----------------------------------------
Total Dipole Moment    :     -0.86189       0.47278      -0.23016
                        -----------------------------------------
Magnitude (a.u.)       :      1.00963
Magnitude (Debye)      :      2.56627

Rotational constants in cm-1:     0.040502     0.027818     0.018259
Rotational constants in MHz :  1214.218058   833.972871   547.398614

                             ****ORCA TERMINATED NORMALLY****
TOTAL RUN TIME: 0 days 0 hours 4 minutes 26 seconds 691 msec
