                         Program Version 5.0.0 -  RELEASE  -
|  1> !CAM-B3LYP RIJCOSX def2-TZVPD def2/J TightSCF
|  2> *xyz -1 1
|  3> C          4.90646       -3.10282       -5.95484
|  4> C          3.51177       -2.80621       -6.49228
|  5> H          2.73604       -3.37345       -5.97374
|  6> H          3.44490       -3.04083       -7.55528
|  7> S          3.00462       -1.09621       -6.38926
|  8> O          4.12886       -0.32965       -6.95372
|  9> O          1.78128       -1.00078       -7.13640
| 10> O          2.85155       -0.78368       -4.95679
| 11> H          5.62703       -2.52424       -6.49422
| 12> H          5.12164       -4.14387       -6.07654
| 13> H          4.95004       -2.84862       -4.91639
| 14> *
| 15>
| 16> %MaxCore 64000
| 17>
| 18> %pal nprocs 4
| 19> end
| 20>
| 21> %scf
| 22>   MaxIter 150
| 23> end
| 24>
| 25>
| 26>                          ****END OF INPUT****

CARTESIAN COORDINATES (ANGSTROEM)
---------------------------------
  C      4.906460   -3.102820   -5.954840
  C      3.511770   -2.806210   -6.492280
  H      2.736040   -3.373450   -5.973740
  H      3.444900   -3.040830   -7.555280
  S      3.004620   -1.096210   -6.389260
  O      4.128860   -0.329650   -6.953720
  O      1.781280   -1.000780   -7.136400
  O      2.851550   -0.783680   -4.956790
  H      5.627030   -2.524240   -6.494220
  H      5.121640   -4.143870   -6.076540
  H      4.950040   -2.848620   -4.916390

 Total Charge           Charge          ....   -1
 Multiplicity           Mult            ....    1
 Number of Electrons    NEL             ....   58
 Basis Dimension        Dim             ....  285

ORBITAL ENERGIES
----------------

  NO   OCC          E(Eh)            E(eV)
   0   2.0000     -88.917831     -2419.5772
   1   2.0000     -18.982723      -516.5462
   2   2.0000     -18.971004      -516.2273
   3   2.0000     -18.970731      -516.2198
   4   2.0000     -10.108726      -275.0724
   5   2.0000     -10.099357      -274.8175
   6   2.0000      -7.961406      -216.6409
   7   2.0000      -5.925841      -161.2503
   8   2.0000      -5.924936      -161.2257
   9   2.0000      -5.924674      -161.2186
  10   2.0000      -1.007433       -27.4136
  11   2.0000      -0.872735       -23.7483
  12   2.0000      -0.852515       -23.1981
  13   2.0000      -0.719190       -19.5702
  14   2.0000      -0.590589       -16.0707
  15   2.0000      -0.456889       -12.4326
  16   2.0000      -0.392732       -10.6868
  17   2.0000      -0.386421       -10.5151
  18   2.0000      -0.346690        -9.4339
  19   2.0000      -0.332244        -9.0408
  20   2.0000      -0.323843        -8.8122
  21   2.0000      -0.298466        -8.1217
  22   2.0000      -0.281996        -7.6735
  23   2.0000      -0.220223        -5.9926
  24   2.0000      -0.219862        -5.9827
  25   2.0000      -0.182487        -4.9657
  26   2.0000      -0.173075        -4.7096
  27   2.0000      -0.169328        -4.6076
  28   2.0000      -0.130081        -3.5397
  29   0.0000       0.144894         3.9428
  30   0.0000       0.162736         4.4283
  31   0.0000       0.165920         4.5149
  32   0.0000       0.175653         4.7798
  33   0.0000       0.194111         5.2820

MULLIKEN ATOMIC CHARGES
-----------------------
   0 C :   -1.136939
   1 C :   -0.388685
   2 H :    0.279765
   3 H :    0.273970
   4 S :    1.208836
   5 O :   -0.739607
   6 O :   -0.688479
   7 O :   -0.737484
   8 H :    0.305300
   9 H :    0.323643
  10 H :    0.299679
Sum of atomic charges:   -1.0000000

LOEWDIN ATOMIC CHARGES
----------------------
   0 C :   -0.145701
   1 C :   -0.336086
   2 H :    0.086430
   3 H :    0.083903
   4 S :    0.351992
   5 O :   -0.411034
   6 O :   -0.387501
   7 O :   -0.414007
   8 H :    0.058816
   9 H :    0.050249
  10 H :    0.062939

  Mayer bond orders larger than 0.100000
B(  0-C ,  1-C ) :   0.6289 B(  0-C ,  8-H ) :   0.9850 B(  0-C ,  9-H ) :   0.9263
B(  0-C , 10-H ) :   0.9781 B(  1-C ,  2-H ) :   0.9527 B(  1-C ,  3-H ) :   0.9605
B(  1-C ,  4-S ) :   0.8951 B(  1-C ,  5-O ) :   0.1015 B(  1-C ,  6-O ) :   0.1307
B(  1-C ,  7-O ) :   0.1156 B(  4-S ,  5-O ) :   1.4565 B(  4-S ,  6-O ) :   1.4954
B(  4-S ,  7-O ) :   1.4604

FINAL SINGLE POINT ENERGY      -703.208542005503

DIPOLE MOMENT
-------------
                                X             Y             Z
Electronic contribution:     -4.34095       6.34117      -0.66368
Nuclear contribution   :      5.05690      -8.21735       0.57889
                        -----------------------------------------
Total Dipole Moment    :      0.71595      -1.87619      -0.08479
                        -----------------------------------------
Magnitude (a.u.)       :      2.00994
Magnitude (Debye)      :      5.10886

Rotational constants in cm-1:     0.162547     0.083494     0.081672
Rotational constants in MHz :  4873.033504  2503.090885  2448.458543

                             ****ORCA TERMINATED NORMALLY****
TOTAL RUN TIME: 0 days 0 hours 0 minutes 48 seconds 852 msec
