                         Program Version 5.0.0 -  RELEASE  -
|  1> !CAM-B3LYP RIJCOSX def2-TZVPD def2/J TightSCF
|  2> *xyz 1 1
|  3> C          4.49059        1.15590       -2.46929
|  4> N          4.30539        1.22276       -3.90832
|  5> C          4.63192        2.24637       -4.67096
|  6> N          4.54169        2.14399       -5.98714
|  7> N          5.08409        3.39358       -4.11855
|  8> H          4.92067        3.57050       -3.13587
|  9> H          5.25465        4.19739       -4.70696
| 10> H          3.82453        0.44911       -4.35093
| 11> H          4.34337        1.24932       -6.41665
| 12> H          4.67671        2.95662       -6.57411
| 13> C          5.94213        0.93950       -2.03689
| 14> H          3.86431        0.32853       -2.13661
| 15> H          4.07623        2.04999       -1.98901
| 16> H          6.32982        0.06401       -2.51451
| 17> H          5.98308        0.81426       -0.97504
| 18> H          6.52865        1.78889       -2.31873
| 19> *
| 20>
| 21> %MaxCore 64000
| 22>
| 23> %pal nprocs 4
| 24> end
| 25>
| 26> %scf
| 27>   MaxIter 150
| 28> end
| 29>
| 30>
| 31>                          ****END OF INPUT****

CARTESIAN COORDINATES (ANGSTROEM)
---------------------------------
  C      4.490590    1.155900   -2.469290
  N      4.305390    1.222760   -3.908320
  C      4.631920    2.246370   -4.670960
  N      4.541690    2.143990   -5.987140
  N      5.084090    3.393580   -4.118550
  H      4.920670    3.570500   -3.135870
  H      5.254650    4.197390   -4.706960
  H      3.824530    0.449110   -4.350930
  H      4.343370    1.249320   -6.416650
  H      4.676710    2.956620   -6.574110
  C      5.942130    0.939500   -2.036890
  H      3.864310    0.328530   -2.136610
  H      4.076230    2.049990   -1.989010
  H      6.329820    0.064010   -2.514510
  H      5.983080    0.814260   -0.975040
  H      6.528650    1.788890   -2.318730

 Total Charge           Charge          ....    1
 Multiplicity           Mult            ....    1
 Number of Electrons    NEL             ....   48
 Basis Dimension        Dim             ....  312

ORBITAL ENERGIES
----------------

  NO   OCC          E(Eh)            E(eV)
   0   2.0000     -14.613505      -397.6537
   1   2.0000     -14.612937      -397.6382
   2   2.0000     -14.610516      -397.5723
   3   2.0000     -10.583534      -287.9926
   4   2.0000     -10.450846      -284.3820
   5   2.0000     -10.375999      -282.3453
   6   2.0000      -1.300977       -35.4014
   7   2.0000      -1.189022       -32.3549
   8   2.0000      -1.173070       -31.9208
   9   2.0000      -1.011866       -27.5343
  10   2.0000      -0.922351       -25.0985
  11   2.0000      -0.877055       -23.8659
  12   2.0000      -0.859587       -23.3906
  13   2.0000      -0.816016       -22.2049
  14   2.0000      -0.762132       -20.7387
  15   2.0000      -0.758993       -20.6533
  16   2.0000      -0.730835       -19.8870
  17   2.0000      -0.696133       -18.9428
  18   2.0000      -0.673331       -18.3223
  19   2.0000      -0.625670       -17.0253
  20   2.0000      -0.597994       -16.2722
  21   2.0000      -0.577538       -15.7156
  22   2.0000      -0.541923       -14.7465
  23   2.0000      -0.514034       -13.9876
  24   0.0000      -0.131047        -3.5660
  25   0.0000      -0.123476        -3.3600
  26   0.0000      -0.098183        -2.6717
  27   0.0000      -0.092291        -2.5114
  28   0.0000      -0.066197        -1.8013

MULLIKEN ATOMIC CHARGES
-----------------------
   0 C :   -0.564324
   1 N :   -0.170160
   2 C :    0.678865
   3 N :   -0.314496
   4 N :   -0.314095
   5 H :    0.218127
   6 H :    0.191437
   7 H :    0.205357
   8 H :    0.197196
   9 H :    0.199558
  10 C :   -1.060194
  11 H :    0.343197
  12 H :    0.347569
  13 H :    0.330515
  14 H :    0.358468
  15 H :    0.352979
Sum of atomic charges:    1.0000000

LOEWDIN ATOMIC CHARGES
----------------------
   0 C :   -0.209843
   1 N :    0.083628
   2 C :   -0.431474
   3 N :    0.208511
   4 N :    0.214947
   5 H :    0.123091
   6 H :    0.136399
   7 H :    0.170612
   8 H :    0.141749
   9 H :    0.140016
  10 C :   -0.060141
  11 H :    0.131528
  12 H :    0.121998
  13 H :    0.080256
  14 H :    0.083278
  15 H :    0.065446

  Mayer bond orders larger than 0.100000
B(  0-C ,  1-N ) :   0.8456 B(  0-C , 10-C ) :   0.6150 B(  0-C , 11-H ) :   0.9051
B(  0-C , 12-H ) :   0.8863 B(  1-N ,  2-C ) :   1.2181 B(  1-N ,  7-H ) :   1.0135
B(  2-C ,  3-N ) :   1.0599 B(  2-C ,  4-N ) :   1.1369 B(  3-N ,  8-H ) :   0.9949
B(  3-N ,  9-H ) :   1.0113 B(  4-N ,  5-H ) :   0.9356 B(  4-N ,  6-H ) :   1.0231
B( 10-C , 13-H ) :   0.9797 B( 10-C , 14-H ) :   0.9494 B( 10-C , 15-H ) :   0.9227

FINAL SINGLE POINT ENERGY      -284.365660048632

DIPOLE MOMENT
-------------
                                X             Y             Z
Electronic contribution:     -1.80854       1.57807      -4.45384
Nuclear contribution   :      1.34333      -1.11039       3.43667
                        -----------------------------------------
Total Dipole Moment    :     -0.46522       0.46768      -1.01717
                        -----------------------------------------
Magnitude (a.u.)       :      1.21234
Magnitude (Debye)      :      3.08153

Rotational constants in cm-1:     0.227161     0.075356     0.065003
Rotational constants in MHz :  6810.114531  2259.122204  1948.738523

                             ****ORCA TERMINATED NORMALLY****
TOTAL RUN TIME: 0 days 0 hours 1 minutes 11 seconds 222 msec
