                         Program Version 5.0.0 -  RELEASE  -
|  1> !CAM-B3LYP RIJCOSX def2-TZVPD def2/J TightSCF xyzfile
|  2>
|  3> *xyzfile 0 1 B.xyz
|  4>
|  5> %MaxCore 64000
|  6>
|  7> %pal nprocs 4
|  8> end
|  9>
| 10> %scf
| 11>   MaxIter 150
| 12> end
| 13>
| 14>
| 15>                          ****END OF INPUT****

CARTESIAN COORDINATES (ANGSTROEM)
---------------------------------
  C      4.490588    1.155899   -2.469290
  N      4.305394    1.222762   -3.908317
  C      4.906458   -3.102816   -5.954844
  C      3.511771   -2.806215   -6.492283
  H      2.736044   -3.373445   -5.973736
  H      3.444904   -3.040831   -7.555281
  S      3.004618   -1.096206   -6.389259
  C      4.631918    2.246365   -4.670958
  N      4.541686    2.143990   -5.987139
  N      5.084086    3.393584   -4.118545
  H      4.920675    3.570501   -3.135870
  H      5.254652    4.197390   -4.706956
  H      3.824530    0.449113   -4.350926
  H      4.343373    1.249318   -6.416646
  H      4.676712    2.956624   -6.574113
  O      4.128856   -0.329647   -6.953717
  O      1.781285   -1.000779   -7.136399
  C      5.942129    0.939500   -2.036893
  H      3.864305    0.328532   -2.136611
  H      4.076233    2.049994   -1.989010
  C      6.462677   -3.117775   -3.944671
  C      5.024977   -3.025679   -4.437625
  H      4.423321   -3.818693   -3.977648
  H      4.579350   -2.087131   -4.108727
  H      5.201533   -4.100207   -6.296905
  H      5.605922   -2.397822   -6.413368
  C      6.559957   -0.356290   -2.559086
  H      5.967976    0.952567   -0.942444
  H      6.547184    1.788331   -2.368849
  C      6.006283   -1.615917   -1.899301
  H      7.642360   -0.318000   -2.402059
  H      6.414855   -0.403433   -3.642587
  C      6.608718   -2.917014   -2.435655
  H      6.190324   -1.561115   -0.820948
  H      4.919250   -1.651245   -2.016586
  H      7.066975   -2.374258   -4.475514
  H      6.887808   -4.089747   -4.215332
  H      6.135197   -3.755573   -1.915159
  H      7.671142   -2.955503   -2.172291
  O      2.851546   -0.783683   -4.956789

 Total Charge           Charge          ....    0
 Multiplicity           Mult            ....    1
 Number of Electrons    NEL             ....  144
 Basis Dimension        Dim             ....  854

ORBITAL ENERGIES
----------------

  NO   OCC          E(Eh)            E(eV)
   0   2.0000     -89.073647     -2423.8172
   1   2.0000     -19.139248      -520.8054
   2   2.0000     -19.138641      -520.7889
   3   2.0000     -19.125680      -520.4362
   4   2.0000     -14.465482      -393.6258
   5   2.0000     -14.434103      -392.7719
   6   2.0000     -14.431337      -392.6966
   7   2.0000     -10.419409      -283.5265
   8   2.0000     -10.309723      -280.5418
   9   2.0000     -10.263347      -279.2799
  10   2.0000     -10.246603      -278.8242
  11   2.0000     -10.239672      -278.6356
  12   2.0000     -10.235669      -278.5267
  13   2.0000     -10.234650      -278.4990
  14   2.0000     -10.227648      -278.3085
  15   2.0000     -10.226290      -278.2715
  16   2.0000     -10.218363      -278.0558
  17   2.0000      -8.117947      -220.9006
  18   2.0000      -6.082419      -165.5110
  19   2.0000      -6.081661      -165.4904
  20   2.0000      -6.080769      -165.4661
  21   2.0000      -1.168613       -31.7996
  22   2.0000      -1.137664       -30.9574
  23   2.0000      -1.031984       -28.0817
  24   2.0000      -1.029571       -28.0160
  25   2.0000      -1.022092       -27.8125
  26   2.0000      -1.010733       -27.5035
  27   2.0000      -0.908410       -24.7191
  28   2.0000      -0.882349       -24.0099
  29   2.0000      -0.854996       -23.2656
  30   2.0000      -0.816732       -22.2244
  31   2.0000      -0.780256       -21.2318
  32   2.0000      -0.754263       -20.5245
  33   2.0000      -0.725466       -19.7409
  34   2.0000      -0.702928       -19.1277
  35   2.0000      -0.691732       -18.8230
  36   2.0000      -0.671014       -18.2592
  37   2.0000      -0.651246       -17.7213
  38   2.0000      -0.626785       -17.0557
  39   2.0000      -0.618816       -16.8388
  40   2.0000      -0.610111       -16.6020
  41   2.0000      -0.587024       -15.9737
  42   2.0000      -0.575831       -15.6692
  43   2.0000      -0.556388       -15.1401
  44   2.0000      -0.551212       -14.9992
  45   2.0000      -0.536695       -14.6042
  46   2.0000      -0.531199       -14.4547
  47   2.0000      -0.521314       -14.1857
  48   2.0000      -0.504627       -13.7316
  49   2.0000      -0.500866       -13.6293
  50   2.0000      -0.495466       -13.4823
  51   2.0000      -0.484218       -13.1762
  52   2.0000      -0.476129       -12.9561
  53   2.0000      -0.466731       -12.7004
  54   2.0000      -0.456422       -12.4199
  55   2.0000      -0.447870       -12.1871
  56   2.0000      -0.431204       -11.7336
  57   2.0000      -0.423961       -11.5366
  58   2.0000      -0.414201       -11.2710
  59   2.0000      -0.399825       -10.8798
  60   2.0000      -0.391347       -10.6491
  61   2.0000      -0.388693       -10.5769
  62   2.0000      -0.384270       -10.4565
  63   2.0000      -0.378842       -10.3088
  64   2.0000      -0.375782       -10.2256
  65   2.0000      -0.372328       -10.1316
  66   2.0000      -0.367060        -9.9882
  67   2.0000      -0.349871        -9.5205
  68   2.0000      -0.338603        -9.2139
  69   2.0000      -0.330014        -8.9801
  70   2.0000      -0.320568        -8.7231
  71   2.0000      -0.295350        -8.0369
  72   0.0000      -0.005490        -0.1494
  73   0.0000       0.019170         0.5217
  74   0.0000       0.029488         0.8024
  75   0.0000       0.038786         1.0554
  76   0.0000       0.043358         1.1798

MULLIKEN ATOMIC CHARGES
-----------------------
   0 C :   -1.065130
   1 N :   -0.028874
   2 C :   -0.683027
   3 C :   -0.827113
   4 H :    0.324381
   5 H :    0.333510
   6 S :    1.425569
   7 C :    0.639964
   8 N :   -0.182340
   9 N :   -0.317179
  10 H :    0.207256
  11 H :    0.173527
  12 H :    0.219294
  13 H :    0.232659
  14 H :    0.169360
  15 O :   -0.958298
  16 O :   -0.683861
  17 C :   -0.492141
  18 H :    0.402375
  19 H :    0.374978
  20 C :   -0.581773
  21 C :   -0.280978
  22 H :    0.280547
  23 H :    0.253920
  24 H :    0.297295
  25 H :    0.311427
  26 C :   -0.371046
  27 H :    0.340692
  28 H :    0.360955
  29 C :   -0.600515
  30 H :    0.285323
  31 H :    0.212817
  32 C :   -0.778060
  33 H :    0.309323
  34 H :    0.331165
  35 H :    0.312105
  36 H :    0.328267
  37 H :    0.303490
  38 H :    0.299194
  39 O :   -0.879061
Sum of atomic charges:    0.0000000

LOEWDIN ATOMIC CHARGES
----------------------
   0 C :   -0.165547
   1 N :    0.103257
   2 C :   -0.231488
   3 C :   -0.247711
   4 H :    0.107350
   5 H :    0.102079
   6 S :    0.458316
   7 C :   -0.431307
   8 N :    0.211230
   9 N :    0.183233
  10 H :    0.107549
  11 H :    0.119531
  12 H :    0.070150
  13 H :    0.043580
  14 H :    0.129166
  15 O :   -0.374312
  16 O :   -0.324308
  17 C :   -0.189590
  18 H :    0.127352
  19 H :    0.116458
  20 C :   -0.220412
  21 C :   -0.222872
  22 H :    0.129396
  23 H :    0.081759
  24 H :    0.115648
  25 H :    0.109691
  26 C :   -0.209326
  27 H :    0.116814
  28 H :    0.102377
  29 C :   -0.219087
  30 H :    0.120289
  31 H :    0.107521
  32 C :   -0.212074
  33 H :    0.115109
  34 H :    0.103668
  35 H :    0.108402
  36 H :    0.114504
  37 H :    0.111305
  38 H :    0.109533
  39 O :   -0.377237

  Mayer bond orders larger than 0.100000
B(  0-C ,  1-N ) :   0.9497 B(  0-C ,  7-C ) :  -0.1250 B(  0-C , 12-H ) :  -0.1998
B(  0-C , 17-C ) :   0.6364 B(  0-C , 18-H ) :   0.7688 B(  0-C , 19-H ) :   0.8430
B(  1-N ,  7-C ) :   1.2140 B(  1-N , 12-H ) :   0.8900 B(  1-N , 39-O ) :  -0.1655
B(  2-C ,  3-C ) :   0.8718 B(  2-C , 20-C ) :   0.3087 B(  2-C , 21-C ) :   0.4419
B(  2-C , 24-H ) :   0.9827 B(  2-C , 25-H ) :   0.9135 B(  3-C ,  4-H ) :   0.9084
B(  3-C ,  5-H ) :   0.9777 B(  3-C ,  6-S ) :   0.9369 B(  3-C , 15-O ) :   0.1017
B(  3-C , 16-O ) :   0.1710 B(  3-C , 21-C ) :   0.1170 B(  6-S , 15-O ) :   1.1302
B(  6-S , 16-O ) :   1.3434 B(  6-S , 39-O ) :   1.4017 B(  7-C ,  8-N ) :   1.1214
B(  7-C ,  9-N ) :   1.0845 B(  7-C , 12-H ) :  -0.2023 B(  8-N , 13-H ) :   0.8551
B(  8-N , 14-H ) :   1.0190 B(  8-N , 15-O ) :  -0.1182 B(  9-N , 10-H ) :   0.9514
B(  9-N , 11-H ) :   1.0210 B( 12-H , 39-O ) :   0.1103 B( 15-O , 39-O ) :   0.1053
B( 17-C , 26-C ) :   0.8927 B( 17-C , 27-H ) :   0.9631 B( 17-C , 28-H ) :   0.8714
B( 17-C , 29-C ) :   0.1173 B( 20-C , 21-C ) :   0.3925 B( 20-C , 23-H ) :  -0.1092
B( 20-C , 32-C ) :   0.8173 B( 20-C , 35-H ) :   0.9790 B( 20-C , 36-H ) :   0.9179
B( 21-C , 22-H ) :   0.8578 B( 21-C , 23-H ) :   1.3610 B( 21-C , 29-C ) :   0.1284
B( 21-C , 39-O ) :   0.1281 B( 22-H , 23-H ) :   0.1754 B( 23-H , 39-O ) :  -0.2014
B( 26-C , 29-C ) :   0.3005 B( 26-C , 30-H ) :   0.9547 B( 26-C , 31-H ) :   1.0501
B( 26-C , 34-H ) :  -0.1328 B( 29-C , 32-C ) :   0.8658 B( 29-C , 33-H ) :   0.9417
B( 29-C , 34-H ) :   1.0245 B( 32-C , 37-H ) :   0.9648 B( 32-C , 38-H ) :   0.9917

FINAL SINGLE POINT ENERGY     -1183.056318559135

DIPOLE MOMENT
-------------
                                X             Y             Z
Electronic contribution:    -14.49581       8.31853     -15.29508
Nuclear contribution   :     16.79156      -5.47215      17.54258
                        -----------------------------------------
Total Dipole Moment    :      2.29576       2.84638       2.24750
                        -----------------------------------------
Magnitude (a.u.)       :      4.29227
Magnitude (Debye)      :     10.91009

Rotational constants in cm-1:     0.014207     0.012373     0.007472
Rotational constants in MHz :   425.900436   370.942493   224.006604

                             ****ORCA TERMINATED NORMALLY****
TOTAL RUN TIME: 0 days 0 hours 17 minutes 39 seconds 465 msec
