                         Program Version 5.0.0 -  RELEASE  -
|  1> !CAM-B3LYP RIJCOSX def2-TZVPD def2/J TightSCF
|  2> *xyz 0 1
|  3> C          4.90646       -3.10282       -5.95484
|  4> C          3.51177       -2.80621       -6.49228
|  5> H          2.73604       -3.37345       -5.97374
|  6> H          3.44490       -3.04083       -7.55528
|  7> S          3.00462       -1.09621       -6.38926
|  8> F          4.12886       -0.32965       -6.95372
|  9> O          1.78128       -1.00078       -7.13640
| 10> O          2.85155       -0.78368       -4.95679
| 11> H          5.62703       -2.52424       -6.49422
| 12> H          5.12164       -4.14387       -6.07654
| 13> H          4.95004       -2.84862       -4.91639
| 14> *
| 15>
| 16> %MaxCore 64000
| 17>
| 18> %pal nprocs 4
| 19> end
| 20>
| 21> %scf
| 22>   MaxIter 150
| 23> end
| 24>
| 25>
| 26>                          ****END OF INPUT****

CARTESIAN COORDINATES (ANGSTROEM)
---------------------------------
  C      4.906460   -3.102820   -5.954840
  C      3.511770   -2.806210   -6.492280
  H      2.736040   -3.373450   -5.973740
  H      3.444900   -3.040830   -7.555280
  S      3.004620   -1.096210   -6.389260
  F      4.128860   -0.329650   -6.953720
  O      1.781280   -1.000780   -7.136400
  O      2.851550   -0.783680   -4.956790
  H      5.627030   -2.524240   -6.494220
  H      5.121640   -4.143870   -6.076540
  H      4.950040   -2.848620   -4.916390

 Total Charge           Charge          ....    0
 Multiplicity           Mult            ....    1
 Number of Electrons    NEL             ....   58
 Basis Dimension        Dim             ....  285

ORBITAL ENERGIES
----------------

  NO   OCC          E(Eh)            E(eV)
   0   2.0000     -89.178945     -2426.6825
   1   2.0000     -24.866350      -676.6478
   2   2.0000     -19.216840      -522.9168
   3   2.0000     -19.204832      -522.5901
   4   2.0000     -10.310084      -280.5516
   5   2.0000     -10.267826      -279.4017
   6   2.0000      -8.222974      -223.7585
   7   2.0000      -6.191006      -168.4658
   8   2.0000      -6.184241      -168.2818
   9   2.0000      -6.184020      -168.2757
  10   2.0000      -1.445620       -39.3373
  11   2.0000      -1.195297       -32.5257
  12   2.0000      -1.095514       -29.8105
  13   2.0000      -0.914629       -24.8883
  14   2.0000      -0.807326       -21.9685
  15   2.0000      -0.756976       -20.5984
  16   2.0000      -0.663324       -18.0500
  17   2.0000      -0.647705       -17.6250
  18   2.0000      -0.621823       -16.9207
  19   2.0000      -0.570778       -15.5317
  20   2.0000      -0.550620       -14.9831
  21   2.0000      -0.526611       -14.3298
  22   2.0000      -0.509034       -13.8515
  23   2.0000      -0.482421       -13.1273
  24   2.0000      -0.470300       -12.7975
  25   2.0000      -0.452315       -12.3081
  26   2.0000      -0.407203       -11.0806
  27   2.0000      -0.395993       -10.7755
  28   2.0000      -0.381391       -10.3782
  29   0.0000       0.014410         0.3921
  30   0.0000       0.038854         1.0573
  31   0.0000       0.041349         1.1252
  32   0.0000       0.046514         1.2657
  33   0.0000       0.071368         1.9420

MULLIKEN ATOMIC CHARGES
-----------------------
   0 C :   -1.179274
   1 C :   -0.384113
   2 H :    0.333993
   3 H :    0.341279
   4 S :    1.160071
   5 F :   -0.169751
   6 O :   -0.546593
   7 O :   -0.589603
   8 H :    0.354425
   9 H :    0.335400
  10 H :    0.344167
Sum of atomic charges:   -0.0000000

LOEWDIN ATOMIC CHARGES
----------------------
   0 C :   -0.111407
   1 C :   -0.283423
   2 H :    0.114925
   3 H :    0.102804
   4 S :    0.598779
   5 F :   -0.073487
   6 O :   -0.272542
   7 O :   -0.297189
   8 H :    0.070043
   9 H :    0.075225
  10 H :    0.076271

  Mayer bond orders larger than 0.100000
B(  0-C ,  1-C ) :   0.6088 B(  0-C ,  8-H ) :   0.9169 B(  0-C ,  9-H ) :   0.9448
B(  0-C , 10-H ) :   0.9657 B(  1-C ,  2-H ) :   0.9082 B(  1-C ,  3-H ) :   0.9165
B(  1-C ,  4-S ) :   0.8786 B(  4-S ,  5-F ) :   0.9802 B(  4-S ,  6-O ) :   1.6984
B(  4-S ,  7-O ) :   1.6604

FINAL SINGLE POINT ENERGY      -727.738653865251

DIPOLE MOMENT
-------------
                                X             Y             Z
Electronic contribution:     -2.96181       8.15669      -1.75535
Nuclear contribution   :      4.18919      -9.36357       1.23251
                        -----------------------------------------
Total Dipole Moment    :      1.22738      -1.20688      -0.52284
                        -----------------------------------------
Magnitude (a.u.)       :      1.79900
Magnitude (Debye)      :      4.57269

Rotational constants in cm-1:     0.153152     0.082513     0.079874
Rotational constants in MHz :  4591.373714  2473.673397  2394.575279

                             ****ORCA TERMINATED NORMALLY****
TOTAL RUN TIME: 0 days 0 hours 0 minutes 53 seconds 721 msec
