                         Program Version 5.0.0 -  RELEASE  -
|  1> !CAM-B3LYP RIJCOSX def2-TZVPD def2/J TightSCF
|  2> *xyz 0 1
|  3> C          4.49059        1.15590       -2.46929
|  4> C          4.30539        1.22276       -3.90832
|  5> C          4.63192        2.24637       -4.67096
|  6> N          4.54169        2.14399       -5.98714
|  7> N          5.08409        3.39358       -4.11855
|  8> H          4.92067        3.57050       -3.13587
|  9> H          5.25465        4.19739       -4.70696
| 10> H          3.82453        0.44911       -4.35093
| 11> H          4.34337        1.24932       -6.41665
| 12> H          4.67671        2.95662       -6.57411
| 13> C          5.94213        0.93950       -2.03689
| 14> H          3.86431        0.32853       -2.13661
| 15> H          4.07623        2.04999       -1.98901
| 16> H          6.32982        0.06401       -2.51451
| 17> H          5.98308        0.81426       -0.97504
| 18> H          6.52865        1.78889       -2.31873
| 19> *
| 20>
| 21> %MaxCore 64000
| 22>
| 23> %pal nprocs 4
| 24> end
| 25>
| 26> %scf
| 27>   MaxIter 150
| 28> end
| 29>
| 30>
| 31>                          ****END OF INPUT****

CARTESIAN COORDINATES (ANGSTROEM)
---------------------------------
  C      4.490590    1.155900   -2.469290
  C      4.305390    1.222760   -3.908320
  C      4.631920    2.246370   -4.670960
  N      4.541690    2.143990   -5.987140
  N      5.084090    3.393580   -4.118550
  H      4.920670    3.570500   -3.135870
  H      5.254650    4.197390   -4.706960
  H      3.824530    0.449110   -4.350930
  H      4.343370    1.249320   -6.416650
  H      4.676710    2.956620   -6.574110
  C      5.942130    0.939500   -2.036890
  H      3.864310    0.328530   -2.136610
  H      4.076230    2.049990   -1.989010
  H      6.329820    0.064010   -2.514510
  H      5.983080    0.814260   -0.975040
  H      6.528650    1.788890   -2.318730

 Total Charge           Charge          ....    0
 Multiplicity           Mult            ....    1
 Number of Electrons    NEL             ....   48
 Basis Dimension        Dim             ....  312

ORBITAL ENERGIES
----------------

  NO   OCC          E(Eh)            E(eV)
   0   2.0000     -14.390198      -391.5772
   1   2.0000     -14.387998      -391.5173
   2   2.0000     -10.288271      -279.9581
   3   2.0000     -10.216112      -277.9945
   4   2.0000     -10.203873      -277.6615
   5   2.0000     -10.163228      -276.5555
   6   2.0000      -1.043928       -28.4067
   7   2.0000      -0.951822       -25.9004
   8   2.0000      -0.855000       -23.2657
   9   2.0000      -0.774570       -21.0771
  10   2.0000      -0.695030       -18.9127
  11   2.0000      -0.651347       -17.7241
  12   2.0000      -0.613376       -16.6908
  13   2.0000      -0.580669       -15.8008
  14   2.0000      -0.543555       -14.7909
  15   2.0000      -0.506504       -13.7827
  16   2.0000      -0.491319       -13.3695
  17   2.0000      -0.459067       -12.4918
  18   2.0000      -0.453825       -12.3492
  19   2.0000      -0.415727       -11.3125
  20   2.0000      -0.393562       -10.7094
  21   2.0000      -0.381462       -10.3801
  22   2.0000      -0.330970        -9.0062
  23   2.0000      -0.218362        -5.9419
  24   0.0000       0.025703         0.6994
  25   0.0000       0.051145         1.3917
  26   0.0000       0.057679         1.5695
  27   0.0000       0.067640         1.8406
  28   0.0000       0.083872         2.2823

MULLIKEN ATOMIC CHARGES
-----------------------
   0 C :   -0.606044
   1 C :   -0.370989
   2 C :    0.358119
   3 N :   -0.373035
   4 N :   -0.345180
   5 H :    0.174680
   6 H :    0.132176
   7 H :    0.308361
   8 H :    0.158755
   9 H :    0.139688
  10 C :   -1.077039
  11 H :    0.255037
  12 H :    0.305178
  13 H :    0.319512
  14 H :    0.302452
  15 H :    0.318327
Sum of atomic charges:    0.0000000

LOEWDIN ATOMIC CHARGES
----------------------
   0 C :   -0.290247
   1 C :   -0.150686
   2 C :   -0.542207
   3 N :    0.108524
   4 N :    0.129702
   5 H :    0.096426
   6 H :    0.096794
   7 H :    0.066408
   8 H :    0.111940
   9 H :    0.098295
  10 C :   -0.107922
  11 H :    0.104013
  12 H :    0.097704
  13 H :    0.067092
  14 H :    0.057807
  15 H :    0.056357

  Mayer bond orders larger than 0.100000
B(  0-C ,  1-C ) :   0.7344 B(  0-C ,  2-C ) :   0.2654 B(  0-C , 10-C ) :   0.5872
B(  0-C , 11-H ) :   1.0729 B(  0-C , 12-H ) :   0.8783 B(  1-C ,  2-C ) :   1.1797
B(  1-C ,  7-H ) :   0.9989 B(  2-C ,  3-N ) :   0.9426 B(  2-C ,  4-N ) :   0.9758
B(  2-C ,  7-H ) :  -0.1505 B(  3-N ,  8-H ) :   1.0232 B(  3-N ,  9-H ) :   1.0614
B(  4-N ,  5-H ) :   0.9698 B(  4-N ,  6-H ) :   1.0676 B( 10-C , 13-H ) :   0.9835
B( 10-C , 14-H ) :   0.9742 B( 10-C , 15-H ) :   0.9588

FINAL SINGLE POINT ENERGY      -267.879474563764

DIPOLE MOMENT
-------------
                                X             Y             Z
Electronic contribution:     -1.26644       1.95859      -4.10531
Nuclear contribution   :      1.23062      -1.24683       3.43056
                        -----------------------------------------
Total Dipole Moment    :     -0.03583       0.71176      -0.67474
                        -----------------------------------------
Magnitude (a.u.)       :      0.98141
Magnitude (Debye)      :      2.49455

Rotational constants in cm-1:     0.231477     0.075416     0.065327
Rotational constants in MHz :  6939.497385  2260.912204  1958.442932

                             ****ORCA TERMINATED NORMALLY****
TOTAL RUN TIME: 0 days 0 hours 1 minutes 9 seconds 977 msec
