                         Program Version 5.0.0 -  RELEASE  -
|  1> !CAM-B3LYP RIJCOSX def2-TZVPD def2/J TightSCF
|  2> *xyz 0 1
|  3> C          4.90646       -3.10282       -5.95484
|  4> C          3.51177       -2.80621       -6.49228
|  5> H          2.73604       -3.37345       -5.97374
|  6> H          3.44490       -3.04083       -7.55528
|  7> S          3.00462       -1.09621       -6.38926
|  8> O          4.12886       -0.32965       -6.95372
|  9> F          1.78128       -1.00078       -7.13640
| 10> O          2.85155       -0.78368       -4.95679
| 11> H          5.62703       -2.52424       -6.49422
| 12> H          5.12164       -4.14387       -6.07654
| 13> H          4.95004       -2.84862       -4.91639
| 14> *
| 15>
| 16> %MaxCore 64000
| 17>
| 18> %pal nprocs 4
| 19> end
| 20>
| 21> %scf
| 22>   MaxIter 150
| 23> end
| 24>
| 25>
| 26>                          ****END OF INPUT****

CARTESIAN COORDINATES (ANGSTROEM)
---------------------------------
  C      4.906460   -3.102820   -5.954840
  C      3.511770   -2.806210   -6.492280
  H      2.736040   -3.373450   -5.973740
  H      3.444900   -3.040830   -7.555280
  S      3.004620   -1.096210   -6.389260
  O      4.128860   -0.329650   -6.953720
  F      1.781280   -1.000780   -7.136400
  O      2.851550   -0.783680   -4.956790
  H      5.627030   -2.524240   -6.494220
  H      5.121640   -4.143870   -6.076540
  H      4.950040   -2.848620   -4.916390

 Total Charge           Charge          ....    0
 Multiplicity           Mult            ....    1
 Number of Electrons    NEL             ....   58
 Basis Dimension        Dim             ....  285

ORBITAL ENERGIES
----------------

  NO   OCC          E(Eh)            E(eV)
   0   2.0000     -89.181066     -2426.7402
   1   2.0000     -24.885334      -677.1644
   2   2.0000     -19.205088      -522.5970
   3   2.0000     -19.205036      -522.5956
   4   2.0000     -10.310900      -280.5739
   5   2.0000     -10.263110      -279.2734
   6   2.0000      -8.225078      -223.8157
   7   2.0000      -6.192895      -168.5172
   8   2.0000      -6.186355      -168.3393
   9   2.0000      -6.186188      -168.3347
  10   2.0000      -1.476524       -40.1783
  11   2.0000      -1.181754       -32.1572
  12   2.0000      -1.082145       -29.4467
  13   2.0000      -0.911564       -24.8049
  14   2.0000      -0.822018       -22.3682
  15   2.0000      -0.758769       -20.6472
  16   2.0000      -0.670562       -18.2469
  17   2.0000      -0.668180       -18.1821
  18   2.0000      -0.632357       -17.2073
  19   2.0000      -0.571339       -15.5469
  20   2.0000      -0.553130       -15.0514
  21   2.0000      -0.510864       -13.9013
  22   2.0000      -0.502213       -13.6659
  23   2.0000      -0.479380       -13.0446
  24   2.0000      -0.458940       -12.4884
  25   2.0000      -0.450529       -12.2595
  26   2.0000      -0.395529       -10.7629
  27   2.0000      -0.394244       -10.7279
  28   2.0000      -0.370198       -10.0736
  29   0.0000       0.015018         0.4087
  30   0.0000       0.033852         0.9212
  31   0.0000       0.043722         1.1897
  32   0.0000       0.046861         1.2751
  33   0.0000       0.071162         1.9364

MULLIKEN ATOMIC CHARGES
-----------------------
   0 C :   -1.177717
   1 C :   -0.415455
   2 H :    0.349188
   3 H :    0.345637
   4 S :    1.157388
   5 O :   -0.588069
   6 F :   -0.115119
   7 O :   -0.583864
   8 H :    0.348477
   9 H :    0.336972
  10 H :    0.342563
Sum of atomic charges:   -0.0000000

LOEWDIN ATOMIC CHARGES
----------------------
   0 C :   -0.100829
   1 C :   -0.293023
   2 H :    0.104177
   3 H :    0.100768
   4 S :    0.600606
   5 O :   -0.297694
   6 F :   -0.046329
   7 O :   -0.297959
   8 H :    0.074764
   9 H :    0.076493
  10 H :    0.079026

  Mayer bond orders larger than 0.100000
B(  0-C ,  1-C ) :   0.6903 B(  0-C ,  8-H ) :   0.9423 B(  0-C ,  9-H ) :   0.9275
B(  0-C , 10-H ) :   0.9380 B(  1-C ,  2-H ) :   0.8890 B(  1-C ,  3-H ) :   0.8811
B(  1-C ,  4-S ) :   0.8755 B(  4-S ,  5-O ) :   1.6622 B(  4-S ,  6-F ) :   1.0100
B(  4-S ,  7-O ) :   1.6623

FINAL SINGLE POINT ENERGY      -727.723302997795

DIPOLE MOMENT
-------------
                                X             Y             Z
Electronic contribution:     -6.95807       7.03315      -2.06367
Nuclear contribution   :      6.63544      -8.66423       1.42287
                        -----------------------------------------
Total Dipole Moment    :     -0.32263      -1.63108      -0.64080
                        -----------------------------------------
Magnitude (a.u.)       :      1.78189
Magnitude (Debye)      :      4.52921

Rotational constants in cm-1:     0.158118     0.080978     0.078216
Rotational constants in MHz :  4740.271775  2427.649826  2344.849020

                             ****ORCA TERMINATED NORMALLY****
TOTAL RUN TIME: 0 days 0 hours 0 minutes 56 seconds 866 msec
