                         Program Version 5.0.0 -  RELEASE  -
|  1> !CAM-B3LYP RIJCOSX def2-TZVPD def2/J TightSCF
|  2> *xyz 0 1
|  3> C          4.49059        1.15590       -2.46929
|  4> N          4.30539        1.22276       -3.90832
|  5> C          4.63192        2.24637       -4.67096
|  6> C          4.54169        2.14399       -5.98714
|  7> N          5.08409        3.39358       -4.11855
|  8> H          4.92067        3.57050       -3.13587
|  9> H          5.25465        4.19739       -4.70696
| 10> H          3.82453        0.44911       -4.35093
| 11> H          4.34337        1.24932       -6.41665
| 12> H          4.67671        2.95662       -6.57411
| 13> C          5.94213        0.93950       -2.03689
| 14> H          3.86431        0.32853       -2.13661
| 15> H          4.07623        2.04999       -1.98901
| 16> H          6.32982        0.06401       -2.51451
| 17> H          5.98308        0.81426       -0.97504
| 18> H          6.52865        1.78889       -2.31873
| 19> *
| 20>
| 21> %MaxCore 64000
| 22>
| 23> %pal nprocs 4
| 24> end
| 25>
| 26> %scf
| 27>   MaxIter 150
| 28> end
| 29>
| 30>
| 31>                          ****END OF INPUT****

CARTESIAN COORDINATES (ANGSTROEM)
---------------------------------
  C      4.490590    1.155900   -2.469290
  N      4.305390    1.222760   -3.908320
  C      4.631920    2.246370   -4.670960
  C      4.541690    2.143990   -5.987140
  N      5.084090    3.393580   -4.118550
  H      4.920670    3.570500   -3.135870
  H      5.254650    4.197390   -4.706960
  H      3.824530    0.449110   -4.350930
  H      4.343370    1.249320   -6.416650
  H      4.676710    2.956620   -6.574110
  C      5.942130    0.939500   -2.036890
  H      3.864310    0.328530   -2.136610
  H      4.076230    2.049990   -1.989010
  H      6.329820    0.064010   -2.514510
  H      5.983080    0.814260   -0.975040
  H      6.528650    1.788890   -2.318730

 Total Charge           Charge          ....    0
 Multiplicity           Mult            ....    1
 Number of Electrons    NEL             ....   48
 Basis Dimension        Dim             ....  312

ORBITAL ENERGIES
----------------

  NO   OCC          E(Eh)            E(eV)
   0   2.0000     -14.388873      -391.5411
   1   2.0000     -14.387918      -391.5151
   2   2.0000     -10.290435      -280.0170
   3   2.0000     -10.284305      -279.8502
   4   2.0000     -10.229884      -278.3693
   5   2.0000     -10.152178      -276.2548
   6   2.0000      -1.052222       -28.6324
   7   2.0000      -0.963523       -26.2188
   8   2.0000      -0.853018       -23.2118
   9   2.0000      -0.782393       -21.2900
  10   2.0000      -0.708647       -19.2833
  11   2.0000      -0.671714       -18.2783
  12   2.0000      -0.607761       -16.5380
  13   2.0000      -0.569191       -15.4885
  14   2.0000      -0.549183       -14.9440
  15   2.0000      -0.518036       -14.0965
  16   2.0000      -0.493666       -13.4333
  17   2.0000      -0.471593       -12.8327
  18   2.0000      -0.449116       -12.2211
  19   2.0000      -0.441262       -12.0073
  20   2.0000      -0.426765       -11.6129
  21   2.0000      -0.419328       -11.4105
  22   2.0000      -0.319637        -8.6978
  23   2.0000      -0.220569        -6.0020
  24   0.0000       0.026256         0.7145
  25   0.0000       0.051895         1.4121
  26   0.0000       0.053210         1.4479
  27   0.0000       0.058340         1.5875
  28   0.0000       0.085776         2.3341

MULLIKEN ATOMIC CHARGES
-----------------------
   0 C :   -0.524575
   1 N :   -0.188423
   2 C :    0.723155
   3 C :   -1.166047
   4 N :   -0.366180
   5 H :    0.166697
   6 H :    0.150148
   7 H :    0.162875
   8 H :    0.274390
   9 H :    0.224852
  10 C :   -1.064272
  11 H :    0.323183
  12 H :    0.313272
  13 H :    0.291060
  14 H :    0.339843
  15 H :    0.340023
Sum of atomic charges:   -0.0000000

LOEWDIN ATOMIC CHARGES
----------------------
   0 C :   -0.248097
   1 N :    0.013308
   2 C :   -0.562189
   3 C :   -0.004353
   4 N :    0.122240
   5 H :    0.087419
   6 H :    0.108180
   7 H :    0.147145
   8 H :    0.008105
   9 H :    0.004955
  10 C :   -0.087067
  11 H :    0.113603
  12 H :    0.105063
  13 H :    0.069510
  14 H :    0.063515
  15 H :    0.058662

  Mayer bond orders larger than 0.100000
B(  0-C ,  1-N ) :   0.8233 B(  0-C , 10-C ) :   0.6064 B(  0-C , 11-H ) :   0.9357
B(  0-C , 12-H ) :   0.9166 B(  1-N ,  2-C ) :   1.0575 B(  1-N ,  7-H ) :   1.0202
B(  2-C ,  3-C ) :   1.0670 B(  2-C ,  4-N ) :   0.9561 B(  2-C ,  9-H ) :  -0.1402
B(  3-C ,  8-H ) :   0.9818 B(  3-C ,  9-H ) :   1.1466 B(  4-N ,  5-H ) :   0.9981
B(  4-N ,  6-H ) :   1.0302 B( 10-C , 13-H ) :   1.0088 B( 10-C , 14-H ) :   0.9543
B( 10-C , 15-H ) :   0.9504

FINAL SINGLE POINT ENERGY      -267.872231669734

DIPOLE MOMENT
-------------
                                X             Y             Z
Electronic contribution:     -1.41651       1.07266      -1.92606
Nuclear contribution   :      1.28075      -1.05140       2.98955
                        -----------------------------------------
Total Dipole Moment    :     -0.13576       0.02126       1.06349
                        -----------------------------------------
Magnitude (a.u.)       :      1.07233
Magnitude (Debye)      :      2.72566

Rotational constants in cm-1:     0.229858     0.078444     0.067377
Rotational constants in MHz :  6890.979812  2351.691803  2019.910665

                             ****ORCA TERMINATED NORMALLY****
TOTAL RUN TIME: 0 days 0 hours 1 minutes 14 seconds 842 msec
