                         Program Version 5.0.0 -  RELEASE  -
|  1> !CAM-B3LYP RIJCOSX def2-TZVPD def2/J TightSCF
|  2> *xyz 0 1
|  3> C          4.90646       -3.10282       -5.95484
|  4> C          3.51177       -2.80621       -6.49228
|  5> H          2.73604       -3.37345       -5.97374
|  6> H          3.44490       -3.04083       -7.55528
|  7> S          3.00462       -1.09621       -6.38926
|  8> O          4.12886       -0.32965       -6.95372
|  9> O          1.78128       -1.00078       -7.13640
| 10> F          2.85155       -0.78368       -4.95679
| 11> H          5.62703       -2.52424       -6.49422
| 12> H          5.12164       -4.14387       -6.07654
| 13> H          4.95004       -2.84862       -4.91639
| 14> *
| 15>
| 16> %MaxCore 64000
| 17>
| 18> %pal nprocs 4
| 19> end
| 20>
| 21> %scf
| 22>   MaxIter 150
| 23> end
| 24>
| 25>
| 26>                          ****END OF INPUT****

CARTESIAN COORDINATES (ANGSTROEM)
---------------------------------
  C      4.906460   -3.102820   -5.954840
  C      3.511770   -2.806210   -6.492280
  H      2.736040   -3.373450   -5.973740
  H      3.444900   -3.040830   -7.555280
  S      3.004620   -1.096210   -6.389260
  O      4.128860   -0.329650   -6.953720
  O      1.781280   -1.000780   -7.136400
  F      2.851550   -0.783680   -4.956790
  H      5.627030   -2.524240   -6.494220
  H      5.121640   -4.143870   -6.076540
  H      4.950040   -2.848620   -4.916390

 Total Charge           Charge          ....    0
 Multiplicity           Mult            ....    1
 Number of Electrons    NEL             ....   58
 Basis Dimension        Dim             ....  285

ORBITAL ENERGIES
----------------

  NO   OCC          E(Eh)            E(eV)
   0   2.0000     -89.179013     -2426.6843
   1   2.0000     -24.866089      -676.6407
   2   2.0000     -19.217041      -522.9223
   3   2.0000     -19.205100      -522.5973
   4   2.0000     -10.309945      -280.5479
   5   2.0000     -10.264723      -279.3173
   6   2.0000      -8.223034      -223.7601
   7   2.0000      -6.191016      -168.4661
   8   2.0000      -6.184428      -168.2868
   9   2.0000      -6.184004      -168.2753
  10   2.0000      -1.444733       -39.3132
  11   2.0000      -1.195467       -32.5303
  12   2.0000      -1.097124       -29.8543
  13   2.0000      -0.912290       -24.8247
  14   2.0000      -0.806723       -21.9521
  15   2.0000      -0.755818       -20.5669
  16   2.0000      -0.660472       -17.9724
  17   2.0000      -0.646699       -17.5976
  18   2.0000      -0.623689       -16.9714
  19   2.0000      -0.569324       -15.4921
  20   2.0000      -0.553195       -15.0532
  21   2.0000      -0.527845       -14.3634
  22   2.0000      -0.504817       -13.7368
  23   2.0000      -0.478579       -13.0228
  24   2.0000      -0.470698       -12.8083
  25   2.0000      -0.449690       -12.2367
  26   2.0000      -0.407478       -11.0880
  27   2.0000      -0.396513       -10.7897
  28   2.0000      -0.382893       -10.4191
  29   0.0000       0.014613         0.3976
  30   0.0000       0.038913         1.0589
  31   0.0000       0.041391         1.1263
  32   0.0000       0.046123         1.2551
  33   0.0000       0.069850         1.9007

MULLIKEN ATOMIC CHARGES
-----------------------
   0 C :   -1.151877
   1 C :   -0.409589
   2 H :    0.353732
   3 H :    0.327120
   4 S :    1.161388
   5 O :   -0.590933
   6 O :   -0.549248
   7 F :   -0.165981
   8 H :    0.345313
   9 H :    0.338442
  10 H :    0.341632
Sum of atomic charges:   -0.0000000

LOEWDIN ATOMIC CHARGES
----------------------
   0 C :   -0.111484
   1 C :   -0.284590
   2 H :    0.104295
   3 H :    0.112026
   4 S :    0.600736
   5 O :   -0.295851
   6 O :   -0.272819
   7 F :   -0.073532
   8 H :    0.073063
   9 H :    0.074836
  10 H :    0.073320

  Mayer bond orders larger than 0.100000
B(  0-C ,  1-C ) :   0.6318 B(  0-C ,  8-H ) :   0.9734 B(  0-C ,  9-H ) :   0.9408
B(  0-C , 10-H ) :   0.9178 B(  1-C ,  2-H ) :   0.8936 B(  1-C ,  3-H ) :   0.9154
B(  1-C ,  4-S ) :   0.8830 B(  1-C ,  6-O ) :   0.1008 B(  4-S ,  5-O ) :   1.6592
B(  4-S ,  6-O ) :   1.6969 B(  4-S ,  7-F ) :   0.9738

FINAL SINGLE POINT ENERGY      -727.738945616228

DIPOLE MOMENT
-------------
                                X             Y             Z
Electronic contribution:     -5.14370       7.39490       1.65555
Nuclear contribution   :      5.52019      -8.89046      -0.84835
                        -----------------------------------------
Total Dipole Moment    :      0.37649      -1.49556       0.80720
                        -----------------------------------------
Magnitude (a.u.)       :      1.74069
Magnitude (Debye)      :      4.42449

Rotational constants in cm-1:     0.153332     0.082132     0.079755
Rotational constants in MHz :  4596.775407  2462.251277  2391.008596

                             ****ORCA TERMINATED NORMALLY****
TOTAL RUN TIME: 0 days 0 hours 0 minutes 54 seconds 9 msec
