                         Program Version 5.0.0 -  RELEASE  -
|  1> !CAM-B3LYP RIJCOSX def2-TZVPD def2/J TightSCF
|  2> *xyz 0 1
|  3> C          4.49059        1.15590       -2.46929
|  4> N          4.30539        1.22276       -3.90832
|  5> C          4.63192        2.24637       -4.67096
|  6> N          4.54169        2.14399       -5.98714
|  7> C          5.08409        3.39358       -4.11855
|  8> H          4.92067        3.57050       -3.13587
|  9> H          5.25465        4.19739       -4.70696
| 10> H          3.82453        0.44911       -4.35093
| 11> H          4.34337        1.24932       -6.41665
| 12> H          4.67671        2.95662       -6.57411
| 13> C          5.94213        0.93950       -2.03689
| 14> H          3.86431        0.32853       -2.13661
| 15> H          4.07623        2.04999       -1.98901
| 16> H          6.32982        0.06401       -2.51451
| 17> H          5.98308        0.81426       -0.97504
| 18> H          6.52865        1.78889       -2.31873
| 19> *
| 20>
| 21> %MaxCore 64000
| 22>
| 23> %pal nprocs 4
| 24> end
| 25>
| 26> %scf
| 27>   MaxIter 150
| 28> end
| 29>
| 30>
| 31>                          ****END OF INPUT****

CARTESIAN COORDINATES (ANGSTROEM)
---------------------------------
  C      4.490590    1.155900   -2.469290
  N      4.305390    1.222760   -3.908320
  C      4.631920    2.246370   -4.670960
  N      4.541690    2.143990   -5.987140
  C      5.084090    3.393580   -4.118550
  H      4.920670    3.570500   -3.135870
  H      5.254650    4.197390   -4.706960
  H      3.824530    0.449110   -4.350930
  H      4.343370    1.249320   -6.416650
  H      4.676710    2.956620   -6.574110
  C      5.942130    0.939500   -2.036890
  H      3.864310    0.328530   -2.136610
  H      4.076230    2.049990   -1.989010
  H      6.329820    0.064010   -2.514510
  H      5.983080    0.814260   -0.975040
  H      6.528650    1.788890   -2.318730

 Total Charge           Charge          ....    0
 Multiplicity           Mult            ....    1
 Number of Electrons    NEL             ....   48
 Basis Dimension        Dim             ....  312

ORBITAL ENERGIES
----------------

  NO   OCC          E(Eh)            E(eV)
   0   2.0000     -14.393174      -391.6582
   1   2.0000     -14.390607      -391.5883
   2   2.0000     -10.293552      -280.1018
   3   2.0000     -10.276223      -279.6302
   4   2.0000     -10.219740      -278.0933
   5   2.0000     -10.153348      -276.2866
   6   2.0000      -1.056257       -28.7422
   7   2.0000      -0.970775       -26.4161
   8   2.0000      -0.833718       -22.6866
   9   2.0000      -0.787749       -21.4357
  10   2.0000      -0.717940       -19.5362
  11   2.0000      -0.636533       -17.3209
  12   2.0000      -0.624785       -17.0013
  13   2.0000      -0.593236       -16.1428
  14   2.0000      -0.540398       -14.7050
  15   2.0000      -0.509080       -13.8528
  16   2.0000      -0.482328       -13.1248
  17   2.0000      -0.465047       -12.6546
  18   2.0000      -0.448358       -12.2004
  19   2.0000      -0.431796       -11.7498
  20   2.0000      -0.428795       -11.6681
  21   2.0000      -0.410759       -11.1773
  22   2.0000      -0.314938        -8.5699
  23   2.0000      -0.222185        -6.0460
  24   0.0000       0.026908         0.7322
  25   0.0000       0.047501         1.2926
  26   0.0000       0.056010         1.5241
  27   0.0000       0.063905         1.7389
  28   0.0000       0.086762         2.3609

MULLIKEN ATOMIC CHARGES
-----------------------
   0 C :   -0.479200
   1 N :   -0.229298
   2 C :    0.764971
   3 N :   -0.341445
   4 C :   -1.225782
   5 H :    0.240180
   6 H :    0.275979
   7 H :    0.170381
   8 H :    0.151571
   9 H :    0.161891
  10 C :   -1.106468
  11 H :    0.324170
  12 H :    0.301894
  13 H :    0.295675
  14 H :    0.336515
  15 H :    0.358966
Sum of atomic charges:   -0.0000000

LOEWDIN ATOMIC CHARGES
----------------------
   0 C :   -0.244618
   1 N :    0.008985
   2 C :   -0.564296
   3 N :    0.114686
   4 C :    0.003825
   5 H :   -0.000881
   6 H :    0.004073
   7 H :    0.138731
   8 H :    0.101473
   9 H :    0.111737
  10 C :   -0.086087
  11 H :    0.112224
  12 H :    0.110591
  13 H :    0.066925
  14 H :    0.064380
  15 H :    0.058250

  Mayer bond orders larger than 0.100000
B(  0-C ,  1-N ) :   0.8286 B(  0-C ,  4-C ) :   0.1167 B(  0-C , 10-C ) :   0.6158
B(  0-C , 11-H ) :   0.8919 B(  0-C , 12-H ) :   0.9351 B(  1-N ,  2-C ) :   1.0351
B(  1-N ,  7-H ) :   1.0385 B(  2-C ,  3-N ) :   0.9160 B(  2-C ,  4-C ) :   1.1098
B(  2-C ,  6-H ) :  -0.1129 B(  3-N ,  8-H ) :   1.0441 B(  3-N ,  9-H ) :   1.0192
B(  4-C ,  5-H ) :   1.0154 B(  4-C ,  6-H ) :   1.0670 B( 10-C , 13-H ) :   0.9877
B( 10-C , 14-H ) :   0.9404 B( 10-C , 15-H ) :   0.9657

FINAL SINGLE POINT ENERGY      -267.871676547292

DIPOLE MOMENT
-------------
                                X             Y             Z
Electronic contribution:     -1.88987      -0.12980      -3.81189
Nuclear contribution   :      1.39581      -0.78630       3.38596
                        -----------------------------------------
Total Dipole Moment    :     -0.49405      -0.91610      -0.42593
                        -----------------------------------------
Magnitude (a.u.)       :      1.12461
Magnitude (Debye)      :      2.85853

Rotational constants in cm-1:     0.239249     0.075811     0.066261
Rotational constants in MHz :  7172.504830  2272.756282  1986.457543

                             ****ORCA TERMINATED NORMALLY****
TOTAL RUN TIME: 0 days 0 hours 1 minutes 15 seconds 12 msec
