                         Program Version 5.0.0 -  RELEASE  -
|  1> !CAM-B3LYP RIJCOSX def2-TZVPD def2/J TightSCF xyzfile
|  2>
|  3> *xyzfile 0 1 D1.xyz
|  4>
|  5> %MaxCore 64000
|  6>
|  7> %pal nprocs 4
|  8> end
|  9>
| 10> %scf
| 11>   MaxIter 150
| 12> end
| 13>
| 14>
| 15>                          ****END OF INPUT****

CARTESIAN COORDINATES (ANGSTROEM)
---------------------------------
  C      4.490588    1.155899   -2.469290
  C      4.305394    1.222762   -3.908317
  C      4.906458   -3.102816   -5.954844
  C      3.511771   -2.806215   -6.492283
  H      2.736044   -3.373445   -5.973736
  H      3.444904   -3.040831   -7.555281
  S      3.004618   -1.096206   -6.389259
  C      4.631918    2.246365   -4.670958
  N      4.541686    2.143990   -5.987139
  N      5.084086    3.393584   -4.118545
  H      4.920675    3.570501   -3.135870
  H      5.254652    4.197390   -4.706956
  H      3.824530    0.449113   -4.350926
  H      4.343373    1.249318   -6.416646
  H      4.676712    2.956624   -6.574113
  F      4.128856   -0.329647   -6.953717
  O      1.781285   -1.000779   -7.136399
  C      5.942129    0.939500   -2.036893
  H      3.864305    0.328532   -2.136611
  H      4.076233    2.049994   -1.989010
  C      6.462677   -3.117775   -3.944671
  C      5.024977   -3.025679   -4.437625
  H      4.423321   -3.818693   -3.977648
  H      4.579350   -2.087131   -4.108727
  H      5.201533   -4.100207   -6.296905
  H      5.605922   -2.397822   -6.413368
  C      6.559957   -0.356290   -2.559086
  H      5.967976    0.952567   -0.942444
  H      6.547184    1.788331   -2.368849
  C      6.006283   -1.615917   -1.899301
  H      7.642360   -0.318000   -2.402059
  H      6.414855   -0.403433   -3.642587
  C      6.608718   -2.917014   -2.435655
  H      6.190324   -1.561115   -0.820948
  H      4.919250   -1.651245   -2.016586
  H      7.066975   -2.374258   -4.475514
  H      6.887808   -4.089747   -4.215332
  H      6.135197   -3.755573   -1.915159
  H      7.671142   -2.955503   -2.172291
  O      2.851546   -0.783683   -4.956789

 Total Charge           Charge          ....    0
 Multiplicity           Mult            ....    1
 Number of Electrons    NEL             ....  144
 Basis Dimension        Dim             ....  854

ORBITAL ENERGIES
----------------

  NO   OCC          E(Eh)            E(eV)
   0   2.0000     -89.187282     -2426.9093
   1   2.0000     -24.885058      -677.1569
   2   2.0000     -19.224429      -523.1233
   3   2.0000     -19.210376      -522.7409
   4   2.0000     -14.377799      -391.2398
   5   2.0000     -14.373854      -391.1325
   6   2.0000     -10.310813      -280.5715
   7   2.0000     -10.273823      -279.5649
   8   2.0000     -10.272307      -279.5237
   9   2.0000     -10.242635      -278.7163
  10   2.0000     -10.238041      -278.5913
  11   2.0000     -10.231579      -278.4154
  12   2.0000     -10.222372      -278.1649
  13   2.0000     -10.215614      -277.9810
  14   2.0000     -10.210626      -277.8453
  15   2.0000     -10.203768      -277.6586
  16   2.0000     -10.136598      -275.8308
  17   2.0000      -8.231808      -223.9989
  18   2.0000      -6.199987      -168.7102
  19   2.0000      -6.192862      -168.5163
  20   2.0000      -6.192716      -168.5124
  21   2.0000      -1.467331       -39.9281
  22   2.0000      -1.205196       -32.7950
  23   2.0000      -1.106895       -30.1202
  24   2.0000      -1.031607       -28.0715
  25   2.0000      -0.941490       -25.6192
  26   2.0000      -0.929299       -25.2875
  27   2.0000      -0.890718       -24.2377
  28   2.0000      -0.861753       -23.4495
  29   2.0000      -0.835586       -22.7375
  30   2.0000      -0.808837       -22.0096
  31   2.0000      -0.783644       -21.3240
  32   2.0000      -0.752028       -20.4637
  33   2.0000      -0.720386       -19.6027
  34   2.0000      -0.695163       -18.9163
  35   2.0000      -0.688204       -18.7270
  36   2.0000      -0.671939       -18.2844
  37   2.0000      -0.660179       -17.9644
  38   2.0000      -0.637935       -17.3591
  39   2.0000      -0.635585       -17.2952
  40   2.0000      -0.617766       -16.8103
  41   2.0000      -0.599594       -16.3158
  42   2.0000      -0.573539       -15.6068
  43   2.0000      -0.565837       -15.3972
  44   2.0000      -0.558685       -15.2026
  45   2.0000      -0.545458       -14.8427
  46   2.0000      -0.533997       -14.5308
  47   2.0000      -0.524464       -14.2714
  48   2.0000      -0.521706       -14.1963
  49   2.0000      -0.518781       -14.1167
  50   2.0000      -0.496377       -13.5071
  51   2.0000      -0.489271       -13.3137
  52   2.0000      -0.486859       -13.2481
  53   2.0000      -0.476312       -12.9611
  54   2.0000      -0.461508       -12.5583
  55   2.0000      -0.450641       -12.2626
  56   2.0000      -0.449458       -12.2304
  57   2.0000      -0.437610       -11.9080
  58   2.0000      -0.434922       -11.8348
  59   2.0000      -0.420510       -11.4427
  60   2.0000      -0.417664       -11.3652
  61   2.0000      -0.409936       -11.1549
  62   2.0000      -0.403963       -10.9924
  63   2.0000      -0.389091       -10.5877
  64   2.0000      -0.386792       -10.5251
  65   2.0000      -0.380913       -10.3652
  66   2.0000      -0.372644       -10.1402
  67   2.0000      -0.363406        -9.8888
  68   2.0000      -0.356702        -9.7064
  69   2.0000      -0.341863        -9.3026
  70   2.0000      -0.319253        -8.6873
  71   2.0000      -0.203469        -5.5367
  72   0.0000       0.010950         0.2980
  73   0.0000       0.027923         0.7598
  74   0.0000       0.034547         0.9401
  75   0.0000       0.037686         1.0255
  76   0.0000       0.049327         1.3423

MULLIKEN ATOMIC CHARGES
-----------------------
   0 C :   -1.107036
   1 C :   -1.030769
   2 C :   -0.730126
   3 C :   -0.754094
   4 H :    0.364329
   5 H :    0.340996
   6 S :    1.287528
   7 C :    0.411373
   8 N :   -0.296696
   9 N :   -0.327919
  10 H :    0.188554
  11 H :    0.123121
  12 H :    1.060768
  13 H :    0.187113
  14 H :    0.117061
  15 F :   -0.300596
  16 O :   -0.581413
  17 C :   -0.706419
  18 H :    0.301056
  19 H :    0.386007
  20 C :   -0.636976
  21 C :   -0.178856
  22 H :    0.273309
  23 H :    0.256424
  24 H :    0.314948
  25 H :    0.307059
  26 C :   -0.433460
  27 H :    0.296574
  28 H :    0.385143
  29 C :   -0.571134
  30 H :    0.279616
  31 H :    0.271090
  32 C :   -0.778172
  33 H :    0.317698
  34 H :    0.276036
  35 H :    0.356525
  36 H :    0.324934
  37 H :    0.299363
  38 H :    0.303897
  39 O :   -0.596852
Sum of atomic charges:    0.0000000

LOEWDIN ATOMIC CHARGES
----------------------
   0 C :   -0.220729
   1 C :   -0.141883
   2 C :   -0.223785
   3 C :   -0.219349
   4 H :    0.123674
   5 H :    0.107776
   6 S :    0.645954
   7 C :   -0.518155
   8 N :    0.121337
   9 N :    0.129247
  10 H :    0.094951
  11 H :    0.093803
  12 H :    0.003880
  13 H :    0.055244
  14 H :    0.102837
  15 F :   -0.084891
  16 O :   -0.251851
  17 C :   -0.207254
  18 H :    0.107271
  19 H :    0.103946
  20 C :   -0.218727
  21 C :   -0.218485
  22 H :    0.132088
  23 H :    0.088006
  24 H :    0.123431
  25 H :    0.114435
  26 C :   -0.214326
  27 H :    0.106858
  28 H :    0.103052
  29 C :   -0.218374
  30 H :    0.115638
  31 H :    0.101881
  32 C :   -0.212654
  33 H :    0.115366
  34 H :    0.102935
  35 H :    0.109573
  36 H :    0.113731
  37 H :    0.109484
  38 H :    0.110375
  39 O :   -0.286308

  Mayer bond orders larger than 0.100000
B(  0-C ,  1-C ) :   0.7678 B(  0-C ,  7-C ) :   0.1154 B(  0-C , 12-H ) :  -0.1499
B(  0-C , 17-C ) :   0.6523 B(  0-C , 18-H ) :   1.0307 B(  0-C , 19-H ) :   0.8357
B(  1-C ,  7-C ) :   0.6742 B(  1-C , 12-H ) :  -0.5380 B(  1-C , 18-H ) :  -0.1053
B(  1-C , 31-H ) :  -0.1157 B(  1-C , 39-O ) :   0.3132 B(  2-C ,  3-C ) :   0.8054
B(  2-C , 20-C ) :   0.3070 B(  2-C , 21-C ) :   0.3396 B(  2-C , 22-H ) :  -0.1086
B(  2-C , 24-H ) :   0.9768 B(  2-C , 25-H ) :   0.9547 B(  3-C ,  4-H ) :   0.8606
B(  3-C ,  5-H ) :   0.9922 B(  3-C ,  6-S ) :   0.9351 B(  3-C , 16-O ) :   0.1248
B(  6-S , 15-F ) :   0.8784 B(  6-S , 16-O ) :   1.5187 B(  6-S , 39-O ) :   1.6124
B(  7-C ,  8-N ) :   0.9470 B(  7-C ,  9-N ) :   1.0577 B(  7-C , 10-H ) :   0.1025
B(  7-C , 12-H ) :   0.4821 B(  8-N , 12-H ) :   0.1150 B(  8-N , 13-H ) :   0.9451
B(  8-N , 14-H ) :   1.0676 B(  9-N , 10-H ) :   0.9780 B(  9-N , 11-H ) :   1.0527
B(  9-N , 17-C ) :   0.1340 B( 12-H , 39-O ) :  -0.4814 B( 17-C , 26-C ) :   0.8980
B( 17-C , 27-H ) :   0.9876 B( 17-C , 28-H ) :   0.8712 B( 17-C , 29-C ) :   0.1481
B( 20-C , 21-C ) :   0.4279 B( 20-C , 26-C ) :   0.1044 B( 20-C , 32-C ) :   0.8438
B( 20-C , 35-H ) :   0.9457 B( 20-C , 36-H ) :   0.9175 B( 21-C , 22-H ) :   0.8705
B( 21-C , 23-H ) :   1.2924 B( 21-C , 29-C ) :   0.1159 B( 21-C , 39-O ) :   0.1373
B( 22-H , 23-H ) :   0.1881 B( 23-H , 39-O ) :  -0.1742 B( 26-C , 29-C ) :   0.2892
B( 26-C , 30-H ) :   0.9673 B( 26-C , 31-H ) :   1.0778 B( 26-C , 34-H ) :  -0.1432
B( 29-C , 32-C ) :   0.8254 B( 29-C , 33-H ) :   0.9292 B( 29-C , 34-H ) :   1.0707
B( 32-C , 37-H ) :   0.9715 B( 32-C , 38-H ) :   0.9876

FINAL SINGLE POINT ENERGY     -1190.902511434628

DIPOLE MOMENT
-------------
                                X             Y             Z
Electronic contribution:    -16.31206       4.80154     -21.40223
Nuclear contribution   :     17.24138      -5.45913      20.34076
                        -----------------------------------------
Total Dipole Moment    :      0.92932      -0.65759      -1.06147
                        -----------------------------------------
Magnitude (a.u.)       :      1.55653
Magnitude (Debye)      :      3.95639

Rotational constants in cm-1:     0.014201     0.012275     0.007453
Rotational constants in MHz :   425.728191   368.008875   223.435232

                             ****ORCA TERMINATED NORMALLY****
TOTAL RUN TIME: 0 days 0 hours 17 minutes 32 seconds 259 msec
