                         Program Version 5.0.0 -  RELEASE  -
|  1> !CAM-B3LYP RIJCOSX def2-TZVPD def2/J TightSCF xyzfile
|  2>
|  3> *xyzfile 0 1 D2.xyz
|  4>
|  5> %MaxCore 64000
|  6>
|  7> %pal nprocs 4
|  8> end
|  9>
| 10> %scf
| 11>   MaxIter 150
| 12> end
| 13>
| 14>
| 15>                          ****END OF INPUT****

CARTESIAN COORDINATES (ANGSTROEM)
---------------------------------
  C      4.490588    1.155899   -2.469290
  N      4.305394    1.222762   -3.908317
  C      4.906458   -3.102816   -5.954844
  C      3.511771   -2.806215   -6.492283
  H      2.736044   -3.373445   -5.973736
  H      3.444904   -3.040831   -7.555281
  S      3.004618   -1.096206   -6.389259
  C      4.631918    2.246365   -4.670958
  C      4.541686    2.143990   -5.987139
  N      5.084086    3.393584   -4.118545
  H      4.920675    3.570501   -3.135870
  H      5.254652    4.197390   -4.706956
  H      3.824530    0.449113   -4.350926
  H      4.343373    1.249318   -6.416646
  H      4.676712    2.956624   -6.574113
  F      4.128856   -0.329647   -6.953717
  O      1.781285   -1.000779   -7.136399
  C      5.942129    0.939500   -2.036893
  H      3.864305    0.328532   -2.136611
  H      4.076233    2.049994   -1.989010
  C      6.462677   -3.117775   -3.944671
  C      5.024977   -3.025679   -4.437625
  H      4.423321   -3.818693   -3.977648
  H      4.579350   -2.087131   -4.108727
  H      5.201533   -4.100207   -6.296905
  H      5.605922   -2.397822   -6.413368
  C      6.559957   -0.356290   -2.559086
  H      5.967976    0.952567   -0.942444
  H      6.547184    1.788331   -2.368849
  C      6.006283   -1.615917   -1.899301
  H      7.642360   -0.318000   -2.402059
  H      6.414855   -0.403433   -3.642587
  C      6.608718   -2.917014   -2.435655
  H      6.190324   -1.561115   -0.820948
  H      4.919250   -1.651245   -2.016586
  H      7.066975   -2.374258   -4.475514
  H      6.887808   -4.089747   -4.215332
  H      6.135197   -3.755573   -1.915159
  H      7.671142   -2.955503   -2.172291
  O      2.851546   -0.783683   -4.956789

 Total Charge           Charge          ....    0
 Multiplicity           Mult            ....    1
 Number of Electrons    NEL             ....  144
 Basis Dimension        Dim             ....  854

ORBITAL ENERGIES
----------------

  NO   OCC          E(Eh)            E(eV)
   0   2.0000     -89.190103     -2426.9861
   1   2.0000     -24.870684      -676.7657
   2   2.0000     -19.224244      -523.1183
   3   2.0000     -19.220919      -523.0278
   4   2.0000     -14.376009      -391.1911
   5   2.0000     -14.359786      -390.7496
   6   2.0000     -10.312256      -280.6107
   7   2.0000     -10.277096      -279.6540
   8   2.0000     -10.276697      -279.6432
   9   2.0000     -10.267298      -279.3874
  10   2.0000     -10.249557      -278.9046
  11   2.0000     -10.245000      -278.7806
  12   2.0000     -10.240841      -278.6674
  13   2.0000     -10.235828      -278.5310
  14   2.0000     -10.232131      -278.4305
  15   2.0000     -10.231910      -278.4244
  16   2.0000     -10.136372      -275.8247
  17   2.0000      -8.234226      -224.0647
  18   2.0000      -6.202158      -168.7693
  19   2.0000      -6.195683      -168.5931
  20   2.0000      -6.195192      -168.5798
  21   2.0000      -1.454537       -39.5800
  22   2.0000      -1.207452       -32.8564
  23   2.0000      -1.113048       -30.2876
  24   2.0000      -1.035205       -28.1694
  25   2.0000      -0.949061       -25.8252
  26   2.0000      -0.932860       -25.3844
  27   2.0000      -0.898166       -24.4403
  28   2.0000      -0.868004       -23.6196
  29   2.0000      -0.832230       -22.6461
  30   2.0000      -0.809369       -22.0240
  31   2.0000      -0.781935       -21.2775
  32   2.0000      -0.759600       -20.6698
  33   2.0000      -0.727489       -19.7960
  34   2.0000      -0.703482       -19.1427
  35   2.0000      -0.679348       -18.4860
  36   2.0000      -0.669816       -18.2266
  37   2.0000      -0.661173       -17.9914
  38   2.0000      -0.656383       -17.8611
  39   2.0000      -0.633737       -17.2449
  40   2.0000      -0.629326       -17.1248
  41   2.0000      -0.590483       -16.0679
  42   2.0000      -0.574949       -15.6452
  43   2.0000      -0.563914       -15.3449
  44   2.0000      -0.555599       -15.1186
  45   2.0000      -0.552064       -15.0224
  46   2.0000      -0.538970       -14.6661
  47   2.0000      -0.536518       -14.5994
  48   2.0000      -0.530048       -14.4233
  49   2.0000      -0.512185       -13.9372
  50   2.0000      -0.506757       -13.7896
  51   2.0000      -0.501847       -13.6560
  52   2.0000      -0.491516       -13.3748
  53   2.0000      -0.470408       -12.8005
  54   2.0000      -0.462541       -12.5864
  55   2.0000      -0.462018       -12.5722
  56   2.0000      -0.450348       -12.2546
  57   2.0000      -0.442129       -12.0309
  58   2.0000      -0.436465       -11.8768
  59   2.0000      -0.430212       -11.7067
  60   2.0000      -0.424865       -11.5612
  61   2.0000      -0.418857       -11.3977
  62   2.0000      -0.410162       -11.1611
  63   2.0000      -0.407886       -11.0992
  64   2.0000      -0.399622       -10.8743
  65   2.0000      -0.393974       -10.7206
  66   2.0000      -0.390345       -10.6218
  67   2.0000      -0.379112       -10.3162
  68   2.0000      -0.377048       -10.2600
  69   2.0000      -0.372394       -10.1334
  70   2.0000      -0.302778        -8.2390
  71   2.0000      -0.207875        -5.6566
  72   0.0000       0.013327         0.3627
  73   0.0000       0.030775         0.8374
  74   0.0000       0.034266         0.9324
  75   0.0000       0.036723         0.9993
  76   0.0000       0.048800         1.3279

MULLIKEN ATOMIC CHARGES
-----------------------
   0 C :   -1.007482
   1 N :   -0.109328
   2 C :   -0.720953
   3 C :   -0.779383
   4 H :    0.359322
   5 H :    0.358657
   6 S :    1.251203
   7 C :    1.126310
   8 C :   -1.771094
   9 N :   -0.363837
  10 H :    0.169060
  11 H :    0.166633
  12 H :    0.119783
  13 H :    0.593722
  14 H :    0.193628
  15 F :   -0.171864
  16 O :   -0.582458
  17 C :   -0.574686
  18 H :    0.360373
  19 H :    0.364340
  20 C :   -0.627531
  21 C :   -0.237889
  22 H :    0.288213
  23 H :    0.260906
  24 H :    0.318543
  25 H :    0.307895
  26 C :   -0.376879
  27 H :    0.345741
  28 H :    0.401168
  29 C :   -0.579763
  30 H :    0.276798
  31 H :    0.234875
  32 C :   -0.777027
  33 H :    0.315457
  34 H :    0.294055
  35 H :    0.346367
  36 H :    0.327981
  37 H :    0.301415
  38 H :    0.306831
  39 O :   -0.709103
Sum of atomic charges:    0.0000000

LOEWDIN ATOMIC CHARGES
----------------------
   0 C :   -0.188205
   1 N :    0.031230
   2 C :   -0.222580
   3 C :   -0.218882
   4 H :    0.122869
   5 H :    0.109494
   6 S :    0.650502
   7 C :   -0.535678
   8 C :    0.006233
   9 N :    0.124672
  10 H :    0.086962
  11 H :    0.106253
  12 H :    0.059124
  13 H :   -0.030926
  14 H :    0.011792
  15 F :   -0.090313
  16 O :   -0.247135
  17 C :   -0.193081
  18 H :    0.115998
  19 H :    0.110241
  20 C :   -0.217487
  21 C :   -0.220026
  22 H :    0.132249
  23 H :    0.084656
  24 H :    0.124040
  25 H :    0.116247
  26 C :   -0.211641
  27 H :    0.111307
  28 H :    0.104120
  29 C :   -0.220213
  30 H :    0.118170
  31 H :    0.104783
  32 C :   -0.211034
  33 H :    0.115987
  34 H :    0.101363
  35 H :    0.110580
  36 H :    0.115130
  37 H :    0.110609
  38 H :    0.111585
  39 O :   -0.288994

  Mayer bond orders larger than 0.100000
B(  0-C ,  1-N ) :   0.9202 B(  0-C ,  7-C ) :  -0.1410 B(  0-C ,  9-N ) :   0.1113
B(  0-C , 12-H ) :  -0.1704 B(  0-C , 17-C ) :   0.6403 B(  0-C , 18-H ) :   0.8357
B(  0-C , 19-H ) :   0.8397 B(  1-N ,  7-C ) :   0.9869 B(  1-N , 12-H ) :   0.9807
B(  1-N , 39-O ) :  -0.1077 B(  2-C ,  3-C ) :   0.8197 B(  2-C , 20-C ) :   0.3093
B(  2-C , 21-C ) :   0.3508 B(  2-C , 22-H ) :  -0.1018 B(  2-C , 24-H ) :   0.9659
B(  2-C , 25-H ) :   0.9651 B(  3-C ,  4-H ) :   0.8665 B(  3-C ,  5-H ) :   0.9797
B(  3-C ,  6-S ) :   0.9410 B(  3-C , 16-O ) :   0.1216 B(  6-S , 15-F ) :   0.9368
B(  6-S , 16-O ) :   1.5184 B(  6-S , 39-O ) :   1.6159 B(  7-C ,  8-C ) :   0.6672
B(  7-C ,  9-N ) :   0.9263 B(  7-C , 12-H ) :  -0.2703 B(  7-C , 14-H ) :  -0.1906
B(  8-C , 12-H ) :   0.1025 B(  8-C , 13-H ) :   0.6763 B(  8-C , 14-H ) :   1.1968
B(  8-C , 15-F ) :   0.1174 B(  9-N , 10-H ) :   1.0100 B(  9-N , 11-H ) :   1.0111
B( 13-H , 15-F ) :  -0.2104 B( 17-C , 26-C ) :   0.9115 B( 17-C , 27-H ) :   0.9688
B( 17-C , 28-H ) :   0.8569 B( 17-C , 29-C ) :   0.1318 B( 20-C , 21-C ) :   0.4172
B( 20-C , 32-C ) :   0.8535 B( 20-C , 35-H ) :   0.9565 B( 20-C , 36-H ) :   0.9126
B( 21-C , 22-H ) :   0.8660 B( 21-C , 23-H ) :   1.3256 B( 21-C , 29-C ) :   0.1086
B( 21-C , 32-C ) :   0.1061 B( 21-C , 39-O ) :   0.1383 B( 22-H , 23-H ) :   0.1746
B( 23-H , 39-O ) :  -0.2078 B( 26-C , 29-C ) :   0.2626 B( 26-C , 30-H ) :   0.9592
B( 26-C , 31-H ) :   1.0592 B( 26-C , 34-H ) :  -0.1359 B( 29-C , 32-C ) :   0.8436
B( 29-C , 33-H ) :   0.9317 B( 29-C , 34-H ) :   1.0563 B( 32-C , 37-H ) :   0.9641
B( 32-C , 38-H ) :   0.9808

FINAL SINGLE POINT ENERGY     -1190.908466640052

DIPOLE MOMENT
-------------
                                X             Y             Z
Electronic contribution:    -16.36579       3.92384     -19.58899
Nuclear contribution   :     17.27667      -5.32157      20.03034
                        -----------------------------------------
Total Dipole Moment    :      0.91087      -1.39773       0.44135
                        -----------------------------------------
Magnitude (a.u.)       :      1.72572
Magnitude (Debye)      :      4.38644

Rotational constants in cm-1:     0.014355     0.012269     0.007481
Rotational constants in MHz :   430.360270   367.823451   224.273399

                             ****ORCA TERMINATED NORMALLY****
TOTAL RUN TIME: 0 days 0 hours 17 minutes 37 seconds 251 msec
