                         Program Version 5.0.0 -  RELEASE  -
|  1> !CAM-B3LYP RIJCOSX def2-TZVPD def2/J TightSCF xyzfile
|  2>
|  3> *xyzfile 0 1 D3.xyz
|  4>
|  5> %MaxCore 64000
|  6>
|  7> %pal nprocs 4
|  8> end
|  9>
| 10> %scf
| 11>   MaxIter 150
| 12> end
| 13>
| 14>
| 15>                          ****END OF INPUT****

CARTESIAN COORDINATES (ANGSTROEM)
---------------------------------
  C      4.490588    1.155899   -2.469290
  N      4.305394    1.222762   -3.908317
  C      4.906458   -3.102816   -5.954844
  C      3.511771   -2.806215   -6.492283
  H      2.736044   -3.373445   -5.973736
  H      3.444904   -3.040831   -7.555281
  S      3.004618   -1.096206   -6.389259
  C      4.631918    2.246365   -4.670958
  N      4.541686    2.143990   -5.987139
  C      5.084086    3.393584   -4.118545
  H      4.920675    3.570501   -3.135870
  H      5.254652    4.197390   -4.706956
  H      3.824530    0.449113   -4.350926
  H      4.343373    1.249318   -6.416646
  H      4.676712    2.956624   -6.574113
  F      4.128856   -0.329647   -6.953717
  O      1.781285   -1.000779   -7.136399
  C      5.942129    0.939500   -2.036893
  H      3.864305    0.328532   -2.136611
  H      4.076233    2.049994   -1.989010
  C      6.462677   -3.117775   -3.944671
  C      5.024977   -3.025679   -4.437625
  H      4.423321   -3.818693   -3.977648
  H      4.579350   -2.087131   -4.108727
  H      5.201533   -4.100207   -6.296905
  H      5.605922   -2.397822   -6.413368
  C      6.559957   -0.356290   -2.559086
  H      5.967976    0.952567   -0.942444
  H      6.547184    1.788331   -2.368849
  C      6.006283   -1.615917   -1.899301
  H      7.642360   -0.318000   -2.402059
  H      6.414855   -0.403433   -3.642587
  C      6.608718   -2.917014   -2.435655
  H      6.190324   -1.561115   -0.820948
  H      4.919250   -1.651245   -2.016586
  H      7.066975   -2.374258   -4.475514
  H      6.887808   -4.089747   -4.215332
  H      6.135197   -3.755573   -1.915159
  H      7.671142   -2.955503   -2.172291
  O      2.851546   -0.783683   -4.956789

 Total Charge           Charge          ....    0
 Multiplicity           Mult            ....    1
 Number of Electrons    NEL             ....  144
 Basis Dimension        Dim             ....  854

ORBITAL ENERGIES
----------------

  NO   OCC          E(Eh)            E(eV)
   0   2.0000     -89.205875     -2427.4153
   1   2.0000     -24.899515      -677.5503
   2   2.0000     -19.240388      -523.5576
   3   2.0000     -19.235612      -523.4276
   4   2.0000     -14.374706      -391.1556
   5   2.0000     -14.361731      -390.8026
   6   2.0000     -10.324355      -280.9400
   7   2.0000     -10.285369      -279.8791
   8   2.0000     -10.276906      -279.6488
   9   2.0000     -10.258829      -279.1569
  10   2.0000     -10.254970      -279.0519
  11   2.0000     -10.248013      -278.8626
  12   2.0000     -10.241154      -278.6760
  13   2.0000     -10.233721      -278.4737
  14   2.0000     -10.227718      -278.3104
  15   2.0000     -10.222014      -278.1551
  16   2.0000     -10.138131      -275.8726
  17   2.0000      -8.250372      -224.5040
  18   2.0000      -6.218552      -169.2154
  19   2.0000      -6.211603      -169.0263
  20   2.0000      -6.211128      -169.0134
  21   2.0000      -1.482141       -40.3311
  22   2.0000      -1.223796       -33.3012
  23   2.0000      -1.128174       -30.6992
  24   2.0000      -1.038112       -28.2485
  25   2.0000      -0.955276       -25.9944
  26   2.0000      -0.942709       -25.6524
  27   2.0000      -0.900551       -24.5052
  28   2.0000      -0.865878       -23.5617
  29   2.0000      -0.839019       -22.8309
  30   2.0000      -0.809771       -22.0350
  31   2.0000      -0.781104       -21.2549
  32   2.0000      -0.769376       -20.9358
  33   2.0000      -0.737505       -20.0685
  34   2.0000      -0.710433       -19.3319
  35   2.0000      -0.696810       -18.9612
  36   2.0000      -0.686882       -18.6910
  37   2.0000      -0.671853       -18.2821
  38   2.0000      -0.656909       -17.8754
  39   2.0000      -0.638066       -17.3627
  40   2.0000      -0.615446       -16.7471
  41   2.0000      -0.600300       -16.3350
  42   2.0000      -0.591871       -16.1056
  43   2.0000      -0.575608       -15.6631
  44   2.0000      -0.568916       -15.4810
  45   2.0000      -0.555203       -15.1078
  46   2.0000      -0.547224       -14.8907
  47   2.0000      -0.539033       -14.6678
  48   2.0000      -0.527358       -14.3501
  49   2.0000      -0.516402       -14.0520
  50   2.0000      -0.506842       -13.7919
  51   2.0000      -0.503177       -13.6921
  52   2.0000      -0.491357       -13.3705
  53   2.0000      -0.478945       -13.0327
  54   2.0000      -0.463997       -12.6260
  55   2.0000      -0.458260       -12.4699
  56   2.0000      -0.455137       -12.3849
  57   2.0000      -0.446976       -12.1628
  58   2.0000      -0.436797       -11.8859
  59   2.0000      -0.435305       -11.8453
  60   2.0000      -0.427758       -11.6399
  61   2.0000      -0.419726       -11.4213
  62   2.0000      -0.417682       -11.3657
  63   2.0000      -0.410978       -11.1833
  64   2.0000      -0.402773       -10.9600
  65   2.0000      -0.399389       -10.8679
  66   2.0000      -0.394267       -10.7286
  67   2.0000      -0.377779       -10.2799
  68   2.0000      -0.376380       -10.2418
  69   2.0000      -0.367287        -9.9944
  70   2.0000      -0.296872        -8.0783
  71   2.0000      -0.206566        -5.6209
  72   0.0000       0.003109         0.0846
  73   0.0000       0.023671         0.6441
  74   0.0000       0.029464         0.8018
  75   0.0000       0.035506         0.9662
  76   0.0000       0.044061         1.1990

MULLIKEN ATOMIC CHARGES
-----------------------
   0 C :   -0.995574
   1 N :   -0.148507
   2 C :   -0.718489
   3 C :   -0.751476
   4 H :    0.369672
   5 H :    0.354221
   6 S :    1.227129
   7 C :    0.911002
   8 N :   -0.271445
   9 C :   -1.361324
  10 H :    0.264639
  11 H :    0.323303
  12 H :    0.201473
  13 H :    0.227588
  14 H :    0.124760
  15 F :   -0.312627
  16 O :   -0.570130
  17 C :   -0.644708
  18 H :    0.379027
  19 H :    0.359182
  20 C :   -0.625710
  21 C :   -0.255028
  22 H :    0.288959
  23 H :    0.280291
  24 H :    0.316519
  25 H :    0.308231
  26 C :   -0.340864
  27 H :    0.346365
  28 H :    0.413698
  29 C :   -0.563189
  30 H :    0.280300
  31 H :    0.180715
  32 C :   -0.792473
  33 H :    0.317342
  34 H :    0.281485
  35 H :    0.353440
  36 H :    0.328186
  37 H :    0.300273
  38 H :    0.306934
  39 O :   -0.693191
Sum of atomic charges:    0.0000000

LOEWDIN ATOMIC CHARGES
----------------------
   0 C :   -0.184596
   1 N :    0.028218
   2 C :   -0.222540
   3 C :   -0.216609
   4 H :    0.124980
   5 H :    0.110203
   6 S :    0.651440
   7 C :   -0.546027
   8 N :    0.128928
   9 C :    0.002756
  10 H :   -0.003008
  11 H :    0.000388
  12 H :    0.054672
  13 H :    0.048893
  14 H :    0.116305
  15 F :   -0.085038
  16 O :   -0.242923
  17 C :   -0.188738
  18 H :    0.114692
  19 H :    0.115504
  20 C :   -0.217586
  21 C :   -0.219862
  22 H :    0.132870
  23 H :    0.084758
  24 H :    0.125211
  25 H :    0.115332
  26 C :   -0.212983
  27 H :    0.113011
  28 H :    0.103725
  29 C :   -0.220646
  30 H :    0.118027
  31 H :    0.101718
  32 C :   -0.211142
  33 H :    0.116456
  34 H :    0.100734
  35 H :    0.110182
  36 H :    0.115117
  37 H :    0.110400
  38 H :    0.111901
  39 O :   -0.284722

  Mayer bond orders larger than 0.100000
B(  0-C ,  1-N ) :   0.9550 B(  0-C ,  9-C ) :   0.1305 B(  0-C , 12-H ) :  -0.2442
B(  0-C , 17-C ) :   0.6970 B(  0-C , 18-H ) :   0.7610 B(  0-C , 19-H ) :   0.8649
B(  0-C , 29-C ) :   0.1006 B(  1-N ,  7-C ) :   0.9889 B(  1-N , 12-H ) :   0.9487
B(  1-N , 17-C ) :   0.1294 B(  1-N , 39-O ) :  -0.1063 B(  2-C ,  3-C ) :   0.8145
B(  2-C , 20-C ) :   0.3076 B(  2-C , 21-C ) :   0.3354 B(  2-C , 22-H ) :  -0.1048
B(  2-C , 24-H ) :   0.9699 B(  2-C , 25-H ) :   0.9627 B(  3-C ,  4-H ) :   0.8570
B(  3-C ,  5-H ) :   0.9803 B(  3-C ,  6-S ) :   0.9259 B(  3-C , 16-O ) :   0.1207
B(  6-S , 15-F ) :   0.8929 B(  6-S , 16-O ) :   1.5430 B(  6-S , 39-O ) :   1.6473
B(  7-C ,  8-N ) :   0.8734 B(  7-C ,  9-C ) :   0.9221 B(  7-C , 11-H ) :  -0.1210
B(  7-C , 12-H ) :  -0.2798 B(  8-N , 13-H ) :   0.9144 B(  8-N , 14-H ) :   1.0467
B(  9-C , 10-H ) :   1.0601 B(  9-C , 11-H ) :   1.0376 B( 17-C , 26-C ) :   0.9019
B( 17-C , 27-H ) :   0.9310 B( 17-C , 28-H ) :   0.8891 B( 17-C , 29-C ) :   0.1265
B( 20-C , 21-C ) :   0.4203 B( 20-C , 32-C ) :   0.8552 B( 20-C , 35-H ) :   0.9498
B( 20-C , 36-H ) :   0.9123 B( 21-C , 22-H ) :   0.8697 B( 21-C , 23-H ) :   1.3065
B( 21-C , 29-C ) :   0.1097 B( 21-C , 32-C ) :   0.1053 B( 21-C , 39-O ) :   0.1408
B( 22-H , 23-H ) :   0.1784 B( 23-H , 39-O ) :  -0.2131 B( 26-C , 29-C ) :   0.2766
B( 26-C , 30-H ) :   0.9540 B( 26-C , 31-H ) :   1.0877 B( 26-C , 34-H ) :  -0.1349
B( 29-C , 32-C ) :   0.8319 B( 29-C , 33-H ) :   0.9313 B( 29-C , 34-H ) :   1.0620
B( 32-C , 37-H ) :   0.9685 B( 32-C , 38-H ) :   0.9824

FINAL SINGLE POINT ENERGY     -1190.910208798605

DIPOLE MOMENT
-------------
                                X             Y             Z
Electronic contribution:    -16.86619       2.65228     -21.30379
Nuclear contribution   :     17.35766      -5.13497      20.30937
                        -----------------------------------------
Total Dipole Moment    :      0.49147      -2.48269      -0.99442
                        -----------------------------------------
Magnitude (a.u.)       :      2.71922
Magnitude (Debye)      :      6.91172

Rotational constants in cm-1:     0.014431     0.012329     0.007535
Rotational constants in MHz :   432.628327   369.619539   225.898827

                             ****ORCA TERMINATED NORMALLY****
TOTAL RUN TIME: 0 days 0 hours 17 minutes 12 seconds 80 msec
