                         Program Version 5.0.0 -  RELEASE  -
|  1> !CAM-B3LYP RIJCOSX def2-TZVPD def2/J TightSCF xyzfile
|  2>
|  3> *xyzfile 0 1 D4.xyz
|  4>
|  5> %MaxCore 64000
|  6>
|  7> %pal nprocs 4
|  8> end
|  9>
| 10> %scf
| 11>   MaxIter 150
| 12> end
| 13>
| 14>
| 15>                          ****END OF INPUT****

CARTESIAN COORDINATES (ANGSTROEM)
---------------------------------
  C      4.490588    1.155899   -2.469290
  C      4.305394    1.222762   -3.908317
  C      4.906458   -3.102816   -5.954844
  C      3.511771   -2.806215   -6.492283
  H      2.736044   -3.373445   -5.973736
  H      3.444904   -3.040831   -7.555281
  S      3.004618   -1.096206   -6.389259
  C      4.631918    2.246365   -4.670958
  N      4.541686    2.143990   -5.987139
  N      5.084086    3.393584   -4.118545
  H      4.920675    3.570501   -3.135870
  H      5.254652    4.197390   -4.706956
  H      3.824530    0.449113   -4.350926
  H      4.343373    1.249318   -6.416646
  H      4.676712    2.956624   -6.574113
  O      4.128856   -0.329647   -6.953717
  F      1.781285   -1.000779   -7.136399
  C      5.942129    0.939500   -2.036893
  H      3.864305    0.328532   -2.136611
  H      4.076233    2.049994   -1.989010
  C      6.462677   -3.117775   -3.944671
  C      5.024977   -3.025679   -4.437625
  H      4.423321   -3.818693   -3.977648
  H      4.579350   -2.087131   -4.108727
  H      5.201533   -4.100207   -6.296905
  H      5.605922   -2.397822   -6.413368
  C      6.559957   -0.356290   -2.559086
  H      5.967976    0.952567   -0.942444
  H      6.547184    1.788331   -2.368849
  C      6.006283   -1.615917   -1.899301
  H      7.642360   -0.318000   -2.402059
  H      6.414855   -0.403433   -3.642587
  C      6.608718   -2.917014   -2.435655
  H      6.190324   -1.561115   -0.820948
  H      4.919250   -1.651245   -2.016586
  H      7.066975   -2.374258   -4.475514
  H      6.887808   -4.089747   -4.215332
  H      6.135197   -3.755573   -1.915159
  H      7.671142   -2.955503   -2.172291
  O      2.851546   -0.783683   -4.956789

 Total Charge           Charge          ....    0
 Multiplicity           Mult            ....    1
 Number of Electrons    NEL             ....  144
 Basis Dimension        Dim             ....  854

ORBITAL ENERGIES
----------------

  NO   OCC          E(Eh)            E(eV)
   0   2.0000     -89.195859     -2427.1427
   1   2.0000     -24.896270      -677.4619
   2   2.0000     -19.225149      -523.1429
   3   2.0000     -19.215794      -522.8883
   4   2.0000     -14.365650      -390.9092
   5   2.0000     -14.346038      -390.3755
   6   2.0000     -10.314817      -280.6804
   7   2.0000     -10.271482      -279.5012
   8   2.0000     -10.257658      -279.1251
   9   2.0000     -10.239141      -278.6212
  10   2.0000     -10.233465      -278.4667
  11   2.0000     -10.227136      -278.2945
  12   2.0000     -10.217030      -278.0195
  13   2.0000     -10.208080      -277.7760
  14   2.0000     -10.202657      -277.6284
  15   2.0000     -10.195112      -277.4231
  16   2.0000     -10.123538      -275.4755
  17   2.0000      -8.240145      -224.2257
  18   2.0000      -6.207910      -168.9258
  19   2.0000      -6.201559      -168.7530
  20   2.0000      -6.201138      -168.7415
  21   2.0000      -1.487758       -40.4840
  22   2.0000      -1.202227       -32.7143
  23   2.0000      -1.103404       -30.0251
  24   2.0000      -1.013759       -27.5858
  25   2.0000      -0.928957       -25.2782
  26   2.0000      -0.921201       -25.0671
  27   2.0000      -0.887293       -24.1445
  28   2.0000      -0.857527       -23.3345
  29   2.0000      -0.836421       -22.7602
  30   2.0000      -0.805949       -21.9310
  31   2.0000      -0.779160       -21.2020
  32   2.0000      -0.744672       -20.2635
  33   2.0000      -0.715366       -19.4661
  34   2.0000      -0.692303       -18.8385
  35   2.0000      -0.683867       -18.6090
  36   2.0000      -0.668883       -18.2012
  37   2.0000      -0.661201       -17.9922
  38   2.0000      -0.646235       -17.5849
  39   2.0000      -0.625232       -17.0134
  40   2.0000      -0.609974       -16.5982
  41   2.0000      -0.590646       -16.0723
  42   2.0000      -0.576071       -15.6757
  43   2.0000      -0.568749       -15.4765
  44   2.0000      -0.550683       -14.9848
  45   2.0000      -0.540075       -14.6962
  46   2.0000      -0.536596       -14.6015
  47   2.0000      -0.522847       -14.2274
  48   2.0000      -0.516195       -14.0464
  49   2.0000      -0.500768       -13.6266
  50   2.0000      -0.492971       -13.4144
  51   2.0000      -0.481328       -13.0976
  52   2.0000      -0.480091       -13.0640
  53   2.0000      -0.475126       -12.9288
  54   2.0000      -0.451157       -12.2766
  55   2.0000      -0.446422       -12.1478
  56   2.0000      -0.441446       -12.0123
  57   2.0000      -0.432932       -11.7807
  58   2.0000      -0.422158       -11.4875
  59   2.0000      -0.416502       -11.3336
  60   2.0000      -0.410596       -11.1729
  61   2.0000      -0.401751       -10.9322
  62   2.0000      -0.396122       -10.7790
  63   2.0000      -0.387252       -10.5377
  64   2.0000      -0.383103       -10.4248
  65   2.0000      -0.380093       -10.3429
  66   2.0000      -0.366778        -9.9805
  67   2.0000      -0.357395        -9.7252
  68   2.0000      -0.349354        -9.5064
  69   2.0000      -0.335099        -9.1185
  70   2.0000      -0.301471        -8.2034
  71   2.0000      -0.189033        -5.1439
  72   0.0000       0.007335         0.1996
  73   0.0000       0.029760         0.8098
  74   0.0000       0.032877         0.8946
  75   0.0000       0.039906         1.0859
  76   0.0000       0.049465         1.3460

MULLIKEN ATOMIC CHARGES
-----------------------
   0 C :   -1.081281
   1 C :   -0.937710
   2 C :   -0.721169
   3 C :   -0.855765
   4 H :    0.388462
   5 H :    0.402019
   6 S :    1.329814
   7 C :    0.268832
   8 N :   -0.267247
   9 N :   -0.322798
  10 H :    0.185800
  11 H :    0.123846
  12 H :    1.081637
  13 H :    0.195774
  14 H :    0.113969
  15 O :   -0.790654
  16 F :   -0.101323
  17 C :   -0.708693
  18 H :    0.295663
  19 H :    0.379191
  20 C :   -0.659662
  21 C :   -0.204327
  22 H :    0.272974
  23 H :    0.230194
  24 H :    0.312358
  25 H :    0.330869
  26 C :   -0.441283
  27 H :    0.294484
  28 H :    0.386538
  29 C :   -0.566589
  30 H :    0.276693
  31 H :    0.285439
  32 C :   -0.771082
  33 H :    0.317834
  34 H :    0.272820
  35 H :    0.364940
  36 H :    0.328776
  37 H :    0.297283
  38 H :    0.303911
  39 O :   -0.610541
Sum of atomic charges:   -0.0000000

LOEWDIN ATOMIC CHARGES
----------------------
   0 C :   -0.225399
   1 C :   -0.142494
   2 C :   -0.214038
   3 C :   -0.226983
   4 H :    0.113982
   5 H :    0.106115
   6 S :    0.673452
   7 C :   -0.519671
   8 N :    0.118777
   9 N :    0.126195
  10 H :    0.092281
  11 H :    0.092055
  12 H :    0.006319
  13 H :    0.028960
  14 H :    0.097965
  15 O :   -0.284192
  16 F :   -0.028384
  17 C :   -0.208329
  18 H :    0.105186
  19 H :    0.101675
  20 C :   -0.217147
  21 C :   -0.215613
  22 H :    0.130358
  23 H :    0.089850
  24 H :    0.125421
  25 H :    0.118825
  26 C :   -0.213699
  27 H :    0.105487
  28 H :    0.103014
  29 C :   -0.219278
  30 H :    0.115158
  31 H :    0.104266
  32 C :   -0.213322
  33 H :    0.114664
  34 H :    0.102189
  35 H :    0.111569
  36 H :    0.113343
  37 H :    0.108577
  38 H :    0.110151
  39 O :   -0.287288

  Mayer bond orders larger than 0.100000
B(  0-C ,  1-C ) :   0.6844 B(  0-C ,  7-C ) :   0.1234 B(  0-C , 12-H ) :  -0.1418
B(  0-C , 17-C ) :   0.6489 B(  0-C , 18-H ) :   1.0340 B(  0-C , 19-H ) :   0.8488
B(  1-C ,  7-C ) :   0.9934 B(  1-C , 12-H ) :  -0.4687 B(  1-C , 18-H ) :  -0.1053
B(  1-C , 31-H ) :  -0.1034 B(  1-C , 39-O ) :   0.3029 B(  2-C ,  3-C ) :   0.9102
B(  2-C , 20-C ) :   0.3168 B(  2-C , 21-C ) :   0.4161 B(  2-C , 22-H ) :  -0.1103
B(  2-C , 24-H ) :   0.9719 B(  2-C , 25-H ) :   0.9021 B(  3-C ,  4-H ) :   0.8510
B(  3-C ,  5-H ) :   0.8735 B(  3-C ,  6-S ) :   0.9082 B(  3-C , 15-O ) :   0.1024
B(  3-C , 16-F ) :   0.1023 B(  6-S , 15-O ) :   1.4721 B(  6-S , 16-F ) :   0.8703
B(  6-S , 39-O ) :   1.6511 B(  7-C ,  8-N ) :   0.9703 B(  7-C ,  9-N ) :   1.0697
B(  7-C , 10-H ) :   0.1054 B(  7-C , 12-H ) :   0.3831 B(  8-N , 13-H ) :   0.9300
B(  8-N , 14-H ) :   1.0647 B(  9-N , 10-H ) :   0.9786 B(  9-N , 11-H ) :   1.0504
B(  9-N , 17-C ) :   0.1346 B( 12-H , 39-O ) :  -0.5391 B( 15-O , 39-O ) :   0.1263
B( 17-C , 26-C ) :   0.8955 B( 17-C , 27-H ) :   0.9902 B( 17-C , 28-H ) :   0.8682
B( 17-C , 29-C ) :   0.1524 B( 20-C , 21-C ) :   0.4343 B( 20-C , 26-C ) :   0.1068
B( 20-C , 32-C ) :   0.8416 B( 20-C , 35-H ) :   0.9395 B( 20-C , 36-H ) :   0.9132
B( 21-C , 22-H ) :   0.8719 B( 21-C , 23-H ) :   1.2905 B( 21-C , 29-C ) :   0.1138
B( 21-C , 39-O ) :   0.1405 B( 22-H , 23-H ) :   0.1781 B( 23-H , 39-O ) :  -0.1580
B( 26-C , 29-C ) :   0.2770 B( 26-C , 30-H ) :   0.9665 B( 26-C , 31-H ) :   1.0693
B( 26-C , 34-H ) :  -0.1430 B( 29-C , 31-H ) :  -0.1029 B( 29-C , 32-C ) :   0.8202
B( 29-C , 33-H ) :   0.9298 B( 29-C , 34-H ) :   1.0719 B( 32-C , 37-H ) :   0.9731
B( 32-C , 38-H ) :   0.9873

FINAL SINGLE POINT ENERGY     -1190.897942565998

DIPOLE MOMENT
-------------
                                X             Y             Z
Electronic contribution:    -20.59642       3.45454     -21.97728
Nuclear contribution   :     19.99734      -4.67125      20.55522
                        -----------------------------------------
Total Dipole Moment    :     -0.59908      -1.21670      -1.42206
                        -----------------------------------------
Magnitude (a.u.)       :      1.96508
Magnitude (Debye)      :      4.99483

Rotational constants in cm-1:     0.014213     0.012058     0.007367
Rotational constants in MHz :   426.102180   361.491761   220.844824

                             ****ORCA TERMINATED NORMALLY****
TOTAL RUN TIME: 0 days 0 hours 17 minutes 21 seconds 777 msec
