                         Program Version 5.0.0 -  RELEASE  -
|  1> !CAM-B3LYP RIJCOSX def2-TZVPD def2/J TightSCF xyzfile
|  2>
|  3> *xyzfile 0 1 D5.xyz
|  4>
|  5> %MaxCore 64000
|  6>
|  7> %pal nprocs 4
|  8> end
|  9>
| 10> %scf
| 11>   MaxIter 150
| 12> end
| 13>
| 14>
| 15>                          ****END OF INPUT****

CARTESIAN COORDINATES (ANGSTROEM)
---------------------------------
  C      4.490588    1.155899   -2.469290
  N      4.305394    1.222762   -3.908317
  C      4.906458   -3.102816   -5.954844
  C      3.511771   -2.806215   -6.492283
  H      2.736044   -3.373445   -5.973736
  H      3.444904   -3.040831   -7.555281
  S      3.004618   -1.096206   -6.389259
  C      4.631918    2.246365   -4.670958
  C      4.541686    2.143990   -5.987139
  N      5.084086    3.393584   -4.118545
  H      4.920675    3.570501   -3.135870
  H      5.254652    4.197390   -4.706956
  H      3.824530    0.449113   -4.350926
  H      4.343373    1.249318   -6.416646
  H      4.676712    2.956624   -6.574113
  O      4.128856   -0.329647   -6.953717
  F      1.781285   -1.000779   -7.136399
  C      5.942129    0.939500   -2.036893
  H      3.864305    0.328532   -2.136611
  H      4.076233    2.049994   -1.989010
  C      6.462677   -3.117775   -3.944671
  C      5.024977   -3.025679   -4.437625
  H      4.423321   -3.818693   -3.977648
  H      4.579350   -2.087131   -4.108727
  H      5.201533   -4.100207   -6.296905
  H      5.605922   -2.397822   -6.413368
  C      6.559957   -0.356290   -2.559086
  H      5.967976    0.952567   -0.942444
  H      6.547184    1.788331   -2.368849
  C      6.006283   -1.615917   -1.899301
  H      7.642360   -0.318000   -2.402059
  H      6.414855   -0.403433   -3.642587
  C      6.608718   -2.917014   -2.435655
  H      6.190324   -1.561115   -0.820948
  H      4.919250   -1.651245   -2.016586
  H      7.066975   -2.374258   -4.475514
  H      6.887808   -4.089747   -4.215332
  H      6.135197   -3.755573   -1.915159
  H      7.671142   -2.955503   -2.172291
  O      2.851546   -0.783683   -4.956789

 Total Charge           Charge          ....    0
 Multiplicity           Mult            ....    1
 Number of Electrons    NEL             ....  144
 Basis Dimension        Dim             ....  854

ORBITAL ENERGIES
----------------

  NO   OCC          E(Eh)            E(eV)
   0   2.0000     -89.195042     -2427.1205
   1   2.0000     -24.894910      -677.4249
   2   2.0000     -19.223860      -523.1078
   3   2.0000     -19.213527      -522.8267
   4   2.0000     -14.362368      -390.8199
   5   2.0000     -14.347495      -390.4152
   6   2.0000     -10.315090      -280.6879
   7   2.0000     -10.273791      -279.5641
   8   2.0000     -10.259025      -279.1623
   9   2.0000     -10.258859      -279.1577
  10   2.0000     -10.245664      -278.7987
  11   2.0000     -10.240233      -278.6509
  12   2.0000     -10.236301      -278.5439
  13   2.0000     -10.230491      -278.3858
  14   2.0000     -10.224600      -278.2255
  15   2.0000     -10.224206      -278.2148
  16   2.0000     -10.112181      -275.1664
  17   2.0000      -8.239262      -224.2017
  18   2.0000      -6.207027      -168.9018
  19   2.0000      -6.200662      -168.7286
  20   2.0000      -6.200280      -168.7182
  21   2.0000      -1.486176       -40.4409
  22   2.0000      -1.200935       -32.6791
  23   2.0000      -1.101938       -29.9852
  24   2.0000      -1.021622       -27.7997
  25   2.0000      -0.936565       -25.4852
  26   2.0000      -0.930151       -25.3107
  27   2.0000      -0.894069       -24.3289
  28   2.0000      -0.864545       -23.5255
  29   2.0000      -0.834136       -22.6980
  30   2.0000      -0.808205       -21.9924
  31   2.0000      -0.780295       -21.2329
  32   2.0000      -0.750011       -20.4088
  33   2.0000      -0.722606       -19.6631
  34   2.0000      -0.700170       -19.0526
  35   2.0000      -0.682735       -18.5782
  36   2.0000      -0.669395       -18.2152
  37   2.0000      -0.667824       -18.1724
  38   2.0000      -0.653810       -17.7911
  39   2.0000      -0.634854       -17.2753
  40   2.0000      -0.623352       -16.9623
  41   2.0000      -0.587353       -15.9827
  42   2.0000      -0.577690       -15.7197
  43   2.0000      -0.562787       -15.3142
  44   2.0000      -0.550293       -14.9742
  45   2.0000      -0.545321       -14.8389
  46   2.0000      -0.533431       -14.5154
  47   2.0000      -0.532601       -14.4928
  48   2.0000      -0.519503       -14.1364
  49   2.0000      -0.511171       -13.9097
  50   2.0000      -0.500548       -13.6206
  51   2.0000      -0.493376       -13.4254
  52   2.0000      -0.484884       -13.1944
  53   2.0000      -0.466272       -12.6879
  54   2.0000      -0.457312       -12.4441
  55   2.0000      -0.453954       -12.3527
  56   2.0000      -0.444540       -12.0965
  57   2.0000      -0.438954       -11.9445
  58   2.0000      -0.426204       -11.5976
  59   2.0000      -0.422388       -11.4938
  60   2.0000      -0.420447       -11.4410
  61   2.0000      -0.412959       -11.2372
  62   2.0000      -0.403519       -10.9803
  63   2.0000      -0.397366       -10.8129
  64   2.0000      -0.391661       -10.6576
  65   2.0000      -0.384438       -10.4611
  66   2.0000      -0.374121       -10.1803
  67   2.0000      -0.372639       -10.1400
  68   2.0000      -0.366133        -9.9630
  69   2.0000      -0.356656        -9.7051
  70   2.0000      -0.290454        -7.9036
  71   2.0000      -0.189629        -5.1601
  72   0.0000       0.008153         0.2219
  73   0.0000       0.029404         0.8001
  74   0.0000       0.033194         0.9032
  75   0.0000       0.039977         1.0878
  76   0.0000       0.047096         1.2815

MULLIKEN ATOMIC CHARGES
-----------------------
   0 C :   -0.996101
   1 N :   -0.118950
   2 C :   -0.719414
   3 C :   -0.879563
   4 H :    0.384579
   5 H :    0.414158
   6 S :    1.264891
   7 C :    1.045513
   8 C :   -1.701909
   9 N :   -0.363918
  10 H :    0.164326
  11 H :    0.165911
  12 H :    0.170494
  13 H :    0.625847
  14 H :    0.182527
  15 O :   -0.646431
  16 F :   -0.099560
  17 C :   -0.584692
  18 H :    0.350332
  19 H :    0.363588
  20 C :   -0.649705
  21 C :   -0.262201
  22 H :    0.285113
  23 H :    0.238496
  24 H :    0.316131
  25 H :    0.334054
  26 C :   -0.391274
  27 H :    0.344843
  28 H :    0.406224
  29 C :   -0.574888
  30 H :    0.274491
  31 H :    0.250920
  32 C :   -0.771864
  33 H :    0.315956
  34 H :    0.290100
  35 H :    0.352454
  36 H :    0.332307
  37 H :    0.301230
  38 H :    0.306613
  39 O :   -0.720627
Sum of atomic charges:   -0.0000000

LOEWDIN ATOMIC CHARGES
----------------------
   0 C :   -0.191629
   1 N :    0.032089
   2 C :   -0.213239
   3 C :   -0.228082
   4 H :    0.112453
   5 H :    0.107488
   6 S :    0.672673
   7 C :   -0.539597
   8 C :    0.005218
   9 N :    0.117746
  10 H :    0.083340
  11 H :    0.103806
  12 H :    0.062268
  13 H :   -0.050039
  14 H :    0.009527
  15 O :   -0.284502
  16 F :   -0.025306
  17 C :   -0.193804
  18 H :    0.114120
  19 H :    0.108529
  20 C :   -0.216021
  21 C :   -0.217169
  22 H :    0.130509
  23 H :    0.086585
  24 H :    0.125930
  25 H :    0.120195
  26 C :   -0.210990
  27 H :    0.110041
  28 H :    0.104124
  29 C :   -0.221101
  30 H :    0.117723
  31 H :    0.107036
  32 C :   -0.211728
  33 H :    0.115285
  34 H :    0.100642
  35 H :    0.112450
  36 H :    0.114720
  37 H :    0.109717
  38 H :    0.111331
  39 O :   -0.292334

  Mayer bond orders larger than 0.100000
B(  0-C ,  1-N ) :   0.9075 B(  0-C ,  7-C ) :  -0.1448 B(  0-C ,  9-N ) :   0.1133
B(  0-C , 12-H ) :  -0.1671 B(  0-C , 17-C ) :   0.6431 B(  0-C , 18-H ) :   0.8433
B(  0-C , 19-H ) :   0.8442 B(  1-N ,  7-C ) :   0.9960 B(  1-N , 12-H ) :   0.9634
B(  1-N , 39-O ) :  -0.1024 B(  2-C ,  3-C ) :   0.9220 B(  2-C , 20-C ) :   0.3189
B(  2-C , 21-C ) :   0.4300 B(  2-C , 22-H ) :  -0.1046 B(  2-C , 24-H ) :   0.9623
B(  2-C , 25-H ) :   0.9104 B(  3-C ,  4-H ) :   0.8517 B(  3-C ,  5-H ) :   0.8685
B(  3-C ,  6-S ) :   0.9082 B(  3-C , 21-C ) :   0.1117 B(  6-S , 15-O ) :   1.5685
B(  6-S , 16-F ) :   0.8802 B(  6-S , 39-O ) :   1.6392 B(  7-C ,  8-C ) :   0.6811
B(  7-C ,  9-N ) :   0.9184 B(  7-C , 12-H ) :  -0.2550 B(  7-C , 14-H ) :  -0.2287
B(  8-C , 13-H ) :   0.7371 B(  8-C , 14-H ) :   1.2522 B(  8-C , 15-O ) :   0.1080
B(  9-N , 10-H ) :   1.0150 B(  9-N , 11-H ) :   1.0135 B( 13-H , 15-O ) :  -0.3095
B( 15-O , 39-O ) :   0.1469 B( 17-C , 26-C ) :   0.9105 B( 17-C , 27-H ) :   0.9737
B( 17-C , 28-H ) :   0.8538 B( 17-C , 29-C ) :   0.1352 B( 20-C , 21-C ) :   0.4212
B( 20-C , 32-C ) :   0.8530 B( 20-C , 35-H ) :   0.9537 B( 20-C , 36-H ) :   0.9073
B( 21-C , 22-H ) :   0.8691 B( 21-C , 23-H ) :   1.3227 B( 21-C , 29-C ) :   0.1073
B( 21-C , 32-C ) :   0.1019 B( 21-C , 39-O ) :   0.1505 B( 22-H , 23-H ) :   0.1641
B( 23-H , 39-O ) :  -0.1971 B( 26-C , 29-C ) :   0.2506 B( 26-C , 30-H ) :   0.9594
B( 26-C , 31-H ) :   1.0486 B( 26-C , 34-H ) :  -0.1365 B( 29-C , 32-C ) :   0.8381
B( 29-C , 33-H ) :   0.9320 B( 29-C , 34-H ) :   1.0584 B( 32-C , 37-H ) :   0.9645
B( 32-C , 38-H ) :   0.9811

FINAL SINGLE POINT ENERGY     -1190.889972336544

DIPOLE MOMENT
-------------
                                X             Y             Z
Electronic contribution:    -20.62495       2.60329     -20.18318
Nuclear contribution   :     20.03262      -4.53368      20.24480
                        -----------------------------------------
Total Dipole Moment    :     -0.59232      -1.93039       0.06162
                        -----------------------------------------
Magnitude (a.u.)       :      2.02016
Magnitude (Debye)      :      5.13484

Rotational constants in cm-1:     0.014367     0.012055     0.007393
Rotational constants in MHz :   430.711297   361.391195   221.649333

                             ****ORCA TERMINATED NORMALLY****
TOTAL RUN TIME: 0 days 0 hours 16 minutes 18 seconds 99 msec
