                         Program Version 5.0.0 -  RELEASE  -
|  1> !CAM-B3LYP RIJCOSX def2-TZVPD def2/J TightSCF xyzfile
|  2>
|  3> *xyzfile 0 1 D6.xyz
|  4>
|  5> %MaxCore 64000
|  6>
|  7> %pal nprocs 4
|  8> end
|  9>
| 10> %scf
| 11>   MaxIter 150
| 12> end
| 13>
| 14>
| 15>                          ****END OF INPUT****

CARTESIAN COORDINATES (ANGSTROEM)
---------------------------------
  C      4.490588    1.155899   -2.469290
  N      4.305394    1.222762   -3.908317
  C      4.906458   -3.102816   -5.954844
  C      3.511771   -2.806215   -6.492283
  H      2.736044   -3.373445   -5.973736
  H      3.444904   -3.040831   -7.555281
  S      3.004618   -1.096206   -6.389259
  C      4.631918    2.246365   -4.670958
  N      4.541686    2.143990   -5.987139
  C      5.084086    3.393584   -4.118545
  H      4.920675    3.570501   -3.135870
  H      5.254652    4.197390   -4.706956
  H      3.824530    0.449113   -4.350926
  H      4.343373    1.249318   -6.416646
  H      4.676712    2.956624   -6.574113
  O      4.128856   -0.329647   -6.953717
  F      1.781285   -1.000779   -7.136399
  C      5.942129    0.939500   -2.036893
  H      3.864305    0.328532   -2.136611
  H      4.076233    2.049994   -1.989010
  C      6.462677   -3.117775   -3.944671
  C      5.024977   -3.025679   -4.437625
  H      4.423321   -3.818693   -3.977648
  H      4.579350   -2.087131   -4.108727
  H      5.201533   -4.100207   -6.296905
  H      5.605922   -2.397822   -6.413368
  C      6.559957   -0.356290   -2.559086
  H      5.967976    0.952567   -0.942444
  H      6.547184    1.788331   -2.368849
  C      6.006283   -1.615917   -1.899301
  H      7.642360   -0.318000   -2.402059
  H      6.414855   -0.403433   -3.642587
  C      6.608718   -2.917014   -2.435655
  H      6.190324   -1.561115   -0.820948
  H      4.919250   -1.651245   -2.016586
  H      7.066975   -2.374258   -4.475514
  H      6.887808   -4.089747   -4.215332
  H      6.135197   -3.755573   -1.915159
  H      7.671142   -2.955503   -2.172291
  O      2.851546   -0.783683   -4.956789

 Total Charge           Charge          ....    0
 Multiplicity           Mult            ....    1
 Number of Electrons    NEL             ....  144
 Basis Dimension        Dim             ....  854

ORBITAL ENERGIES
----------------

  NO   OCC          E(Eh)            E(eV)
   0   2.0000     -89.214579     -2427.6521
   1   2.0000     -24.911890      -677.8870
   2   2.0000     -19.240386      -523.5575
   3   2.0000     -19.239872      -523.5435
   4   2.0000     -14.350432      -390.4951
   5   2.0000     -14.346205      -390.3801
   6   2.0000     -10.328855      -281.0624
   7   2.0000     -10.283472      -279.8275
   8   2.0000     -10.261608      -279.2326
   9   2.0000     -10.251821      -278.9662
  10   2.0000     -10.250791      -278.9382
  11   2.0000     -10.243739      -278.7463
  12   2.0000     -10.237002      -278.5630
  13   2.0000     -10.228719      -278.3376
  14   2.0000     -10.220561      -278.1156
  15   2.0000     -10.214465      -277.9497
  16   2.0000     -10.123962      -275.4870
  17   2.0000      -8.258853      -224.7348
  18   2.0000      -6.226542      -169.4328
  19   2.0000      -6.220439      -169.2667
  20   2.0000      -6.219758      -169.2482
  21   2.0000      -1.503262       -40.9058
  22   2.0000      -1.221533       -33.2396
  23   2.0000      -1.123296       -30.5664
  24   2.0000      -1.021190       -27.7880
  25   2.0000      -0.942147       -25.6371
  26   2.0000      -0.936426       -25.4815
  27   2.0000      -0.897805       -24.4305
  28   2.0000      -0.865658       -23.5557
  29   2.0000      -0.838366       -22.8131
  30   2.0000      -0.809142       -22.0179
  31   2.0000      -0.772387       -21.0177
  32   2.0000      -0.758376       -20.6365
  33   2.0000      -0.734666       -19.9913
  34   2.0000      -0.708144       -19.2696
  35   2.0000      -0.699879       -19.0447
  36   2.0000      -0.683047       -18.5866
  37   2.0000      -0.668123       -18.1806
  38   2.0000      -0.663473       -18.0540
  39   2.0000      -0.631497       -17.1839
  40   2.0000      -0.609649       -16.5894
  41   2.0000      -0.597913       -16.2700
  42   2.0000      -0.590116       -16.0579
  43   2.0000      -0.574848       -15.6424
  44   2.0000      -0.567130       -15.4324
  45   2.0000      -0.550118       -14.9695
  46   2.0000      -0.544784       -14.8243
  47   2.0000      -0.531674       -14.4676
  48   2.0000      -0.521717       -14.1966
  49   2.0000      -0.507253       -13.8030
  50   2.0000      -0.500112       -13.6087
  51   2.0000      -0.497530       -13.5385
  52   2.0000      -0.488721       -13.2988
  53   2.0000      -0.473260       -12.8781
  54   2.0000      -0.459126       -12.4934
  55   2.0000      -0.453734       -12.3467
  56   2.0000      -0.449817       -12.2401
  57   2.0000      -0.438955       -11.9446
  58   2.0000      -0.432372       -11.7654
  59   2.0000      -0.424954       -11.5636
  60   2.0000      -0.419196       -11.4069
  61   2.0000      -0.414745       -11.2858
  62   2.0000      -0.407814       -11.0972
  63   2.0000      -0.403526       -10.9805
  64   2.0000      -0.398548       -10.8451
  65   2.0000      -0.394281       -10.7289
  66   2.0000      -0.386993       -10.5306
  67   2.0000      -0.371791       -10.1170
  68   2.0000      -0.370101       -10.0710
  69   2.0000      -0.360817        -9.8183
  70   2.0000      -0.279724        -7.6117
  71   2.0000      -0.192259        -5.2316
  72   0.0000      -0.000998        -0.0272
  73   0.0000       0.021434         0.5832
  74   0.0000       0.026187         0.7126
  75   0.0000       0.037348         1.0163
  76   0.0000       0.047890         1.3031

MULLIKEN ATOMIC CHARGES
-----------------------
   0 C :   -0.989886
   1 N :   -0.159935
   2 C :   -0.712595
   3 C :   -0.858177
   4 H :    0.394274
   5 H :    0.412272
   6 S :    1.282051
   7 C :    0.848511
   8 N :   -0.248346
   9 C :   -1.358425
  10 H :    0.259876
  11 H :    0.324089
  12 H :    0.253875
  13 H :    0.238922
  14 H :    0.122074
  15 O :   -0.782021
  16 F :   -0.100936
  17 C :   -0.656652
  18 H :    0.367884
  19 H :    0.362898
  20 C :   -0.648501
  21 C :   -0.284801
  22 H :    0.291131
  23 H :    0.254038
  24 H :    0.315086
  25 H :    0.335050
  26 C :   -0.350903
  27 H :    0.344906
  28 H :    0.420409
  29 C :   -0.559391
  30 H :    0.275884
  31 H :    0.193911
  32 C :   -0.781998
  33 H :    0.317712
  34 H :    0.277159
  35 H :    0.361871
  36 H :    0.330358
  37 H :    0.298278
  38 H :    0.306828
  39 O :   -0.696777
Sum of atomic charges:   -0.0000000

LOEWDIN ATOMIC CHARGES
----------------------
   0 C :   -0.187644
   1 N :    0.031151
   2 C :   -0.212485
   3 C :   -0.223977
   4 H :    0.115285
   5 H :    0.108607
   6 S :    0.679125
   7 C :   -0.547970
   8 N :    0.125941
   9 C :   -0.004857
  10 H :   -0.007489
  11 H :   -0.002634
  12 H :    0.057965
  13 H :    0.023407
  14 H :    0.111906
  15 O :   -0.282497
  16 F :   -0.021888
  17 C :   -0.189415
  18 H :    0.112778
  19 H :    0.113914
  20 C :   -0.215984
  21 C :   -0.216888
  22 H :    0.131193
  23 H :    0.086716
  24 H :    0.127353
  25 H :    0.119768
  26 C :   -0.212149
  27 H :    0.111861
  28 H :    0.103586
  29 C :   -0.221544
  30 H :    0.117673
  31 H :    0.104219
  32 C :   -0.211747
  33 H :    0.115806
  34 H :    0.099972
  35 H :    0.112183
  36 H :    0.114763
  37 H :    0.109528
  38 H :    0.111722
  39 O :   -0.287259

  Mayer bond orders larger than 0.100000
B(  0-C ,  1-N ) :   0.9407 B(  0-C ,  9-C ) :   0.1389 B(  0-C , 12-H ) :  -0.2378
B(  0-C , 17-C ) :   0.7054 B(  0-C , 18-H ) :   0.7706 B(  0-C , 19-H ) :   0.8639
B(  1-N ,  7-C ) :   1.0037 B(  1-N , 12-H ) :   0.9248 B(  1-N , 17-C ) :   0.1386
B(  1-N , 39-O ) :  -0.1000 B(  2-C ,  3-C ) :   0.9231 B(  2-C , 20-C ) :   0.3171
B(  2-C , 21-C ) :   0.4113 B(  2-C , 22-H ) :  -0.1054 B(  2-C , 24-H ) :   0.9638
B(  2-C , 25-H ) :   0.9089 B(  3-C ,  4-H ) :   0.8455 B(  3-C ,  5-H ) :   0.8671
B(  3-C ,  6-S ) :   0.9011 B(  3-C , 15-O ) :   0.1059 B(  3-C , 21-C ) :   0.1135
B(  6-S , 15-O ) :   1.4881 B(  6-S , 16-F ) :   0.8895 B(  6-S , 39-O ) :   1.6701
B(  7-C ,  8-N ) :   0.9129 B(  7-C ,  9-C ) :   0.9394 B(  7-C , 11-H ) :  -0.1122
B(  7-C , 12-H ) :  -0.2508 B(  8-N , 13-H ) :   0.9016 B(  8-N , 14-H ) :   1.0472
B(  9-C , 10-H ) :   1.0711 B(  9-C , 11-H ) :   1.0339 B( 15-O , 39-O ) :   0.1194
B( 17-C , 26-C ) :   0.9011 B( 17-C , 27-H ) :   0.9340 B( 17-C , 28-H ) :   0.8872
B( 17-C , 29-C ) :   0.1301 B( 20-C , 21-C ) :   0.4301 B( 20-C , 32-C ) :   0.8505
B( 20-C , 35-H ) :   0.9440 B( 20-C , 36-H ) :   0.9100 B( 21-C , 22-H ) :   0.8689
B( 21-C , 23-H ) :   1.3065 B( 21-C , 29-C ) :   0.1083 B( 21-C , 32-C ) :   0.1026
B( 21-C , 39-O ) :   0.1477 B( 22-H , 23-H ) :   0.1681 B( 23-H , 39-O ) :  -0.1966
B( 26-C , 29-C ) :   0.2639 B( 26-C , 30-H ) :   0.9566 B( 26-C , 31-H ) :   1.0792
B( 26-C , 34-H ) :  -0.1354 B( 29-C , 32-C ) :   0.8266 B( 29-C , 33-H ) :   0.9320
B( 29-C , 34-H ) :   1.0649 B( 32-C , 37-H ) :   0.9705 B( 32-C , 38-H ) :   0.9820

FINAL SINGLE POINT ENERGY     -1190.904593759904

DIPOLE MOMENT
-------------
                                X             Y             Z
Electronic contribution:    -21.14968       1.26005     -21.87391
Nuclear contribution   :     20.11362      -4.34709      20.52383
                        -----------------------------------------
Total Dipole Moment    :     -1.03606      -3.08704      -1.35008
                        -----------------------------------------
Magnitude (a.u.)       :      3.52504
Magnitude (Debye)      :      8.95995

Rotational constants in cm-1:     0.014449     0.012108     0.007447
Rotational constants in MHz :   433.168496   362.988632   223.260798

                             ****ORCA TERMINATED NORMALLY****
TOTAL RUN TIME: 0 days 0 hours 17 minutes 43 seconds 350 msec
