                         Program Version 5.0.0 -  RELEASE  -
|  1> !CAM-B3LYP RIJCOSX def2-TZVPD def2/J TightSCF xyzfile
|  2>
|  3> *xyzfile 0 1 D7.xyz
|  4>
|  5> %MaxCore 64000
|  6>
|  7> %pal nprocs 4
|  8> end
|  9>
| 10> %scf
| 11>   MaxIter 150
| 12> end
| 13>
| 14>
| 15>                          ****END OF INPUT****

CARTESIAN COORDINATES (ANGSTROEM)
---------------------------------
  C      4.490588    1.155899   -2.469290
  C      4.305394    1.222762   -3.908317
  C      4.906458   -3.102816   -5.954844
  C      3.511771   -2.806215   -6.492283
  H      2.736044   -3.373445   -5.973736
  H      3.444904   -3.040831   -7.555281
  S      3.004618   -1.096206   -6.389259
  C      4.631918    2.246365   -4.670958
  N      4.541686    2.143990   -5.987139
  N      5.084086    3.393584   -4.118545
  H      4.920675    3.570501   -3.135870
  H      5.254652    4.197390   -4.706956
  H      3.824530    0.449113   -4.350926
  H      4.343373    1.249318   -6.416646
  H      4.676712    2.956624   -6.574113
  O      4.128856   -0.329647   -6.953717
  O      1.781285   -1.000779   -7.136399
  C      5.942129    0.939500   -2.036893
  H      3.864305    0.328532   -2.136611
  H      4.076233    2.049994   -1.989010
  C      6.462677   -3.117775   -3.944671
  C      5.024977   -3.025679   -4.437625
  H      4.423321   -3.818693   -3.977648
  H      4.579350   -2.087131   -4.108727
  H      5.201533   -4.100207   -6.296905
  H      5.605922   -2.397822   -6.413368
  C      6.559957   -0.356290   -2.559086
  H      5.967976    0.952567   -0.942444
  H      6.547184    1.788331   -2.368849
  C      6.006283   -1.615917   -1.899301
  H      7.642360   -0.318000   -2.402059
  H      6.414855   -0.403433   -3.642587
  C      6.608718   -2.917014   -2.435655
  H      6.190324   -1.561115   -0.820948
  H      4.919250   -1.651245   -2.016586
  H      7.066975   -2.374258   -4.475514
  H      6.887808   -4.089747   -4.215332
  H      6.135197   -3.755573   -1.915159
  H      7.671142   -2.955503   -2.172291
  F      2.851546   -0.783683   -4.956789

 Total Charge           Charge          ....    0
 Multiplicity           Mult            ....    1
 Number of Electrons    NEL             ....  144
 Basis Dimension        Dim             ....  854

ORBITAL ENERGIES
----------------

  NO   OCC          E(Eh)            E(eV)
   0   2.0000     -89.189977     -2426.9827
   1   2.0000     -24.870602      -676.7635
   2   2.0000     -19.225547      -523.1537
   3   2.0000     -19.221091      -523.0325
   4   2.0000     -14.378789      -391.2667
   5   2.0000     -14.356277      -390.6541
   6   2.0000     -10.311220      -280.5826
   7   2.0000     -10.275215      -279.6028
   8   2.0000     -10.270575      -279.4765
   9   2.0000     -10.251681      -278.9624
  10   2.0000     -10.241822      -278.6941
  11   2.0000     -10.235499      -278.5221
  12   2.0000     -10.227505      -278.3046
  13   2.0000     -10.218722      -278.0656
  14   2.0000     -10.214225      -277.9432
  15   2.0000     -10.210713      -277.8476
  16   2.0000     -10.146416      -276.0980
  17   2.0000      -8.234213      -224.0643
  18   2.0000      -6.202122      -168.7683
  19   2.0000      -6.195675      -168.5929
  20   2.0000      -6.195149      -168.5786
  21   2.0000      -1.454383       -39.5758
  22   2.0000      -1.208158       -32.8756
  23   2.0000      -1.114062       -30.3152
  24   2.0000      -1.026946       -27.9446
  25   2.0000      -0.934602       -25.4318
  26   2.0000      -0.929174       -25.2841
  27   2.0000      -0.894103       -24.3298
  28   2.0000      -0.865215       -23.5437
  29   2.0000      -0.838802       -22.8250
  30   2.0000      -0.802420       -21.8350
  31   2.0000      -0.788205       -21.4482
  32   2.0000      -0.750693       -20.4274
  33   2.0000      -0.723088       -19.6762
  34   2.0000      -0.701761       -19.0959
  35   2.0000      -0.671826       -18.2813
  36   2.0000      -0.665578       -18.1113
  37   2.0000      -0.656280       -17.8583
  38   2.0000      -0.650395       -17.6981
  39   2.0000      -0.628787       -17.1102
  40   2.0000      -0.620745       -16.8913
  41   2.0000      -0.596988       -16.2449
  42   2.0000      -0.573326       -15.6010
  43   2.0000      -0.561024       -15.2662
  44   2.0000      -0.556936       -15.1550
  45   2.0000      -0.549982       -14.9658
  46   2.0000      -0.548004       -14.9119
  47   2.0000      -0.529864       -14.4183
  48   2.0000      -0.520519       -14.1641
  49   2.0000      -0.511552       -13.9200
  50   2.0000      -0.498680       -13.5698
  51   2.0000      -0.493262       -13.4223
  52   2.0000      -0.491181       -13.3657
  53   2.0000      -0.474998       -12.9253
  54   2.0000      -0.464676       -12.6445
  55   2.0000      -0.451959       -12.2984
  56   2.0000      -0.444366       -12.0918
  57   2.0000      -0.439180       -11.9507
  58   2.0000      -0.434159       -11.8141
  59   2.0000      -0.422420       -11.4946
  60   2.0000      -0.415132       -11.2963
  61   2.0000      -0.409901       -11.1540
  62   2.0000      -0.404894       -11.0177
  63   2.0000      -0.398772       -10.8511
  64   2.0000      -0.394029       -10.7221
  65   2.0000      -0.392249       -10.6736
  66   2.0000      -0.384342       -10.4585
  67   2.0000      -0.368608       -10.0303
  68   2.0000      -0.362931        -9.8758
  69   2.0000      -0.357611        -9.7311
  70   2.0000      -0.312735        -8.5099
  71   2.0000      -0.206186        -5.6106
  72   0.0000       0.015458         0.4206
  73   0.0000       0.031836         0.8663
  74   0.0000       0.033283         0.9057
  75   0.0000       0.036924         1.0047
  76   0.0000       0.049810         1.3554

MULLIKEN ATOMIC CHARGES
-----------------------
   0 C :   -1.098037
   1 C :   -0.954899
   2 C :   -0.635968
   3 C :   -0.807188
   4 H :    0.350336
   5 H :    0.362601
   6 S :    1.387063
   7 C :    0.360573
   8 N :   -0.269255
   9 N :   -0.318449
  10 H :    0.188148
  11 H :    0.130736
  12 H :    0.945987
  13 H :    0.202053
  14 H :    0.120561
  15 O :   -0.787701
  16 O :   -0.581135
  17 C :   -0.708097
  18 H :    0.327539
  19 H :    0.376929
  20 C :   -0.675993
  21 C :   -0.205028
  22 H :    0.283039
  23 H :    0.177971
  24 H :    0.323919
  25 H :    0.328850
  26 C :   -0.441715
  27 H :    0.300209
  28 H :    0.390687
  29 C :   -0.568521
  30 H :    0.276519
  31 H :    0.291030
  32 C :   -0.767045
  33 H :    0.314673
  34 H :    0.271461
  35 H :    0.361144
  36 H :    0.329076
  37 H :    0.298895
  38 H :    0.305792
  39 F :   -0.186759
Sum of atomic charges:   -0.0000000

LOEWDIN ATOMIC CHARGES
----------------------
   0 C :   -0.228449
   1 C :   -0.145228
   2 C :   -0.223701
   3 C :   -0.220158
   4 H :    0.114343
   5 H :    0.117098
   6 S :    0.651229
   7 C :   -0.515118
   8 N :    0.124377
   9 N :    0.132476
  10 H :    0.094631
  11 H :    0.096420
  12 H :    0.023395
  13 H :    0.030360
  14 H :    0.102966
  15 O :   -0.284406
  16 O :   -0.250649
  17 C :   -0.207148
  18 H :    0.103663
  19 H :    0.103317
  20 C :   -0.215316
  21 C :   -0.219406
  22 H :    0.130433
  23 H :    0.088078
  24 H :    0.124429
  25 H :    0.117296
  26 C :   -0.213723
  27 H :    0.106969
  28 H :    0.104243
  29 C :   -0.220352
  30 H :    0.116637
  31 H :    0.103694
  32 C :   -0.212517
  33 H :    0.115595
  34 H :    0.099542
  35 H :    0.112407
  36 H :    0.115599
  37 H :    0.109331
  38 H :    0.111265
  39 F :   -0.093621

  Mayer bond orders larger than 0.100000
B(  0-C ,  1-C ) :   0.5494 B(  0-C ,  7-C ) :   0.1505 B(  0-C , 17-C ) :   0.6680
B(  0-C , 18-H ) :   0.9980 B(  0-C , 19-H ) :   0.8758 B(  1-C ,  7-C ) :   0.9708
B(  1-C , 12-H ) :  -0.4701 B(  1-C , 18-H ) :  -0.1065 B(  1-C , 19-H ) :  -0.1011
B(  1-C , 39-F ) :   0.3969 B(  2-C ,  3-C ) :   0.8142 B(  2-C , 20-C ) :   0.3240
B(  2-C , 21-C ) :   0.3902 B(  2-C , 22-H ) :  -0.1111 B(  2-C , 24-H ) :   0.9596
B(  2-C , 25-H ) :   0.9314 B(  3-C ,  4-H ) :   0.9025 B(  3-C ,  5-H ) :   0.9247
B(  3-C ,  6-S ) :   0.9347 B(  3-C , 16-O ) :   0.1419 B(  3-C , 21-C ) :   0.1313
B(  6-S , 15-O ) :   1.3928 B(  6-S , 16-O ) :   1.4421 B(  6-S , 39-F ) :   1.0226
B(  7-C ,  8-N ) :   0.9298 B(  7-C ,  9-N ) :   1.0855 B(  7-C , 12-H ) :   0.4090
B(  8-N , 12-H ) :   0.1349 B(  8-N , 13-H ) :   0.9298 B(  8-N , 14-H ) :   1.0535
B(  9-N , 10-H ) :   0.9762 B(  9-N , 11-H ) :   1.0451 B(  9-N , 17-C ) :   0.1291
B( 12-H , 15-O ) :   0.1561 B( 12-H , 39-F ) :  -0.5417 B( 17-C , 26-C ) :   0.9052
B( 17-C , 27-H ) :   0.9844 B( 17-C , 28-H ) :   0.8646 B( 17-C , 29-C ) :   0.1482
B( 20-C , 21-C ) :   0.4824 B( 20-C , 26-C ) :   0.1015 B( 20-C , 32-C ) :   0.8421
B( 20-C , 35-H ) :   0.9403 B( 20-C , 36-H ) :   0.9118 B( 21-C , 22-H ) :   0.8750
B( 21-C , 23-H ) :   1.2589 B( 21-C , 29-C ) :   0.1155 B( 21-C , 39-F ) :   0.1157
B( 22-H , 23-H ) :   0.1715 B( 23-H , 39-F ) :  -0.1200 B( 26-C , 29-C ) :   0.2634
B( 26-C , 30-H ) :   0.9640 B( 26-C , 31-H ) :   1.0718 B( 26-C , 34-H ) :  -0.1478
B( 29-C , 31-H ) :  -0.1065 B( 29-C , 32-C ) :   0.8299 B( 29-C , 33-H ) :   0.9345
B( 29-C , 34-H ) :   1.0714 B( 32-C , 37-H ) :   0.9750 B( 32-C , 38-H ) :   0.9837

FINAL SINGLE POINT ENERGY     -1190.916765777880

DIPOLE MOMENT
-------------
                                X             Y             Z
Electronic contribution:    -18.41449       3.99469     -17.98756
Nuclear contribution   :     18.74089      -4.92611      17.99644
                        -----------------------------------------
Total Dipole Moment    :      0.32641      -0.93142       0.00889
                        -----------------------------------------
Magnitude (a.u.)       :      0.98700
Magnitude (Debye)      :      2.50875

Rotational constants in cm-1:     0.014210     0.012324     0.007480
Rotational constants in MHz :   425.991442   369.455467   224.259162

                             ****ORCA TERMINATED NORMALLY****
TOTAL RUN TIME: 0 days 0 hours 18 minutes 15 seconds 599 msec
