                         Program Version 5.0.0 -  RELEASE  -
|  1> !CAM-B3LYP RIJCOSX def2-TZVPD def2/J TightSCF xyzfile
|  2>
|  3> *xyzfile 0 1 D8.xyz
|  4>
|  5> %MaxCore 64000
|  6>
|  7> %pal nprocs 4
|  8> end
|  9>
| 10> %scf
| 11>   MaxIter 150
| 12> end
| 13>
| 14>
| 15>                          ****END OF INPUT****

CARTESIAN COORDINATES (ANGSTROEM)
---------------------------------
  C      4.490588    1.155899   -2.469290
  N      4.305394    1.222762   -3.908317
  C      4.906458   -3.102816   -5.954844
  C      3.511771   -2.806215   -6.492283
  H      2.736044   -3.373445   -5.973736
  H      3.444904   -3.040831   -7.555281
  S      3.004618   -1.096206   -6.389259
  C      4.631918    2.246365   -4.670958
  C      4.541686    2.143990   -5.987139
  N      5.084086    3.393584   -4.118545
  H      4.920675    3.570501   -3.135870
  H      5.254652    4.197390   -4.706956
  H      3.824530    0.449113   -4.350926
  H      4.343373    1.249318   -6.416646
  H      4.676712    2.956624   -6.574113
  O      4.128856   -0.329647   -6.953717
  O      1.781285   -1.000779   -7.136399
  C      5.942129    0.939500   -2.036893
  H      3.864305    0.328532   -2.136611
  H      4.076233    2.049994   -1.989010
  C      6.462677   -3.117775   -3.944671
  C      5.024977   -3.025679   -4.437625
  H      4.423321   -3.818693   -3.977648
  H      4.579350   -2.087131   -4.108727
  H      5.201533   -4.100207   -6.296905
  H      5.605922   -2.397822   -6.413368
  C      6.559957   -0.356290   -2.559086
  H      5.967976    0.952567   -0.942444
  H      6.547184    1.788331   -2.368849
  C      6.006283   -1.615917   -1.899301
  H      7.642360   -0.318000   -2.402059
  H      6.414855   -0.403433   -3.642587
  C      6.608718   -2.917014   -2.435655
  H      6.190324   -1.561115   -0.820948
  H      4.919250   -1.651245   -2.016586
  H      7.066975   -2.374258   -4.475514
  H      6.887808   -4.089747   -4.215332
  H      6.135197   -3.755573   -1.915159
  H      7.671142   -2.955503   -2.172291
  F      2.851546   -0.783683   -4.956789

 Total Charge           Charge          ....    0
 Multiplicity           Mult            ....    1
 Number of Electrons    NEL             ....  144
 Basis Dimension        Dim             ....  854

ORBITAL ENERGIES
----------------

  NO   OCC          E(Eh)            E(eV)
   0   2.0000     -89.184885     -2426.8441
   1   2.0000     -24.882175      -677.0784
   2   2.0000     -19.222000      -523.0572
   3   2.0000     -19.208290      -522.6842
   4   2.0000     -14.373227      -391.1154
   5   2.0000     -14.373129      -391.1127
   6   2.0000     -10.310353      -280.5590
   7   2.0000     -10.275972      -279.6234
   8   2.0000     -10.272429      -279.5270
   9   2.0000     -10.271625      -279.5051
  10   2.0000     -10.258598      -279.1506
  11   2.0000     -10.248878      -278.8862
  12   2.0000     -10.245061      -278.7823
  13   2.0000     -10.241547      -278.6866
  14   2.0000     -10.236735      -278.5557
  15   2.0000     -10.235852      -278.5317
  16   2.0000     -10.123136      -275.4645
  17   2.0000      -8.229434      -223.9343
  18   2.0000      -6.197608      -168.6455
  19   2.0000      -6.190558      -168.4537
  20   2.0000      -6.190261      -168.4456
  21   2.0000      -1.464521       -39.8516
  22   2.0000      -1.202647       -32.7257
  23   2.0000      -1.105200       -30.0740
  24   2.0000      -1.039188       -28.2778
  25   2.0000      -0.951949       -25.9038
  26   2.0000      -0.932318       -25.3697
  27   2.0000      -0.901233       -24.5238
  28   2.0000      -0.871886       -23.7252
  29   2.0000      -0.835874       -22.7453
  30   2.0000      -0.811924       -22.0936
  31   2.0000      -0.789894       -21.4941
  32   2.0000      -0.756429       -20.5835
  33   2.0000      -0.731828       -19.9140
  34   2.0000      -0.710315       -19.3286
  35   2.0000      -0.687980       -18.7209
  36   2.0000      -0.676112       -18.3980
  37   2.0000      -0.665703       -18.1147
  38   2.0000      -0.647938       -17.6313
  39   2.0000      -0.636317       -17.3151
  40   2.0000      -0.632197       -17.2029
  41   2.0000      -0.590581       -16.0705
  42   2.0000      -0.575988       -15.6734
  43   2.0000      -0.562506       -15.3066
  44   2.0000      -0.555119       -15.1056
  45   2.0000      -0.554540       -15.0898
  46   2.0000      -0.543072       -14.7777
  47   2.0000      -0.538514       -14.6537
  48   2.0000      -0.531923       -14.4744
  49   2.0000      -0.514839       -14.0095
  50   2.0000      -0.512027       -13.9330
  51   2.0000      -0.501956       -13.6589
  52   2.0000      -0.486310       -13.2332
  53   2.0000      -0.474115       -12.9013
  54   2.0000      -0.462757       -12.5923
  55   2.0000      -0.459450       -12.5023
  56   2.0000      -0.454251       -12.3608
  57   2.0000      -0.445485       -12.1223
  58   2.0000      -0.437277       -11.8989
  59   2.0000      -0.431618       -11.7449
  60   2.0000      -0.430650       -11.7186
  61   2.0000      -0.414528       -11.2799
  62   2.0000      -0.413360       -11.2481
  63   2.0000      -0.406435       -11.0596
  64   2.0000      -0.402721       -10.9586
  65   2.0000      -0.389702       -10.6043
  66   2.0000      -0.385655       -10.4942
  67   2.0000      -0.383847       -10.4450
  68   2.0000      -0.377459       -10.2712
  69   2.0000      -0.361340        -9.8326
  70   2.0000      -0.306920        -8.3517
  71   2.0000      -0.202369        -5.5068
  72   0.0000       0.012847         0.3496
  73   0.0000       0.026909         0.7322
  74   0.0000       0.032176         0.8755
  75   0.0000       0.036011         0.9799
  76   0.0000       0.047668         1.2971

MULLIKEN ATOMIC CHARGES
-----------------------
   0 C :   -1.001612
   1 N :   -0.151956
   2 C :   -0.610370
   3 C :   -0.825178
   4 H :    0.345580
   5 H :    0.365138
   6 S :    1.279825
   7 C :    1.082245
   8 C :   -1.791028
   9 N :   -0.365158
  10 H :    0.165158
  11 H :    0.170072
  12 H :    0.166599
  13 H :    0.685847
  14 H :    0.186257
  15 O :   -0.637979
  16 O :   -0.579142
  17 C :   -0.590302
  18 H :    0.371527
  19 H :    0.364106
  20 C :   -0.675779
  21 C :   -0.248303
  22 H :    0.298676
  23 H :    0.149590
  24 H :    0.326791
  25 H :    0.330780
  26 C :   -0.387403
  27 H :    0.348302
  28 H :    0.411255
  29 C :   -0.572822
  30 H :    0.274073
  31 H :    0.257214
  32 C :   -0.767117
  33 H :    0.313574
  34 H :    0.285429
  35 H :    0.350855
  36 H :    0.333456
  37 H :    0.304964
  38 H :    0.308073
  39 F :   -0.271236
Sum of atomic charges:    0.0000000

LOEWDIN ATOMIC CHARGES
----------------------
   0 C :   -0.191858
   1 N :    0.029736
   2 C :   -0.223285
   3 C :   -0.222266
   4 H :    0.112466
   5 H :    0.117893
   6 S :    0.644119
   7 C :   -0.538486
   8 C :    0.013838
   9 N :    0.119415
  10 H :    0.084330
  11 H :    0.106491
  12 H :    0.084437
  13 H :   -0.047165
  14 H :    0.015592
  15 O :   -0.285699
  16 O :   -0.249442
  17 C :   -0.192073
  18 H :    0.112778
  19 H :    0.110676
  20 C :   -0.214114
  21 C :   -0.220863
  22 H :    0.130651
  23 H :    0.084827
  24 H :    0.124815
  25 H :    0.118537
  26 C :   -0.210892
  27 H :    0.111730
  28 H :    0.105673
  29 C :   -0.222289
  30 H :    0.119356
  31 H :    0.106467
  32 C :   -0.210855
  33 H :    0.116268
  34 H :    0.097799
  35 H :    0.113316
  36 H :    0.117082
  37 H :    0.110520
  38 H :    0.112500
  39 F :   -0.092024

  Mayer bond orders larger than 0.100000
B(  0-C ,  1-N ) :   0.8959 B(  0-C ,  7-C ) :  -0.1528 B(  0-C ,  9-N ) :   0.1200
B(  0-C , 12-H ) :  -0.1545 B(  0-C , 17-C ) :   0.6678 B(  0-C , 18-H ) :   0.8119
B(  0-C , 19-H ) :   0.8523 B(  0-C , 29-C ) :   0.1013 B(  1-N ,  7-C ) :   1.0277
B(  1-N , 12-H ) :   0.9665 B(  1-N , 17-C ) :   0.1026 B(  2-C ,  3-C ) :   0.8136
B(  2-C , 20-C ) :   0.3291 B(  2-C , 21-C ) :   0.3993 B(  2-C , 22-H ) :  -0.1044
B(  2-C , 24-H ) :   0.9495 B(  2-C , 25-H ) :   0.9355 B(  3-C ,  4-H ) :   0.9058
B(  3-C ,  5-H ) :   0.9242 B(  3-C ,  6-S ) :   0.9546 B(  3-C , 16-O ) :   0.1272
B(  3-C , 21-C ) :   0.1494 B(  6-S , 15-O ) :   1.4950 B(  6-S , 16-O ) :   1.4645
B(  6-S , 39-F ) :   1.0280 B(  7-C ,  8-C ) :   0.5399 B(  7-C ,  9-N ) :   0.9175
B(  7-C , 12-H ) :  -0.2310 B(  7-C , 14-H ) :  -0.2382 B(  8-C , 12-H ) :   0.1182
B(  8-C , 13-H ) :   0.6999 B(  8-C , 14-H ) :   1.2496 B(  8-C , 15-O ) :   0.1212
B(  9-N , 10-H ) :   1.0141 B(  9-N , 11-H ) :   1.0096 B( 13-H , 15-O ) :  -0.3365
B( 17-C , 26-C ) :   0.9223 B( 17-C , 27-H ) :   0.9703 B( 17-C , 28-H ) :   0.8510
B( 17-C , 29-C ) :   0.1297 B( 20-C , 21-C ) :   0.4698 B( 20-C , 32-C ) :   0.8547
B( 20-C , 35-H ) :   0.9505 B( 20-C , 36-H ) :   0.9061 B( 21-C , 22-H ) :   0.8770
B( 21-C , 23-H ) :   1.2998 B( 21-C , 29-C ) :   0.1083 B( 21-C , 32-C ) :   0.1022
B( 21-C , 39-F ) :   0.1094 B( 22-H , 23-H ) :   0.1509 B( 23-H , 39-F ) :  -0.1269
B( 26-C , 29-C ) :   0.2303 B( 26-C , 30-H ) :   0.9549 B( 26-C , 31-H ) :   1.0559
B( 26-C , 34-H ) :  -0.1431 B( 29-C , 32-C ) :   0.8465 B( 29-C , 33-H ) :   0.9351
B( 29-C , 34-H ) :   1.0625 B( 32-C , 37-H ) :   0.9637 B( 32-C , 38-H ) :   0.9779

FINAL SINGLE POINT ENERGY     -1190.894677470187

DIPOLE MOMENT
-------------
                                X             Y             Z
Electronic contribution:    -18.44101       3.13950     -16.16616
Nuclear contribution   :     18.77618      -4.78855      17.68602
                        -----------------------------------------
Total Dipole Moment    :      0.33517      -1.64905       1.51987
                        -----------------------------------------
Magnitude (a.u.)       :      2.26753
Magnitude (Debye)      :      5.76360

Rotational constants in cm-1:     0.014368     0.012319     0.007509
Rotational constants in MHz :   430.738566   369.302170   225.105103

                             ****ORCA TERMINATED NORMALLY****
TOTAL RUN TIME: 0 days 0 hours 17 minutes 38 seconds 79 msec
