                         Program Version 5.0.0 -  RELEASE  -
|  1> !CAM-B3LYP RIJCOSX def2-TZVPD def2/J TightSCF xyzfile
|  2>
|  3> *xyzfile 0 1 D9.xyz
|  4>
|  5> %MaxCore 64000
|  6>
|  7> %pal nprocs 4
|  8> end
|  9>
| 10> %scf
| 11>   MaxIter 150
| 12> end
| 13>
| 14>
| 15>                          ****END OF INPUT****

CARTESIAN COORDINATES (ANGSTROEM)
---------------------------------
  C      4.490588    1.155899   -2.469290
  N      4.305394    1.222762   -3.908317
  C      4.906458   -3.102816   -5.954844
  C      3.511771   -2.806215   -6.492283
  H      2.736044   -3.373445   -5.973736
  H      3.444904   -3.040831   -7.555281
  S      3.004618   -1.096206   -6.389259
  C      4.631918    2.246365   -4.670958
  N      4.541686    2.143990   -5.987139
  C      5.084086    3.393584   -4.118545
  H      4.920675    3.570501   -3.135870
  H      5.254652    4.197390   -4.706956
  H      3.824530    0.449113   -4.350926
  H      4.343373    1.249318   -6.416646
  H      4.676712    2.956624   -6.574113
  O      4.128856   -0.329647   -6.953717
  O      1.781285   -1.000779   -7.136399
  C      5.942129    0.939500   -2.036893
  H      3.864305    0.328532   -2.136611
  H      4.076233    2.049994   -1.989010
  C      6.462677   -3.117775   -3.944671
  C      5.024977   -3.025679   -4.437625
  H      4.423321   -3.818693   -3.977648
  H      4.579350   -2.087131   -4.108727
  H      5.201533   -4.100207   -6.296905
  H      5.605922   -2.397822   -6.413368
  C      6.559957   -0.356290   -2.559086
  H      5.967976    0.952567   -0.942444
  H      6.547184    1.788331   -2.368849
  C      6.006283   -1.615917   -1.899301
  H      7.642360   -0.318000   -2.402059
  H      6.414855   -0.403433   -3.642587
  C      6.608718   -2.917014   -2.435655
  H      6.190324   -1.561115   -0.820948
  H      4.919250   -1.651245   -2.016586
  H      7.066975   -2.374258   -4.475514
  H      6.887808   -4.089747   -4.215332
  H      6.135197   -3.755573   -1.915159
  H      7.671142   -2.955503   -2.172291
  F      2.851546   -0.783683   -4.956789

 Total Charge           Charge          ....    0
 Multiplicity           Mult            ....    1
 Number of Electrons    NEL             ....  144
 Basis Dimension        Dim             ....  854

ORBITAL ENERGIES
----------------

  NO   OCC          E(Eh)            E(eV)
   0   2.0000     -89.204753     -2427.3847
   1   2.0000     -24.896896      -677.4790
   2   2.0000     -19.239543      -523.5346
   3   2.0000     -19.235334      -523.4201
   4   2.0000     -14.376952      -391.2167
   5   2.0000     -14.354946      -390.6179
   6   2.0000     -10.323764      -280.9239
   7   2.0000     -10.281889      -279.7844
   8   2.0000     -10.275642      -279.6144
   9   2.0000     -10.268358      -279.4162
  10   2.0000     -10.264520      -279.3118
  11   2.0000     -10.252273      -278.9785
  12   2.0000     -10.245744      -278.8009
  13   2.0000     -10.239852      -278.6405
  14   2.0000     -10.232082      -278.4291
  15   2.0000     -10.227382      -278.3012
  16   2.0000     -10.137018      -275.8423
  17   2.0000      -8.249282      -224.4744
  18   2.0000      -6.217411      -169.1844
  19   2.0000      -6.210561      -168.9980
  20   2.0000      -6.210028      -168.9835
  21   2.0000      -1.479553       -40.2607
  22   2.0000      -1.222962       -33.2785
  23   2.0000      -1.128137       -30.6982
  24   2.0000      -1.039176       -28.2774
  25   2.0000      -0.951434       -25.8898
  26   2.0000      -0.942309       -25.6415
  27   2.0000      -0.904001       -24.5991
  28   2.0000      -0.870359       -23.6837
  29   2.0000      -0.838256       -22.8101
  30   2.0000      -0.815250       -22.1841
  31   2.0000      -0.781804       -21.2740
  32   2.0000      -0.769339       -20.9348
  33   2.0000      -0.742603       -20.2073
  34   2.0000      -0.718626       -19.5548
  35   2.0000      -0.693159       -18.8618
  36   2.0000      -0.682461       -18.5707
  37   2.0000      -0.674252       -18.3473
  38   2.0000      -0.656531       -17.8651
  39   2.0000      -0.641351       -17.4520
  40   2.0000      -0.612289       -16.6612
  41   2.0000      -0.599120       -16.3029
  42   2.0000      -0.588294       -16.0083
  43   2.0000      -0.581327       -15.8187
  44   2.0000      -0.566262       -15.4088
  45   2.0000      -0.563677       -15.3384
  46   2.0000      -0.547513       -14.8986
  47   2.0000      -0.543771       -14.7967
  48   2.0000      -0.525460       -14.2985
  49   2.0000      -0.520789       -14.1714
  50   2.0000      -0.508825       -13.8458
  51   2.0000      -0.506735       -13.7890
  52   2.0000      -0.489535       -13.3209
  53   2.0000      -0.480737       -13.0815
  54   2.0000      -0.466818       -12.7028
  55   2.0000      -0.460676       -12.5356
  56   2.0000      -0.453774       -12.3478
  57   2.0000      -0.444907       -12.1065
  58   2.0000      -0.438928       -11.9438
  59   2.0000      -0.432103       -11.7581
  60   2.0000      -0.428482       -11.6596
  61   2.0000      -0.423763       -11.5312
  62   2.0000      -0.417547       -11.3620
  63   2.0000      -0.412392       -11.2218
  64   2.0000      -0.409871       -11.1532
  65   2.0000      -0.404109       -10.9964
  66   2.0000      -0.400566       -10.9000
  67   2.0000      -0.383563       -10.4373
  68   2.0000      -0.382289       -10.4026
  69   2.0000      -0.373075       -10.1519
  70   2.0000      -0.295828        -8.0499
  71   2.0000      -0.205755        -5.5989
  72   0.0000       0.005799         0.1578
  73   0.0000       0.023171         0.6305
  74   0.0000       0.028502         0.7756
  75   0.0000       0.035328         0.9613
  76   0.0000       0.046925         1.2769

MULLIKEN ATOMIC CHARGES
-----------------------
   0 C :   -0.987626
   1 N :   -0.181632
   2 C :   -0.614927
   3 C :   -0.806420
   4 H :    0.355750
   5 H :    0.368742
   6 S :    1.302107
   7 C :    0.855463
   8 N :   -0.238968
   9 C :   -1.363667
  10 H :    0.264195
  11 H :    0.324864
  12 H :    0.248670
  13 H :    0.235736
  14 H :    0.129400
  15 O :   -0.782497
  16 O :   -0.570840
  17 C :   -0.655082
  18 H :    0.380138
  19 H :    0.364660
  20 C :   -0.671439
  21 C :   -0.258347
  22 H :    0.304394
  23 H :    0.158850
  24 H :    0.325052
  25 H :    0.332226
  26 C :   -0.350549
  27 H :    0.347164
  28 H :    0.421949
  29 C :   -0.559278
  30 H :    0.277230
  31 H :    0.199876
  32 C :   -0.776795
  33 H :    0.315521
  34 H :    0.273986
  35 H :    0.359203
  36 H :    0.332287
  37 H :    0.300652
  38 H :    0.308339
  39 F :   -0.268387
Sum of atomic charges:   -0.0000000

LOEWDIN ATOMIC CHARGES
----------------------
   0 C :   -0.187731
   1 N :    0.029400
   2 C :   -0.222623
   3 C :   -0.218378
   4 H :    0.115219
   5 H :    0.119135
   6 S :    0.651136
   7 C :   -0.546496
   8 N :    0.129090
   9 C :    0.001701
  10 H :   -0.004844
  11 H :    0.002160
  12 H :    0.079611
  13 H :    0.024391
  14 H :    0.115503
  15 O :   -0.283193
  16 O :   -0.243639
  17 C :   -0.187629
  18 H :    0.111587
  19 H :    0.116005
  20 C :   -0.214118
  21 C :   -0.220676
  22 H :    0.131320
  23 H :    0.084795
  24 H :    0.126144
  25 H :    0.118111
  26 C :   -0.211913
  27 H :    0.113548
  28 H :    0.105248
  29 C :   -0.222669
  30 H :    0.119326
  31 H :    0.103743
  32 C :   -0.210869
  33 H :    0.116776
  34 H :    0.097210
  35 H :    0.113039
  36 H :    0.117113
  37 H :    0.110344
  38 H :    0.112871
  39 F :   -0.089751

  Mayer bond orders larger than 0.100000
B(  0-C ,  1-N ) :   0.9319 B(  0-C ,  9-C ) :   0.1406 B(  0-C , 12-H ) :  -0.2235
B(  0-C , 17-C ) :   0.7310 B(  0-C , 18-H ) :   0.7491 B(  0-C , 19-H ) :   0.8674
B(  0-C , 29-C ) :   0.1051 B(  1-N ,  7-C ) :   1.0201 B(  1-N , 12-H ) :   0.9333
B(  1-N , 17-C ) :   0.1379 B(  2-C ,  3-C ) :   0.8207 B(  2-C , 20-C ) :   0.3256
B(  2-C , 21-C ) :   0.3808 B(  2-C , 22-H ) :  -0.1056 B(  2-C , 24-H ) :   0.9531
B(  2-C , 25-H ) :   0.9342 B(  3-C ,  4-H ) :   0.8987 B(  3-C ,  5-H ) :   0.9201
B(  3-C ,  6-S ) :   0.9348 B(  3-C , 16-O ) :   0.1324 B(  3-C , 21-C ) :   0.1452
B(  6-S , 15-O ) :   1.4386 B(  6-S , 16-O ) :   1.4850 B(  6-S , 39-F ) :   1.0486
B(  7-C ,  8-N ) :   0.8978 B(  7-C ,  9-C ) :   0.9479 B(  7-C , 11-H ) :  -0.1146
B(  7-C , 12-H ) :  -0.2342 B(  8-N , 13-H ) :   0.9066 B(  8-N , 14-H ) :   1.0359
B(  9-C , 10-H ) :   1.0667 B(  9-C , 11-H ) :   1.0302 B( 17-C , 26-C ) :   0.9125
B( 17-C , 27-H ) :   0.9305 B( 17-C , 28-H ) :   0.8886 B( 17-C , 29-C ) :   0.1250
B( 20-C , 21-C ) :   0.4784 B( 20-C , 32-C ) :   0.8540 B( 20-C , 35-H ) :   0.9416
B( 20-C , 36-H ) :   0.9077 B( 21-C , 22-H ) :   0.8749 B( 21-C , 23-H ) :   1.2864
B( 21-C , 29-C ) :   0.1097 B( 21-C , 32-C ) :   0.1014 B( 21-C , 39-F ) :   0.1032
B( 22-H , 23-H ) :   0.1562 B( 23-H , 39-F ) :  -0.1259 B( 26-C , 29-C ) :   0.2423
B( 26-C , 30-H ) :   0.9512 B( 26-C , 31-H ) :   1.0885 B( 26-C , 34-H ) :  -0.1416
B( 29-C , 31-H ) :  -0.1048 B( 29-C , 32-C ) :   0.8339 B( 29-C , 33-H ) :   0.9349
B( 29-C , 34-H ) :   1.0676 B( 32-C , 37-H ) :   0.9710 B( 32-C , 38-H ) :   0.9786

FINAL SINGLE POINT ENERGY     -1190.911466893999

DIPOLE MOMENT
-------------
                                X             Y             Z
Electronic contribution:    -18.95291       1.82046     -17.81745
Nuclear contribution   :     18.85717      -4.60195      17.96505
                        -----------------------------------------
Total Dipole Moment    :     -0.09574      -2.78148       0.14760
                        -----------------------------------------
Magnitude (a.u.)       :      2.78704
Magnitude (Debye)      :      7.08410

Rotational constants in cm-1:     0.014436     0.012382     0.007563
Rotational constants in MHz :   432.785702   371.214592   226.743759

                             ****ORCA TERMINATED NORMALLY****
TOTAL RUN TIME: 0 days 0 hours 18 minutes 50 seconds 891 msec
