                         Program Version 5.0.0 -  RELEASE  -
|  1> !B3LYP D3BJ RIJCOSX def2-TZVPD def2/J TightSCF
|  2> *xyz -1 1
|  3> C          3.76678       -2.26611       -6.51175
|  4> C          2.49670       -1.84416       -5.73570
|  5> H          1.62642       -2.21743       -6.30895
|  6> H          2.48182       -2.45607       -4.79341
|  7> O          2.45973       -0.50920       -5.50576
|  8> H          3.82914       -1.70941       -7.42340
|  9> H          3.71764       -3.31144       -6.73483
| 10> H          4.63199       -2.06931       -5.91377
| 11> *
| 12>
| 13> %MaxCore 64000
| 14>
| 15> %pal nprocs 4
| 16> end
| 17>
| 18> %scf
| 19>   MaxIter 150
| 20> end
| 21>
| 22>
| 23>                          ****END OF INPUT****

CARTESIAN COORDINATES (ANGSTROEM)
---------------------------------
  C      3.766780   -2.266110   -6.511750
  C      2.496700   -1.844160   -5.735700
  H      1.626420   -2.217430   -6.308950
  H      2.481820   -2.456070   -4.793410
  O      2.459730   -0.509200   -5.505760
  H      3.829140   -1.709410   -7.423400
  H      3.717640   -3.311440   -6.734830
  H      4.631990   -2.069310   -5.913770

 Total Charge           Charge          ....   -1
 Multiplicity           Mult            ....    1
 Number of Electrons    NEL             ....   26
 Basis Dimension        Dim             ....  159

ORBITAL ENERGIES
----------------

  NO   OCC          E(Eh)            E(eV)
   0   2.0000     -18.798740      -511.5397
   1   2.0000      -9.984882      -271.7025
   2   2.0000      -9.958169      -270.9755
   3   2.0000      -0.689118       -18.7519
   4   2.0000      -0.524526       -14.2731
   5   2.0000      -0.372943       -10.1483
   6   2.0000      -0.249099        -6.7783
   7   2.0000      -0.227093        -6.1795
   8   2.0000      -0.173628        -4.7247
   9   2.0000      -0.158099        -4.3021
  10   2.0000      -0.119495        -3.2516
  11   2.0000       0.025502         0.6939
  12   2.0000       0.026965         0.7338
  13   0.0000       0.154582         4.2064
  14   0.0000       0.177603         4.8328
  15   0.0000       0.203679         5.5424
  16   0.0000       0.207696         5.6517
  17   0.0000       0.228882         6.2282

MULLIKEN ATOMIC CHARGES
-----------------------
   0 C :   -0.962254
   1 C :   -0.218074
   2 H :    0.168934
   3 H :    0.159755
   4 O :   -0.921850
   5 H :    0.222161
   6 H :    0.334488
   7 H :    0.216840
Sum of atomic charges:   -1.0000000

LOEWDIN ATOMIC CHARGES
----------------------
   0 C :   -0.167941
   1 C :   -0.626936
   2 H :    0.048350
   3 H :    0.053963
   4 O :   -0.396087
   5 H :    0.034731
   6 H :    0.020354
   7 H :    0.033566

  Mayer bond orders larger than 0.100000
B(  0-C ,  1-C ) :   0.7746 B(  0-C ,  4-O ) :   0.3883 B(  0-C ,  5-H ) :   1.0085
B(  0-C ,  6-H ) :   0.9535 B(  0-C ,  7-H ) :   1.0061 B(  1-C ,  2-H ) :   1.0663
B(  1-C ,  3-H ) :   1.0587 B(  1-C ,  4-O ) :   0.9221 B(  2-H ,  3-H ) :   0.1026

Dispersion correction           -0.006238131
FINAL SINGLE POINT ENERGY      -154.407323637215

DIPOLE MOMENT
-------------
                                X             Y             Z
Electronic contribution:     -1.11642       2.60574       0.98980
Nuclear contribution   :      1.63615      -3.79938      -1.48621
                        -----------------------------------------
Total Dipole Moment    :      0.51974      -1.19364      -0.49641
                        -----------------------------------------
Magnitude (a.u.)       :      1.39331
Magnitude (Debye)      :      3.54152

Rotational constants in cm-1:     1.265582     0.329289     0.289024
Rotational constants in MHz : 37941.194363  9871.829581  8664.719106

                             ****ORCA TERMINATED NORMALLY****
TOTAL RUN TIME: 0 days 0 hours 0 minutes 15 seconds 87 msec
