                         Program Version 5.0.0 -  RELEASE  -
|  1> !B3LYP D3BJ RIJCOSX def2-TZVPD def2/J TightSCF
|  2> *xyz 1 1
|  3> C          4.99986       -1.59613       -5.92488
|  4> N          5.28156       -1.97413       -4.53576
|  5> C          3.76678       -2.26611       -6.51175
|  6> C          4.79250       -1.36132       -3.45730
|  7> N          3.93990       -0.37492       -3.55736
|  8> N          5.25986       -1.75422       -2.23913
|  9> H          5.92282       -2.52145       -2.18672
| 10> H          4.65468       -1.64040       -1.44202
| 11> H          5.70914       -2.87560       -4.38702
| 12> H          3.33010       -0.31764       -4.36125
| 13> H          3.69849        0.11447       -2.70833
| 14> H          4.84333       -0.51793       -5.94302
| 15> H          5.90170       -1.82250       -6.49647
| 16> H          3.63046       -1.94025       -7.52177
| 17> H          2.90710       -2.00116       -5.93240
| 18> H          3.89538       -3.32820       -6.49392
| 19> *
| 20>
| 21> %MaxCore 64000
| 22>
| 23> %pal nprocs 4
| 24> end
| 25>
| 26> %scf
| 27>   MaxIter 150
| 28> end
| 29>
| 30>
| 31>                          ****END OF INPUT****

CARTESIAN COORDINATES (ANGSTROEM)
---------------------------------
  C      4.999860   -1.596130   -5.924880
  N      5.281560   -1.974130   -4.535760
  C      3.766780   -2.266110   -6.511750
  C      4.792500   -1.361320   -3.457300
  N      3.939900   -0.374920   -3.557360
  N      5.259860   -1.754220   -2.239130
  H      5.922820   -2.521450   -2.186720
  H      4.654680   -1.640400   -1.442020
  H      5.709140   -2.875600   -4.387020
  H      3.330100   -0.317640   -4.361250
  H      3.698490    0.114470   -2.708330
  H      4.843330   -0.517930   -5.943020
  H      5.901700   -1.822500   -6.496470
  H      3.630460   -1.940250   -7.521770
  H      2.907100   -2.001160   -5.932400
  H      3.895380   -3.328200   -6.493920

 Total Charge           Charge          ....    1
 Multiplicity           Mult            ....    1
 Number of Electrons    NEL             ....   48
 Basis Dimension        Dim             ....  312

ORBITAL ENERGIES
----------------

  NO   OCC          E(Eh)            E(eV)
   0   2.0000     -14.542895      -395.7323
   1   2.0000     -14.538709      -395.6184
   2   2.0000     -14.533384      -395.4735
   3   2.0000     -10.503386      -285.8117
   4   2.0000     -10.374744      -282.3111
   5   2.0000     -10.307322      -280.4765
   6   2.0000      -1.214273       -33.0421
   7   2.0000      -1.106169       -30.1004
   8   2.0000      -1.090763       -29.6812
   9   2.0000      -0.931181       -25.3387
  10   2.0000      -0.842249       -22.9188
  11   2.0000      -0.803053       -21.8522
  12   2.0000      -0.787734       -21.4353
  13   2.0000      -0.739478       -20.1222
  14   2.0000      -0.696369       -18.9492
  15   2.0000      -0.692855       -18.8535
  16   2.0000      -0.641940       -17.4681
  17   2.0000      -0.628782       -17.1100
  18   2.0000      -0.607281       -16.5250
  19   2.0000      -0.561632       -15.2828
  20   2.0000      -0.535343       -14.5674
  21   2.0000      -0.516632       -14.0583
  22   2.0000      -0.480752       -13.0819
  23   2.0000      -0.452511       -12.3134
  24   0.0000      -0.180789        -4.9195
  25   0.0000      -0.160832        -4.3765
  26   0.0000      -0.131628        -3.5818
  27   0.0000      -0.120964        -3.2916
  28   0.0000      -0.101602        -2.7647

MULLIKEN ATOMIC CHARGES
-----------------------
   0 C :   -0.490396
   1 N :   -0.104768
   2 C :   -0.940888
   3 C :    0.532955
   4 N :   -0.251362
   5 N :   -0.339489
   6 H :    0.207645
   7 H :    0.220163
   8 H :    0.215252
   9 H :    0.223356
  10 H :    0.199812
  11 H :    0.342194
  12 H :    0.260843
  13 H :    0.310912
  14 H :    0.312931
  15 H :    0.300841
Sum of atomic charges:    1.0000000

LOEWDIN ATOMIC CHARGES
----------------------
   0 C :   -0.198804
   1 N :    0.090442
   2 C :   -0.056635
   3 C :   -0.432167
   4 N :    0.230368
   5 N :    0.198121
   6 H :    0.131919
   7 H :    0.125890
   8 H :    0.161864
   9 H :    0.131854
  10 H :    0.143833
  11 H :    0.118043
  12 H :    0.130164
  13 H :    0.083526
  14 H :    0.064410
  15 H :    0.077171

  Mayer bond orders larger than 0.100000
B(  0-C ,  1-N ) :   0.8801 B(  0-C ,  2-C ) :   0.6475 B(  0-C , 11-H ) :   0.8833
B(  0-C , 12-H ) :   0.9492 B(  1-N ,  3-C ) :   1.2488 B(  1-N ,  8-H ) :   0.9545
B(  2-C , 13-H ) :   0.9884 B(  2-C , 14-H ) :   0.9330 B(  2-C , 15-H ) :   0.9801
B(  3-C ,  4-N ) :   1.2562 B(  3-C ,  5-N ) :   1.1158 B(  4-N ,  9-H ) :   0.9271
B(  4-N , 10-H ) :   0.9837 B(  5-N ,  6-H ) :   0.9550 B(  5-N ,  7-H ) :   0.9691

Dispersion correction           -0.020262152
FINAL SINGLE POINT ENERGY      -284.354099669141

DIPOLE MOMENT
-------------
                                X             Y             Z
Electronic contribution:      1.75147       1.09737       4.71107
Nuclear contribution   :     -1.95709      -1.20097      -3.70214
                        -----------------------------------------
Total Dipole Moment    :     -0.20562      -0.10360       1.00893
                        -----------------------------------------
Magnitude (a.u.)       :      1.03487
Magnitude (Debye)      :      2.63042

Rotational constants in cm-1:     0.241661     0.071598     0.061743
Rotational constants in MHz :  7244.800091  2146.442409  1851.001864

                             ****ORCA TERMINATED NORMALLY****
TOTAL RUN TIME: 0 days 0 hours 0 minutes 49 seconds 935 msec
