                         Program Version 5.0.0 -  RELEASE  -
|  1> !B3LYP D3BJ RIJCOSX def2-TZVPD def2/J TightSCF xyzfile
|  2>
|  3> *xyzfile 0 1 B.xyz
|  4>
|  5> %MaxCore 64000
|  6>
|  7> %pal nprocs 4
|  8> end
|  9>
| 10> %scf
| 11>   MaxIter 150
| 12> end
| 13>
| 14>
| 15>                          ****END OF INPUT****

CARTESIAN COORDINATES (ANGSTROEM)
---------------------------------
  C      4.999862   -1.596133   -5.924876
  N      5.281560   -1.974132   -4.535764
  C      3.766779   -2.266110   -6.511752
  C      2.496702   -1.844161   -5.735704
  H      1.626416   -2.217434   -6.308950
  H      2.481824   -2.456069   -4.793414
  O      2.459729   -0.509204   -5.505757
  C      4.792500   -1.361316   -3.457295
  N      3.939898   -0.374925   -3.557359
  N      5.259860   -1.754224   -2.239133
  H      5.922824   -2.521451   -2.186720
  H      4.654678   -1.640404   -1.442016
  H      5.709139   -2.875599   -4.387021
  H      3.330101   -0.317639   -4.361247
  H      3.698494    0.114468   -2.708333
  H      4.843333   -0.517930   -5.943019
  H      5.901695   -1.822503   -6.496467
  H      3.886191   -3.357076   -6.533604
  H      3.685602   -1.922168   -7.547128

 Total Charge           Charge          ....    0
 Multiplicity           Mult            ....    1
 Number of Electrons    NEL             ....   64
 Basis Dimension        Dim             ....  398

ORBITAL ENERGIES
----------------

  NO   OCC          E(Eh)            E(eV)
   0   2.0000     -18.981781      -516.5205
   1   2.0000     -14.378741      -391.2654
   2   2.0000     -14.371271      -391.0622
   3   2.0000     -14.329534      -389.9265
   4   2.0000     -10.326724      -281.0045
   5   2.0000     -10.202266      -277.6178
   6   2.0000     -10.152192      -276.2552
   7   2.0000     -10.137837      -275.8646
   8   2.0000      -1.040592       -28.3160
   9   2.0000      -0.935371       -25.4527
  10   2.0000      -0.919400       -25.0181
  11   2.0000      -0.882339       -24.0097
  12   2.0000      -0.756630       -20.5889
  13   2.0000      -0.677008       -18.4223
  14   2.0000      -0.632967       -17.2239
  15   2.0000      -0.611321       -16.6349
  16   2.0000      -0.585357       -15.9284
  17   2.0000      -0.542392       -14.7592
  18   2.0000      -0.522404       -14.2153
  19   2.0000      -0.504113       -13.7176
  20   2.0000      -0.469932       -12.7875
  21   2.0000      -0.458321       -12.4716
  22   2.0000      -0.434828       -11.8323
  23   2.0000      -0.404946       -11.0191
  24   2.0000      -0.363193        -9.8830
  25   2.0000      -0.342594        -9.3225
  26   2.0000      -0.331447        -9.0191
  27   2.0000      -0.309324        -8.4171
  28   2.0000      -0.299895        -8.1605
  29   2.0000      -0.278599        -7.5811
  30   2.0000      -0.168539        -4.5862
  31   2.0000      -0.163097        -4.4381
  32   0.0000      -0.034741        -0.9453
  33   0.0000      -0.006886        -0.1874
  34   0.0000       0.001987         0.0541
  35   0.0000       0.017382         0.4730
  36   0.0000       0.036789         1.0011

MULLIKEN ATOMIC CHARGES
-----------------------
   0 C :   -0.465827
   1 N :   -0.144093
   2 C :   -0.238760
   3 C :   -0.371700
   4 H :    0.231857
   5 H :    0.177291
   6 O :   -0.925053
   7 C :    0.404374
   8 N :   -0.224725
   9 N :   -0.375548
  10 H :    0.168570
  11 H :    0.188123
  12 H :    0.200423
  13 H :    0.294644
  14 H :    0.148843
  15 H :    0.271662
  16 H :    0.237311
  17 H :    0.217020
  18 H :    0.205588
Sum of atomic charges:   -0.0000000

LOEWDIN ATOMIC CHARGES
----------------------
   0 C :   -0.175987
   1 N :    0.083113
   2 C :   -0.180918
   3 C :   -0.448652
   4 H :    0.093635
   5 H :    0.088428
   6 O :   -0.288317
   7 C :   -0.455928
   8 N :    0.220049
   9 N :    0.156491
  10 H :    0.108596
  11 H :    0.107976
  12 H :    0.146189
  13 H :   -0.018642
  14 H :    0.127512
  15 H :    0.119146
  16 H :    0.113050
  17 H :    0.098049
  18 H :    0.106208

  Mayer bond orders larger than 0.100000
B(  0-C ,  1-N ) :   0.8939 B(  0-C ,  2-C ) :   0.8936 B(  0-C , 15-H ) :   0.8671
B(  0-C , 16-H ) :   0.9247 B(  1-N ,  7-C ) :   1.2226 B(  1-N , 12-H ) :   0.9469
B(  2-C ,  3-C ) :   0.8851 B(  2-C , 17-H ) :   0.9996 B(  2-C , 18-H ) :   0.9303
B(  3-C ,  4-H ) :   1.0215 B(  3-C ,  5-H ) :   0.9778 B(  3-C ,  6-O ) :   1.0432
B(  6-O , 13-H ) :   0.2250 B(  7-C ,  8-N ) :   1.3542 B(  7-C ,  9-N ) :   1.0156
B(  8-N , 13-H ) :   0.6913 B(  8-N , 14-H ) :   1.0183 B(  9-N , 10-H ) :   0.9842
B(  9-N , 11-H ) :   0.9900

Dispersion correction           -0.028925691
FINAL SINGLE POINT ENERGY      -398.448562371104

DIPOLE MOMENT
-------------
                                X             Y             Z
Electronic contribution:      1.87132       1.99337       3.65018
Nuclear contribution   :      0.51577      -3.31768      -1.36804
                        -----------------------------------------
Total Dipole Moment    :      2.38709      -1.32431       2.28215
                        -----------------------------------------
Magnitude (a.u.)       :      3.55812
Magnitude (Debye)      :      9.04401

Rotational constants in cm-1:     0.111492     0.050787     0.040163
Rotational constants in MHz :  3342.457536  1522.560798  1204.057148

                             ****ORCA TERMINATED NORMALLY****
TOTAL RUN TIME: 0 days 0 hours 1 minutes 44 seconds 423 msec
