                         Program Version 5.0.0 -  RELEASE  -
|  1> !B3LYP D3BJ RIJCOSX def2-TZVPD def2/J TightSCF
|  2> *xyz 0 1
|  3> C          3.76678       -2.26611       -6.51175
|  4> C          2.49670       -1.84416       -5.73570
|  5> H          1.62642       -2.21743       -6.30895
|  6> H          2.48182       -2.45607       -4.79341
|  7> F          2.45973       -0.50920       -5.50576
|  8> H          3.82914       -1.70941       -7.42340
|  9> H          3.71764       -3.31144       -6.73483
| 10> H          4.63199       -2.06931       -5.91377
| 11> *
| 12>
| 13> %MaxCore 64000
| 14>
| 15> %pal nprocs 4
| 16> end
| 17>
| 18> %scf
| 19>   MaxIter 150
| 20> end
| 21>
| 22>
| 23>                          ****END OF INPUT****

CARTESIAN COORDINATES (ANGSTROEM)
---------------------------------
  C      3.766780   -2.266110   -6.511750
  C      2.496700   -1.844160   -5.735700
  H      1.626420   -2.217430   -6.308950
  H      2.481820   -2.456070   -4.793410
  F      2.459730   -0.509200   -5.505760
  H      3.829140   -1.709410   -7.423400
  H      3.717640   -3.311440   -6.734830
  H      4.631990   -2.069310   -5.913770

 Total Charge           Charge          ....    0
 Multiplicity           Mult            ....    1
 Number of Electrons    NEL             ....   26
 Basis Dimension        Dim             ....  159

ORBITAL ENERGIES
----------------

  NO   OCC          E(Eh)            E(eV)
   0   2.0000     -24.672738      -671.3793
   1   2.0000     -10.248672      -278.8805
   2   2.0000     -10.162441      -276.5341
   3   2.0000      -1.207207       -32.8498
   4   2.0000      -0.761677       -20.7263
   5   2.0000      -0.632678       -17.2160
   6   2.0000      -0.513364       -13.9693
   7   2.0000      -0.496918       -13.5218
   8   2.0000      -0.462024       -12.5723
   9   2.0000      -0.406975       -11.0744
  10   2.0000      -0.402128       -10.9425
  11   2.0000      -0.335476        -9.1288
  12   2.0000      -0.331482        -9.0201
  13   0.0000       0.008837         0.2405
  14   0.0000       0.035147         0.9564
  15   0.0000       0.052479         1.4280
  16   0.0000       0.055831         1.5192
  17   0.0000       0.083470         2.2713

MULLIKEN ATOMIC CHARGES
-----------------------
   0 C :   -0.872287
   1 C :   -0.048260
   2 H :    0.206836
   3 H :    0.195429
   4 F :   -0.299424
   5 H :    0.261175
   6 H :    0.300839
   7 H :    0.255693
Sum of atomic charges:   -0.0000000

LOEWDIN ATOMIC CHARGES
----------------------
   0 C :   -0.077423
   1 C :   -0.297643
   2 H :    0.107224
   3 H :    0.114901
   4 F :   -0.032706
   5 H :    0.061693
   6 H :    0.063180
   7 H :    0.060775

  Mayer bond orders larger than 0.100000
B(  0-C ,  1-C ) :   0.7843 B(  0-C ,  5-H ) :   0.9672 B(  0-C ,  6-H ) :   0.9400
B(  0-C ,  7-H ) :   0.9697 B(  1-C ,  2-H ) :   0.9816 B(  1-C ,  3-H ) :   0.9809
B(  1-C ,  4-F ) :   0.8174

Dispersion correction           -0.005742869
FINAL SINGLE POINT ENERGY      -179.048082021513

DIPOLE MOMENT
-------------
                                X             Y             Z
Electronic contribution:     -2.07943       4.34359       1.81256
Nuclear contribution   :      2.16248      -5.01128      -1.96962
                        -----------------------------------------
Total Dipole Moment    :      0.08305      -0.66770      -0.15707
                        -----------------------------------------
Magnitude (a.u.)       :      0.69093
Magnitude (Debye)      :      1.75620

Rotational constants in cm-1:     1.244010     0.306580     0.270375
Rotational constants in MHz : 37294.476802  9191.037795  8105.639967

                             ****ORCA TERMINATED NORMALLY****
TOTAL RUN TIME: 0 days 0 hours 0 minutes 12 seconds 926 msec
