                         Program Version 5.0.0 -  RELEASE  -
|  1> !B3LYP D3BJ RIJCOSX def2-TZVPD def2/J TightSCF
|  2> *xyz 0 1
|  3> C          4.99986       -1.59613       -5.92488
|  4> C          5.28156       -1.97413       -4.53576
|  5> C          3.76678       -2.26611       -6.51175
|  6> C          4.79250       -1.36132       -3.45730
|  7> N          3.93990       -0.37492       -3.55736
|  8> N          5.25986       -1.75422       -2.23913
|  9> H          5.92282       -2.52145       -2.18672
| 10> H          4.65468       -1.64040       -1.44202
| 11> H          5.70914       -2.87560       -4.38702
| 12> H          3.33010       -0.31764       -4.36125
| 13> H          3.69849        0.11447       -2.70833
| 14> H          4.84333       -0.51793       -5.94302
| 15> H          5.90170       -1.82250       -6.49647
| 16> H          3.63046       -1.94025       -7.52177
| 17> H          2.90710       -2.00116       -5.93240
| 18> H          3.89538       -3.32820       -6.49392
| 19> *
| 20>
| 21> %MaxCore 64000
| 22>
| 23> %pal nprocs 4
| 24> end
| 25>
| 26> %scf
| 27>   MaxIter 150
| 28> end
| 29>
| 30>
| 31>                          ****END OF INPUT****

CARTESIAN COORDINATES (ANGSTROEM)
---------------------------------
  C      4.999860   -1.596130   -5.924880
  C      5.281560   -1.974130   -4.535760
  C      3.766780   -2.266110   -6.511750
  C      4.792500   -1.361320   -3.457300
  N      3.939900   -0.374920   -3.557360
  N      5.259860   -1.754220   -2.239130
  H      5.922820   -2.521450   -2.186720
  H      4.654680   -1.640400   -1.442020
  H      5.709140   -2.875600   -4.387020
  H      3.330100   -0.317640   -4.361250
  H      3.698490    0.114470   -2.708330
  H      4.843330   -0.517930   -5.943020
  H      5.901700   -1.822500   -6.496470
  H      3.630460   -1.940250   -7.521770
  H      2.907100   -2.001160   -5.932400
  H      3.895380   -3.328200   -6.493920

 Total Charge           Charge          ....    0
 Multiplicity           Mult            ....    1
 Number of Electrons    NEL             ....   48
 Basis Dimension        Dim             ....  312

ORBITAL ENERGIES
----------------

  NO   OCC          E(Eh)            E(eV)
   0   2.0000     -14.320266      -389.6742
   1   2.0000     -14.311911      -389.4469
   2   2.0000     -10.210857      -277.8515
   3   2.0000     -10.141006      -275.9508
   4   2.0000     -10.135657      -275.8052
   5   2.0000     -10.093454      -274.6568
   6   2.0000      -0.962584       -26.1933
   7   2.0000      -0.871826       -23.7236
   8   2.0000      -0.772459       -21.0197
   9   2.0000      -0.694703       -18.9038
  10   2.0000      -0.615534       -16.7495
  11   2.0000      -0.577463       -15.7136
  12   2.0000      -0.545770       -14.8511
  13   2.0000      -0.504303       -13.7228
  14   2.0000      -0.478857       -13.0304
  15   2.0000      -0.443606       -12.0711
  16   2.0000      -0.415573       -11.3083
  17   2.0000      -0.394577       -10.7370
  18   2.0000      -0.383901       -10.4465
  19   2.0000      -0.351821        -9.5735
  20   2.0000      -0.327850        -8.9212
  21   2.0000      -0.320599        -8.7239
  22   2.0000      -0.266365        -7.2482
  23   2.0000      -0.163604        -4.4519
  24   0.0000      -0.004733        -0.1288
  25   0.0000       0.021821         0.5938
  26   0.0000       0.031467         0.8563
  27   0.0000       0.042155         1.1471
  28   0.0000       0.055805         1.5185

MULLIKEN ATOMIC CHARGES
-----------------------
   0 C :   -0.504878
   1 C :   -0.497351
   2 C :   -0.982544
   3 C :    0.477874
   4 N :   -0.300850
   5 N :   -0.410019
   6 H :    0.161578
   7 H :    0.155551
   8 H :    0.274920
   9 H :    0.171550
  10 H :    0.155471
  11 H :    0.257774
  12 H :    0.193776
  13 H :    0.251848
  14 H :    0.304146
  15 H :    0.291155
Sum of atomic charges:   -0.0000000

LOEWDIN ATOMIC CHARGES
----------------------
   0 C :   -0.281048
   1 C :   -0.132099
   2 C :   -0.105896
   3 C :   -0.545039
   4 N :    0.137352
   5 N :    0.102690
   6 H :    0.101564
   7 H :    0.082223
   8 H :    0.059573
   9 H :    0.104722
  10 H :    0.103766
  11 H :    0.094972
  12 H :    0.100666
  13 H :    0.057111
  14 H :    0.055311
  15 H :    0.064133

  Mayer bond orders larger than 0.100000
B(  0-C ,  1-C ) :   0.7145 B(  0-C ,  2-C ) :   0.5283 B(  0-C ,  3-C ) :   0.1256
B(  0-C , 11-H ) :   1.0010 B(  0-C , 12-H ) :   1.0741 B(  1-C ,  3-C ) :   1.3700
B(  1-C ,  5-N ) :   0.1081 B(  1-C ,  8-H ) :   1.0220 B(  2-C , 13-H ) :   0.9972
B(  2-C , 14-H ) :   0.9571 B(  2-C , 15-H ) :   0.9982 B(  3-C ,  4-N ) :   1.0441
B(  3-C ,  5-N ) :   0.9226 B(  3-C ,  8-H ) :  -0.1396 B(  4-N ,  9-H ) :   0.9678
B(  4-N , 10-H ) :   1.0152 B(  5-N ,  6-H ) :   0.9898 B(  5-N ,  7-H ) :   1.0313

Dispersion correction           -0.021196901
FINAL SINGLE POINT ENERGY      -267.872176452266

DIPOLE MOMENT
-------------
                                X             Y             Z
Electronic contribution:      1.23791       1.38543       4.49392
Nuclear contribution   :     -1.82485      -1.28952      -3.74132
                        -----------------------------------------
Total Dipole Moment    :     -0.58694       0.09591       0.75260
                        -----------------------------------------
Magnitude (a.u.)       :      0.95923
Magnitude (Debye)      :      2.43816

Rotational constants in cm-1:     0.245790     0.071632     0.062004
Rotational constants in MHz :  7368.599517  2147.482078  1858.844841

                             ****ORCA TERMINATED NORMALLY****
TOTAL RUN TIME: 0 days 0 hours 0 minutes 54 seconds 795 msec
