                         Program Version 5.0.0 -  RELEASE  -
|  1> !B3LYP D3BJ RIJCOSX def2-TZVPD def2/J TightSCF
|  2> *xyz 0 1
|  3> C          4.99986       -1.59613       -5.92488
|  4> N          5.28156       -1.97413       -4.53576
|  5> C          3.76678       -2.26611       -6.51175
|  6> C          4.79250       -1.36132       -3.45730
|  7> C          3.93990       -0.37492       -3.55736
|  8> N          5.25986       -1.75422       -2.23913
|  9> H          5.92282       -2.52145       -2.18672
| 10> H          4.65468       -1.64040       -1.44202
| 11> H          5.70914       -2.87560       -4.38702
| 12> H          3.33010       -0.31764       -4.36125
| 13> H          3.69849        0.11447       -2.70833
| 14> H          4.84333       -0.51793       -5.94302
| 15> H          5.90170       -1.82250       -6.49647
| 16> H          3.63046       -1.94025       -7.52177
| 17> H          2.90710       -2.00116       -5.93240
| 18> H          3.89538       -3.32820       -6.49392
| 19> *
| 20>
| 21> %MaxCore 64000
| 22>
| 23> %pal nprocs 4
| 24> end
| 25>
| 26> %scf
| 27>   MaxIter 150
| 28> end
| 29>
| 30>
| 31>                          ****END OF INPUT****

CARTESIAN COORDINATES (ANGSTROEM)
---------------------------------
  C      4.999860   -1.596130   -5.924880
  N      5.281560   -1.974130   -4.535760
  C      3.766780   -2.266110   -6.511750
  C      4.792500   -1.361320   -3.457300
  C      3.939900   -0.374920   -3.557360
  N      5.259860   -1.754220   -2.239130
  H      5.922820   -2.521450   -2.186720
  H      4.654680   -1.640400   -1.442020
  H      5.709140   -2.875600   -4.387020
  H      3.330100   -0.317640   -4.361250
  H      3.698490    0.114470   -2.708330
  H      4.843330   -0.517930   -5.943020
  H      5.901700   -1.822500   -6.496470
  H      3.630460   -1.940250   -7.521770
  H      2.907100   -2.001160   -5.932400
  H      3.895380   -3.328200   -6.493920

 Total Charge           Charge          ....    0
 Multiplicity           Mult            ....    1
 Number of Electrons    NEL             ....   48
 Basis Dimension        Dim             ....  312

ORBITAL ENERGIES
----------------

  NO   OCC          E(Eh)            E(eV)
   0   2.0000     -14.316816      -389.5804
   1   2.0000     -14.312827      -389.4718
   2   2.0000     -10.212342      -277.8920
   3   2.0000     -10.199294      -277.5369
   4   2.0000     -10.152136      -276.2537
   5   2.0000     -10.082342      -274.3545
   6   2.0000      -0.961486       -26.1634
   7   2.0000      -0.878946       -23.9173
   8   2.0000      -0.755741       -20.5648
   9   2.0000      -0.716839       -19.5062
  10   2.0000      -0.637112       -17.3367
  11   2.0000      -0.564228       -15.3534
  12   2.0000      -0.542463       -14.7612
  13   2.0000      -0.511722       -13.9247
  14   2.0000      -0.456872       -12.4321
  15   2.0000      -0.446070       -12.1382
  16   2.0000      -0.424239       -11.5441
  17   2.0000      -0.400965       -10.9108
  18   2.0000      -0.385079       -10.4785
  19   2.0000      -0.372813       -10.1448
  20   2.0000      -0.354434        -9.6446
  21   2.0000      -0.346564        -9.4305
  22   2.0000      -0.250774        -6.8239
  23   2.0000      -0.174265        -4.7420
  24   0.0000      -0.002100        -0.0572
  25   0.0000       0.020617         0.5610
  26   0.0000       0.030114         0.8194
  27   0.0000       0.037451         1.0191
  28   0.0000       0.057626         1.5681

MULLIKEN ATOMIC CHARGES
-----------------------
   0 C :   -0.481367
   1 N :   -0.168481
   2 C :   -0.964588
   3 C :    0.614537
   4 C :   -1.130853
   5 N :   -0.368092
   6 H :    0.148404
   7 H :    0.188741
   8 H :    0.176409
   9 H :    0.254123
  10 H :    0.284830
  11 H :    0.353821
  12 H :    0.235840
  13 H :    0.295255
  14 H :    0.290904
  15 H :    0.270515
Sum of atomic charges:    0.0000000

LOEWDIN ATOMIC CHARGES
----------------------
   0 C :   -0.234951
   1 N :    0.014474
   2 C :   -0.082985
   3 C :   -0.554800
   4 C :    0.009185
   5 N :    0.109474
   6 H :    0.090756
   7 H :    0.096168
   8 H :    0.129618
   9 H :    0.007337
  10 H :    0.013416
  11 H :    0.107232
  12 H :    0.108696
  13 H :    0.063837
  14 H :    0.060733
  15 H :    0.061811

  Mayer bond orders larger than 0.100000
B(  0-C ,  1-N ) :   0.8773 B(  0-C ,  2-C ) :   0.6097 B(  0-C ,  4-C ) :   0.1727
B(  0-C , 11-H ) :   0.9061 B(  0-C , 12-H ) :   0.9358 B(  1-N ,  3-C ) :   1.0630
B(  1-N ,  8-H ) :   0.9755 B(  2-C , 13-H ) :   0.9757 B(  2-C , 14-H ) :   0.9872
B(  2-C , 15-H ) :   0.9810 B(  3-C ,  4-C ) :   1.3764 B(  3-C ,  5-N ) :   0.9491
B(  4-C ,  9-H ) :   0.9530 B(  4-C , 10-H ) :   1.0445 B(  5-N ,  6-H ) :   1.0102
B(  5-N ,  7-H ) :   0.9800

Dispersion correction           -0.021089241
FINAL SINGLE POINT ENERGY      -267.866301351781

DIPOLE MOMENT
-------------
                                X             Y             Z
Electronic contribution:      2.40117      -0.07522       3.48455
Nuclear contribution   :     -2.10948      -0.95026      -3.53375
                        -----------------------------------------
Total Dipole Moment    :      0.29169      -1.02548      -0.04920
                        -----------------------------------------
Magnitude (a.u.)       :      1.06729
Magnitude (Debye)      :      2.71285

Rotational constants in cm-1:     0.255209     0.072067     0.062929
Rotational constants in MHz :  7650.964615  2160.525743  1886.569524

                             ****ORCA TERMINATED NORMALLY****
TOTAL RUN TIME: 0 days 0 hours 0 minutes 54 seconds 586 msec
