                         Program Version 5.0.0 -  RELEASE  -
|  1> !B3LYP D3BJ RIJCOSX def2-TZVPD def2/J TightSCF
|  2> *xyz 0 1
|  3> C          4.99986       -1.59613       -5.92488
|  4> N          5.28156       -1.97413       -4.53576
|  5> C          3.76678       -2.26611       -6.51175
|  6> C          4.79250       -1.36132       -3.45730
|  7> N          3.93990       -0.37492       -3.55736
|  8> C          5.25986       -1.75422       -2.23913
|  9> H          5.92282       -2.52145       -2.18672
| 10> H          4.65468       -1.64040       -1.44202
| 11> H          5.70914       -2.87560       -4.38702
| 12> H          3.33010       -0.31764       -4.36125
| 13> H          3.69849        0.11447       -2.70833
| 14> H          4.84333       -0.51793       -5.94302
| 15> H          5.90170       -1.82250       -6.49647
| 16> H          3.63046       -1.94025       -7.52177
| 17> H          2.90710       -2.00116       -5.93240
| 18> H          3.89538       -3.32820       -6.49392
| 19> *
| 20>
| 21> %MaxCore 64000
| 22>
| 23> %pal nprocs 4
| 24> end
| 25>
| 26> %scf
| 27>   MaxIter 150
| 28> end
| 29>
| 30>
| 31>                          ****END OF INPUT****

CARTESIAN COORDINATES (ANGSTROEM)
---------------------------------
  C      4.999860   -1.596130   -5.924880
  N      5.281560   -1.974130   -4.535760
  C      3.766780   -2.266110   -6.511750
  C      4.792500   -1.361320   -3.457300
  N      3.939900   -0.374920   -3.557360
  C      5.259860   -1.754220   -2.239130
  H      5.922820   -2.521450   -2.186720
  H      4.654680   -1.640400   -1.442020
  H      5.709140   -2.875600   -4.387020
  H      3.330100   -0.317640   -4.361250
  H      3.698490    0.114470   -2.708330
  H      4.843330   -0.517930   -5.943020
  H      5.901700   -1.822500   -6.496470
  H      3.630460   -1.940250   -7.521770
  H      2.907100   -2.001160   -5.932400
  H      3.895380   -3.328200   -6.493920

 Total Charge           Charge          ....    0
 Multiplicity           Mult            ....    1
 Number of Electrons    NEL             ....   48
 Basis Dimension        Dim             ....  312

ORBITAL ENERGIES
----------------

  NO   OCC          E(Eh)            E(eV)
   0   2.0000     -14.320307      -389.6754
   1   2.0000     -14.316979      -389.5848
   2   2.0000     -10.216813      -278.0136
   3   2.0000     -10.208105      -277.7766
   4   2.0000     -10.162961      -276.5482
   5   2.0000     -10.078462      -274.2489
   6   2.0000      -0.972139       -26.4533
   7   2.0000      -0.890268       -24.2254
   8   2.0000      -0.772579       -21.0229
   9   2.0000      -0.697019       -18.9669
  10   2.0000      -0.628951       -17.1146
  11   2.0000      -0.603557       -16.4236
  12   2.0000      -0.546187       -14.8625
  13   2.0000      -0.500180       -13.6106
  14   2.0000      -0.482813       -13.1380
  15   2.0000      -0.446388       -12.1468
  16   2.0000      -0.430749       -11.7213
  17   2.0000      -0.405736       -11.0406
  18   2.0000      -0.388101       -10.5608
  19   2.0000      -0.368395       -10.0245
  20   2.0000      -0.365558        -9.9473
  21   2.0000      -0.348356        -9.4793
  22   2.0000      -0.257721        -7.0129
  23   2.0000      -0.160660        -4.3718
  24   0.0000      -0.005039        -0.1371
  25   0.0000       0.023797         0.6476
  26   0.0000       0.026001         0.7075
  27   0.0000       0.031769         0.8645
  28   0.0000       0.056613         1.5405

MULLIKEN ATOMIC CHARGES
-----------------------
   0 C :   -0.469396
   1 N :   -0.143281
   2 C :   -0.950508
   3 C :    0.587489
   4 N :   -0.316514
   5 C :   -1.162053
   6 H :    0.256685
   7 H :    0.257729
   8 H :    0.168584
   9 H :    0.166733
  10 H :    0.174603
  11 H :    0.332915
  12 H :    0.238609
  13 H :    0.295431
  14 H :    0.302211
  15 H :    0.260764
Sum of atomic charges:    0.0000000

LOEWDIN ATOMIC CHARGES
----------------------
   0 C :   -0.237097
   1 N :    0.024433
   2 C :   -0.085900
   3 C :   -0.567951
   4 N :    0.133164
   5 C :   -0.002225
   6 H :   -0.003788
   7 H :   -0.009857
   8 H :    0.139185
   9 H :    0.095119
  10 H :    0.114982
  11 H :    0.104604
  12 H :    0.109696
  13 H :    0.063503
  14 H :    0.057423
  15 H :    0.064708

  Mayer bond orders larger than 0.100000
B(  0-C ,  1-N ) :   0.8631 B(  0-C ,  2-C ) :   0.6031 B(  0-C ,  4-N ) :   0.1187
B(  0-C , 11-H ) :   0.9119 B(  0-C , 12-H ) :   0.9727 B(  1-N ,  3-C ) :   1.1054
B(  1-N ,  8-H ) :   0.9635 B(  2-C , 13-H ) :   0.9911 B(  2-C , 14-H ) :   0.9641
B(  2-C , 15-H ) :   1.0025 B(  3-C ,  4-N ) :   1.1261 B(  3-C ,  5-C ) :   1.1806
B(  4-N ,  9-H ) :   0.9735 B(  4-N , 10-H ) :   0.9975 B(  5-C ,  6-H ) :   1.0158
B(  5-C ,  7-H ) :   1.0707

Dispersion correction           -0.020936293
FINAL SINGLE POINT ENERGY      -267.860108650298

DIPOLE MOMENT
-------------
                                X             Y             Z
Electronic contribution:      1.15914       1.24648       2.13308
Nuclear contribution   :     -1.82946      -1.24287      -3.25410
                        -----------------------------------------
Total Dipole Moment    :     -0.67031       0.00361      -1.12102
                        -----------------------------------------
Magnitude (a.u.)       :      1.30614
Magnitude (Debye)      :      3.31995

Rotational constants in cm-1:     0.244672     0.074506     0.064043
Rotational constants in MHz :  7335.067153  2233.624025  1919.970379

                             ****ORCA TERMINATED NORMALLY****
TOTAL RUN TIME: 0 days 0 hours 0 minutes 54 seconds 430 msec
