                         Program Version 5.0.0 -  RELEASE  -
|  1> !B3LYP D3BJ RIJCOSX def2-TZVPD def2/J TightSCF xyzfile
|  2>
|  3> *xyzfile 0 1 D1.xyz
|  4>
|  5> %MaxCore 64000
|  6>
|  7> %pal nprocs 4
|  8> end
|  9>
| 10> %scf
| 11>   MaxIter 150
| 12> end
| 13>
| 14>
| 15>                          ****END OF INPUT****

CARTESIAN COORDINATES (ANGSTROEM)
---------------------------------
  C      4.999862   -1.596133   -5.924876
  C      5.281560   -1.974132   -4.535764
  C      3.766779   -2.266110   -6.511752
  C      2.496702   -1.844161   -5.735704
  H      1.626416   -2.217434   -6.308950
  H      2.481824   -2.456069   -4.793414
  F      2.459729   -0.509204   -5.505757
  C      4.792500   -1.361316   -3.457295
  N      3.939898   -0.374925   -3.557359
  N      5.259860   -1.754224   -2.239133
  H      5.922824   -2.521451   -2.186720
  H      4.654678   -1.640404   -1.442016
  H      5.709139   -2.875599   -4.387021
  H      3.330101   -0.317639   -4.361247
  H      3.698494    0.114468   -2.708333
  H      4.843333   -0.517930   -5.943019
  H      5.901695   -1.822503   -6.496467
  H      3.886191   -3.357076   -6.533604
  H      3.685602   -1.922168   -7.547128

 Total Charge           Charge          ....    0
 Multiplicity           Mult            ....    1
 Number of Electrons    NEL             ....   64
 Basis Dimension        Dim             ....  398

ORBITAL ENERGIES
----------------

  NO   OCC          E(Eh)            E(eV)
   0   2.0000     -24.704313      -672.2385
   1   2.0000     -14.306501      -389.2997
   2   2.0000     -14.292168      -388.9097
   3   2.0000     -10.251652      -278.9616
   4   2.0000     -10.204947      -277.6907
   5   2.0000     -10.163777      -276.5704
   6   2.0000     -10.143381      -276.0154
   7   2.0000     -10.089259      -274.5427
   8   2.0000      -1.247452       -33.9449
   9   2.0000      -0.951213       -25.8838
  10   2.0000      -0.861800       -23.4508
  11   2.0000      -0.794219       -21.6118
  12   2.0000      -0.724067       -19.7029
  13   2.0000      -0.672213       -18.2918
  14   2.0000      -0.601159       -16.3584
  15   2.0000      -0.588079       -16.0024
  16   2.0000      -0.543994       -14.8028
  17   2.0000      -0.529022       -14.3954
  18   2.0000      -0.516027       -14.0418
  19   2.0000      -0.497230       -13.5303
  20   2.0000      -0.490135       -13.3372
  21   2.0000      -0.454944       -12.3797
  22   2.0000      -0.425232       -11.5711
  23   2.0000      -0.406445       -11.0599
  24   2.0000      -0.394164       -10.7257
  25   2.0000      -0.373348       -10.1593
  26   2.0000      -0.351132        -9.5548
  27   2.0000      -0.337704        -9.1894
  28   2.0000      -0.326522        -8.8851
  29   2.0000      -0.316850        -8.6219
  30   2.0000      -0.254902        -6.9362
  31   2.0000      -0.159753        -4.3471
  32   0.0000       0.001701         0.0463
  33   0.0000       0.017968         0.4889
  34   0.0000       0.029525         0.8034
  35   0.0000       0.032189         0.8759
  36   0.0000       0.047490         1.2923

MULLIKEN ATOMIC CHARGES
-----------------------
   0 C :   -0.354065
   1 C :   -0.857864
   2 C :   -0.338832
   3 C :   -0.230156
   4 H :    0.248115
   5 H :    0.248052
   6 F :   -0.393458
   7 C :    0.609498
   8 N :   -0.353632
   9 N :   -0.427930
  10 H :    0.152551
  11 H :    0.152811
  12 H :    0.246659
  13 H :    0.318799
  14 H :    0.116690
  15 H :    0.220071
  16 H :    0.193376
  17 H :    0.264612
  18 H :    0.184703
Sum of atomic charges:    0.0000000

LOEWDIN ATOMIC CHARGES
----------------------
   0 C :   -0.230047
   1 C :   -0.126383
   2 C :   -0.170872
   3 C :   -0.218301
   4 H :    0.117450
   5 H :    0.128997
   6 F :   -0.024647
   7 C :   -0.540578
   8 N :    0.152519
   9 N :    0.105277
  10 H :    0.099385
  11 H :    0.081985
  12 H :    0.058952
  13 H :    0.028771
  14 H :    0.107212
  15 H :    0.106174
  16 H :    0.106325
  17 H :    0.116499
  18 H :    0.101280

  Mayer bond orders larger than 0.100000
B(  0-C ,  1-C ) :   0.7309 B(  0-C ,  2-C ) :   0.7442 B(  0-C , 15-H ) :   0.9562
B(  0-C , 16-H ) :   1.1010 B(  1-C ,  3-C ) :   0.1008 B(  1-C ,  7-C ) :   1.3521
B(  1-C ,  8-N ) :   0.1392 B(  1-C , 12-H ) :   1.0855 B(  2-C ,  3-C ) :   0.9659
B(  2-C , 17-H ) :   0.9586 B(  2-C , 18-H ) :   0.9516 B(  3-C ,  4-H ) :   0.9566
B(  3-C ,  5-H ) :   0.9536 B(  3-C ,  6-F ) :   0.7567 B(  7-C ,  8-N ) :   1.0091
B(  7-C ,  9-N ) :   0.9024 B(  7-C , 12-H ) :  -0.1568 B(  8-N , 13-H ) :   0.8143
B(  8-N , 14-H ) :   1.0486 B(  9-N , 10-H ) :   0.9969 B(  9-N , 11-H ) :   1.0326

Dispersion correction           -0.028985273
FINAL SINGLE POINT ENERGY      -406.409856521295

DIPOLE MOMENT
-------------
                                X             Y             Z
Electronic contribution:     -3.32796       3.99729       0.77385
Nuclear contribution   :      2.63975      -4.51113      -0.34926
                        -----------------------------------------
Total Dipole Moment    :     -0.68822      -0.51384       0.42459
                        -----------------------------------------
Magnitude (a.u.)       :      0.95810
Magnitude (Debye)      :      2.43530

Rotational constants in cm-1:     0.109429     0.049838     0.039337
Rotational constants in MHz :  3280.611039  1494.113088  1179.280063

                             ****ORCA TERMINATED NORMALLY****
TOTAL RUN TIME: 0 days 0 hours 1 minutes 45 seconds 666 msec
