                         Program Version 5.0.0 -  RELEASE  -
|  1> !B3LYP D3BJ RIJCOSX def2-TZVPD def2/J TightSCF xyzfile
|  2>
|  3> *xyzfile 0 1 D2.xyz
|  4>
|  5> %MaxCore 64000
|  6>
|  7> %pal nprocs 4
|  8> end
|  9>
| 10> %scf
| 11>   MaxIter 150
| 12> end
| 13>
| 14>
| 15>                          ****END OF INPUT****

CARTESIAN COORDINATES (ANGSTROEM)
---------------------------------
  C      4.999862   -1.596133   -5.924876
  N      5.281560   -1.974132   -4.535764
  C      3.766779   -2.266110   -6.511752
  C      2.496702   -1.844161   -5.735704
  H      1.626416   -2.217434   -6.308950
  H      2.481824   -2.456069   -4.793414
  F      2.459729   -0.509204   -5.505757
  C      4.792500   -1.361316   -3.457295
  C      3.939898   -0.374925   -3.557359
  N      5.259860   -1.754224   -2.239133
  H      5.922824   -2.521451   -2.186720
  H      4.654678   -1.640404   -1.442016
  H      5.709139   -2.875599   -4.387021
  H      3.330101   -0.317639   -4.361247
  H      3.698494    0.114468   -2.708333
  H      4.843333   -0.517930   -5.943019
  H      5.901695   -1.822503   -6.496467
  H      3.886191   -3.357076   -6.533604
  H      3.685602   -1.922168   -7.547128

 Total Charge           Charge          ....    0
 Multiplicity           Mult            ....    1
 Number of Electrons    NEL             ....   64
 Basis Dimension        Dim             ....  398

ORBITAL ENERGIES
----------------

  NO   OCC          E(Eh)            E(eV)
   0   2.0000     -24.682053      -671.6328
   1   2.0000     -14.313946      -389.5023
   2   2.0000     -14.304940      -389.2572
   3   2.0000     -10.250882      -278.9407
   4   2.0000     -10.202014      -277.6109
   5   2.0000     -10.201026      -277.5840
   6   2.0000     -10.179032      -276.9856
   7   2.0000     -10.056725      -273.6574
   8   2.0000      -1.227600       -33.4047
   9   2.0000      -0.956797       -26.0358
  10   2.0000      -0.875131       -23.8135
  11   2.0000      -0.784249       -21.3405
  12   2.0000      -0.711546       -19.3622
  13   2.0000      -0.692993       -18.8573
  14   2.0000      -0.613647       -16.6982
  15   2.0000      -0.568702       -15.4752
  16   2.0000      -0.547677       -14.9031
  17   2.0000      -0.518821       -14.1178
  18   2.0000      -0.515756       -14.0344
  19   2.0000      -0.496939       -13.5224
  20   2.0000      -0.483732       -13.1630
  21   2.0000      -0.457276       -12.4431
  22   2.0000      -0.426371       -11.6021
  23   2.0000      -0.409993       -11.1565
  24   2.0000      -0.388320       -10.5667
  25   2.0000      -0.378970       -10.3123
  26   2.0000      -0.361474        -9.8362
  27   2.0000      -0.343843        -9.3564
  28   2.0000      -0.336399        -9.1539
  29   2.0000      -0.307344        -8.3632
  30   2.0000      -0.247251        -6.7280
  31   2.0000      -0.163289        -4.4433
  32   0.0000      -0.004468        -0.1216
  33   0.0000       0.015885         0.4323
  34   0.0000       0.024585         0.6690
  35   0.0000       0.032416         0.8821
  36   0.0000       0.046371         1.2618

MULLIKEN ATOMIC CHARGES
-----------------------
   0 C :   -0.558613
   1 N :   -0.200260
   2 C :   -0.299786
   3 C :   -0.258298
   4 H :    0.247158
   5 H :    0.263758
   6 F :   -0.326108
   7 C :    0.692605
   8 C :   -1.449600
   9 N :   -0.404054
  10 H :    0.140600
  11 H :    0.179519
  12 H :    0.165246
  13 H :    0.526680
  14 H :    0.283666
  15 H :    0.312226
  16 H :    0.243521
  17 H :    0.224101
  18 H :    0.217638
Sum of atomic charges:   -0.0000000

LOEWDIN ATOMIC CHARGES
----------------------
   0 C :   -0.183219
   1 N :    0.025176
   2 C :   -0.154367
   3 C :   -0.221476
   4 H :    0.117197
   5 H :    0.128337
   6 F :   -0.042278
   7 C :   -0.549721
   8 C :    0.026901
   9 N :    0.106640
  10 H :    0.086861
  11 H :    0.094559
  12 H :    0.129249
  13 H :   -0.039591
  14 H :    0.023686
  15 H :    0.118744
  16 H :    0.114319
  17 H :    0.112756
  18 H :    0.106228

  Mayer bond orders larger than 0.100000
B(  0-C ,  1-N ) :   0.9075 B(  0-C ,  2-C ) :   0.8522 B(  0-C , 15-H ) :   0.8702
B(  0-C , 16-H ) :   0.9604 B(  1-N ,  7-C ) :   1.0047 B(  1-N , 12-H ) :   0.9838
B(  2-C ,  3-C ) :   0.9850 B(  2-C , 17-H ) :   0.9680 B(  2-C , 18-H ) :   0.9567
B(  3-C ,  4-H ) :   0.9532 B(  3-C ,  5-H ) :   0.9410 B(  3-C ,  6-F ) :   0.8014
B(  6-F ,  8-C ) :   0.1160 B(  6-F , 13-H ) :  -0.2599 B(  7-C ,  8-C ) :   1.1995
B(  7-C ,  9-N ) :   0.8951 B(  8-C , 13-H ) :   0.8534 B(  8-C , 14-H ) :   1.1257
B(  9-N , 10-H ) :   1.0195 B(  9-N , 11-H ) :   0.9901

Dispersion correction           -0.028894130
FINAL SINGLE POINT ENERGY      -406.379484873320

DIPOLE MOMENT
-------------
                                X             Y             Z
Electronic contribution:     -2.28321       2.72095      -0.15635
Nuclear contribution   :      2.43398      -4.26587      -0.19921
                        -----------------------------------------
Total Dipole Moment    :      0.15077      -1.54492      -0.35556
                        -----------------------------------------
Magnitude (a.u.)       :      1.59246
Magnitude (Debye)      :      4.04772

Rotational constants in cm-1:     0.110089     0.049944     0.039407
Rotational constants in MHz :  3300.378855  1497.273856  1181.385913

                             ****ORCA TERMINATED NORMALLY****
TOTAL RUN TIME: 0 days 0 hours 1 minutes 35 seconds 176 msec
