                         Program Version 5.0.0 -  RELEASE  -
|  1> !B3LYP D3BJ RIJCOSX def2-TZVPD def2/J TightSCF xyzfile
|  2>
|  3> *xyzfile 0 1 D3.xyz
|  4>
|  5> %MaxCore 64000
|  6>
|  7> %pal nprocs 4
|  8> end
|  9>
| 10> %scf
| 11>   MaxIter 150
| 12> end
| 13>
| 14>
| 15>                          ****END OF INPUT****

CARTESIAN COORDINATES (ANGSTROEM)
---------------------------------
  C      4.999862   -1.596133   -5.924876
  N      5.281560   -1.974132   -4.535764
  C      3.766779   -2.266110   -6.511752
  C      2.496702   -1.844161   -5.735704
  H      1.626416   -2.217434   -6.308950
  H      2.481824   -2.456069   -4.793414
  F      2.459729   -0.509204   -5.505757
  C      4.792500   -1.361316   -3.457295
  N      3.939898   -0.374925   -3.557359
  C      5.259860   -1.754224   -2.239133
  H      5.922824   -2.521451   -2.186720
  H      4.654678   -1.640404   -1.442016
  H      5.709139   -2.875599   -4.387021
  H      3.330101   -0.317639   -4.361247
  H      3.698494    0.114468   -2.708333
  H      4.843333   -0.517930   -5.943019
  H      5.901695   -1.822503   -6.496467
  H      3.886191   -3.357076   -6.533604
  H      3.685602   -1.922168   -7.547128

 Total Charge           Charge          ....    0
 Multiplicity           Mult            ....    1
 Number of Electrons    NEL             ....   64
 Basis Dimension        Dim             ....  398

ORBITAL ENERGIES
----------------

  NO   OCC          E(Eh)            E(eV)
   0   2.0000     -24.718605      -672.6274
   1   2.0000     -14.314864      -389.5272
   2   2.0000     -14.290335      -388.8598
   3   2.0000     -10.270753      -279.4814
   4   2.0000     -10.210586      -277.8442
   5   2.0000     -10.207363      -277.7565
   6   2.0000     -10.190881      -277.3080
   7   2.0000     -10.069144      -273.9953
   8   2.0000      -1.262085       -34.3431
   9   2.0000      -0.963562       -26.2199
  10   2.0000      -0.881628       -23.9903
  11   2.0000      -0.799723       -21.7616
  12   2.0000      -0.728876       -19.8337
  13   2.0000      -0.671854       -18.2821
  14   2.0000      -0.621395       -16.9090
  15   2.0000      -0.596845       -16.2410
  16   2.0000      -0.575541       -15.6613
  17   2.0000      -0.546185       -14.8624
  18   2.0000      -0.516472       -14.0539
  19   2.0000      -0.504169       -13.7191
  20   2.0000      -0.474423       -12.9097
  21   2.0000      -0.471222       -12.8226
  22   2.0000      -0.436786       -11.8855
  23   2.0000      -0.426675       -11.6104
  24   2.0000      -0.389046       -10.5865
  25   2.0000      -0.381118       -10.3708
  26   2.0000      -0.372525       -10.1369
  27   2.0000      -0.357532        -9.7289
  28   2.0000      -0.346906        -9.4398
  29   2.0000      -0.340626        -9.2689
  30   2.0000      -0.248645        -6.7660
  31   2.0000      -0.151998        -4.1361
  32   0.0000      -0.005198        -0.1414
  33   0.0000       0.017500         0.4762
  34   0.0000       0.021064         0.5732
  35   0.0000       0.023788         0.6473
  36   0.0000       0.048993         1.3332

MULLIKEN ATOMIC CHARGES
-----------------------
   0 C :   -0.520708
   1 N :   -0.170761
   2 C :   -0.297278
   3 C :   -0.241418
   4 H :    0.250470
   5 H :    0.246524
   6 F :   -0.388035
   7 C :    0.507419
   8 N :   -0.351581
   9 C :   -1.221375
  10 H :    0.279618
  11 H :    0.265944
  12 H :    0.168403
  13 H :    0.334069
  14 H :    0.134933
  15 H :    0.297617
  16 H :    0.248316
  17 H :    0.227605
  18 H :    0.230238
Sum of atomic charges:   -0.0000000

LOEWDIN ATOMIC CHARGES
----------------------
   0 C :   -0.185378
   1 N :    0.035502
   2 C :   -0.154716
   3 C :   -0.214298
   4 H :    0.120965
   5 H :    0.133439
   6 F :   -0.023920
   7 C :   -0.569048
   8 N :    0.149471
   9 C :   -0.007598
  10 H :   -0.008665
  11 H :   -0.012141
  12 H :    0.139647
  13 H :    0.024428
  14 H :    0.118166
  15 H :    0.115289
  16 H :    0.115400
  17 H :    0.116402
  18 H :    0.107055

  Mayer bond orders larger than 0.100000
B(  0-C ,  1-N ) :   0.8711 B(  0-C ,  2-C ) :   0.8394 B(  0-C , 15-H ) :   0.8821
B(  0-C , 16-H ) :   0.9824 B(  1-N ,  7-C ) :   1.0749 B(  1-N ,  9-C ) :   0.1045
B(  1-N , 12-H ) :   0.9527 B(  2-C ,  3-C ) :   0.9750 B(  2-C , 17-H ) :   0.9639
B(  2-C , 18-H ) :   0.9723 B(  3-C ,  4-H ) :   0.9566 B(  3-C ,  5-H ) :   0.9516
B(  3-C ,  6-F ) :   0.7724 B(  7-C ,  8-N ) :   1.1357 B(  7-C ,  9-C ) :   1.1830
B(  8-N , 13-H ) :   0.7966 B(  8-N , 14-H ) :   1.0213 B(  9-C , 10-H ) :   0.9996
B(  9-C , 11-H ) :   1.0528

Dispersion correction           -0.028640955
FINAL SINGLE POINT ENERGY      -406.393414739826

DIPOLE MOMENT
-------------
                                X             Y             Z
Electronic contribution:     -3.49031       3.87712      -1.51910
Nuclear contribution   :      2.63642      -4.47741       0.00296
                        -----------------------------------------
Total Dipole Moment    :     -0.85389      -0.60029      -1.51614
                        -----------------------------------------
Magnitude (a.u.)       :      1.84069
Magnitude (Debye)      :      4.67867

Rotational constants in cm-1:     0.108041     0.051979     0.040387
Rotational constants in MHz :  3238.993235  1558.297571  1210.782552

                             ****ORCA TERMINATED NORMALLY****
TOTAL RUN TIME: 0 days 0 hours 1 minutes 32 seconds 988 msec
