                         Program Version 5.0.0 -  RELEASE  -
|  1> !LC-PBE RIJCOSX def2-TZVPD def2/J TightSCF
|  2>
|  3> *xyz -1 1
|  4> C          2.95263        1.86308       -3.57485
|  5> C          4.12921        0.89839       -3.41895
|  6> H          3.73369       -0.10060       -3.23763
|  7> H          4.71910        0.86256       -4.33901
|  8> C          5.01734        1.31521       -2.22130
|  9> O          4.73706        0.85411       -1.12283
| 10> O          5.92815        2.16811       -2.49136
| 11> H          2.35067        1.56005       -4.40594
| 12> H          3.32277        2.85258       -3.74453
| 13> H          2.36134        1.85149       -2.68315
| 14> *
| 15> %MaxCore 64000
| 16>
| 17> %pal nprocs 4
| 18> end
| 19>
| 20> %scf
| 21>   MaxIter 150
| 22> end
| 23>
| 24>
| 25>                          ****END OF INPUT****

CARTESIAN COORDINATES (ANGSTROEM)
---------------------------------
  C      2.952630    1.863080   -3.574850
  C      4.129210    0.898390   -3.418950
  H      3.733690   -0.100600   -3.237630
  H      4.719100    0.862560   -4.339010
  C      5.017340    1.315210   -2.221300
  O      4.737060    0.854110   -1.122830
  O      5.928150    2.168110   -2.491360
  H      2.350670    1.560050   -4.405940
  H      3.322770    2.852580   -3.744530
  H      2.361340    1.851490   -2.683150

 Total Charge           Charge          ....   -1
 Multiplicity           Mult            ....    1
 Number of Electrons    NEL             ....   40
 Basis Dimension        Dim             ....  236

ORBITAL ENERGIES
----------------

  NO   OCC          E(Eh)            E(eV)
   0   2.0000     -18.715747      -509.2814
   1   2.0000     -18.704138      -508.9655
   2   2.0000     -10.002315      -272.1768
   3   2.0000      -9.951133      -270.7841
   4   2.0000      -9.939253      -270.4608
   5   2.0000      -0.993773       -27.0419
   6   2.0000      -0.887926       -24.1617
   7   2.0000      -0.783402       -21.3174
   8   2.0000      -0.634919       -17.2770
   9   2.0000      -0.472372       -12.8539
  10   2.0000      -0.436416       -11.8755
  11   2.0000      -0.405115       -11.0237
  12   2.0000      -0.376279       -10.2391
  13   2.0000      -0.351646        -9.5688
  14   2.0000      -0.350175        -9.5287
  15   2.0000      -0.310773        -8.4566
  16   2.0000      -0.306799        -8.3484
  17   2.0000      -0.178569        -4.8591
  18   2.0000      -0.170622        -4.6428
  19   2.0000      -0.162984        -4.4350
  20   0.0000       0.188936         5.1412
  21   0.0000       0.209698         5.7062
  22   0.0000       0.215728         5.8703
  23   0.0000       0.226292         6.1577
  24   0.0000       0.262934         7.1548

MULLIKEN ATOMIC CHARGES
-----------------------
   0 C :   -1.148548
   1 C :   -0.420209
   2 H :    0.290554
   3 H :    0.299431
   4 C :    0.376512
   5 O :   -0.649844
   6 O :   -0.720165
   7 H :    0.309217
   8 H :    0.330285
   9 H :    0.332767
Sum of atomic charges:   -1.0000000

LOEWDIN ATOMIC CHARGES
----------------------
   0 C :   -0.151914
   1 C :   -0.231740
   2 H :    0.095615
   3 H :    0.099185
   4 C :   -0.801164
   5 O :   -0.068851
   6 O :   -0.133575
   7 H :    0.052531
   8 H :    0.069753
   9 H :    0.070159

  Mayer bond orders larger than 0.100000
B(  0-C ,  1-C ) :   0.5482 B(  0-C ,  7-H ) :   0.9293 B(  0-C ,  8-H ) :   0.9617
B(  0-C ,  9-H ) :   0.9589 B(  1-C ,  2-H ) :   0.9601 B(  1-C ,  3-H ) :   0.9500
B(  1-C ,  4-C ) :   0.9146 B(  4-C ,  5-O ) :   1.5250 B(  4-C ,  6-O ) :   1.4355

FINAL SINGLE POINT ENERGY      -267.156489952384

DIPOLE MOMENT
-------------
                                X             Y             Z
Electronic contribution:      4.36107      -0.22884       3.83921
Nuclear contribution   :     -5.85873      -0.10793      -5.24103
                        -----------------------------------------
Total Dipole Moment    :     -1.49765      -0.33678      -1.40182
                        -----------------------------------------
Magnitude (a.u.)       :      2.07882
Magnitude (Debye)      :      5.28393

Rotational constants in cm-1:     0.292505     0.135951     0.110253
Rotational constants in MHz :  8769.065873  4075.717001  3305.311891

                             ****ORCA TERMINATED NORMALLY****
TOTAL RUN TIME: 0 days 0 hours 0 minutes 29 seconds 372 msec
