                         Program Version 5.0.0 -  RELEASE  -
|  1> !LC-PBE RIJCOSX def2-TZVPD def2/J TightSCF
|  2>
|  3> *xyz 1 1
|  4> C          3.34350        3.35457       -3.59200
|  5> C          2.95263        1.86308       -3.57485
|  6> C          4.25587        3.70385       -4.72605
|  7> N          3.73403        4.29378       -5.80077
|  8> N          5.51504        3.40725       -4.63718
|  9> H          6.14919        3.60120       -5.39905
| 10> H          5.81358        2.89950       -3.80879
| 11> H          2.74138        4.51311       -5.82470
| 12> H          4.28755        4.52126       -6.61434
| 13> H          3.86125        3.59725       -2.66298
| 14> H          2.44649        3.97346       -3.65656
| 15> H          2.44395        1.61721       -4.48352
| 16> H          2.30781        1.67290       -2.74242
| 17> H          3.83491        1.26414       -3.48670
| 18> *
| 19> %MaxCore 64000
| 20>
| 21> %pal nprocs 4
| 22> end
| 23>
| 24> %scf
| 25>   MaxIter 150
| 26> end
| 27>
| 28>
| 29>                          ****END OF INPUT****

CARTESIAN COORDINATES (ANGSTROEM)
---------------------------------
  C      3.343500    3.354570   -3.592000
  C      2.952630    1.863080   -3.574850
  C      4.255870    3.703850   -4.726050
  N      3.734030    4.293780   -5.800770
  N      5.515040    3.407250   -4.637180
  H      6.149190    3.601200   -5.399050
  H      5.813580    2.899500   -3.808790
  H      2.741380    4.513110   -5.824700
  H      4.287550    4.521260   -6.614340
  H      3.861250    3.597250   -2.662980
  H      2.446490    3.973460   -3.656560
  H      2.443950    1.617210   -4.483520
  H      2.307810    1.672900   -2.742420
  H      3.834910    1.264140   -3.486700

 Total Charge           Charge          ....    1
 Multiplicity           Mult            ....    1
 Number of Electrons    NEL             ....   40
 Basis Dimension        Dim             ....  266

ORBITAL ENERGIES
----------------

  NO   OCC          E(Eh)            E(eV)
   0   2.0000     -14.462838      -393.5538
   1   2.0000     -14.457742      -393.4152
   2   2.0000     -10.446932      -284.2755
   3   2.0000     -10.315149      -280.6895
   4   2.0000     -10.268920      -279.4315
   5   2.0000      -1.383668       -37.6515
   6   2.0000      -1.279191       -34.8086
   7   2.0000      -1.146550       -31.1992
   8   2.0000      -1.023889       -27.8614
   9   2.0000      -0.974038       -26.5049
  10   2.0000      -0.927442       -25.2370
  11   2.0000      -0.901571       -24.5330
  12   2.0000      -0.841418       -22.8962
  13   2.0000      -0.799343       -21.7512
  14   2.0000      -0.767225       -20.8773
  15   2.0000      -0.755949       -20.5704
  16   2.0000      -0.678410       -18.4605
  17   2.0000      -0.668685       -18.1958
  18   2.0000      -0.659645       -17.9499
  19   2.0000      -0.623422       -16.9642
  20   0.0000      -0.117557        -3.1989
  21   0.0000      -0.093675        -2.5490
  22   0.0000      -0.055877        -1.5205
  23   0.0000      -0.052206        -1.4206
  24   0.0000      -0.035239        -0.9589

MULLIKEN ATOMIC CHARGES
-----------------------
   0 C :   -0.929150
   1 C :   -1.086390
   2 C :    0.909426
   3 N :   -0.420764
   4 N :   -0.374076
   5 H :    0.243739
   6 H :    0.277624
   7 H :    0.260427
   8 H :    0.221127
   9 H :    0.389181
  10 H :    0.396591
  11 H :    0.363917
  12 H :    0.377147
  13 H :    0.371202
Sum of atomic charges:    1.0000000

LOEWDIN ATOMIC CHARGES
----------------------
   0 C :   -0.165933
   1 C :   -0.074512
   2 C :   -0.366971
   3 N :    0.215779
   4 N :    0.228880
   5 H :    0.157737
   6 H :    0.162015
   7 H :    0.153376
   8 H :    0.147767
   9 H :    0.140399
  10 H :    0.134903
  11 H :    0.090243
  12 H :    0.093249
  13 H :    0.083068

  Mayer bond orders larger than 0.100000
B(  0-C ,  1-C ) :   0.6538 B(  0-C ,  2-C ) :   0.6178 B(  0-C ,  4-N ) :   0.1044
B(  0-C ,  9-H ) :   0.9245 B(  0-C , 10-H ) :   0.8890 B(  1-C , 11-H ) :   0.9361
B(  1-C , 12-H ) :   0.9487 B(  1-C , 13-H ) :   0.8765 B(  2-C ,  3-N ) :   1.0153
B(  2-C ,  4-N ) :   1.1242 B(  3-N ,  7-H ) :   0.9446 B(  3-N ,  8-H ) :   1.0490
B(  4-N ,  5-H ) :   1.0083 B(  4-N ,  6-H ) :   0.9245

FINAL SINGLE POINT ENERGY      -228.369147261591

DIPOLE MOMENT
-------------
                                X             Y             Z
Electronic contribution:      2.37307       2.57457      -2.27209
Nuclear contribution   :     -1.74195      -2.09431       1.58516
                        -----------------------------------------
Total Dipole Moment    :      0.63112       0.48026      -0.68693
                        -----------------------------------------
Magnitude (a.u.)       :      1.04921
Magnitude (Debye)      :      2.66687

Rotational constants in cm-1:     0.258965     0.126500     0.098780
Rotational constants in MHz :  7763.584551  3792.383135  2961.336502

                             ****ORCA TERMINATED NORMALLY****
TOTAL RUN TIME: 0 days 0 hours 0 minutes 44 seconds 179 msec
