                         Program Version 5.0.0 -  RELEASE  -
|  1> !LC-PBE RIJCOSX def2-TZVPD def2/J TightSCF xyzfile
|  2>
|  3> *xyzfile 0 1 B.xyz
|  4>
|  5> %MaxCore 64000
|  6>
|  7> %pal nprocs 4
|  8> end
|  9>
| 10> %scf
| 11>   MaxIter 150
| 12> end
| 13>
| 14>
| 15>                          ****END OF INPUT****

CARTESIAN COORDINATES (ANGSTROEM)
---------------------------------
  C      3.343500    3.354571   -3.591998
  C      2.952633    1.863077   -3.574849
  C      4.129209    0.898394   -3.418950
  H      3.733687   -0.100605   -3.237633
  H      4.719095    0.862556   -4.339005
  C      5.017344    1.315212   -2.221305
  C      4.255868    3.703851   -4.726054
  N      3.734032    4.293783   -5.800770
  N      5.515039    3.407255   -4.637185
  H      6.149187    3.601203   -5.399053
  H      5.813584    2.899504   -3.808785
  H      2.741380    4.513109   -5.824701
  H      4.287548    4.521260   -6.614341
  H      2.278938    1.735250   -2.725496
  H      2.377466    1.625787   -4.475869
  O      4.737055    0.854112   -1.122825
  O      5.928146    2.168108   -2.491365
  H      3.861246    3.597252   -2.662979
  H      2.446493    3.973461   -3.656556

 Total Charge           Charge          ....    0
 Multiplicity           Mult            ....    1
 Number of Electrons    NEL             ....   70
 Basis Dimension        Dim             ....  429

ORBITAL ENERGIES
----------------

  NO   OCC          E(Eh)            E(eV)
   0   2.0000     -18.884750      -513.8802
   1   2.0000     -18.872222      -513.5393
   2   2.0000     -14.314000      -389.5037
   3   2.0000     -14.274464      -388.4279
   4   2.0000     -10.287789      -279.9450
   5   2.0000     -10.168604      -276.7018
   6   2.0000     -10.161655      -276.5127
   7   2.0000     -10.137510      -275.8557
   8   2.0000     -10.096158      -274.7304
   9   2.0000      -1.225503       -33.3476
  10   2.0000      -1.162865       -31.6432
  11   2.0000      -1.120352       -30.4863
  12   2.0000      -1.064125       -28.9563
  13   2.0000      -1.004309       -27.3286
  14   2.0000      -0.910837       -24.7851
  15   2.0000      -0.837064       -22.7777
  16   2.0000      -0.793478       -21.5916
  17   2.0000      -0.769529       -20.9400
  18   2.0000      -0.741258       -20.1707
  19   2.0000      -0.689256       -18.7556
  20   2.0000      -0.654322       -17.8050
  21   2.0000      -0.635940       -17.3048
  22   2.0000      -0.607414       -16.5286
  23   2.0000      -0.593221       -16.1424
  24   2.0000      -0.567291       -15.4368
  25   2.0000      -0.541342       -14.7307
  26   2.0000      -0.520488       -14.1632
  27   2.0000      -0.512874       -13.9560
  28   2.0000      -0.503810       -13.7094
  29   2.0000      -0.473171       -12.8756
  30   2.0000      -0.465835       -12.6760
  31   2.0000      -0.460176       -12.5220
  32   2.0000      -0.350406        -9.5350
  33   2.0000      -0.347013        -9.4427
  34   2.0000      -0.325828        -8.8662
  35   0.0000       0.021722         0.5911
  36   0.0000       0.034167         0.9297
  37   0.0000       0.056425         1.5354
  38   0.0000       0.074703         2.0328
  39   0.0000       0.076669         2.0863

MULLIKEN ATOMIC CHARGES
-----------------------
   0 C :   -1.067554
   1 C :   -0.609512
   2 C :   -0.775158
   3 H :    0.345345
   4 H :    0.366543
   5 C :    0.466536
   6 C :    0.831706
   7 N :   -0.447921
   8 N :   -0.284850
   9 H :    0.184705
  10 H :    0.325464
  11 H :    0.249434
  12 H :    0.203073
  13 H :    0.406619
  14 H :    0.308457
  15 O :   -0.600010
  16 O :   -0.781808
  17 H :    0.468845
  18 H :    0.410086
Sum of atomic charges:   -0.0000000

LOEWDIN ATOMIC CHARGES
----------------------
   0 C :   -0.120523
   1 C :   -0.191241
   2 C :   -0.144255
   3 H :    0.121518
   4 H :    0.113321
   5 C :   -0.709781
   6 C :   -0.362963
   7 N :    0.175831
   8 N :    0.227608
   9 H :    0.148603
  10 H :    0.023324
  11 H :    0.136240
  12 H :    0.131738
  13 H :    0.130484
  14 H :    0.119690
  15 O :    0.012811
  16 O :   -0.084031
  17 H :    0.143939
  18 H :    0.127686

  Mayer bond orders larger than 0.100000
B(  0-C ,  1-C ) :   0.6704 B(  0-C ,  6-C ) :   0.6030 B(  0-C ,  7-N ) :   0.1081
B(  0-C , 17-H ) :   0.8903 B(  0-C , 18-H ) :   0.8927 B(  1-C ,  2-C ) :   0.7082
B(  1-C , 13-H ) :   0.8792 B(  1-C , 14-H ) :   0.9386 B(  2-C ,  3-H ) :   0.9524
B(  2-C ,  4-H ) :   0.9259 B(  2-C ,  5-C ) :   0.9437 B(  2-C ,  8-N ) :   0.1169
B(  5-C , 15-O ) :   1.5755 B(  5-C , 16-O ) :   1.2488 B(  6-C ,  7-N ) :   0.9109
B(  6-C ,  8-N ) :   1.2023 B(  7-N , 11-H ) :   0.9664 B(  7-N , 12-H ) :   1.0543
B(  8-N ,  9-H ) :   1.0740 B(  8-N , 10-H ) :   0.7392 B(  8-N , 16-O ) :  -0.1497
B( 10-H , 16-O ) :   0.1358

FINAL SINGLE POINT ENERGY      -455.315728457578

DIPOLE MOMENT
-------------
                                X             Y             Z
Electronic contribution:      3.84021       0.04096       2.51397
Nuclear contribution   :     -5.42217       2.65262      -7.07590
                        -----------------------------------------
Total Dipole Moment    :     -1.58196       2.69358      -4.56193
                        -----------------------------------------
Magnitude (a.u.)       :      5.52894
Magnitude (Debye)      :     14.05345

Rotational constants in cm-1:     0.107541     0.035862     0.030371
Rotational constants in MHz :  3223.996852  1075.120464   910.508313

                             ****ORCA TERMINATED NORMALLY****
TOTAL RUN TIME: 0 days 0 hours 2 minutes 21 seconds 58 msec
