                         Program Version 5.0.0 -  RELEASE  -
|  1> !LC-PBE RIJCOSX def2-TZVPD def2/J TightSCF
|  2>
|  3> *xyz 0 1
|  4> C          2.95263        1.86308       -3.57485
|  5> C          4.12921        0.89839       -3.41895
|  6> H          3.73369       -0.10060       -3.23763
|  7> H          4.71910        0.86256       -4.33901
|  8> C          5.01734        1.31521       -2.22130
|  9> F          4.73706        0.85411       -1.12283
| 10> O          5.92815        2.16811       -2.49136
| 11> H          2.35067        1.56005       -4.40594
| 12> H          3.32277        2.85258       -3.74453
| 13> H          2.36134        1.85149       -2.68315
| 14> *
| 15> %MaxCore 64000
| 16>
| 17> %pal nprocs 4
| 18> end
| 19>
| 20> %scf
| 21>   MaxIter 150
| 22> end
| 23>
| 24>
| 25>                          ****END OF INPUT****

CARTESIAN COORDINATES (ANGSTROEM)
---------------------------------
  C      2.952630    1.863080   -3.574850
  C      4.129210    0.898390   -3.418950
  H      3.733690   -0.100600   -3.237630
  H      4.719100    0.862560   -4.339010
  C      5.017340    1.315210   -2.221300
  F      4.737060    0.854110   -1.122830
  O      5.928150    2.168110   -2.491360
  H      2.350670    1.560050   -4.405940
  H      3.322770    2.852580   -3.744530
  H      2.361340    1.851490   -2.683150

 Total Charge           Charge          ....    0
 Multiplicity           Mult            ....    1
 Number of Electrons    NEL             ....   40
 Basis Dimension        Dim             ....  236

ORBITAL ENERGIES
----------------

  NO   OCC          E(Eh)            E(eV)
   0   2.0000     -24.576688      -668.7657
   1   2.0000     -18.981464      -516.5119
   2   2.0000     -10.305721      -280.4329
   3   2.0000     -10.148500      -276.1547
   4   2.0000     -10.121516      -275.4204
   5   2.0000      -1.504581       -40.9417
   6   2.0000      -1.187614       -32.3166
   7   2.0000      -0.981467       -26.7071
   8   2.0000      -0.857241       -23.3267
   9   2.0000      -0.810453       -22.0535
  10   2.0000      -0.722522       -19.6608
  11   2.0000      -0.705844       -19.2070
  12   2.0000      -0.658385       -17.9156
  13   2.0000      -0.611304       -16.6344
  14   2.0000      -0.578157       -15.7325
  15   2.0000      -0.539011       -14.6672
  16   2.0000      -0.514745       -14.0069
  17   2.0000      -0.504375       -13.7248
  18   2.0000      -0.479657       -13.0521
  19   2.0000      -0.422572       -11.4988
  20   0.0000       0.055966         1.5229
  21   0.0000       0.067106         1.8261
  22   0.0000       0.084295         2.2938
  23   0.0000       0.091677         2.4947
  24   0.0000       0.097834         2.6622

MULLIKEN ATOMIC CHARGES
-----------------------
   0 C :   -1.198219
   1 C :   -0.467195
   2 H :    0.339158
   3 H :    0.322344
   4 C :    0.552099
   5 F :   -0.136109
   6 O :   -0.488220
   7 H :    0.334021
   8 H :    0.368867
   9 H :    0.373253
Sum of atomic charges:    0.0000000

LOEWDIN ATOMIC CHARGES
----------------------
   0 C :   -0.113635
   1 C :   -0.175036
   2 H :    0.115764
   3 H :    0.126654
   4 C :   -0.513829
   5 F :    0.259485
   6 O :    0.056609
   7 H :    0.077959
   8 H :    0.084420
   9 H :    0.081607

  Mayer bond orders larger than 0.100000
B(  0-C ,  1-C ) :   0.5940 B(  0-C ,  7-H ) :   0.9435 B(  0-C ,  8-H ) :   0.9398
B(  0-C ,  9-H ) :   0.9004 B(  1-C ,  2-H ) :   0.9215 B(  1-C ,  3-H ) :   0.9415
B(  1-C ,  4-C ) :   0.8886 B(  4-C ,  5-F ) :   1.0708 B(  4-C ,  6-O ) :   1.7140

FINAL SINGLE POINT ENERGY      -291.684724842564

DIPOLE MOMENT
-------------
                                X             Y             Z
Electronic contribution:      5.01502      -1.21044       6.50506
Nuclear contribution   :     -6.06116       0.51860      -6.80802
                        -----------------------------------------
Total Dipole Moment    :     -1.04614      -0.69184      -0.30296
                        -----------------------------------------
Magnitude (a.u.)       :      1.29028
Magnitude (Debye)      :      3.27964

Rotational constants in cm-1:     0.276196     0.132056     0.105465
Rotational constants in MHz :  8280.156449  3958.940601  3161.775929

                             ****ORCA TERMINATED NORMALLY****
TOTAL RUN TIME: 0 days 0 hours 0 minutes 35 seconds 627 msec
