                         Program Version 5.0.0 -  RELEASE  -
|  1> !LC-PBE RIJCOSX def2-TZVPD def2/J TightSCF
|  2>
|  3> *xyz 0 1
|  4> C          3.34350        3.35457       -3.59200
|  5> C          2.95263        1.86308       -3.57485
|  6> C          4.25587        3.70385       -4.72605
|  7> C          3.73403        4.29378       -5.80077
|  8> N          5.51504        3.40725       -4.63718
|  9> H          6.14919        3.60120       -5.39905
| 10> H          5.81358        2.89950       -3.80879
| 11> H          2.74138        4.51311       -5.82470
| 12> H          4.28755        4.52126       -6.61434
| 13> H          3.86125        3.59725       -2.66298
| 14> H          2.44649        3.97346       -3.65656
| 15> H          2.44395        1.61721       -4.48352
| 16> H          2.30781        1.67290       -2.74242
| 17> H          3.83491        1.26414       -3.48670
| 18> *
| 19> %MaxCore 64000
| 20>
| 21> %pal nprocs 4
| 22> end
| 23>
| 24> %scf
| 25>   MaxIter 150
| 26> end
| 27>
| 28>
| 29>                          ****END OF INPUT****

CARTESIAN COORDINATES (ANGSTROEM)
---------------------------------
  C      3.343500    3.354570   -3.592000
  C      2.952630    1.863080   -3.574850
  C      4.255870    3.703850   -4.726050
  C      3.734030    4.293780   -5.800770
  N      5.515040    3.407250   -4.637180
  H      6.149190    3.601200   -5.399050
  H      5.813580    2.899500   -3.808790
  H      2.741380    4.513110   -5.824700
  H      4.287550    4.521260   -6.614340
  H      3.861250    3.597250   -2.662980
  H      2.446490    3.973460   -3.656560
  H      2.443950    1.617210   -4.483520
  H      2.307810    1.672900   -2.742420
  H      3.834910    1.264140   -3.486700

 Total Charge           Charge          ....    0
 Multiplicity           Mult            ....    1
 Number of Electrons    NEL             ....   40
 Basis Dimension        Dim             ....  266

ORBITAL ENERGIES
----------------

  NO   OCC          E(Eh)            E(eV)
   0   2.0000     -14.215729      -386.8296
   1   2.0000     -10.139552      -275.9112
   2   2.0000     -10.114948      -275.2417
   3   2.0000     -10.099154      -274.8120
   4   2.0000     -10.043107      -273.2868
   5   2.0000      -1.112771       -30.2800
   6   2.0000      -0.955295       -25.9949
   7   2.0000      -0.884510       -24.0688
   8   2.0000      -0.800387       -21.7796
   9   2.0000      -0.722071       -19.6486
  10   2.0000      -0.679137       -18.4802
  11   2.0000      -0.627115       -17.0647
  12   2.0000      -0.579556       -15.7705
  13   2.0000      -0.563654       -15.3378
  14   2.0000      -0.531311       -14.4577
  15   2.0000      -0.519162       -14.1271
  16   2.0000      -0.483908       -13.1678
  17   2.0000      -0.468130       -12.7385
  18   2.0000      -0.460711       -12.5366
  19   2.0000      -0.306247        -8.3334
  20   0.0000       0.065368         1.7787
  21   0.0000       0.088991         2.4216
  22   0.0000       0.093806         2.5526
  23   0.0000       0.095386         2.5956
  24   0.0000       0.125639         3.4188

MULLIKEN ATOMIC CHARGES
-----------------------
   0 C :   -0.927560
   1 C :   -1.014137
   2 C :    0.883300
   3 C :   -1.299343
   4 N :   -0.457345
   5 H :    0.204068
   6 H :    0.225681
   7 H :    0.293508
   8 H :    0.320878
   9 H :    0.384990
  10 H :    0.366629
  11 H :    0.331148
  12 H :    0.350308
  13 H :    0.337876
Sum of atomic charges:    0.0000000

LOEWDIN ATOMIC CHARGES
----------------------
   0 C :   -0.218759
   1 C :   -0.111081
   2 C :   -0.521303
   3 C :    0.001927
   4 N :    0.096969
   5 H :    0.124050
   6 H :    0.120788
   7 H :    0.028547
   8 H :    0.023613
   9 H :    0.117693
  10 H :    0.118593
  11 H :    0.079407
  12 H :    0.070376
  13 H :    0.069180

  Mayer bond orders larger than 0.100000
B(  0-C ,  1-C ) :   0.6125 B(  0-C ,  2-C ) :   0.5651 B(  0-C ,  3-C ) :   0.1530
B(  0-C ,  4-N ) :   0.1458 B(  0-C ,  9-H ) :   0.9622 B(  0-C , 10-H ) :   0.9024
B(  1-C , 11-H ) :   0.9796 B(  1-C , 12-H ) :   0.9468 B(  1-C , 13-H ) :   0.9127
B(  2-C ,  3-C ) :   1.1122 B(  2-C ,  4-N ) :   0.8157 B(  2-C ,  8-H ) :  -0.1461
B(  3-C ,  4-N ) :   0.1204 B(  3-C ,  7-H ) :   0.9989 B(  3-C ,  8-H ) :   1.0374
B(  4-N ,  5-H ) :   1.0216 B(  4-N ,  6-H ) :   0.9947

FINAL SINGLE POINT ENERGY      -211.914110768657

DIPOLE MOMENT
-------------
                                X             Y             Z
Electronic contribution:      2.31347       1.46885      -0.84194
Nuclear contribution   :     -1.79713      -1.86925       1.28073
                        -----------------------------------------
Total Dipole Moment    :      0.51634      -0.40040       0.43879
                        -----------------------------------------
Magnitude (a.u.)       :      0.78706
Magnitude (Debye)      :      2.00056

Rotational constants in cm-1:     0.269040     0.129645     0.102087
Rotational constants in MHz :  8065.609820  3886.645139  3060.489045

                             ****ORCA TERMINATED NORMALLY****
TOTAL RUN TIME: 0 days 0 hours 0 minutes 52 seconds 976 msec
