                         Program Version 5.0.0 -  RELEASE  -
|  1> !LC-PBE RIJCOSX def2-TZVPD def2/J TightSCF
|  2>
|  3> *xyz 0 1
|  4> C          2.95263        1.86308       -3.57485
|  5> C          4.12921        0.89839       -3.41895
|  6> H          3.73369       -0.10060       -3.23763
|  7> H          4.71910        0.86256       -4.33901
|  8> C          5.01734        1.31521       -2.22130
|  9> O          4.73706        0.85411       -1.12283
| 10> F          5.92815        2.16811       -2.49136
| 11> H          2.35067        1.56005       -4.40594
| 12> H          3.32277        2.85258       -3.74453
| 13> H          2.36134        1.85149       -2.68315
| 14> *
| 15> %MaxCore 64000
| 16>
| 17> %pal nprocs 4
| 18> end
| 19>
| 20> %scf
| 21>   MaxIter 150
| 22> end
| 23>
| 24>
| 25>                          ****END OF INPUT****

CARTESIAN COORDINATES (ANGSTROEM)
---------------------------------
  C      2.952630    1.863080   -3.574850
  C      4.129210    0.898390   -3.418950
  H      3.733690   -0.100600   -3.237630
  H      4.719100    0.862560   -4.339010
  C      5.017340    1.315210   -2.221300
  O      4.737060    0.854110   -1.122830
  F      5.928150    2.168110   -2.491360
  H      2.350670    1.560050   -4.405940
  H      3.322770    2.852580   -3.744530
  H      2.361340    1.851490   -2.683150

 Total Charge           Charge          ....    0
 Multiplicity           Mult            ....    1
 Number of Electrons    NEL             ....   40
 Basis Dimension        Dim             ....  236

ORBITAL ENERGIES
----------------

  NO   OCC          E(Eh)            E(eV)
   0   2.0000     -24.555207      -668.1811
   1   2.0000     -18.991320      -516.7801
   2   2.0000     -10.300807      -280.2992
   3   2.0000     -10.147926      -276.1391
   4   2.0000     -10.121682      -275.4250
   5   2.0000      -1.464322       -39.8462
   6   2.0000      -1.220522       -33.2121
   7   2.0000      -0.981257       -26.7013
   8   2.0000      -0.847888       -23.0722
   9   2.0000      -0.795610       -21.6497
  10   2.0000      -0.701641       -19.0926
  11   2.0000      -0.685719       -18.6594
  12   2.0000      -0.658450       -17.9173
  13   2.0000      -0.610481       -16.6120
  14   2.0000      -0.582070       -15.8389
  15   2.0000      -0.544613       -14.8197
  16   2.0000      -0.523072       -14.2335
  17   2.0000      -0.505134       -13.7454
  18   2.0000      -0.495321       -13.4784
  19   2.0000      -0.432466       -11.7680
  20   0.0000       0.057520         1.5652
  21   0.0000       0.071030         1.9328
  22   0.0000       0.084601         2.3021
  23   0.0000       0.093619         2.5475
  24   0.0000       0.097012         2.6398

MULLIKEN ATOMIC CHARGES
-----------------------
   0 C :   -1.195250
   1 C :   -0.471726
   2 H :    0.313305
   3 H :    0.348233
   4 C :    0.534717
   5 O :   -0.432334
   6 F :   -0.170908
   7 H :    0.333109
   8 H :    0.366859
   9 H :    0.373996
Sum of atomic charges:   -0.0000000

LOEWDIN ATOMIC CHARGES
----------------------
   0 C :   -0.113677
   1 C :   -0.173443
   2 H :    0.123052
   3 H :    0.119915
   4 C :   -0.507553
   5 O :    0.113269
   6 F :    0.194451
   7 H :    0.077924
   8 H :    0.081224
   9 H :    0.084837

  Mayer bond orders larger than 0.100000
B(  0-C ,  1-C ) :   0.5945 B(  0-C ,  7-H ) :   0.9435 B(  0-C ,  8-H ) :   0.9036
B(  0-C ,  9-H ) :   0.9363 B(  1-C ,  2-H ) :   0.9491 B(  1-C ,  3-H ) :   0.9129
B(  1-C ,  4-C ) :   0.8839 B(  4-C ,  5-O ) :   1.7831 B(  4-C ,  6-F ) :   1.0013

FINAL SINGLE POINT ENERGY      -291.701703794854

DIPOLE MOMENT
-------------
                                X             Y             Z
Electronic contribution:      7.02397       1.00508       4.19346
Nuclear contribution   :     -7.35982      -0.91407      -5.31589
                        -----------------------------------------
Total Dipole Moment    :     -0.33584       0.09100      -1.12243
                        -----------------------------------------
Magnitude (a.u.)       :      1.17513
Magnitude (Debye)      :      2.98694

Rotational constants in cm-1:     0.275433     0.132201     0.105422
Rotational constants in MHz :  8257.268192  3963.279062  3160.465566

                             ****ORCA TERMINATED NORMALLY****
TOTAL RUN TIME: 0 days 0 hours 0 minutes 33 seconds 733 msec
