                         Program Version 5.0.0 -  RELEASE  -
|  1> !LC-PBE RIJCOSX def2-TZVPD def2/J TightSCF
|  2>
|  3> *xyz 0 1
|  4> C          3.34350        3.35457       -3.59200
|  5> C          2.95263        1.86308       -3.57485
|  6> C          4.25587        3.70385       -4.72605
|  7> N          3.73403        4.29378       -5.80077
|  8> C          5.51504        3.40725       -4.63718
|  9> H          6.14919        3.60120       -5.39905
| 10> H          5.81358        2.89950       -3.80879
| 11> H          2.74138        4.51311       -5.82470
| 12> H          4.28755        4.52126       -6.61434
| 13> H          3.86125        3.59725       -2.66298
| 14> H          2.44649        3.97346       -3.65656
| 15> H          2.44395        1.61721       -4.48352
| 16> H          2.30781        1.67290       -2.74242
| 17> H          3.83491        1.26414       -3.48670
| 18> *
| 19> %MaxCore 64000
| 20>
| 21> %pal nprocs 4
| 22> end
| 23>
| 24> %scf
| 25>   MaxIter 150
| 26> end
| 27>
| 28>
| 29>                          ****END OF INPUT****

CARTESIAN COORDINATES (ANGSTROEM)
---------------------------------
  C      3.343500    3.354570   -3.592000
  C      2.952630    1.863080   -3.574850
  C      4.255870    3.703850   -4.726050
  N      3.734030    4.293780   -5.800770
  C      5.515040    3.407250   -4.637180
  H      6.149190    3.601200   -5.399050
  H      5.813580    2.899500   -3.808790
  H      2.741380    4.513110   -5.824700
  H      4.287550    4.521260   -6.614340
  H      3.861250    3.597250   -2.662980
  H      2.446490    3.973460   -3.656560
  H      2.443950    1.617210   -4.483520
  H      2.307810    1.672900   -2.742420
  H      3.834910    1.264140   -3.486700

 Total Charge           Charge          ....    0
 Multiplicity           Mult            ....    1
 Number of Electrons    NEL             ....   40
 Basis Dimension        Dim             ....  266

ORBITAL ENERGIES
----------------

  NO   OCC          E(Eh)            E(eV)
   0   2.0000     -14.211790      -386.7225
   1   2.0000     -10.136576      -275.8303
   2   2.0000     -10.114238      -275.2224
   3   2.0000     -10.096853      -274.7493
   4   2.0000     -10.041833      -273.2522
   5   2.0000      -1.098431       -29.8898
   6   2.0000      -0.957396       -26.0521
   7   2.0000      -0.888070       -24.1656
   8   2.0000      -0.801742       -21.8165
   9   2.0000      -0.715369       -19.4662
  10   2.0000      -0.666556       -18.1379
  11   2.0000      -0.630953       -17.1691
  12   2.0000      -0.582641       -15.8545
  13   2.0000      -0.554469       -15.0879
  14   2.0000      -0.530486       -14.4353
  15   2.0000      -0.520704       -14.1691
  16   2.0000      -0.478725       -13.0268
  17   2.0000      -0.465997       -12.6804
  18   2.0000      -0.464193       -12.6313
  19   2.0000      -0.312119        -8.4932
  20   0.0000       0.066375         1.8061
  21   0.0000       0.089225         2.4279
  22   0.0000       0.091378         2.4865
  23   0.0000       0.097320         2.6482
  24   0.0000       0.127118         3.4591

MULLIKEN ATOMIC CHARGES
-----------------------
   0 C :   -0.929988
   1 C :   -1.026901
   2 C :    0.866007
   3 N :   -0.495187
   4 C :   -1.214067
   5 H :    0.333617
   6 H :    0.323688
   7 H :    0.215627
   8 H :    0.174330
   9 H :    0.348469
  10 H :    0.386723
  11 H :    0.323271
  12 H :    0.341172
  13 H :    0.353240
Sum of atomic charges:   -0.0000000

LOEWDIN ATOMIC CHARGES
----------------------
   0 C :   -0.217888
   1 C :   -0.110253
   2 C :   -0.509239
   3 N :    0.087105
   4 C :   -0.004672
   5 H :    0.034623
   6 H :    0.041895
   7 H :    0.110181
   8 H :    0.113191
   9 H :    0.121294
  10 H :    0.112999
  11 H :    0.076952
  12 H :    0.069739
  13 H :    0.074073

  Mayer bond orders larger than 0.100000
B(  0-C ,  1-C ) :   0.6155 B(  0-C ,  2-C ) :   0.4871 B(  0-C ,  3-N ) :   0.1053
B(  0-C ,  4-C ) :   0.1706 B(  0-C ,  9-H ) :   0.9657 B(  0-C , 10-H ) :   0.9587
B(  1-C , 11-H ) :   0.9530 B(  1-C , 12-H ) :   0.9446 B(  1-C , 13-H ) :   0.9303
B(  2-C ,  3-N ) :   0.7152 B(  2-C ,  4-C ) :   1.1696 B(  2-C ,  5-H ) :  -0.1384
B(  2-C , 10-H ) :  -0.1011 B(  3-N ,  4-C ) :   0.1260 B(  3-N ,  7-H ) :   1.0162
B(  3-N ,  8-H ) :   1.0679 B(  4-C ,  5-H ) :   1.0180 B(  4-C ,  6-H ) :   0.9528

FINAL SINGLE POINT ENERGY      -211.914953568145

DIPOLE MOMENT
-------------
                                X             Y             Z
Electronic contribution:      0.77920       2.25494      -1.84334
Nuclear contribution   :     -1.38463      -2.07457       1.55023
                        -----------------------------------------
Total Dipole Moment    :     -0.60543       0.18037      -0.29311
                        -----------------------------------------
Magnitude (a.u.)       :      0.69641
Magnitude (Debye)      :      1.77014

Rotational constants in cm-1:     0.272312     0.128195     0.101724
Rotational constants in MHz :  8163.717141  3843.180148  3049.598073

                             ****ORCA TERMINATED NORMALLY****
TOTAL RUN TIME: 0 days 0 hours 0 minutes 47 seconds 761 msec
