                         Program Version 5.0.0 -  RELEASE  -
|  1> !LC-PBE RIJCOSX def2-TZVPD def2/J TightSCF xyzfile
|  2>
|  3> *xyzfile 0 1 D1.xyz
|  4>
|  5> %MaxCore 64000
|  6>
|  7> %pal nprocs 4
|  8> end
|  9>
| 10> %scf
| 11>   MaxIter 150
| 12> end
| 13>
| 14>
| 15>                          ****END OF INPUT****

CARTESIAN COORDINATES (ANGSTROEM)
---------------------------------
  C      3.343500    3.354571   -3.591998
  C      2.952633    1.863077   -3.574849
  C      4.129209    0.898394   -3.418950
  H      3.733687   -0.100605   -3.237633
  H      4.719095    0.862556   -4.339005
  C      5.017344    1.315212   -2.221305
  C      4.255868    3.703851   -4.726054
  C      3.734032    4.293783   -5.800770
  N      5.515039    3.407255   -4.637185
  H      6.149187    3.601203   -5.399053
  H      5.813584    2.899504   -3.808785
  H      2.741380    4.513109   -5.824701
  H      4.287548    4.521260   -6.614341
  H      2.278938    1.735250   -2.725496
  H      2.377466    1.625787   -4.475869
  F      4.737055    0.854112   -1.122825
  O      5.928146    2.168108   -2.491365
  H      3.861246    3.597252   -2.662979
  H      2.446493    3.973461   -3.656556

 Total Charge           Charge          ....    0
 Multiplicity           Mult            ....    1
 Number of Electrons    NEL             ....   70
 Basis Dimension        Dim             ....  429

ORBITAL ENERGIES
----------------

  NO   OCC          E(Eh)            E(eV)
   0   2.0000     -24.599659      -669.3907
   1   2.0000     -19.011123      -517.3190
   2   2.0000     -14.177296      -385.7838
   3   2.0000     -10.335280      -281.2373
   4   2.0000     -10.158343      -276.4226
   5   2.0000     -10.140558      -275.9386
   6   2.0000     -10.130350      -275.6608
   7   2.0000     -10.118172      -275.3295
   8   2.0000     -10.032848      -273.0077
   9   2.0000      -1.526910       -41.5493
  10   2.0000      -1.227789       -33.4098
  11   2.0000      -1.091882       -29.7116
  12   2.0000      -1.004844       -27.3432
  13   2.0000      -0.925126       -25.1740
  14   2.0000      -0.877431       -23.8761
  15   2.0000      -0.843606       -22.9557
  16   2.0000      -0.795839       -21.6559
  17   2.0000      -0.745505       -20.2862
  18   2.0000      -0.734001       -19.9732
  19   2.0000      -0.701319       -19.0839
  20   2.0000      -0.698157       -18.9978
  21   2.0000      -0.657036       -17.8788
  22   2.0000      -0.634040       -17.2531
  23   2.0000      -0.604795       -16.4573
  24   2.0000      -0.585742       -15.9389
  25   2.0000      -0.573905       -15.6168
  26   2.0000      -0.533836       -14.5264
  27   2.0000      -0.520704       -14.1691
  28   2.0000      -0.512130       -13.9358
  29   2.0000      -0.507297       -13.8043
  30   2.0000      -0.488921       -13.3042
  31   2.0000      -0.463538       -12.6135
  32   2.0000      -0.454640       -12.3714
  33   2.0000      -0.437725       -11.9111
  34   2.0000      -0.291203        -7.9240
  35   0.0000       0.038817         1.0563
  36   0.0000       0.053908         1.4669
  37   0.0000       0.076234         2.0744
  38   0.0000       0.079146         2.1537
  39   0.0000       0.082936         2.2568

MULLIKEN ATOMIC CHARGES
-----------------------
   0 C :   -1.073585
   1 C :   -0.547101
   2 C :   -0.751886
   3 H :    0.373954
   4 H :    0.395112
   5 C :    0.588983
   6 C :    0.774444
   7 C :   -1.293819
   8 N :   -0.391494
   9 H :    0.135206
  10 H :    0.326073
  11 H :    0.300891
  12 H :    0.328235
  13 H :    0.358788
  14 H :    0.356741
  15 F :   -0.154870
  16 O :   -0.573121
  17 H :    0.436648
  18 H :    0.410799
Sum of atomic charges:    0.0000000

LOEWDIN ATOMIC CHARGES
----------------------
   0 C :   -0.157575
   1 C :   -0.189301
   2 C :   -0.106973
   3 H :    0.124182
   4 H :    0.135092
   5 C :   -0.451031
   6 C :   -0.498380
   7 C :   -0.002976
   8 N :    0.108536
   9 H :    0.128534
  10 H :    0.017868
  11 H :    0.023578
  12 H :    0.022038
  13 H :    0.121128
  14 H :    0.132250
  15 F :    0.284518
  16 O :    0.056774
  17 H :    0.124158
  18 H :    0.127580

  Mayer bond orders larger than 0.100000
B(  0-C ,  1-C ) :   0.6343 B(  0-C ,  6-C ) :   0.6548 B(  0-C ,  7-C ) :   0.2026
B(  0-C , 17-H ) :   0.8741 B(  0-C , 18-H ) :   0.9246 B(  1-C ,  2-C ) :   0.7126
B(  1-C , 13-H ) :   0.9166 B(  1-C , 14-H ) :   0.8992 B(  2-C ,  3-H ) :   0.9292
B(  2-C ,  4-H ) :   0.9352 B(  2-C ,  5-C ) :   0.9027 B(  2-C ,  8-N ) :   0.1897
B(  5-C , 15-F ) :   1.0659 B(  5-C , 16-O ) :   1.6297 B(  6-C ,  7-C ) :   1.1954
B(  6-C ,  8-N ) :   0.7687 B(  6-C , 12-H ) :  -0.1133 B(  7-C ,  8-N ) :   0.1319
B(  7-C , 11-H ) :   1.0291 B(  7-C , 12-H ) :   0.9980 B(  8-N ,  9-H ) :   1.0921
B(  8-N , 10-H ) :   0.8490 B(  8-N , 16-O ) :  -0.1177

FINAL SINGLE POINT ENERGY      -463.221877006411

DIPOLE MOMENT
-------------
                                X             Y             Z
Electronic contribution:      5.48683      -5.99356      10.56175
Nuclear contribution   :     -5.86483       4.68058     -10.07545
                        -----------------------------------------
Total Dipole Moment    :     -0.37800      -1.31298       0.48630
                        -----------------------------------------
Magnitude (a.u.)       :      1.45027
Magnitude (Debye)      :      3.68630

Rotational constants in cm-1:     0.107256     0.035474     0.030113
Rotational constants in MHz :  3215.453922  1063.481574   902.777619

                             ****ORCA TERMINATED NORMALLY****
TOTAL RUN TIME: 0 days 0 hours 2 minutes 25 seconds 715 msec
