                         Program Version 5.0.0 -  RELEASE  -
|  1> !LC-PBE RIJCOSX def2-TZVPD def2/J TightSCF xyzfile
|  2>
|  3> *xyzfile 0 1 D2.xyz
|  4>
|  5> %MaxCore 64000
|  6>
|  7> %pal nprocs 4
|  8> end
|  9>
| 10> %scf
| 11>   MaxIter 150
| 12> end
| 13>
| 14>
| 15>                          ****END OF INPUT****

CARTESIAN COORDINATES (ANGSTROEM)
---------------------------------
  C      3.343500    3.354571   -3.591998
  C      2.952633    1.863077   -3.574849
  C      4.129209    0.898394   -3.418950
  H      3.733687   -0.100605   -3.237633
  H      4.719095    0.862556   -4.339005
  C      5.017344    1.315212   -2.221305
  C      4.255868    3.703851   -4.726054
  N      3.734032    4.293783   -5.800770
  C      5.515039    3.407255   -4.637185
  H      6.149187    3.601203   -5.399053
  H      5.813584    2.899504   -3.808785
  H      2.741380    4.513109   -5.824701
  H      4.287548    4.521260   -6.614341
  H      2.278938    1.735250   -2.725496
  H      2.377466    1.625787   -4.475869
  F      4.737055    0.854112   -1.122825
  O      5.928146    2.168108   -2.491365
  H      3.861246    3.597252   -2.662979
  H      2.446493    3.973461   -3.656556

 Total Charge           Charge          ....    0
 Multiplicity           Mult            ....    1
 Number of Electrons    NEL             ....   70
 Basis Dimension        Dim             ....  429

ORBITAL ENERGIES
----------------

  NO   OCC          E(Eh)            E(eV)
   0   2.0000     -24.581369      -668.8930
   1   2.0000     -18.984809      -516.6029
   2   2.0000     -14.201592      -386.4450
   3   2.0000     -10.313169      -280.6356
   4   2.0000     -10.145579      -276.0753
   5   2.0000     -10.136367      -275.8246
   6   2.0000     -10.122746      -275.4539
   7   2.0000     -10.116905      -275.2950
   8   2.0000     -10.010503      -272.3996
   9   2.0000      -1.509157       -41.0662
  10   2.0000      -1.202545       -32.7229
  11   2.0000      -1.089248       -29.6399
  12   2.0000      -0.998531       -27.1714
  13   2.0000      -0.921862       -25.0851
  14   2.0000      -0.870409       -23.6850
  15   2.0000      -0.840383       -22.8680
  16   2.0000      -0.783679       -21.3250
  17   2.0000      -0.732732       -19.9387
  18   2.0000      -0.719499       -19.5786
  19   2.0000      -0.698120       -18.9968
  20   2.0000      -0.679895       -18.5009
  21   2.0000      -0.645531       -17.5658
  22   2.0000      -0.626207       -17.0400
  23   2.0000      -0.611459       -16.6386
  24   2.0000      -0.591150       -16.0860
  25   2.0000      -0.557946       -15.1825
  26   2.0000      -0.530849       -14.4451
  27   2.0000      -0.526405       -14.3242
  28   2.0000      -0.498685       -13.5699
  29   2.0000      -0.488080       -13.2813
  30   2.0000      -0.481116       -13.0918
  31   2.0000      -0.459788       -12.5115
  32   2.0000      -0.449317       -12.2265
  33   2.0000      -0.398670       -10.8484
  34   2.0000      -0.297784        -8.1031
  35   0.0000       0.053082         1.4444
  36   0.0000       0.062189         1.6922
  37   0.0000       0.074377         2.0239
  38   0.0000       0.082031         2.2322
  39   0.0000       0.084345         2.2952

MULLIKEN ATOMIC CHARGES
-----------------------
   0 C :   -1.148372
   1 C :   -0.541875
   2 C :   -0.775849
   3 H :    0.379152
   4 H :    0.454146
   5 C :    0.533648
   6 C :    0.909504
   7 N :   -0.499561
   8 C :   -1.319169
   9 H :    0.266239
  10 H :    0.520968
  11 H :    0.211055
  12 H :    0.177026
  13 H :    0.351590
  14 H :    0.337354
  15 F :   -0.171620
  16 O :   -0.518953
  17 H :    0.398265
  18 H :    0.436452
Sum of atomic charges:   -0.0000000

LOEWDIN ATOMIC CHARGES
----------------------
   0 C :   -0.155581
   1 C :   -0.191581
   2 C :   -0.107885
   3 H :    0.122422
   4 H :    0.133438
   5 C :   -0.460174
   6 C :   -0.481441
   7 N :    0.080436
   8 C :    0.013150
   9 H :    0.047155
  10 H :   -0.035825
  11 H :    0.105702
  12 H :    0.111346
  13 H :    0.120281
  14 H :    0.128865
  15 F :    0.274316
  16 O :    0.047121
  17 H :    0.126483
  18 H :    0.121771

  Mayer bond orders larger than 0.100000
B(  0-C ,  1-C ) :   0.6853 B(  0-C ,  2-C ) :  -0.1152 B(  0-C ,  6-C ) :   0.4662
B(  0-C ,  7-N ) :   0.1562 B(  0-C ,  8-C ) :   0.1337 B(  0-C , 17-H ) :   0.9221
B(  0-C , 18-H ) :   0.9252 B(  1-C ,  2-C ) :   0.6982 B(  1-C ,  8-C ) :  -0.1383
B(  1-C , 13-H ) :   0.9070 B(  1-C , 14-H ) :   0.9129 B(  2-C ,  3-H ) :   0.9243
B(  2-C ,  4-H ) :   0.9138 B(  2-C ,  5-C ) :   0.9017 B(  2-C ,  8-C ) :   0.1776
B(  4-H ,  8-C ) :  -0.1098 B(  5-C , 15-F ) :   1.0510 B(  5-C , 16-O ) :   1.6953
B(  6-C ,  7-N ) :   0.6411 B(  6-C ,  8-C ) :   0.8874 B(  6-C ,  9-H ) :  -0.2009
B(  6-C , 18-H ) :  -0.1072 B(  7-N ,  8-C ) :   0.1118 B(  7-N , 11-H ) :   1.0291
B(  7-N , 12-H ) :   1.0683 B(  8-C ,  9-H ) :   1.2074 B(  8-C , 10-H ) :   0.9805
B( 10-H , 16-O ) :  -0.3688

FINAL SINGLE POINT ENERGY      -463.197557716505

DIPOLE MOMENT
-------------
                                X             Y             Z
Electronic contribution:      4.27182      -5.19261       9.58288
Nuclear contribution   :     -5.64491       4.57111      -9.93176
                        -----------------------------------------
Total Dipole Moment    :     -1.37308      -0.62150      -0.34888
                        -----------------------------------------
Magnitude (a.u.)       :      1.54704
Magnitude (Debye)      :      3.93227

Rotational constants in cm-1:     0.109825     0.034347     0.029470
Rotational constants in MHz :  3292.465653  1029.684117   883.494260

                             ****ORCA TERMINATED NORMALLY****
TOTAL RUN TIME: 0 days 0 hours 2 minutes 20 seconds 845 msec
