                         Program Version 5.0.0 -  RELEASE  -
|  1> !LC-PBE RIJCOSX def2-TZVPD def2/J TightSCF xyzfile
|  2>
|  3> *xyzfile 0 1 D3.xyz
|  4>
|  5> %MaxCore 64000
|  6>
|  7> %pal nprocs 4
|  8> end
|  9>
| 10> %scf
| 11>   MaxIter 150
| 12> end
| 13>
| 14>
| 15>                          ****END OF INPUT****

CARTESIAN COORDINATES (ANGSTROEM)
---------------------------------
  C      3.343500    3.354571   -3.591998
  C      2.952633    1.863077   -3.574849
  C      4.129209    0.898394   -3.418950
  H      3.733687   -0.100605   -3.237633
  H      4.719095    0.862556   -4.339005
  C      5.017344    1.315212   -2.221305
  C      4.255868    3.703851   -4.726054
  C      3.734032    4.293783   -5.800770
  N      5.515039    3.407255   -4.637185
  H      6.149187    3.601203   -5.399053
  H      5.813584    2.899504   -3.808785
  H      2.741380    4.513109   -5.824701
  H      4.287548    4.521260   -6.614341
  H      2.278938    1.735250   -2.725496
  H      2.377466    1.625787   -4.475869
  O      4.737055    0.854112   -1.122825
  F      5.928146    2.168108   -2.491365
  H      3.861246    3.597252   -2.662979
  H      2.446493    3.973461   -3.656556

 Total Charge           Charge          ....    0
 Multiplicity           Mult            ....    1
 Number of Electrons    NEL             ....   70
 Basis Dimension        Dim             ....  429

ORBITAL ENERGIES
----------------

  NO   OCC          E(Eh)            E(eV)
   0   2.0000     -24.587297      -669.0544
   1   2.0000     -19.008906      -517.2586
   2   2.0000     -14.205720      -386.5573
   3   2.0000     -10.318744      -280.7873
   4   2.0000     -10.154083      -276.3067
   5   2.0000     -10.144314      -276.0408
   6   2.0000     -10.139255      -275.9032
   7   2.0000     -10.127382      -275.5801
   8   2.0000     -10.047243      -273.3994
   9   2.0000      -1.501795       -40.8659
  10   2.0000      -1.238003       -33.6878
  11   2.0000      -1.114892       -30.3378
  12   2.0000      -1.005057       -27.3490
  13   2.0000      -0.932253       -25.3679
  14   2.0000      -0.885419       -24.0935
  15   2.0000      -0.843432       -22.9509
  16   2.0000      -0.804070       -21.8798
  17   2.0000      -0.745130       -20.2760
  18   2.0000      -0.729133       -19.8407
  19   2.0000      -0.706823       -19.2336
  20   2.0000      -0.679333       -18.4856
  21   2.0000      -0.656179       -17.8555
  22   2.0000      -0.633869       -17.2485
  23   2.0000      -0.616965       -16.7885
  24   2.0000      -0.591297       -16.0900
  25   2.0000      -0.568604       -15.4725
  26   2.0000      -0.540526       -14.7085
  27   2.0000      -0.534724       -14.5506
  28   2.0000      -0.525472       -14.2988
  29   2.0000      -0.514999       -14.0138
  30   2.0000      -0.491319       -13.3695
  31   2.0000      -0.472955       -12.8698
  32   2.0000      -0.464059       -12.6277
  33   2.0000      -0.444761       -12.1026
  34   2.0000      -0.308309        -8.3895
  35   0.0000       0.052297         1.4231
  36   0.0000       0.058729         1.5981
  37   0.0000       0.075885         2.0649
  38   0.0000       0.079543         2.1645
  39   0.0000       0.081205         2.2097

MULLIKEN ATOMIC CHARGES
-----------------------
   0 C :   -1.117428
   1 C :   -0.522439
   2 C :   -0.733799
   3 H :    0.333431
   4 H :    0.419967
   5 C :    0.519712
   6 C :    0.816900
   7 C :   -1.279804
   8 N :   -0.422552
   9 H :    0.137663
  10 H :    0.365221
  11 H :    0.301985
  12 H :    0.325194
  13 H :    0.373651
  14 H :    0.363462
  15 O :   -0.444133
  16 F :   -0.263744
  17 H :    0.419051
  18 H :    0.407661
Sum of atomic charges:    0.0000000

LOEWDIN ATOMIC CHARGES
----------------------
   0 C :   -0.155623
   1 C :   -0.188797
   2 C :   -0.114399
   3 H :    0.130358
   4 H :    0.127192
   5 C :   -0.481277
   6 C :   -0.496500
   7 C :    0.006981
   8 N :    0.112022
   9 H :    0.131826
  10 H :    0.052261
  11 H :    0.028338
  12 H :    0.025004
  13 H :    0.125289
  14 H :    0.131360
  15 O :    0.136811
  16 F :    0.173804
  17 H :    0.126088
  18 H :    0.129262

  Mayer bond orders larger than 0.100000
B(  0-C ,  1-C ) :   0.6294 B(  0-C ,  6-C ) :   0.6125 B(  0-C ,  7-C ) :   0.1955
B(  0-C , 17-H ) :   0.9099 B(  0-C , 18-H ) :   0.9143 B(  1-C ,  2-C ) :   0.7066
B(  1-C , 13-H ) :   0.9128 B(  1-C , 14-H ) :   0.8979 B(  2-C ,  3-H ) :   0.9489
B(  2-C ,  4-H ) :   0.9139 B(  2-C ,  5-C ) :   0.8787 B(  2-C ,  8-N ) :   0.1974
B(  5-C , 15-O ) :   1.7697 B(  5-C , 16-F ) :   0.9275 B(  6-C ,  7-C ) :   1.1660
B(  6-C ,  8-N ) :   0.7440 B(  6-C ,  9-H ) :  -0.1018 B(  6-C , 12-H ) :  -0.1224
B(  7-C ,  8-N ) :   0.1272 B(  7-C , 11-H ) :   1.0228 B(  7-C , 12-H ) :   1.0078
B(  8-N ,  9-H ) :   1.0948 B(  8-N , 10-H ) :   0.8677

FINAL SINGLE POINT ENERGY      -463.227949485565

DIPOLE MOMENT
-------------
                                X             Y             Z
Electronic contribution:      7.41996      -3.59157       8.02120
Nuclear contribution   :     -7.21688       3.18902      -8.52197
                        -----------------------------------------
Total Dipole Moment    :      0.20308      -0.40255      -0.50077
                        -----------------------------------------
Magnitude (a.u.)       :      0.67384
Magnitude (Debye)      :      1.71276

Rotational constants in cm-1:     0.103917     0.036987     0.030872
Rotational constants in MHz :  3115.342573  1108.839114   925.506342

                             ****ORCA TERMINATED NORMALLY****
TOTAL RUN TIME: 0 days 0 hours 2 minutes 21 seconds 107 msec
