                         Program Version 5.0.0 -  RELEASE  -
|  1> !LC-PBE RIJCOSX def2-TZVPD def2/J TightSCF xyzfile
|  2>
|  3> *xyzfile 0 1 D4.xyz
|  4>
|  5> %MaxCore 64000
|  6>
|  7> %pal nprocs 4
|  8> end
|  9>
| 10> %scf
| 11>   MaxIter 150
| 12> end
| 13>
| 14>
| 15>                          ****END OF INPUT****

CARTESIAN COORDINATES (ANGSTROEM)
---------------------------------
  C      3.343500    3.354571   -3.591998
  C      2.952633    1.863077   -3.574849
  C      4.129209    0.898394   -3.418950
  H      3.733687   -0.100605   -3.237633
  H      4.719095    0.862556   -4.339005
  C      5.017344    1.315212   -2.221305
  C      4.255868    3.703851   -4.726054
  N      3.734032    4.293783   -5.800770
  C      5.515039    3.407255   -4.637185
  H      6.149187    3.601203   -5.399053
  H      5.813584    2.899504   -3.808785
  H      2.741380    4.513109   -5.824701
  H      4.287548    4.521260   -6.614341
  H      2.278938    1.735250   -2.725496
  H      2.377466    1.625787   -4.475869
  O      4.737055    0.854112   -1.122825
  F      5.928146    2.168108   -2.491365
  H      3.861246    3.597252   -2.662979
  H      2.446493    3.973461   -3.656556

 Total Charge           Charge          ....    0
 Multiplicity           Mult            ....    1
 Number of Electrons    NEL             ....   70
 Basis Dimension        Dim             ....  429

ORBITAL ENERGIES
----------------

  NO   OCC          E(Eh)            E(eV)
   0   2.0000     -24.558250      -668.2640
   1   2.0000     -18.993490      -516.8391
   2   2.0000     -14.215498      -386.8234
   3   2.0000     -10.302855      -280.3549
   4   2.0000     -10.142524      -275.9921
   5   2.0000     -10.140556      -275.9386
   6   2.0000     -10.136584      -275.8305
   7   2.0000     -10.126894      -275.5668
   8   2.0000     -10.034760      -273.0597
   9   2.0000      -1.475104       -40.1396
  10   2.0000      -1.222892       -33.2766
  11   2.0000      -1.103556       -30.0293
  12   2.0000      -1.002125       -27.2692
  13   2.0000      -0.927552       -25.2400
  14   2.0000      -0.882779       -24.0216
  15   2.0000      -0.835915       -22.7464
  16   2.0000      -0.782623       -21.2963
  17   2.0000      -0.741913       -20.1885
  18   2.0000      -0.702723       -19.1221
  19   2.0000      -0.688380       -18.7318
  20   2.0000      -0.675124       -18.3711
  21   2.0000      -0.656071       -17.8526
  22   2.0000      -0.630827       -17.1657
  23   2.0000      -0.609684       -16.5903
  24   2.0000      -0.591142       -16.0858
  25   2.0000      -0.563399       -15.3309
  26   2.0000      -0.536353       -14.5949
  27   2.0000      -0.523189       -14.2367
  28   2.0000      -0.514164       -13.9911
  29   2.0000      -0.502582       -13.6759
  30   2.0000      -0.484006       -13.1705
  31   2.0000      -0.468059       -12.7365
  32   2.0000      -0.458061       -12.4645
  33   2.0000      -0.432641       -11.7728
  34   2.0000      -0.315277        -8.5791
  35   0.0000       0.057322         1.5598
  36   0.0000       0.068400         1.8613
  37   0.0000       0.074616         2.0304
  38   0.0000       0.079256         2.1567
  39   0.0000       0.087487         2.3806

MULLIKEN ATOMIC CHARGES
-----------------------
   0 C :   -1.199966
   1 C :   -0.523389
   2 C :   -0.748377
   3 H :    0.337375
   4 H :    0.480153
   5 C :    0.480929
   6 C :    0.954333
   7 N :   -0.492747
   8 C :   -1.454730
   9 H :    0.274518
  10 H :    0.631644
  11 H :    0.215350
  12 H :    0.179525
  13 H :    0.372091
  14 H :    0.344473
  15 O :   -0.463267
  16 F :   -0.214089
  17 H :    0.392182
  18 H :    0.433990
Sum of atomic charges:   -0.0000000

LOEWDIN ATOMIC CHARGES
----------------------
   0 C :   -0.152640
   1 C :   -0.190242
   2 C :   -0.114387
   3 H :    0.128876
   4 H :    0.126369
   5 C :   -0.483448
   6 C :   -0.477743
   7 N :    0.089348
   8 C :    0.014301
   9 H :    0.048219
  10 H :   -0.006433
  11 H :    0.109833
  12 H :    0.113983
  13 H :    0.124680
  14 H :    0.128222
  15 O :    0.127574
  16 F :    0.160792
  17 H :    0.128973
  18 H :    0.123722

  Mayer bond orders larger than 0.100000
B(  0-C ,  1-C ) :   0.6815 B(  0-C ,  6-C ) :   0.4342 B(  0-C ,  7-N ) :   0.1556
B(  0-C ,  8-C ) :   0.1322 B(  0-C , 17-H ) :   0.9402 B(  0-C , 18-H ) :   0.9168
B(  1-C ,  2-C ) :   0.7000 B(  1-C ,  8-C ) :  -0.1286 B(  1-C , 13-H ) :   0.9042
B(  1-C , 14-H ) :   0.9065 B(  2-C ,  3-H ) :   0.9477 B(  2-C ,  4-H ) :   0.8893
B(  2-C ,  5-C ) :   0.8733 B(  2-C ,  8-C ) :   0.2018 B(  4-H ,  8-C ) :  -0.1130
B(  5-C , 15-O ) :   1.7522 B(  5-C , 16-F ) :   0.9806 B(  6-C ,  7-N ) :   0.6516
B(  6-C ,  8-C ) :   0.9172 B(  6-C ,  9-H ) :  -0.1795 B(  6-C , 18-H ) :  -0.1016
B(  7-N ,  8-C ) :   0.1106 B(  7-N , 11-H ) :   1.0222 B(  7-N , 12-H ) :   1.0662
B(  8-C ,  9-H ) :   1.1659 B(  8-C , 10-H ) :   0.8099 B( 10-H , 16-F ) :  -0.3341

FINAL SINGLE POINT ENERGY      -463.216106982534

DIPOLE MOMENT
-------------
                                X             Y             Z
Electronic contribution:      6.17251      -2.83162       7.08319
Nuclear contribution   :     -6.99695       3.07955      -8.37829
                        -----------------------------------------
Total Dipole Moment    :     -0.82444       0.24793      -1.29510
                        -----------------------------------------
Magnitude (a.u.)       :      1.55514
Magnitude (Debye)      :      3.95286

Rotational constants in cm-1:     0.106302     0.035771     0.030198
Rotational constants in MHz :  3186.860872  1072.397550   905.318354

                             ****ORCA TERMINATED NORMALLY****
TOTAL RUN TIME: 0 days 0 hours 2 minutes 20 seconds 692 msec
