                         Program Version 5.0.0 -  RELEASE  -
|  1> !wB97X-D3 RIJCOSX def2-TZVP def2/J TightSCF
|  2> *xyz -1 1
|  3> C          0.96805        1.63064       -3.71575
|  4> C         -0.50835        1.72268       -4.12430
|  5> S         -1.32861        0.14674       -4.43578
|  6> H         -0.59151        2.29496       -5.04722
|  7> H         -1.11411        2.23561       -3.37436
|  8> O         -2.57135        0.47573       -5.06834
|  9> O         -1.51496       -0.40051       -3.06342
| 10> O         -0.37793       -0.62756       -5.20114
| 11> H          1.51840        1.12197       -4.47946
| 12> H          1.05062        1.08971       -2.79625
| 13> H          1.36450        2.61606       -3.58668
| 14> *
| 15> %MaxCore 64000
| 16>
| 17> %pal nprocs 4
| 18> end
| 19>
| 20> %scf
| 21>   MaxIter 150
| 22> end
| 23>
| 24>
| 25>                          ****END OF INPUT****

CARTESIAN COORDINATES (ANGSTROEM)
---------------------------------
  C      0.968050    1.630640   -3.715750
  C     -0.508350    1.722680   -4.124300
  S     -1.328610    0.146740   -4.435780
  H     -0.591510    2.294960   -5.047220
  H     -1.114110    2.235610   -3.374360
  O     -2.571350    0.475730   -5.068340
  O     -1.514960   -0.400510   -3.063420
  O     -0.377930   -0.627560   -5.201140
  H      1.518400    1.121970   -4.479460
  H      1.050620    1.089710   -2.796250
  H      1.364500    2.616060   -3.586680

 Total Charge           Charge          ....   -1
 Multiplicity           Mult            ....    1
 Number of Electrons    NEL             ....   58
 Basis Dimension        Dim             ....  222

ORBITAL ENERGIES
----------------

  NO   OCC          E(Eh)            E(eV)
   0   2.0000     -88.928132     -2419.8575
   1   2.0000     -19.007373      -517.2169
   2   2.0000     -19.003815      -517.1201
   3   2.0000     -18.987023      -516.6632
   4   2.0000     -10.130272      -275.6587
   5   2.0000     -10.125485      -275.5284
   6   2.0000      -7.990864      -217.4425
   7   2.0000      -5.945268      -161.7790
   8   2.0000      -5.943827      -161.7397
   9   2.0000      -5.943497      -161.7308
  10   2.0000      -1.036554       -28.2061
  11   2.0000      -0.907999       -24.7079
  12   2.0000      -0.877008       -23.8646
  13   2.0000      -0.741728       -20.1834
  14   2.0000      -0.613221       -16.6866
  15   2.0000      -0.481845       -13.1117
  16   2.0000      -0.413646       -11.2559
  17   2.0000      -0.413178       -11.2431
  18   2.0000      -0.371055       -10.0969
  19   2.0000      -0.358018        -9.7422
  20   2.0000      -0.349894        -9.5211
  21   2.0000      -0.319698        -8.6994
  22   2.0000      -0.304643        -8.2898
  23   2.0000      -0.245453        -6.6791
  24   2.0000      -0.244735        -6.6596
  25   2.0000      -0.210121        -5.7177
  26   2.0000      -0.197555        -5.3757
  27   2.0000      -0.184736        -5.0269
  28   2.0000      -0.153363        -4.1732
  29   0.0000       0.254955         6.9377
  30   0.0000       0.298058         8.1106
  31   0.0000       0.315567         8.5870
  32   0.0000       0.319636         8.6977
  33   0.0000       0.347026         9.4431

MULLIKEN ATOMIC CHARGES
-----------------------
   0 C :   -0.326383
   1 C :   -0.241302
   2 S :    0.859952
   3 H :    0.072385
   4 H :    0.083080
   5 O :   -0.550520
   6 O :   -0.615796
   7 O :   -0.569227
   8 H :    0.114420
   9 H :    0.109035
  10 H :    0.064356
Sum of atomic charges:   -1.0000000

LOEWDIN ATOMIC CHARGES
----------------------
   0 C :   -0.339636
   1 C :   -0.427680
   2 S :    0.408907
   3 H :    0.112926
   4 H :    0.116885
   5 O :   -0.368598
   6 O :   -0.444428
   7 O :   -0.382455
   8 H :    0.113302
   9 H :    0.113148
  10 H :    0.097629

  Mayer bond orders larger than 0.100000
B(  0-C ,  1-C ) :   0.9662 B(  0-C ,  8-H ) :   0.9765 B(  0-C ,  9-H ) :   0.9781
B(  0-C , 10-H ) :   0.9716 B(  1-C ,  2-S ) :   0.8821 B(  1-C ,  3-H ) :   0.9607
B(  1-C ,  4-H ) :   0.9681 B(  2-S ,  5-O ) :   1.8278 B(  2-S ,  6-O ) :   1.7319
B(  2-S ,  7-O ) :   1.7639

Dispersion correction           -0.002915926
FINAL SINGLE POINT ENERGY      -703.217893811402

DIPOLE MOMENT
-------------
                                X             Y             Z
Electronic contribution:     -5.61172      -5.31730      -1.94367
Nuclear contribution   :      6.64523       6.80157       2.07300
                        -----------------------------------------
Total Dipole Moment    :      1.03351       1.48427       0.12933
                        -----------------------------------------
Magnitude (a.u.)       :      1.81326
Magnitude (Debye)      :      4.60894

Rotational constants in cm-1:     0.163070     0.082807     0.081541
Rotational constants in MHz :  4888.719902  2482.497026  2444.541148

                             ****ORCA TERMINATED NORMALLY****
TOTAL RUN TIME: 0 days 0 hours 0 minutes 40 seconds 55 msec
