                         Program Version 5.0.0 -  RELEASE  -
|  1> !wB97X-D3 RIJCOSX def2-TZVP def2/J TightSCF
|  2> *xyz 1 1
|  3> C          1.36401        0.46874       -2.81376
|  4> N          0.42884        0.32140       -1.65531
|  5> C          0.96805        1.63064       -3.71575
|  6> H          0.74858       -0.40054       -1.00134
|  7> H         -0.46105        0.02333       -2.07773
|  8> H          0.31026        1.20137       -1.13495
|  9> H          1.29485       -0.46874       -3.36468
| 10> H          2.37622        0.59740       -2.43149
| 11> H          1.65923        1.70213       -4.52942
| 12> H          0.98421        2.54058       -3.15304
| 13> H         -0.01744        1.46536       -4.09838
| 14> *
| 15> %MaxCore 64000
| 16>
| 17> %pal nprocs 4
| 18> end
| 19>
| 20> %scf
| 21>   MaxIter 150
| 22> end
| 23>
| 24>
| 25>                          ****END OF INPUT****

CARTESIAN COORDINATES (ANGSTROEM)
---------------------------------
  C      1.364010    0.468740   -2.813760
  N      0.428840    0.321400   -1.655310
  C      0.968050    1.630640   -3.715750
  H      0.748580   -0.400540   -1.001340
  H     -0.461050    0.023330   -2.077730
  H      0.310260    1.201370   -1.134950
  H      1.294850   -0.468740   -3.364680
  H      2.376220    0.597400   -2.431490
  H      1.659230    1.702130   -4.529420
  H      0.984210    2.540580   -3.153040
  H     -0.017440    1.465360   -4.098380

 Total Charge           Charge          ....    1
 Multiplicity           Mult            ....    1
 Number of Electrons    NEL             ....   26
 Basis Dimension        Dim             ....  141

ORBITAL ENERGIES
----------------

  NO   OCC          E(Eh)            E(eV)
   0   2.0000     -14.758169      -401.5902
   1   2.0000     -10.529778      -286.5298
   2   2.0000     -10.448671      -284.3228
   3   2.0000      -1.332577       -36.2613
   4   2.0000      -1.081053       -29.4169
   5   2.0000      -0.953542       -25.9472
   6   2.0000      -0.907051       -24.6821
   7   2.0000      -0.890728       -24.2379
   8   2.0000      -0.793112       -21.5817
   9   2.0000      -0.744255       -20.2522
  10   2.0000      -0.680377       -18.5140
  11   2.0000      -0.663051       -18.0425
  12   2.0000      -0.647975       -17.6323
  13   0.0000      -0.108766        -2.9597
  14   0.0000      -0.047239        -1.2854
  15   0.0000      -0.042585        -1.1588
  16   0.0000      -0.024811        -0.6751
  17   0.0000       0.012401         0.3375

MULLIKEN ATOMIC CHARGES
-----------------------
   0 C :   -0.212588
   1 N :   -0.309201
   2 C :   -0.359487
   3 H :    0.343238
   4 H :    0.337390
   5 H :    0.335607
   6 H :    0.190993
   7 H :    0.192479
   8 H :    0.185358
   9 H :    0.149667
  10 H :    0.146542
Sum of atomic charges:    1.0000000

LOEWDIN ATOMIC CHARGES
----------------------
   0 C :   -0.274884
   1 N :    0.166991
   2 C :   -0.275956
   3 H :    0.222602
   4 H :    0.228438
   5 H :    0.222964
   6 H :    0.152310
   7 H :    0.151388
   8 H :    0.147636
   9 H :    0.129486
  10 H :    0.129025

  Mayer bond orders larger than 0.100000
B(  0-C ,  1-N ) :   0.8717 B(  0-C ,  2-C ) :   1.0051 B(  0-C ,  6-H ) :   0.9537
B(  0-C ,  7-H ) :   0.9505 B(  1-N ,  3-H ) :   0.8713 B(  1-N ,  4-H ) :   0.8748
B(  1-N ,  5-H ) :   0.8698 B(  2-C ,  8-H ) :   0.9590 B(  2-C ,  9-H ) :   0.9614
B(  2-C , 10-H ) :   0.9587

Dispersion correction           -0.001498295
FINAL SINGLE POINT ENERGY      -135.550245088813

DIPOLE MOMENT
-------------
                                X             Y             Z
Electronic contribution:     -0.35314      -0.95665       1.58984
Nuclear contribution   :     -0.20470       0.31427      -0.31587
                        -----------------------------------------
Total Dipole Moment    :     -0.55783      -0.64238       1.27397
                        -----------------------------------------
Magnitude (a.u.)       :      1.53194
Magnitude (Debye)      :      3.89388

Rotational constants in cm-1:     1.011480     0.279280     0.248378
Rotational constants in MHz : 30323.408050  8372.602834  7446.185305

                             ****ORCA TERMINATED NORMALLY****
TOTAL RUN TIME: 0 days 0 hours 0 minutes 18 seconds 758 msec
