                         Program Version 5.0.0 -  RELEASE  -
|  1> !wB97X-D3 RIJCOSX def2-TZVP def2/J TightSCF
|  2> *xyz 0 1
|  3> C          0.96805        1.63064       -3.71575
|  4> C         -0.50835        1.72268       -4.12430
|  5> S         -1.32861        0.14674       -4.43578
|  6> H         -0.59151        2.29496       -5.04722
|  7> H         -1.11411        2.23561       -3.37436
|  8> F         -2.57135        0.47573       -5.06834
|  9> O         -1.51496       -0.40051       -3.06342
| 10> O         -0.37793       -0.62756       -5.20114
| 11> H          1.51840        1.12197       -4.47946
| 12> H          1.05062        1.08971       -2.79625
| 13> H          1.36450        2.61606       -3.58668
| 14> *
| 15> %MaxCore 64000
| 16>
| 17> %pal nprocs 4
| 18> end
| 19>
| 20> %scf
| 21>   MaxIter 150
| 22> end
| 23>
| 24>
| 25>                          ****END OF INPUT****

CARTESIAN COORDINATES (ANGSTROEM)
---------------------------------
  C      0.968050    1.630640   -3.715750
  C     -0.508350    1.722680   -4.124300
  S     -1.328610    0.146740   -4.435780
  H     -0.591510    2.294960   -5.047220
  H     -1.114110    2.235610   -3.374360
  F     -2.571350    0.475730   -5.068340
  O     -1.514960   -0.400510   -3.063420
  O     -0.377930   -0.627560   -5.201140
  H      1.518400    1.121970   -4.479460
  H      1.050620    1.089710   -2.796250
  H      1.364500    2.616060   -3.586680

 Total Charge           Charge          ....    0
 Multiplicity           Mult            ....    1
 Number of Electrons    NEL             ....   58
 Basis Dimension        Dim             ....  222

ORBITAL ENERGIES
----------------

  NO   OCC          E(Eh)            E(eV)
   0   2.0000     -89.195775     -2427.1404
   1   2.0000     -24.913736      -677.9372
   2   2.0000     -19.243714      -523.6481
   3   2.0000     -19.227456      -523.2057
   4   2.0000     -10.334966      -281.2287
   5   2.0000     -10.290380      -280.0155
   6   2.0000      -8.259141      -224.7427
   7   2.0000      -6.216383      -169.1564
   8   2.0000      -6.210229      -168.9889
   9   2.0000      -6.209720      -168.9751
  10   2.0000      -1.510404       -41.1002
  11   2.0000      -1.218383       -33.1539
  12   2.0000      -1.115821       -30.3630
  13   2.0000      -0.933899       -25.4127
  14   2.0000      -0.850680       -23.1482
  15   2.0000      -0.786479       -21.4012
  16   2.0000      -0.699563       -19.0361
  17   2.0000      -0.697804       -18.9882
  18   2.0000      -0.660025       -17.9602
  19   2.0000      -0.593244       -16.1430
  20   2.0000      -0.582872       -15.8608
  21   2.0000      -0.540190       -14.6993
  22   2.0000      -0.526661       -14.3312
  23   2.0000      -0.503413       -13.6986
  24   2.0000      -0.482905       -13.1405
  25   2.0000      -0.480465       -13.0741
  26   2.0000      -0.428764       -11.6673
  27   2.0000      -0.411544       -11.1987
  28   2.0000      -0.399144       -10.8612
  29   0.0000       0.103525         2.8171
  30   0.0000       0.117350         3.1932
  31   0.0000       0.145416         3.9570
  32   0.0000       0.150523         4.0959
  33   0.0000       0.159492         4.3400

MULLIKEN ATOMIC CHARGES
-----------------------
   0 C :   -0.353178
   1 C :   -0.253185
   2 S :    0.880856
   3 H :    0.131393
   4 H :    0.148494
   5 F :   -0.089476
   6 O :   -0.465155
   7 O :   -0.421461
   8 H :    0.145559
   9 H :    0.146359
  10 H :    0.129795
Sum of atomic charges:    0.0000000

LOEWDIN ATOMIC CHARGES
----------------------
   0 C :   -0.299764
   1 C :   -0.395490
   2 S :    0.530272
   3 H :    0.131561
   4 H :    0.137662
   5 F :    0.111246
   6 O :   -0.324312
   7 O :   -0.267015
   8 H :    0.125628
   9 H :    0.126662
  10 H :    0.123550

  Mayer bond orders larger than 0.100000
B(  0-C ,  1-C ) :   0.9828 B(  0-C ,  8-H ) :   0.9687 B(  0-C ,  9-H ) :   0.9699
B(  0-C , 10-H ) :   0.9633 B(  1-C ,  2-S ) :   0.9202 B(  1-C ,  3-H ) :   0.9414
B(  1-C ,  4-H ) :   0.9432 B(  2-S ,  5-F ) :   1.1598 B(  2-S ,  6-O ) :   1.8693
B(  2-S ,  7-O ) :   1.9101

Dispersion correction           -0.002913711
FINAL SINGLE POINT ENERGY      -727.732668621442

DIPOLE MOMENT
-------------
                                X             Y             Z
Electronic contribution:     -8.35740      -5.13923      -3.25485
Nuclear contribution   :      8.31000       6.74109       2.87442
                        -----------------------------------------
Total Dipole Moment    :     -0.04739       1.60186      -0.38043
                        -----------------------------------------
Magnitude (a.u.)       :      1.64709
Magnitude (Debye)      :      4.18658

Rotational constants in cm-1:     0.158705     0.080192     0.078179
Rotational constants in MHz :  4757.865601  2404.095079  2343.752507

                             ****ORCA TERMINATED NORMALLY****
TOTAL RUN TIME: 0 days 0 hours 0 minutes 43 seconds 52 msec
