                         Program Version 5.0.0 -  RELEASE  -
|  1> !wB97X-D3 RIJCOSX def2-TZVP def2/J TightSCF
|  2> *xyz 0 1
|  3> C          1.36401        0.46874       -2.81376
|  4> C          0.42884        0.32140       -1.65531
|  5> C          0.96805        1.63064       -3.71575
|  6> H          0.74858       -0.40054       -1.00134
|  7> H         -0.46105        0.02333       -2.07773
|  8> H          0.31026        1.20137       -1.13495
|  9> H          1.29485       -0.46874       -3.36468
| 10> H          2.37622        0.59740       -2.43149
| 11> H          1.65923        1.70213       -4.52942
| 12> H          0.98421        2.54058       -3.15304
| 13> H         -0.01744        1.46536       -4.09838
| 14> *
| 15> %MaxCore 64000
| 16>
| 17> %pal nprocs 4
| 18> end
| 19>
| 20> %scf
| 21>   MaxIter 150
| 22> end
| 23>
| 24>
| 25>                          ****END OF INPUT****

CARTESIAN COORDINATES (ANGSTROEM)
---------------------------------
  C      1.364010    0.468740   -2.813760
  C      0.428840    0.321400   -1.655310
  C      0.968050    1.630640   -3.715750
  H      0.748580   -0.400540   -1.001340
  H     -0.461050    0.023330   -2.077730
  H      0.310260    1.201370   -1.134950
  H      1.294850   -0.468740   -3.364680
  H      2.376220    0.597400   -2.431490
  H      1.659230    1.702130   -4.529420
  H      0.984210    2.540580   -3.153040
  H     -0.017440    1.465360   -4.098380

 Total Charge           Charge          ....    0
 Multiplicity           Mult            ....    1
 Number of Electrons    NEL             ....   26
 Basis Dimension        Dim             ....  141

ORBITAL ENERGIES
----------------

  NO   OCC          E(Eh)            E(eV)
   0   2.0000     -10.260325      -279.1976
   1   2.0000     -10.250557      -278.9318
   2   2.0000     -10.232316      -278.4355
   3   2.0000      -0.908286       -24.7157
   4   2.0000      -0.803556       -21.8659
   5   2.0000      -0.693656       -18.8753
   6   2.0000      -0.573194       -15.5974
   7   2.0000      -0.545535       -14.8448
   8   2.0000      -0.499890       -13.6027
   9   2.0000      -0.487575       -13.2676
  10   2.0000      -0.429815       -11.6959
  11   2.0000      -0.425671       -11.5831
  12   2.0000      -0.421812       -11.4781
  13   0.0000       0.121623         3.3095
  14   0.0000       0.166535         4.5316
  15   0.0000       0.173235         4.7140
  16   0.0000       0.177236         4.8228
  17   0.0000       0.195085         5.3085

MULLIKEN ATOMIC CHARGES
-----------------------
   0 C :   -0.155014
   1 C :   -0.313521
   2 C :   -0.325304
   3 H :    0.110184
   4 H :    0.099931
   5 H :    0.099619
   6 H :    0.082608
   7 H :    0.083786
   8 H :    0.111586
   9 H :    0.103860
  10 H :    0.102266
Sum of atomic charges:    0.0000000

LOEWDIN ATOMIC CHARGES
----------------------
   0 C :   -0.320351
   1 C :   -0.300280
   2 C :   -0.304338
   3 H :    0.106009
   4 H :    0.111969
   5 H :    0.105798
   6 H :    0.131507
   7 H :    0.127318
   8 H :    0.113975
   9 H :    0.114062
  10 H :    0.114332

  Mayer bond orders larger than 0.100000
B(  0-C ,  1-C ) :   0.9763 B(  0-C ,  2-C ) :   0.9832 B(  0-C ,  6-H ) :   0.9773
B(  0-C ,  7-H ) :   0.9762 B(  1-C ,  3-H ) :   0.9845 B(  1-C ,  4-H ) :   0.9827
B(  1-C ,  5-H ) :   0.9818 B(  2-C ,  8-H ) :   0.9819 B(  2-C ,  9-H ) :   0.9800
B(  2-C , 10-H ) :   0.9776

Dispersion correction           -0.001445409
FINAL SINGLE POINT ENERGY      -119.139443573476

DIPOLE MOMENT
-------------
                                X             Y             Z
Electronic contribution:      0.36778      -0.18500      -0.01611
Nuclear contribution   :     -0.35842       0.15752       0.02695
                        -----------------------------------------
Total Dipole Moment    :      0.00936      -0.02748       0.01084
                        -----------------------------------------
Magnitude (a.u.)       :      0.03098
Magnitude (Debye)      :      0.07876

Rotational constants in cm-1:     1.019891     0.293671     0.260247
Rotational constants in MHz : 30575.551403  8804.039097  7802.009261

                             ****ORCA TERMINATED NORMALLY****
TOTAL RUN TIME: 0 days 0 hours 0 minutes 17 seconds 755 msec
