                         Program Version 5.0.0 -  RELEASE  -
|  1> !wB97X-D3 RIJCOSX def2-TZVP def2/J TightSCF
|  2> *xyz 0 1
|  3> C          0.96805        1.63064       -3.71575
|  4> C         -0.50835        1.72268       -4.12430
|  5> S         -1.32861        0.14674       -4.43578
|  6> H         -0.59151        2.29496       -5.04722
|  7> H         -1.11411        2.23561       -3.37436
|  8> O         -2.57135        0.47573       -5.06834
|  9> F         -1.51496       -0.40051       -3.06342
| 10> O         -0.37793       -0.62756       -5.20114
| 11> H          1.51840        1.12197       -4.47946
| 12> H          1.05062        1.08971       -2.79625
| 13> H          1.36450        2.61606       -3.58668
| 14> *
| 15> %MaxCore 64000
| 16>
| 17> %pal nprocs 4
| 18> end
| 19>
| 20> %scf
| 21>   MaxIter 150
| 22> end
| 23>
| 24>
| 25>                          ****END OF INPUT****

CARTESIAN COORDINATES (ANGSTROEM)
---------------------------------
  C      0.968050    1.630640   -3.715750
  C     -0.508350    1.722680   -4.124300
  S     -1.328610    0.146740   -4.435780
  H     -0.591510    2.294960   -5.047220
  H     -1.114110    2.235610   -3.374360
  O     -2.571350    0.475730   -5.068340
  F     -1.514960   -0.400510   -3.063420
  O     -0.377930   -0.627560   -5.201140
  H      1.518400    1.121970   -4.479460
  H      1.050620    1.089710   -2.796250
  H      1.364500    2.616060   -3.586680

 Total Charge           Charge          ....    0
 Multiplicity           Mult            ....    1
 Number of Electrons    NEL             ....   58
 Basis Dimension        Dim             ....  222

ORBITAL ENERGIES
----------------

  NO   OCC          E(Eh)            E(eV)
   0   2.0000     -89.192938     -2427.0632
   1   2.0000     -24.884048      -677.1294
   2   2.0000     -19.247099      -523.7402
   3   2.0000     -19.243574      -523.6443
   4   2.0000     -10.334198      -281.2078
   5   2.0000     -10.292102      -280.0623
   6   2.0000      -8.256324      -224.6660
   7   2.0000      -6.213801      -169.0861
   8   2.0000      -6.207539      -168.9157
   9   2.0000      -6.206739      -168.8940
  10   2.0000      -1.463124       -39.8136
  11   2.0000      -1.234028       -33.5796
  12   2.0000      -1.142273       -31.0828
  13   2.0000      -0.935834       -25.4653
  14   2.0000      -0.831331       -22.6217
  15   2.0000      -0.778803       -21.1923
  16   2.0000      -0.681513       -18.5449
  17   2.0000      -0.665656       -18.1134
  18   2.0000      -0.651871       -17.7383
  19   2.0000      -0.594507       -16.1774
  20   2.0000      -0.577692       -15.7198
  21   2.0000      -0.557315       -15.1653
  22   2.0000      -0.532245       -14.4831
  23   2.0000      -0.503933       -13.7127
  24   2.0000      -0.498891       -13.5755
  25   2.0000      -0.478357       -13.0168
  26   2.0000      -0.439390       -11.9564
  27   2.0000      -0.425766       -11.5857
  28   2.0000      -0.419319       -11.4103
  29   0.0000       0.098140         2.6705
  30   0.0000       0.129405         3.5213
  31   0.0000       0.140871         3.8333
  32   0.0000       0.152737         4.1562
  33   0.0000       0.166262         4.5242

MULLIKEN ATOMIC CHARGES
-----------------------
   0 C :   -0.349112
   1 C :   -0.269013
   2 S :    0.886286
   3 H :    0.159767
   4 H :    0.143685
   5 O :   -0.413122
   6 F :   -0.133803
   7 O :   -0.431113
   8 H :    0.151928
   9 H :    0.124247
  10 H :    0.130250
Sum of atomic charges:    0.0000000

LOEWDIN ATOMIC CHARGES
----------------------
   0 C :   -0.311710
   1 C :   -0.391041
   2 S :    0.538432
   3 H :    0.146581
   4 H :    0.135340
   5 O :   -0.257070
   6 F :    0.041704
   7 O :   -0.270085
   8 H :    0.125732
   9 H :    0.119212
  10 H :    0.122906

  Mayer bond orders larger than 0.100000
B(  0-C ,  1-C ) :   0.9718 B(  0-C ,  8-H ) :   0.9676 B(  0-C ,  9-H ) :   0.9730
B(  0-C , 10-H ) :   0.9653 B(  1-C ,  2-S ) :   0.9140 B(  1-C ,  3-H ) :   0.9450
B(  1-C ,  4-H ) :   0.9495 B(  2-S ,  5-O ) :   1.9523 B(  2-S ,  6-F ) :   1.0978
B(  2-S ,  7-O ) :   1.9064

Dispersion correction           -0.002883582
FINAL SINGLE POINT ENERGY      -727.757138884924

DIPOLE MOMENT
-------------
                                X             Y             Z
Electronic contribution:     -6.55910      -6.63833       0.19006
Nuclear contribution   :      7.20921       7.65416       0.78523
                        -----------------------------------------
Total Dipole Moment    :      0.65011       1.01583       0.97529
                        -----------------------------------------
Magnitude (a.u.)       :      1.55105
Magnitude (Debye)      :      3.94246

Rotational constants in cm-1:     0.153780     0.081282     0.079816
Rotational constants in MHz :  4610.199589  2436.778679  2392.820729

                             ****ORCA TERMINATED NORMALLY****
TOTAL RUN TIME: 0 days 0 hours 0 minutes 41 seconds 11 msec
