                         Program Version 5.0.0 -  RELEASE  -
|  1> !wB97X-D3 RIJCOSX def2-TZVP def2/J TightSCF
|  2> *xyz 0 1
|  3> C          0.96805        1.63064       -3.71575
|  4> C         -0.50835        1.72268       -4.12430
|  5> S         -1.32861        0.14674       -4.43578
|  6> H         -0.59151        2.29496       -5.04722
|  7> H         -1.11411        2.23561       -3.37436
|  8> O         -2.57135        0.47573       -5.06834
|  9> O         -1.51496       -0.40051       -3.06342
| 10> F         -0.37793       -0.62756       -5.20114
| 11> H          1.51840        1.12197       -4.47946
| 12> H          1.05062        1.08971       -2.79625
| 13> H          1.36450        2.61606       -3.58668
| 14> *
| 15> %MaxCore 64000
| 16>
| 17> %pal nprocs 4
| 18> end
| 19>
| 20> %scf
| 21>   MaxIter 150
| 22> end
| 23>
| 24>
| 25>                          ****END OF INPUT****

CARTESIAN COORDINATES (ANGSTROEM)
---------------------------------
  C      0.968050    1.630640   -3.715750
  C     -0.508350    1.722680   -4.124300
  S     -1.328610    0.146740   -4.435780
  H     -0.591510    2.294960   -5.047220
  H     -1.114110    2.235610   -3.374360
  O     -2.571350    0.475730   -5.068340
  O     -1.514960   -0.400510   -3.063420
  F     -0.377930   -0.627560   -5.201140
  H      1.518400    1.121970   -4.479460
  H      1.050620    1.089710   -2.796250
  H      1.364500    2.616060   -3.586680

 Total Charge           Charge          ....    0
 Multiplicity           Mult            ....    1
 Number of Electrons    NEL             ....   58
 Basis Dimension        Dim             ....  222

ORBITAL ENERGIES
----------------

  NO   OCC          E(Eh)            E(eV)
   0   2.0000     -89.195004     -2427.1195
   1   2.0000     -24.907405      -677.7649
   2   2.0000     -19.247502      -523.7512
   3   2.0000     -19.227562      -523.2086
   4   2.0000     -10.334879      -281.2263
   5   2.0000     -10.295757      -280.1618
   6   2.0000      -8.258395      -224.7223
   7   2.0000      -6.215834      -169.1414
   8   2.0000      -6.209398      -168.9663
   9   2.0000      -6.208910      -168.9530
  10   2.0000      -1.499798       -40.8116
  11   2.0000      -1.224396       -33.3175
  12   2.0000      -1.118681       -30.4409
  13   2.0000      -0.938037       -25.5253
  14   2.0000      -0.843450       -22.9514
  15   2.0000      -0.789355       -21.4794
  16   2.0000      -0.703428       -19.1413
  17   2.0000      -0.691385       -18.8135
  18   2.0000      -0.651022       -17.7152
  19   2.0000      -0.594835       -16.1863
  20   2.0000      -0.577103       -15.7038
  21   2.0000      -0.550938       -14.9918
  22   2.0000      -0.535712       -14.5775
  23   2.0000      -0.507972       -13.8226
  24   2.0000      -0.492353       -13.3976
  25   2.0000      -0.478905       -13.0317
  26   2.0000      -0.431136       -11.7318
  27   2.0000      -0.412376       -11.2213
  28   2.0000      -0.402131       -10.9425
  29   0.0000       0.093216         2.5365
  30   0.0000       0.128112         3.4861
  31   0.0000       0.142313         3.8725
  32   0.0000       0.152218         4.1421
  33   0.0000       0.160779         4.3750

MULLIKEN ATOMIC CHARGES
-----------------------
   0 C :   -0.359598
   1 C :   -0.258323
   2 S :    0.879048
   3 H :    0.142772
   4 H :    0.166376
   5 O :   -0.403880
   6 O :   -0.467567
   7 F :   -0.103095
   8 H :    0.122481
   9 H :    0.148875
  10 H :    0.132911
Sum of atomic charges:   -0.0000000

LOEWDIN ATOMIC CHARGES
----------------------
   0 C :   -0.314088
   1 C :   -0.388774
   2 S :    0.532348
   3 H :    0.135566
   4 H :    0.148947
   5 O :   -0.253067
   6 O :   -0.324578
   7 F :    0.097153
   8 H :    0.117229
   9 H :    0.125064
  10 H :    0.124199

  Mayer bond orders larger than 0.100000
B(  0-C ,  1-C ) :   0.9714 B(  0-C ,  8-H ) :   0.9727 B(  0-C ,  9-H ) :   0.9684
B(  0-C , 10-H ) :   0.9661 B(  1-C ,  2-S ) :   0.9145 B(  1-C ,  3-H ) :   0.9462
B(  1-C ,  4-H ) :   0.9449 B(  2-S ,  5-O ) :   1.9553 B(  2-S ,  6-O ) :   1.8659
B(  2-S ,  7-F ) :   1.1347

Dispersion correction           -0.002897389
FINAL SINGLE POINT ENERGY      -727.737539114515

DIPOLE MOMENT
-------------
                                X             Y             Z
Electronic contribution:     -4.61316      -7.00126      -3.46716
Nuclear contribution   :      6.02439       7.89075       3.01280
                        -----------------------------------------
Total Dipole Moment    :      1.41124       0.88949      -0.45435
                        -----------------------------------------
Magnitude (a.u.)       :      1.72894
Magnitude (Debye)      :      4.39461

Rotational constants in cm-1:     0.153652     0.082400     0.079295
Rotational constants in MHz :  4606.361242  2470.285703  2377.214112

                             ****ORCA TERMINATED NORMALLY****
TOTAL RUN TIME: 0 days 0 hours 0 minutes 42 seconds 998 msec
