                         Program Version 5.0.0 -  RELEASE  -
|  1> !wB97X-D3 RIJCOSX def2-TZVP def2/J TightSCF xyzfile
|  2>
|  3> *xyzfile 0 1 D1.xyz
|  4>
|  5> %MaxCore 64000
|  6>
|  7> %pal nprocs 18
|  8> end
|  9>
| 10> %scf
| 11>   MaxIter 150
| 12> end
| 13>
| 14>
| 15>                          ****END OF INPUT****

CARTESIAN COORDINATES (ANGSTROEM)
---------------------------------
  C      1.364014    0.468742   -2.813764
  C      0.428844    0.321402   -1.655312
  C      0.968045    1.630639   -3.715749
  C     -0.508347    1.722679   -4.124300
  S     -1.328608    0.146737   -4.435781
  H     -0.591511    2.294958   -5.047219
  H     -1.114114    2.235610   -3.374362
  H      0.748578   -0.400542   -1.001345
  H     -0.461053    0.023332   -2.077731
  H      0.310258    1.201375   -1.134948
  F     -2.571347    0.475733   -5.068341
  O     -1.514963   -0.400512   -3.063420
  H      1.294847   -0.468742   -3.364684
  H      2.376216    0.597400   -2.431495
  H      1.578688    1.520652   -4.612733
  H      1.266653    2.575988   -3.250448
  O     -0.377928   -0.627558   -5.201141

 Total Charge           Charge          ....    0
 Multiplicity           Mult            ....    1
 Number of Electrons    NEL             ....   74
 Basis Dimension        Dim             ....  308

ORBITAL ENERGIES
----------------

  NO   OCC          E(Eh)            E(eV)
   0   2.0000     -89.202606     -2427.3263
   1   2.0000     -24.917808      -678.0480
   2   2.0000     -19.249494      -523.8054
   3   2.0000     -19.235931      -523.4363
   4   2.0000     -10.335818      -281.2519
   5   2.0000     -10.295674      -280.1595
   6   2.0000     -10.258893      -279.1587
   7   2.0000     -10.199286      -277.5367
   8   2.0000      -8.266169      -224.9339
   9   2.0000      -6.223393      -169.3471
  10   2.0000      -6.217063      -169.1749
  11   2.0000      -6.216959      -169.1721
  12   2.0000      -1.514776       -41.2191
  13   2.0000      -1.228298       -33.4237
  14   2.0000      -1.130466       -30.7616
  15   2.0000      -0.947616       -25.7859
  16   2.0000      -0.889572       -24.2065
  17   2.0000      -0.835134       -22.7252
  18   2.0000      -0.789231       -21.4761
  19   2.0000      -0.717727       -19.5303
  20   2.0000      -0.705562       -19.1993
  21   2.0000      -0.685065       -18.6416
  22   2.0000      -0.653497       -17.7826
  23   2.0000      -0.609596       -16.5879
  24   2.0000      -0.597017       -16.2457
  25   2.0000      -0.561598       -15.2819
  26   2.0000      -0.556609       -15.1461
  27   2.0000      -0.521395       -14.1879
  28   2.0000      -0.501733       -13.6528
  29   2.0000      -0.497628       -13.5412
  30   2.0000      -0.482994       -13.1429
  31   2.0000      -0.451696       -12.2913
  32   2.0000      -0.441729       -12.0200
  33   2.0000      -0.415002       -11.2928
  34   2.0000      -0.413990       -11.2652
  35   2.0000      -0.408354       -11.1119
  36   2.0000      -0.369719       -10.0606
  37   0.0000       0.100933         2.7465
  38   0.0000       0.107661         2.9296
  39   0.0000       0.138780         3.7764
  40   0.0000       0.143071         3.8932
  41   0.0000       0.153378         4.1736

MULLIKEN ATOMIC CHARGES
-----------------------
   0 C :   -0.210269
   1 C :   -0.373953
   2 C :   -0.216705
   3 C :   -0.294652
   4 S :    0.881221
   5 H :    0.154715
   6 H :    0.160942
   7 H :    0.100660
   8 H :    0.172664
   9 H :    0.081274
  10 F :   -0.088146
  11 O :   -0.433079
  12 H :    0.133609
  13 H :    0.095586
  14 H :    0.121999
  15 H :    0.126484
  16 O :   -0.412350
Sum of atomic charges:   -0.0000000

LOEWDIN ATOMIC CHARGES
----------------------
   0 C :   -0.303413
   1 C :   -0.314669
   2 C :   -0.275529
   3 C :   -0.364564
   4 S :    0.546283
   5 H :    0.137029
   6 H :    0.142462
   7 H :    0.103994
   8 H :    0.085720
   9 H :    0.099173
  10 F :    0.113137
  11 O :   -0.275950
  12 H :    0.141480
  13 H :    0.132362
  14 H :    0.144524
  15 H :    0.145847
  16 O :   -0.257885

  Mayer bond orders larger than 0.100000
B(  0-C ,  1-C ) :   0.9362 B(  0-C ,  2-C ) :   0.9769 B(  0-C , 12-H ) :   0.9827
B(  0-C , 13-H ) :   0.9733 B(  1-C ,  7-H ) :   0.9807 B(  1-C ,  8-H ) :   0.9564
B(  1-C ,  9-H ) :   0.9846 B(  2-C ,  3-C ) :   0.9683 B(  2-C , 14-H ) :   0.9750
B(  2-C , 15-H ) :   0.9607 B(  3-C ,  4-S ) :   0.9308 B(  3-C ,  5-H ) :   0.9449
B(  3-C ,  6-H ) :   0.9399 B(  4-S , 10-F ) :   1.1630 B(  4-S , 11-O ) :   1.7894
B(  4-S , 16-O ) :   1.9079

Dispersion correction           -0.006515488
FINAL SINGLE POINT ENERGY      -806.322990899113

DIPOLE MOMENT
-------------
                                X             Y             Z
Electronic contribution:    -12.51173      -4.07737      -9.75852
Nuclear contribution   :     12.25227       5.48563       9.26621
                        -----------------------------------------
Total Dipole Moment    :     -0.25946       1.40826      -0.49231
                        -----------------------------------------
Magnitude (a.u.)       :      1.51423
Magnitude (Debye)      :      3.84887

Rotational constants in cm-1:     0.103176     0.044975     0.040960
Rotational constants in MHz :  3093.138469  1348.317425  1227.945122

                             ****ORCA TERMINATED NORMALLY****
TOTAL RUN TIME: 0 days 0 hours 0 minutes 33 seconds 720 msec
