                         Program Version 5.0.0 -  RELEASE  -
|  1> !DLPNO-CCSD(T) aug-cc-pVTZ aug-cc-pVTZ/C TightSCF TightPNO RIJCOSX def2/J
|  2> *xyz -1 1
|  3> C         -0.90349       -0.87394       -1.98739
|  4> C         -0.96015       -0.52236       -0.48987
|  5> H         -1.69039       -1.20813       -0.02168
|  6> H         -1.41449        0.48633       -0.40668
|  7> O          0.26170       -0.58031        0.13861
|  8> H         -1.88568       -0.80774       -2.40670
|  9> H         -0.53143       -1.87013       -2.10605
| 10> H         -0.25399       -0.18836       -2.49039
| 11> *
| 12>
| 13> %MaxCore 64000
| 14>
| 15> %pal nprocs 18
| 16> end
| 17>
| 18> %scf
| 19>   MaxIter 150
| 20> end
| 21>
| 22>
| 23>                          ****END OF INPUT****

CARTESIAN COORDINATES (ANGSTROEM)
---------------------------------
  C     -0.903490   -0.873940   -1.987390
  C     -0.960150   -0.522360   -0.489870
  H     -1.690390   -1.208130   -0.021680
  H     -1.414490    0.486330   -0.406680
  O      0.261700   -0.580310    0.138610
  H     -1.885680   -0.807740   -2.406700
  H     -0.531430   -1.870130   -2.106050
  H     -0.253990   -0.188360   -2.490390

 Total Charge           Charge          ....   -1
 Multiplicity           Mult            ....    1
 Number of Electrons    NEL             ....   26
 Basis Dimension        Dim             ....  253

ORBITAL ENERGIES
----------------

  NO   OCC          E(Eh)            E(eV)
   0   2.0000     -20.203570      -549.7671
   1   2.0000     -11.036261      -300.3119
   2   2.0000     -11.013177      -299.6838
   3   2.0000      -0.989896       -26.9365
   4   2.0000      -0.785036       -21.3619
   5   2.0000      -0.588467       -16.0130
   6   2.0000      -0.413893       -11.2626
   7   2.0000      -0.387421       -10.5423
   8   2.0000      -0.319666        -8.6986
   9   2.0000      -0.306251        -8.3335
  10   2.0000      -0.256536        -6.9807
  11   2.0000      -0.110910        -3.0180
  12   2.0000      -0.109525        -2.9803
  13   0.0000       0.132844         3.6149
  14   0.0000       0.141819         3.8591
  15   0.0000       0.143317         3.8999
  16   0.0000       0.154478         4.2036
  17   0.0000       0.167157         4.5486

MULLIKEN ATOMIC CHARGES
-----------------------
   0 C :   -0.918944
   1 C :   -0.160710
   2 H :    0.197551
   3 H :    0.190912
   4 O :   -1.110627
   5 H :    0.259477
   6 H :    0.276850
   7 H :    0.265491
Sum of atomic charges:   -1.0000000

LOEWDIN ATOMIC CHARGES
----------------------
   0 C :    0.495409
   1 C :   -0.413683
   2 H :   -0.242102
   3 H :   -0.238280
   4 O :    0.086551
   5 H :   -0.238271
   6 H :   -0.224750
   7 H :   -0.224874

  Mayer bond orders larger than 0.100000
B(  0-C ,  1-C ) :   0.8550 B(  0-C ,  5-H ) :   0.9340 B(  0-C ,  6-H ) :   0.9152
B(  0-C ,  7-H ) :   0.9259 B(  1-C ,  2-H ) :   0.9804 B(  1-C ,  3-H ) :   0.9829
B(  1-C ,  4-O ) :   1.1250

E(0)                                       ...   -153.509463125
E(0)                                       ...   -153.509463125
E(CORR)(strong-pairs)                      ...     -0.651455435
E(CORR)(weak-pairs)                        ...     -0.000421390
E(CORR)(corrected)                         ...     -0.651876825
E(TOT)                                     ...   -154.161339950
E(CCSD(T))                                 ...   -154.187753156
FINAL SINGLE POINT ENERGY      -154.187753155633

DIPOLE MOMENT
-------------
                                X             Y             Z
Electronic contribution:      1.75825       0.16575       2.01365
Nuclear contribution   :     -2.90669      -0.27617      -3.31210
                        -----------------------------------------
Total Dipole Moment    :     -1.14845      -0.11041      -1.29846
                        -----------------------------------------
Magnitude (a.u.)       :      1.73698
Magnitude (Debye)      :      4.41506

Rotational constants in cm-1:     1.291883     0.321656     0.284469
Rotational constants in MHz : 38729.676116  9643.011620  8528.167295

                             ****ORCA TERMINATED NORMALLY****
TOTAL RUN TIME: 0 days 0 hours 2 minutes 7 seconds 735 msec
