                         Program Version 5.0.0 -  RELEASE  -
|  1> !DLPNO-CCSD(T) aug-cc-pVTZ aug-cc-pVTZ/C TightSCF TightPNO RIJCOSX def2/J
|  2> *xyz 1 1
|  3> C          4.36645       -0.13321       -1.41606
|  4> C          4.50829       -0.93187       -2.72425
|  5> C          3.05650       -0.32080       -0.70738
|  6> N          2.38983        0.71129       -0.24391
|  7> N          2.51600       -1.50772       -0.55023
|  8> H          2.96768       -2.32291       -0.95631
|  9> H          1.54987       -1.49063       -0.24988
| 10> H          2.74307        1.64947       -0.41280
| 11> H          1.44036        0.50278        0.03703
| 12> H          4.48784        0.93300       -1.61157
| 13> H          5.16967       -0.41443       -0.72982
| 14> H          5.46700       -0.73824       -3.15818
| 15> H          3.74074       -0.63528       -3.40821
| 16> H          4.41574       -1.97727       -2.51573
| 17> *
| 18>
| 19> %MaxCore 64000
| 20>
| 21> %pal nprocs 18
| 22> end
| 23>
| 24> %scf
| 25>   MaxIter 150
| 26> end
| 27>
| 28>
| 29>                          ****END OF INPUT****

CARTESIAN COORDINATES (ANGSTROEM)
---------------------------------
  C      4.366450   -0.133210   -1.416060
  C      4.508290   -0.931870   -2.724250
  C      3.056500   -0.320800   -0.707380
  N      2.389830    0.711290   -0.243910
  N      2.516000   -1.507720   -0.550230
  H      2.967680   -2.322910   -0.956310
  H      1.549870   -1.490630   -0.249880
  H      2.743070    1.649470   -0.412800
  H      1.440360    0.502780    0.037030
  H      4.487840    0.933000   -1.611570
  H      5.169670   -0.414430   -0.729820
  H      5.467000   -0.738240   -3.158180
  H      3.740740   -0.635280   -3.408210
  H      4.415740   -1.977270   -2.515730

 Total Charge           Charge          ....    1
 Multiplicity           Mult            ....    1
 Number of Electrons    NEL             ....   40
 Basis Dimension        Dim             ....  437

ORBITAL ENERGIES
----------------

  NO   OCC          E(Eh)            E(eV)
   0   2.0000     -15.807372      -430.1405
   1   2.0000     -15.805595      -430.0921
   2   2.0000     -11.568487      -314.7945
   3   2.0000     -11.428864      -310.9952
   4   2.0000     -11.384067      -309.7762
   5   2.0000      -1.532128       -41.6913
   6   2.0000      -1.402034       -38.1513
   7   2.0000      -1.241276       -33.7768
   8   2.0000      -1.094820       -29.7916
   9   2.0000      -1.025226       -27.8978
  10   2.0000      -0.957986       -26.0681
  11   2.0000      -0.941499       -25.6195
  12   2.0000      -0.873273       -23.7630
  13   2.0000      -0.825571       -22.4649
  14   2.0000      -0.791767       -21.5451
  15   2.0000      -0.759680       -20.6720
  16   2.0000      -0.704735       -19.1768
  17   2.0000      -0.689451       -18.7609
  18   2.0000      -0.676155       -18.3991
  19   2.0000      -0.629342       -17.1253
  20   0.0000      -0.098081        -2.6689
  21   0.0000      -0.074886        -2.0377
  22   0.0000      -0.074491        -2.0270
  23   0.0000      -0.064798        -1.7632
  24   0.0000      -0.052297        -1.4231

MULLIKEN ATOMIC CHARGES
-----------------------
   0 C :   -0.085836
   1 C :   -0.944949
   2 C :    0.562309
   3 N :   -0.343645
   4 N :   -0.334596
   5 H :    0.157580
   6 H :    0.157516
   7 H :    0.118388
   8 H :    0.153845
   9 H :    0.313124
  10 H :    0.304600
  11 H :    0.311702
  12 H :    0.306959
  13 H :    0.323002
Sum of atomic charges:    1.0000000

LOEWDIN ATOMIC CHARGES
----------------------
   0 C :    0.359903
   1 C :    0.654147
   2 C :   -0.213866
   3 N :    0.952994
   4 N :    0.952545
   5 H :   -0.235491
   6 H :   -0.241395
   7 H :   -0.222185
   8 H :   -0.244218
   9 H :   -0.141490
  10 H :   -0.120071
  11 H :   -0.153874
  12 H :   -0.163280
  13 H :   -0.183721

  Mayer bond orders larger than 0.100000
B(  0-C ,  1-C ) :   0.8581 B(  0-C ,  2-C ) :   0.5156 B(  0-C ,  9-H ) :   0.9168
B(  0-C , 10-H ) :   0.9164 B(  1-C , 11-H ) :   0.9648 B(  1-C , 12-H ) :   0.9182
B(  1-C , 13-H ) :   0.9024 B(  2-C ,  3-N ) :   1.0054 B(  2-C ,  4-N ) :   1.0956
B(  3-N ,  4-N ) :  -0.1532 B(  3-N ,  7-H ) :   1.1057 B(  3-N ,  8-H ) :   1.0971
B(  4-N ,  5-H ) :   1.0659 B(  4-N ,  6-H ) :   1.0799

E(0)                                       ...   -227.637862272
E(0)                                       ...   -227.637862272
E(CORR)(strong-pairs)                      ...     -0.969538620
E(CORR)(weak-pairs)                        ...     -0.000929989
E(CORR)(corrected)                         ...     -0.970468609
E(TOT)                                     ...   -228.608330881
E(CCSD(T))                                 ...   -228.646781736
FINAL SINGLE POINT ENERGY      -228.646781735621

DIPOLE MOMENT
-------------
                                X             Y             Z
Electronic contribution:     -2.61345       0.63507       3.06885
Nuclear contribution   :      1.78847      -0.48174      -2.67127
                        -----------------------------------------
Total Dipole Moment    :     -0.82498       0.15333       0.39758
                        -----------------------------------------
Magnitude (a.u.)       :      0.92853
Magnitude (Debye)      :      2.36014

Rotational constants in cm-1:     0.286883     0.123210     0.094446
Rotational constants in MHz :  8600.540572  3693.747366  2831.415242

                             ****ORCA TERMINATED NORMALLY****
TOTAL RUN TIME: 0 days 0 hours 5 minutes 47 seconds 467 msec
