                         Program Version 5.0.0 -  RELEASE  -
|  1> !DLPNO-CCSD(T) aug-cc-pVTZ aug-cc-pVTZ/C TightSCF TightPNO RIJCOSX def2/J
|  2> *xyz 0 1
|  3> C         -0.90349       -0.87394       -1.98739
|  4> C         -0.96015       -0.52236       -0.48987
|  5> H         -1.69039       -1.20813       -0.02168
|  6> H         -1.41449        0.48633       -0.40668
|  7> F          0.26170       -0.58031        0.13861
|  8> H         -1.88568       -0.80774       -2.40670
|  9> H         -0.53143       -1.87013       -2.10605
| 10> H         -0.25399       -0.18836       -2.49039
| 11> *
| 12>
| 13> %MaxCore 64000
| 14>
| 15> %pal nprocs 18
| 16> end
| 17>
| 18> %scf
| 19>   MaxIter 150
| 20> end
| 21>
| 22>
| 23>                          ****END OF INPUT****

CARTESIAN COORDINATES (ANGSTROEM)
---------------------------------
  C     -0.903490   -0.873940   -1.987390
  C     -0.960150   -0.522360   -0.489870
  H     -1.690390   -1.208130   -0.021680
  H     -1.414490    0.486330   -0.406680
  F      0.261700   -0.580310    0.138610
  H     -1.885680   -0.807740   -2.406700
  H     -0.531430   -1.870130   -2.106050
  H     -0.253990   -0.188360   -2.490390

 Total Charge           Charge          ....    0
 Multiplicity           Mult            ....    1
 Number of Electrons    NEL             ....   26
 Basis Dimension        Dim             ....  253

ORBITAL ENERGIES
----------------

  NO   OCC          E(Eh)            E(eV)
   0   2.0000     -26.282609      -715.1862
   1   2.0000     -11.311335      -307.7971
   2   2.0000     -11.220653      -305.3295
   3   2.0000      -1.592596       -43.3367
   4   2.0000      -1.032703       -28.1013
   5   2.0000      -0.864199       -23.5160
   6   2.0000      -0.701552       -19.0902
   7   2.0000      -0.699962       -19.0469
   8   2.0000      -0.661597       -18.0030
   9   2.0000      -0.586009       -15.9461
  10   2.0000      -0.561450       -15.2778
  11   2.0000      -0.495680       -13.4881
  12   2.0000      -0.491637       -13.3781
  13   0.0000       0.030154         0.8205
  14   0.0000       0.041324         1.1245
  15   0.0000       0.041857         1.1390
  16   0.0000       0.049151         1.3375
  17   0.0000       0.066988         1.8228

MULLIKEN ATOMIC CHARGES
-----------------------
   0 C :   -0.963221
   1 C :   -0.063886
   2 H :    0.286375
   3 H :    0.287756
   4 F :   -0.482861
   5 H :    0.320207
   6 H :    0.313099
   7 H :    0.302531
Sum of atomic charges:    0.0000000

LOEWDIN ATOMIC CHARGES
----------------------
   0 C :    0.590253
   1 C :   -0.108329
   2 H :   -0.173948
   3 H :   -0.169842
   4 F :    0.446092
   5 H :   -0.192402
   6 H :   -0.195855
   7 H :   -0.195969

  Mayer bond orders larger than 0.100000
B(  0-C ,  1-C ) :   0.9129 B(  0-C ,  5-H ) :   0.9085 B(  0-C ,  6-H ) :   0.8970
B(  0-C ,  7-H ) :   0.9079 B(  1-C ,  2-H ) :   0.9269 B(  1-C ,  3-H ) :   0.9242
B(  1-C ,  4-F ) :   0.6222

E(0)                                       ...   -178.148163764
E(0)                                       ...   -178.148163764
E(CORR)(strong-pairs)                      ...     -0.645144162
E(CORR)(weak-pairs)                        ...     -0.000405553
E(CORR)(corrected)                         ...     -0.645549715
E(TOT)                                     ...   -178.793713480
E(CCSD(T))                                 ...   -178.814955447
FINAL SINGLE POINT ENERGY      -178.814955447472

DIPOLE MOMENT
-------------
                                X             Y             Z
Electronic contribution:      3.15949       0.37833       3.94715
Nuclear contribution   :     -3.84149      -0.36812      -4.38946
                        -----------------------------------------
Total Dipole Moment    :     -0.68200       0.01021      -0.44231
                        -----------------------------------------
Magnitude (a.u.)       :      0.81294
Magnitude (Debye)      :      2.06633

Rotational constants in cm-1:     1.270659     0.299196     0.265842
Rotational constants in MHz : 38093.410361  8969.665806  7969.741481

                             ****ORCA TERMINATED NORMALLY****
TOTAL RUN TIME: 0 days 0 hours 1 minutes 28 seconds 463 msec
