                         Program Version 5.0.0 -  RELEASE  -
|  1> !DLPNO-CCSD(T) aug-cc-pVTZ aug-cc-pVTZ/C TightSCF TightPNO RIJCOSX def2/J
|  2> *xyz 0 1
|  3> C          4.36645       -0.13321       -1.41606
|  4> C          4.50829       -0.93187       -2.72425
|  5> C          3.05650       -0.32080       -0.70738
|  6> C          2.38983        0.71129       -0.24391
|  7> N          2.51600       -1.50772       -0.55023
|  8> H          2.96768       -2.32291       -0.95631
|  9> H          1.54987       -1.49063       -0.24988
| 10> H          2.74307        1.64947       -0.41280
| 11> H          1.44036        0.50278        0.03703
| 12> H          4.48784        0.93300       -1.61157
| 13> H          5.16967       -0.41443       -0.72982
| 14> H          5.46700       -0.73824       -3.15818
| 15> H          3.74074       -0.63528       -3.40821
| 16> H          4.41574       -1.97727       -2.51573
| 17> *
| 18>
| 19> %MaxCore 64000
| 20>
| 21> %pal nprocs 18
| 22> end
| 23>
| 24> %scf
| 25>   MaxIter 150
| 26> end
| 27>
| 28>
| 29>                          ****END OF INPUT****

CARTESIAN COORDINATES (ANGSTROEM)
---------------------------------
  C      4.366450   -0.133210   -1.416060
  C      4.508290   -0.931870   -2.724250
  C      3.056500   -0.320800   -0.707380
  C      2.389830    0.711290   -0.243910
  N      2.516000   -1.507720   -0.550230
  H      2.967680   -2.322910   -0.956310
  H      1.549870   -1.490630   -0.249880
  H      2.743070    1.649470   -0.412800
  H      1.440360    0.502780    0.037030
  H      4.487840    0.933000   -1.611570
  H      5.169670   -0.414430   -0.729820
  H      5.467000   -0.738240   -3.158180
  H      3.740740   -0.635280   -3.408210
  H      4.415740   -1.977270   -2.515730

 Total Charge           Charge          ....    0
 Multiplicity           Mult            ....    1
 Number of Electrons    NEL             ....   40
 Basis Dimension        Dim             ....  437

ORBITAL ENERGIES
----------------

  NO   OCC          E(Eh)            E(eV)
   0   2.0000     -15.557842      -423.3504
   1   2.0000     -11.251249      -306.1621
   2   2.0000     -11.227425      -305.5138
   3   2.0000     -11.216352      -305.2125
   4   2.0000     -11.149392      -303.3904
   5   2.0000      -1.243144       -33.8277
   6   2.0000      -1.050569       -28.5874
   7   2.0000      -0.984985       -26.8028
   8   2.0000      -0.868492       -23.6329
   9   2.0000      -0.760621       -20.6975
  10   2.0000      -0.715008       -19.4564
  11   2.0000      -0.643387       -17.5075
  12   2.0000      -0.605543       -16.4777
  13   2.0000      -0.592553       -16.1242
  14   2.0000      -0.556254       -15.1365
  15   2.0000      -0.532441       -14.4885
  16   2.0000      -0.505404       -13.7527
  17   2.0000      -0.488886       -13.3033
  18   2.0000      -0.472755       -12.8643
  19   2.0000      -0.290305        -7.8996
  20   0.0000       0.027963         0.7609
  21   0.0000       0.035684         0.9710
  22   0.0000       0.040683         1.1070
  23   0.0000       0.043654         1.1879
  24   0.0000       0.054914         1.4943

MULLIKEN ATOMIC CHARGES
-----------------------
   0 C :   -0.155380
   1 C :   -0.975852
   2 C :    0.724686
   3 C :   -1.414119
   4 N :   -0.536910
   5 H :    0.115366
   6 H :    0.045141
   7 H :    0.231697
   8 H :    0.525044
   9 H :    0.255381
  10 H :    0.286461
  11 H :    0.278060
  12 H :    0.307591
  13 H :    0.312834
Sum of atomic charges:    0.0000000

LOEWDIN ATOMIC CHARGES
----------------------
   0 C :    0.293018
   1 C :    0.615127
   2 C :   -0.309341
   3 C :    0.562382
   4 N :    0.843142
   5 H :   -0.282026
   6 H :   -0.282137
   7 H :   -0.287569
   8 H :   -0.299656
   9 H :   -0.158271
  10 H :   -0.141607
  11 H :   -0.179694
  12 H :   -0.175155
  13 H :   -0.198213

  Mayer bond orders larger than 0.100000
B(  0-C ,  1-C ) :   0.8687 B(  0-C ,  2-C ) :   0.6062 B(  0-C ,  9-H ) :   0.9756
B(  0-C , 10-H ) :   0.9572 B(  1-C , 11-H ) :   1.0048 B(  1-C , 12-H ) :   0.9225
B(  1-C , 13-H ) :   0.9181 B(  2-C ,  3-C ) :   1.0912 B(  2-C ,  4-N ) :   0.8328
B(  3-C ,  4-N ) :  -0.2455 B(  3-C ,  7-H ) :   1.2876 B(  3-C ,  8-H ) :   0.6555
B(  4-N ,  5-H ) :   1.0950 B(  4-N ,  6-H ) :   1.1887

E(0)                                       ...   -211.199016890
E(0)                                       ...   -211.199016890
E(CORR)(strong-pairs)                      ...     -0.950339862
E(CORR)(weak-pairs)                        ...     -0.000920994
E(CORR)(corrected)                         ...     -0.951260855
E(TOT)                                     ...   -212.150277745
E(CCSD(T))                                 ...   -212.188929061
FINAL SINGLE POINT ENERGY      -212.188929061094

DIPOLE MOMENT
-------------
                                X             Y             Z
Electronic contribution:     -1.44816      -0.44119       2.01857
Nuclear contribution   :      1.56827      -0.21459      -2.46657
                        -----------------------------------------
Total Dipole Moment    :      0.12011      -0.65577      -0.44801
                        -----------------------------------------
Magnitude (a.u.)       :      0.80323
Magnitude (Debye)      :      2.04165

Rotational constants in cm-1:     0.294070     0.127722     0.097792
Rotational constants in MHz :  8815.983970  3829.010547  2931.715816

                             ****ORCA TERMINATED NORMALLY****
TOTAL RUN TIME: 0 days 0 hours 6 minutes 31 seconds 735 msec
