                         Program Version 5.0.0 -  RELEASE  -
|  1> !DLPNO-CCSD(T) aug-cc-pVTZ aug-cc-pVTZ/C TightSCF TightPNO RIJCOSX def2/J
|  2> *xyz 0 1
|  3> C          4.36645       -0.13321       -1.41606
|  4> C          4.50829       -0.93187       -2.72425
|  5> C          3.05650       -0.32080       -0.70738
|  6> N          2.38983        0.71129       -0.24391
|  7> C          2.51600       -1.50772       -0.55023
|  8> H          2.96768       -2.32291       -0.95631
|  9> H          1.54987       -1.49063       -0.24988
| 10> H          2.74307        1.64947       -0.41280
| 11> H          1.44036        0.50278        0.03703
| 12> H          4.48784        0.93300       -1.61157
| 13> H          5.16967       -0.41443       -0.72982
| 14> H          5.46700       -0.73824       -3.15818
| 15> H          3.74074       -0.63528       -3.40821
| 16> H          4.41574       -1.97727       -2.51573
| 17> *
| 18>
| 19> %MaxCore 64000
| 20>
| 21> %pal nprocs 18
| 22> end
| 23>
| 24> %scf
| 25>   MaxIter 150
| 26> end
| 27>
| 28>
| 29>                          ****END OF INPUT****

CARTESIAN COORDINATES (ANGSTROEM)
---------------------------------
  C      4.366450   -0.133210   -1.416060
  C      4.508290   -0.931870   -2.724250
  C      3.056500   -0.320800   -0.707380
  N      2.389830    0.711290   -0.243910
  C      2.516000   -1.507720   -0.550230
  H      2.967680   -2.322910   -0.956310
  H      1.549870   -1.490630   -0.249880
  H      2.743070    1.649470   -0.412800
  H      1.440360    0.502780    0.037030
  H      4.487840    0.933000   -1.611570
  H      5.169670   -0.414430   -0.729820
  H      5.467000   -0.738240   -3.158180
  H      3.740740   -0.635280   -3.408210
  H      4.415740   -1.977270   -2.515730

 Total Charge           Charge          ....    0
 Multiplicity           Mult            ....    1
 Number of Electrons    NEL             ....   40
 Basis Dimension        Dim             ....  437

ORBITAL ENERGIES
----------------

  NO   OCC          E(Eh)            E(eV)
   0   2.0000     -15.558905      -423.3793
   1   2.0000     -11.251646      -306.1728
   2   2.0000     -11.228599      -305.5457
   3   2.0000     -11.210031      -305.0405
   4   2.0000     -11.146777      -303.3192
   5   2.0000      -1.243518       -33.8379
   6   2.0000      -1.052760       -28.6470
   7   2.0000      -0.972442       -26.4615
   8   2.0000      -0.878473       -23.9045
   9   2.0000      -0.751256       -20.4427
  10   2.0000      -0.711364       -19.3572
  11   2.0000      -0.652893       -17.7661
  12   2.0000      -0.615919       -16.7600
  13   2.0000      -0.571856       -15.5610
  14   2.0000      -0.549390       -14.9496
  15   2.0000      -0.531358       -14.4590
  16   2.0000      -0.504501       -13.7282
  17   2.0000      -0.489175       -13.3111
  18   2.0000      -0.473582       -12.8868
  19   2.0000      -0.288636        -7.8542
  20   0.0000       0.027398         0.7455
  21   0.0000       0.035891         0.9766
  22   0.0000       0.040461         1.1010
  23   0.0000       0.045076         1.2266
  24   0.0000       0.056069         1.5257

MULLIKEN ATOMIC CHARGES
-----------------------
   0 C :   -0.148469
   1 C :   -0.976648
   2 C :    0.564266
   3 N :   -0.522510
   4 C :   -1.266823
   5 H :    0.287482
   6 H :    0.544260
   7 H :    0.053925
   8 H :    0.041334
   9 H :    0.272625
  10 H :    0.255353
  11 H :    0.260420
  12 H :    0.302856
  13 H :    0.331931
Sum of atomic charges:   -0.0000000

LOEWDIN ATOMIC CHARGES
----------------------
   0 C :    0.295743
   1 C :    0.614924
   2 C :   -0.307503
   3 N :    0.841735
   4 C :    0.560617
   5 H :   -0.295212
   6 H :   -0.297341
   7 H :   -0.271446
   8 H :   -0.285256
   9 H :   -0.162992
  10 H :   -0.140139
  11 H :   -0.181462
  12 H :   -0.175375
  13 H :   -0.196294

  Mayer bond orders larger than 0.100000
B(  0-C ,  1-C ) :   0.8619 B(  0-C ,  2-C ) :   0.6843 B(  0-C ,  3-N ) :  -0.1001
B(  0-C ,  9-H ) :   0.9490 B(  0-C , 10-H ) :   0.9715 B(  1-C , 11-H ) :   0.9973
B(  1-C , 12-H ) :   0.9332 B(  1-C , 13-H ) :   0.9060 B(  2-C ,  3-N ) :   0.7801
B(  2-C ,  4-C ) :   1.2927 B(  3-N ,  4-C ) :  -0.2780 B(  3-N ,  7-H ) :   1.1578
B(  3-N ,  8-H ) :   1.1959 B(  4-C ,  5-H ) :   1.1804 B(  4-C ,  6-H ) :   0.6680

E(0)                                       ...   -211.197204047
E(0)                                       ...   -211.197204047
E(CORR)(strong-pairs)                      ...     -0.950776171
E(CORR)(weak-pairs)                        ...     -0.000926396
E(CORR)(corrected)                         ...     -0.951702567
E(TOT)                                     ...   -212.148906614
E(CCSD(T))                                 ...   -212.187634255
FINAL SINGLE POINT ENERGY      -212.187634254784

DIPOLE MOMENT
-------------
                                X             Y             Z
Electronic contribution:     -1.55941       1.47552       2.29373
Nuclear contribution   :      1.59749      -0.72853      -2.53752
                        -----------------------------------------
Total Dipole Moment    :      0.03807       0.74699      -0.24379
                        -----------------------------------------
Magnitude (a.u.)       :      0.78669
Magnitude (Debye)      :      1.99960

Rotational constants in cm-1:     0.304597     0.124127     0.096828
Rotational constants in MHz :  9131.600925  3721.227051  2902.830760

                             ****ORCA TERMINATED NORMALLY****
TOTAL RUN TIME: 0 days 0 hours 7 minutes 22 seconds 614 msec
