                         Program Version 5.0.0 -  RELEASE  -
|  1> !DLPNO-CCSD(T) aug-cc-pVTZ aug-cc-pVTZ/C TightSCF TightPNO RIJCOSX def2/J
|  2>
|  3> *xyzfile 0 1 D2.xyz
|  4>
|  5> %MaxCore 64000
|  6>
|  7> %pal nprocs 18
|  8> end
|  9>
| 10> %scf
| 11>   MaxIter 150
| 12> end
| 13>
| 14>
| 15>                          ****END OF INPUT****

CARTESIAN COORDINATES (ANGSTROEM)
---------------------------------
  C      4.366454   -0.133215   -1.416062
  C      4.508292   -0.931872   -2.724249
  H      4.753716   -1.972051   -2.488408
  C      3.294164   -0.918214   -3.656570
  H      5.385637   -0.536236   -3.242640
  H      2.483463   -1.477378   -3.185764
  H      3.553092   -1.478495   -4.560331
  C      2.772335    0.460100   -4.051448
  H      2.608762    1.065107   -3.155194
  C      1.465354    0.410537   -4.853644
  H      3.532940    0.988848   -4.635671
  C      0.326171   -0.375613   -4.192580
  H      1.666704   -0.022269   -5.839323
  H      1.138198    1.439246   -5.035449
  C     -0.017405    0.080588   -2.778406
  H      0.585573   -1.439385   -4.168057
  H     -0.560005   -0.311425   -4.831461
  H      0.902090    0.201296   -2.206729
  C     -0.903495   -0.873945   -1.987388
  H     -0.479549    1.074657   -2.811915
  H     -0.502554   -1.892096   -2.081204
  H     -1.917039   -0.895427   -2.406277
  C     -0.960148   -0.522365   -0.489867
  H     -1.690392   -1.208130   -0.021677
  H     -1.414490    0.486329   -0.406677
  F      0.261703   -0.580307    0.138611
  C      3.056503   -0.320797   -0.707384
  N      2.389825    0.711285   -0.243909
  C      2.515999   -1.507721   -0.550229
  H      2.967683   -2.322915   -0.956305
  H      1.549872   -1.490634   -0.249876
  H      2.743071    1.649471   -0.412802
  H      1.440364    0.502778    0.037031
  H      4.487835    0.932997   -1.611569
  H      5.169672   -0.414432   -0.729817

 Total Charge           Charge          ....    0
 Multiplicity           Mult            ....    1
 Number of Electrons    NEL             ....  104
 Basis Dimension        Dim             .... 1104

ORBITAL ENERGIES
----------------

  NO   OCC          E(Eh)            E(eV)
   0   2.0000     -26.310005      -715.9316
   1   2.0000     -15.530024      -422.5934
   2   2.0000     -11.323357      -308.1242
   3   2.0000     -11.235000      -305.7199
   4   2.0000     -11.230911      -305.6086
   5   2.0000     -11.215548      -305.1906
   6   2.0000     -11.214885      -305.1725
   7   2.0000     -11.213997      -305.1484
   8   2.0000     -11.213784      -305.1426
   9   2.0000     -11.212095      -305.0966
  10   2.0000     -11.208649      -305.0028
  11   2.0000     -11.202474      -304.8348
  12   2.0000     -11.118117      -302.5394
  13   2.0000      -1.635384       -44.5011
  14   2.0000      -1.223794       -33.3011
  15   2.0000      -1.099807       -29.9273
  16   2.0000      -1.072852       -29.1938
  17   2.0000      -1.040685       -28.3185
  18   2.0000      -0.991268       -26.9738
  19   2.0000      -0.954384       -25.9701
  20   2.0000      -0.933541       -25.4029
  21   2.0000      -0.876230       -23.8434
  22   2.0000      -0.840484       -22.8707
  23   2.0000      -0.802228       -21.8297
  24   2.0000      -0.757861       -20.6224
  25   2.0000      -0.752668       -20.4811
  26   2.0000      -0.731316       -19.9001
  27   2.0000      -0.725162       -19.7326
  28   2.0000      -0.710184       -19.3251
  29   2.0000      -0.664634       -18.0856
  30   2.0000      -0.649070       -17.6621
  31   2.0000      -0.631096       -17.1730
  32   2.0000      -0.620993       -16.8981
  33   2.0000      -0.599024       -16.3003
  34   2.0000      -0.592888       -16.1333
  35   2.0000      -0.572596       -15.5811
  36   2.0000      -0.559259       -15.2182
  37   2.0000      -0.549642       -14.9565
  38   2.0000      -0.535282       -14.5658
  39   2.0000      -0.520545       -14.1648
  40   2.0000      -0.510936       -13.9033
  41   2.0000      -0.509676       -13.8690
  42   2.0000      -0.496691       -13.5157
  43   2.0000      -0.494142       -13.4463
  44   2.0000      -0.478342       -13.0163
  45   2.0000      -0.468250       -12.7417
  46   2.0000      -0.452925       -12.3247
  47   2.0000      -0.447176       -12.1683
  48   2.0000      -0.443326       -12.0635
  49   2.0000      -0.435214       -11.8428
  50   2.0000      -0.433157       -11.7868
  51   2.0000      -0.267762        -7.2862
  52   0.0000       0.023681         0.6444
  53   0.0000       0.030280         0.8240
  54   0.0000       0.032376         0.8810
  55   0.0000       0.035304         0.9607
  56   0.0000       0.044436         1.2092

MULLIKEN ATOMIC CHARGES
-----------------------
   0 C :   -0.240003
   1 C :   -0.585386
   2 H :    0.105136
   3 C :   -0.490119
   4 H :    0.330413
   5 H :    0.255969
   6 H :    0.376148
   7 C :   -0.353196
   8 H :    0.192455
   9 C :   -0.781197
  10 H :    0.453958
  11 C :   -0.263629
  12 H :    0.146225
  13 H :    0.082847
  14 C :   -0.840135
  15 H :    0.066236
  16 H :    0.482117
  17 H :    0.698674
  18 C :   -0.562078
  19 H :    0.302838
  20 H :    0.253190
  21 H :    0.319368
  22 C :   -0.425678
  23 H :    0.299957
  24 H :    0.300405
  25 F :   -0.479683
  26 C :    1.291937
  27 N :   -1.025586
  28 C :   -1.643179
  29 H :    0.067726
  30 H :    1.017641
  31 H :   -0.102684
  32 H :    0.229138
  33 H :    0.046307
  34 H :    0.473869
Sum of atomic charges:   -0.0000000

LOEWDIN ATOMIC CHARGES
----------------------
   0 C :    0.314975
   1 C :    0.309533
   2 H :   -0.143118
   3 C :    0.288366
   4 H :   -0.143355
   5 H :   -0.192237
   6 H :   -0.129503
   7 C :    0.292566
   8 H :   -0.170889
   9 C :    0.310003
  10 H :   -0.130489
  11 C :    0.298330
  12 H :   -0.140536
  13 H :   -0.141995
  14 C :    0.277221
  15 H :   -0.156136
  16 H :   -0.137130
  17 H :   -0.227172
  18 C :    0.291858
  19 H :   -0.122716
  20 H :   -0.142672
  21 H :   -0.133275
  22 C :    0.021022
  23 H :   -0.151105
  24 H :   -0.145056
  25 F :    0.738409
  26 C :   -0.296301
  27 N :    0.854967
  28 C :    0.558090
  29 H :   -0.270542
  30 H :   -0.506619
  31 H :   -0.256725
  32 H :   -0.523473
  33 H :   -0.161140
  34 H :   -0.133155

  Mayer bond orders larger than 0.100000
B(  0-C ,  1-C ) :   0.9628 B(  0-C , 26-C ) :   0.4022 B(  0-C , 27-N ) :  -0.2224
B(  0-C , 33-H ) :   1.1909 B(  0-C , 34-H ) :   0.8869 B(  1-C ,  2-H ) :   1.0817
B(  1-C ,  3-C ) :   0.9356 B(  1-C ,  4-H ) :   0.9006 B(  3-C ,  5-H ) :   1.0371
B(  3-C ,  6-H ) :   0.8319 B(  3-C ,  7-C ) :   0.8026 B(  7-C ,  8-H ) :   1.0793
B(  7-C ,  9-C ) :   0.8196 B(  7-C , 10-H ) :   0.8120 B(  9-C , 11-C ) :   0.8598
B(  9-C , 12-H ) :   1.0944 B(  9-C , 13-H ) :   1.1724 B(  9-C , 14-C ) :   0.1621
B( 11-C , 14-C ) :   0.8388 B( 11-C , 15-H ) :   1.1353 B( 11-C , 16-H ) :   0.7624
B( 12-H , 13-H ) :   0.1054 B( 14-C , 17-H ) :   0.7881 B( 14-C , 18-C ) :   0.7980
B( 14-C , 19-H ) :   0.9442 B( 14-C , 25-F ) :   0.1102 B( 18-C , 20-H ) :   0.9773
B( 18-C , 21-H ) :   0.8874 B( 18-C , 22-C ) :   0.9482 B( 22-C , 23-H ) :   0.9812
B( 22-C , 24-H ) :   0.9643 B( 22-C , 25-F ) :   0.8823 B( 25-F , 28-C ) :  -0.1628
B( 25-F , 32-H ) :  -0.1113 B( 26-C , 27-N ) :   0.3716 B( 26-C , 28-C ) :   1.3013
B( 26-C , 29-H ) :  -0.1967 B( 26-C , 31-H ) :  -0.2049 B( 26-C , 34-H ) :  -0.3018
B( 27-N , 28-C ) :  -0.2149 B( 27-N , 31-H ) :   1.4185 B( 27-N , 32-H ) :   1.0795
B( 28-C , 29-H ) :   1.7706 B( 28-C , 30-H ) :  -0.1267

E(0)                                       ...   -583.372183960
E(0)                                       ...   -583.372183960
E(CORR)(strong-pairs)                      ...     -2.519024779
E(CORR)(weak-pairs)                        ...     -0.004370814
E(CORR)(corrected)                         ...     -2.523395593
E(TOT)                                     ...   -585.895579553
E(CCSD(T))                                 ...   -585.998144930
FINAL SINGLE POINT ENERGY      -585.998144930339

DIPOLE MOMENT
-------------
                                X             Y             Z
Electronic contribution:     -2.83946       0.02591      10.59615
Nuclear contribution   :      1.85154       0.58682     -11.15333
                        -----------------------------------------
Total Dipole Moment    :     -0.98792       0.61273      -0.55717
                        -----------------------------------------
Magnitude (a.u.)       :      1.28914
Magnitude (Debye)      :      3.27672

Rotational constants in cm-1:     0.028379     0.022321     0.014415
Rotational constants in MHz :   850.785777   669.176075   432.155504

                             ****ORCA TERMINATED NORMALLY****
TOTAL RUN TIME: 0 days 4 hours 9 minutes 28 seconds 123 msec
