                         Program Version 5.0.0 -  RELEASE  -
|  1> !TPSS D3BJ RIJCOSX def2-TZVP def2/J TightSCF
|  2> *xyz -1 1
|  3> C         -0.10608        1.76991       -4.08984
|  4> C         -0.25875        1.00432       -5.40983
|  5> C          0.39596       -0.37070       -5.33994
|  6> H          0.23915        1.56939       -6.20125
|  7> H         -1.30936        0.88869       -5.68245
|  8> O         -0.32633       -1.39040       -5.49128
|  9> O          1.61941       -0.40073       -5.03683
| 10> H         -0.57627        2.72718       -4.17630
| 11> H          0.93321        1.90140       -3.87192
| 12> H         -0.56868        1.21534       -3.30031
| 13> *
| 14> %MaxCore 64000
| 15>
| 16> %pal nprocs 4
| 17> end
| 18>
| 19> %scf
| 20>   MaxIter 150
| 21> end
| 22>
| 23>
| 24>                          ****END OF INPUT****

CARTESIAN COORDINATES (ANGSTROEM)
---------------------------------
  C     -0.106080    1.769910   -4.089840
  C     -0.258750    1.004320   -5.409830
  C      0.395960   -0.370700   -5.339940
  H      0.239150    1.569390   -6.201250
  H     -1.309360    0.888690   -5.682450
  O     -0.326330   -1.390400   -5.491280
  O      1.619410   -0.400730   -5.036830
  H     -0.576270    2.727180   -4.176300
  H      0.933210    1.901400   -3.871920
  H     -0.568680    1.215340   -3.300310

 Total Charge           Charge          ....   -1
 Multiplicity           Mult            ....    1
 Number of Electrons    NEL             ....   40
 Basis Dimension        Dim             ....  185

ORBITAL ENERGIES
----------------

  NO   OCC          E(Eh)            E(eV)
   0   2.0000     -18.605507      -506.2816
   1   2.0000     -18.604816      -506.2628
   2   2.0000      -9.846130      -267.9268
   3   2.0000      -9.817053      -267.1356
   4   2.0000      -9.803866      -266.7768
   5   2.0000      -0.736477       -20.0406
   6   2.0000      -0.647164       -17.6102
   7   2.0000      -0.543487       -14.7890
   8   2.0000      -0.418565       -11.3897
   9   2.0000      -0.268190        -7.2978
  10   2.0000      -0.245980        -6.6935
  11   2.0000      -0.208975        -5.6865
  12   2.0000      -0.179621        -4.8877
  13   2.0000      -0.166352        -4.5267
  14   2.0000      -0.155131        -4.2213
  15   2.0000      -0.123910        -3.3718
  16   2.0000      -0.111074        -3.0225
  17   2.0000       0.000459         0.0125
  18   2.0000       0.010949         0.2979
  19   2.0000       0.028909         0.7867
  20   0.0000       0.175881         4.7860
  21   0.0000       0.216363         5.8875
  22   0.0000       0.224608         6.1119
  23   0.0000       0.239198         6.5089
  24   0.0000       0.245722         6.6864

MULLIKEN ATOMIC CHARGES
-----------------------
   0 C :   -0.314977
   1 C :   -0.103022
   2 C :    0.181117
   3 H :    0.020694
   4 H :    0.024445
   5 O :   -0.513488
   6 O :   -0.519113
   7 H :    0.050117
   8 H :    0.090840
   9 H :    0.083388
Sum of atomic charges:   -1.0000000

LOEWDIN ATOMIC CHARGES
----------------------
   0 C :   -0.318686
   1 C :   -0.290731
   2 C :   -0.711768
   3 H :    0.116660
   4 H :    0.112057
   5 O :   -0.103560
   6 O :   -0.105768
   7 H :    0.088857
   8 H :    0.107731
   9 H :    0.105209

  Mayer bond orders larger than 0.100000
B(  0-C ,  1-C ) :   0.9902 B(  0-C ,  7-H ) :   0.9599 B(  0-C ,  8-H ) :   0.9632
B(  0-C ,  9-H ) :   0.9785 B(  1-C ,  2-C ) :   0.9513 B(  1-C ,  3-H ) :   0.9355
B(  1-C ,  4-H ) :   0.9316 B(  2-C ,  5-O ) :   1.8822 B(  2-C ,  6-O ) :   1.8299

Dispersion correction           -0.008074690
FINAL SINGLE POINT ENERGY      -267.983029021185

DIPOLE MOMENT
-------------
                                X             Y             Z
Electronic contribution:      1.80538      -5.48068      -1.70979
Nuclear contribution   :     -2.46071       7.20791       1.95694
                        -----------------------------------------
Total Dipole Moment    :     -0.65534       1.72723       0.24714
                        -----------------------------------------
Magnitude (a.u.)       :      1.86384
Magnitude (Debye)      :      4.73750

Rotational constants in cm-1:     0.309435     0.135317     0.107436
Rotational constants in MHz :  9276.637721  4056.700783  3220.846587

                             ****ORCA TERMINATED NORMALLY****
TOTAL RUN TIME: 0 days 0 hours 0 minutes 9 seconds 45 msec
