                         Program Version 5.0.0 -  RELEASE  -
|  1> !TPSS D3BJ RIJCOSX def2-TZVP def2/J TightSCF
|  2> *xyz 1 1
|  3> C          0.81607       -2.10149       -2.18655
|  4> H          1.69623       -2.36869       -1.60046
|  5> N          1.10055       -2.46749       -3.59927
|  6> C          0.51624       -0.61363       -2.03937
|  7> H         -0.02007       -2.71285       -1.84084
|  8> H          1.70061       -1.75723       -4.07838
|  9> H          0.29386       -2.35977       -4.25632
| 10> H          1.50132       -3.42848       -3.69491
| 11> H         -0.34841       -0.36504       -2.61858
| 12> H          1.35358       -0.04503       -2.38643
| 13> H          0.33317       -0.38682       -1.00984
| 14> *
| 15> %MaxCore 64000
| 16>
| 17> %pal nprocs 4
| 18> end
| 19>
| 20> %scf
| 21>   MaxIter 150
| 22> end
| 23>
| 24>
| 25>                          ****END OF INPUT****

CARTESIAN COORDINATES (ANGSTROEM)
---------------------------------
  C      0.816070   -2.101490   -2.186550
  H      1.696230   -2.368690   -1.600460
  N      1.100550   -2.467490   -3.599270
  C      0.516240   -0.613630   -2.039370
  H     -0.020070   -2.712850   -1.840840
  H      1.700610   -1.757230   -4.078380
  H      0.293860   -2.359770   -4.256320
  H      1.501320   -3.428480   -3.694910
  H     -0.348410   -0.365040   -2.618580
  H      1.353580   -0.045030   -2.386430
  H      0.333170   -0.386820   -1.009840

 Total Charge           Charge          ....    1
 Multiplicity           Mult            ....    1
 Number of Electrons    NEL             ....   26
 Basis Dimension        Dim             ....  141

ORBITAL ENERGIES
----------------

  NO   OCC          E(Eh)            E(eV)
   0   2.0000     -14.438384      -392.8884
   1   2.0000     -10.239615      -278.6341
   2   2.0000     -10.162034      -276.5230
   3   2.0000      -1.149901       -31.2904
   4   2.0000      -0.912206       -24.8224
   5   2.0000      -0.802362       -21.8334
   6   2.0000      -0.745403       -20.2834
   7   2.0000      -0.727413       -19.7939
   8   2.0000      -0.660928       -17.9848
   9   2.0000      -0.599299       -16.3078
  10   2.0000      -0.546094       -14.8600
  11   2.0000      -0.532413       -14.4877
  12   2.0000      -0.516927       -14.0663
  13   0.0000      -0.212212        -5.7746
  14   0.0000      -0.155056        -4.2193
  15   0.0000      -0.149753        -4.0750
  16   0.0000      -0.127808        -3.4778
  17   0.0000      -0.086060        -2.3418

MULLIKEN ATOMIC CHARGES
-----------------------
   0 C :   -0.164692
   1 H :    0.183056
   2 N :   -0.307841
   3 C :   -0.358213
   4 H :    0.187491
   5 H :    0.318478
   6 H :    0.320736
   7 H :    0.341267
   8 H :    0.148921
   9 H :    0.149597
  10 H :    0.181200
Sum of atomic charges:    1.0000000

LOEWDIN ATOMIC CHARGES
----------------------
   0 C :   -0.272587
   1 H :    0.152085
   2 N :    0.153813
   3 C :   -0.268443
   4 H :    0.151882
   5 H :    0.225976
   6 H :    0.225375
   7 H :    0.229595
   8 H :    0.128098
   9 H :    0.127791
  10 H :    0.146413

  Mayer bond orders larger than 0.100000
B(  0-C ,  1-H ) :   0.9385 B(  0-C ,  2-N ) :   0.8786 B(  0-C ,  3-C ) :   1.0405
B(  0-C ,  4-H ) :   0.9405 B(  2-N ,  5-H ) :   0.8740 B(  2-N ,  6-H ) :   0.8747
B(  2-N ,  7-H ) :   0.8635 B(  3-C ,  8-H ) :   0.9577 B(  3-C ,  9-H ) :   0.9540
B(  3-C , 10-H ) :   0.9486

Dispersion correction           -0.007428710
FINAL SINGLE POINT ENERGY      -135.610187440552

DIPOLE MOMENT
-------------
                                X             Y             Z
Electronic contribution:      0.41681      -1.42636      -1.06090
Nuclear contribution   :     -0.07506       0.54337      -0.16191
                        -----------------------------------------
Total Dipole Moment    :      0.34175      -0.88299      -1.22281
                        -----------------------------------------
Magnitude (a.u.)       :      1.54652
Magnitude (Debye)      :      3.93095

Rotational constants in cm-1:     0.999557     0.280801     0.246932
Rotational constants in MHz : 29965.963633  8418.199581  7402.841054

                             ****ORCA TERMINATED NORMALLY****
TOTAL RUN TIME: 0 days 0 hours 0 minutes 6 seconds 824 msec
