                         Program Version 5.0.0 -  RELEASE  -
|  1> !TPSS D3BJ RIJCOSX def2-TZVP def2/J TightSCF xyzfile
|  2>
|  3> *xyzfile 0 1 B.xyz
|  4>
|  5> %MaxCore 64000
|  6>
|  7> %pal nprocs 18
|  8> end
|  9>
| 10> %scf
| 11>   MaxIter 150
| 12> end
| 13>
| 14>
| 15>                          ****END OF INPUT****

CARTESIAN COORDINATES (ANGSTROEM)
---------------------------------
  C      0.816067   -2.101491   -2.186546
  H      1.696232   -2.368691   -1.600457
  N      1.100552   -2.467492   -3.599269
  C      0.516243   -0.613634   -2.039373
  H     -0.020066   -2.712849   -1.840844
  C     -0.868621   -0.193925   -2.546303
  C     -0.984801    1.284739   -2.928686
  H     -0.764939    1.904116   -2.051568
  H     -2.032613    1.478953   -3.178952
  C     -0.106085    1.769914   -4.089836
  H     -0.347744    2.822196   -4.262942
  H      0.949683    1.745875   -3.808781
  C     -0.258747    1.004323   -5.409829
  C      0.395958   -0.370696   -5.339939
  H      0.239150    1.569393   -6.201253
  H     -1.309360    0.888694   -5.682455
  H      1.700606   -1.757225   -4.078378
  H      0.293855   -2.359766   -4.256324
  H      1.501324   -3.428479   -3.694915
  O     -0.326329   -1.390398   -5.491279
  O      1.619412   -0.400726   -5.036827
  H     -1.607271   -0.412651   -1.768955
  H     -1.157234   -0.796164   -3.409254
  H      1.299044   -0.056805   -2.558982
  H      0.612393   -0.365579   -0.979171

 Total Charge           Charge          ....    0
 Multiplicity           Mult            ....    1
 Number of Electrons    NEL             ....   80
 Basis Dimension        Dim             ....  400

ORBITAL ENERGIES
----------------

  NO   OCC          E(Eh)            E(eV)
   0   2.0000     -18.816757      -512.0300
   1   2.0000     -18.814919      -511.9800
   2   2.0000     -14.185008      -385.9937
   3   2.0000     -10.056827      -273.6602
   4   2.0000     -10.046873      -273.3893
   5   2.0000      -9.999384      -272.0971
   6   2.0000      -9.981246      -271.6035
   7   2.0000      -9.976676      -271.4792
   8   2.0000      -9.969606      -271.2868
   9   2.0000      -9.960017      -271.0258
  10   2.0000      -0.957514       -26.0553
  11   2.0000      -0.914949       -24.8970
  12   2.0000      -0.861395       -23.4397
  13   2.0000      -0.756569       -20.5873
  14   2.0000      -0.715454       -19.4685
  15   2.0000      -0.670175       -18.2364
  16   2.0000      -0.610232       -16.6053
  17   2.0000      -0.577280       -15.7086
  18   2.0000      -0.530355       -14.4317
  19   2.0000      -0.518010       -14.0958
  20   2.0000      -0.495350       -13.4792
  21   2.0000      -0.470225       -12.7955
  22   2.0000      -0.435904       -11.8615
  23   2.0000      -0.425210       -11.5706
  24   2.0000      -0.412011       -11.2114
  25   2.0000      -0.401846       -10.9348
  26   2.0000      -0.381703       -10.3867
  27   2.0000      -0.373180       -10.1548
  28   2.0000      -0.357136        -9.7182
  29   2.0000      -0.347908        -9.4670
  30   2.0000      -0.341225        -9.2852
  31   2.0000      -0.332869        -9.0578
  32   2.0000      -0.315306        -8.5799
  33   2.0000      -0.309773        -8.4293
  34   2.0000      -0.287768        -7.8306
  35   2.0000      -0.276500        -7.5239
  36   2.0000      -0.270645        -7.3646
  37   2.0000      -0.211144        -5.7455
  38   2.0000      -0.194508        -5.2928
  39   2.0000      -0.183238        -4.9862
  40   0.0000      -0.014768        -0.4019
  41   0.0000       0.015508         0.4220
  42   0.0000       0.027826         0.7572
  43   0.0000       0.042042         1.1440
  44   0.0000       0.048814         1.3283

MULLIKEN ATOMIC CHARGES
-----------------------
   0 C :   -0.109532
   1 H :    0.125702
   2 N :   -0.280666
   3 C :   -0.237075
   4 H :    0.119642
   5 C :   -0.186998
   6 C :   -0.151728
   7 H :    0.074231
   8 H :    0.081330
   9 C :   -0.206793
  10 H :    0.086971
  11 H :    0.112408
  12 C :   -0.077919
  13 C :    0.181653
  14 H :    0.085954
  15 H :    0.072598
  16 H :    0.278638
  17 H :    0.277869
  18 H :    0.253090
  19 O :   -0.472947
  20 O :   -0.487519
  21 H :    0.077766
  22 H :    0.136053
  23 H :    0.148922
  24 H :    0.098352
Sum of atomic charges:   -0.0000000

LOEWDIN ATOMIC CHARGES
----------------------
   0 C :   -0.274353
   1 H :    0.131602
   2 N :    0.118246
   3 C :   -0.262247
   4 H :    0.133218
   5 C :   -0.264737
   6 C :   -0.260389
   7 H :    0.131809
   8 H :    0.135657
   9 C :   -0.262445
  10 H :    0.132819
  11 H :    0.135103
  12 C :   -0.232948
  13 C :   -0.652516
  14 H :    0.142834
  15 H :    0.135348
  16 H :    0.176460
  17 H :    0.177339
  18 H :    0.189397
  19 O :   -0.047627
  20 O :   -0.041389
  21 H :    0.131104
  22 H :    0.142352
  23 H :    0.146325
  24 H :    0.139039

  Mayer bond orders larger than 0.100000
B(  0-C ,  1-H ) :   0.9545 B(  0-C ,  2-N ) :   0.9353 B(  0-C ,  3-C ) :   1.0213
B(  0-C ,  4-H ) :   0.9568 B(  2-N , 16-H ) :   0.7600 B(  2-N , 17-H ) :   0.7699
B(  2-N , 18-H ) :   0.8965 B(  3-C ,  5-C ) :   0.9761 B(  3-C , 23-H ) :   0.9568
B(  3-C , 24-H ) :   0.9338 B(  5-C ,  6-C ) :   1.0180 B(  5-C , 21-H ) :   0.9347
B(  5-C , 22-H ) :   0.9549 B(  6-C ,  7-H ) :   0.9425 B(  6-C ,  8-H ) :   0.9398
B(  6-C ,  9-C ) :   1.0406 B(  9-C , 10-H ) :   0.9380 B(  9-C , 11-H ) :   0.9630
B(  9-C , 12-C ) :   0.9971 B( 12-C , 13-C ) :   0.9896 B( 12-C , 14-H ) :   0.9141
B( 12-C , 15-H ) :   0.9421 B( 13-C , 19-O ) :   1.7062 B( 13-C , 20-O ) :   1.6661
B( 16-H , 20-O ) :   0.2079 B( 17-H , 19-O ) :   0.1974

Dispersion correction           -0.033303010
FINAL SINGLE POINT ENERGY      -481.275743278548

DIPOLE MOMENT
-------------
                                X             Y             Z
Electronic contribution:      2.31336      -3.11324      -6.31272
Nuclear contribution   :     -2.02598       1.95876       8.24116
                        -----------------------------------------
Total Dipole Moment    :      0.28739      -1.15448       1.92844
                        -----------------------------------------
Magnitude (a.u.)       :      2.26590
Magnitude (Debye)      :      5.75946

Rotational constants in cm-1:     0.052900     0.041948     0.028766
Rotational constants in MHz :  1585.892512  1257.572595   862.390225

                             ****ORCA TERMINATED NORMALLY****
TOTAL RUN TIME: 0 days 0 hours 0 minutes 21 seconds 172 msec
