                         Program Version 5.0.0 -  RELEASE  -
|  1> !TPSS D3BJ RIJCOSX def2-TZVP def2/J TightSCF
|  2> *xyz 0 1
|  3> C         -0.10608        1.76991       -4.08984
|  4> C         -0.25875        1.00432       -5.40983
|  5> C          0.39596       -0.37070       -5.33994
|  6> H          0.23915        1.56939       -6.20125
|  7> H         -1.30936        0.88869       -5.68245
|  8> F         -0.32633       -1.39040       -5.49128
|  9> O          1.61941       -0.40073       -5.03683
| 10> H         -0.57627        2.72718       -4.17630
| 11> H          0.93321        1.90140       -3.87192
| 12> H         -0.56868        1.21534       -3.30031
| 13> *
| 14> %MaxCore 64000
| 15>
| 16> %pal nprocs 4
| 17> end
| 18>
| 19> %scf
| 20>   MaxIter 150
| 21> end
| 22>
| 23>
| 24>                          ****END OF INPUT****

CARTESIAN COORDINATES (ANGSTROEM)
---------------------------------
  C     -0.106080    1.769910   -4.089840
  C     -0.258750    1.004320   -5.409830
  C      0.395960   -0.370700   -5.339940
  H      0.239150    1.569390   -6.201250
  H     -1.309360    0.888690   -5.682450
  F     -0.326330   -1.390400   -5.491280
  O      1.619410   -0.400730   -5.036830
  H     -0.576270    2.727180   -4.176300
  H      0.933210    1.901400   -3.871920
  H     -0.568680    1.215340   -3.300310

 Total Charge           Charge          ....    0
 Multiplicity           Mult            ....    1
 Number of Electrons    NEL             ....   40
 Basis Dimension        Dim             ....  185

ORBITAL ENERGIES
----------------

  NO   OCC          E(Eh)            E(eV)
   0   2.0000     -24.474800      -665.9932
   1   2.0000     -18.883416      -513.8439
   2   2.0000     -10.149013      -276.1687
   3   2.0000     -10.016755      -272.5698
   4   2.0000      -9.990489      -271.8550
   5   2.0000      -1.234518       -33.5929
   6   2.0000      -0.958128       -26.0720
   7   2.0000      -0.743203       -20.2236
   8   2.0000      -0.634092       -17.2545
   9   2.0000      -0.582201       -15.8425
  10   2.0000      -0.490967       -13.3599
  11   2.0000      -0.477126       -12.9833
  12   2.0000      -0.456139       -12.4122
  13   2.0000      -0.422522       -11.4974
  14   2.0000      -0.388810       -10.5801
  15   2.0000      -0.357949        -9.7403
  16   2.0000      -0.339644        -9.2422
  17   2.0000      -0.333266        -9.0686
  18   2.0000      -0.305205        -8.3050
  19   2.0000      -0.245234        -6.6732
  20   0.0000      -0.061163        -1.6643
  21   0.0000       0.024040         0.6541
  22   0.0000       0.062857         1.7104
  23   0.0000       0.074137         2.0174
  24   0.0000       0.087033         2.3683

MULLIKEN ATOMIC CHARGES
-----------------------
   0 C :   -0.343975
   1 C :   -0.174358
   2 C :    0.313980
   3 H :    0.119031
   4 H :    0.100958
   5 F :   -0.077279
   6 O :   -0.314418
   7 H :    0.121085
   8 H :    0.140061
   9 H :    0.114915
Sum of atomic charges:    0.0000000

LOEWDIN ATOMIC CHARGES
----------------------
   0 C :   -0.277701
   1 C :   -0.256431
   2 C :   -0.511781
   3 H :    0.152745
   4 H :    0.134834
   5 F :    0.329981
   6 O :    0.070674
   7 H :    0.116859
   8 H :    0.123444
   9 H :    0.117377

  Mayer bond orders larger than 0.100000
B(  0-C ,  1-C ) :   1.0059 B(  0-C ,  7-H ) :   0.9613 B(  0-C ,  8-H ) :   0.9643
B(  0-C ,  9-H ) :   0.9710 B(  1-C ,  2-C ) :   1.0153 B(  1-C ,  3-H ) :   0.9294
B(  1-C ,  4-H ) :   0.9412 B(  2-C ,  5-F ) :   1.1790 B(  2-C ,  6-O ) :   2.0438

Dispersion correction           -0.007659160
FINAL SINGLE POINT ENERGY      -292.557459739166

DIPOLE MOMENT
-------------
                                X             Y             Z
Electronic contribution:      0.88698      -8.22035      -2.55765
Nuclear contribution   :     -1.80992       8.85192       2.42184
                        -----------------------------------------
Total Dipole Moment    :     -0.92294       0.63158      -0.13581
                        -----------------------------------------
Magnitude (a.u.)       :      1.12657
Magnitude (Debye)      :      2.86350

Rotational constants in cm-1:     0.298360     0.128849     0.102271
Rotational constants in MHz :  8944.606599  3862.796179  3066.020510

                             ****ORCA TERMINATED NORMALLY****
TOTAL RUN TIME: 0 days 0 hours 0 minutes 9 seconds 37 msec
