                         Program Version 5.0.0 -  RELEASE  -
|  1> !TPSS D3BJ RIJCOSX def2-TZVP def2/J TightSCF
|  2> *xyz 0 1
|  3> C          0.81607       -2.10149       -2.18655
|  4> H          1.69623       -2.36869       -1.60046
|  5> C          1.10055       -2.46749       -3.59927
|  6> C          0.51624       -0.61363       -2.03937
|  7> H         -0.02007       -2.71285       -1.84084
|  8> H          1.70061       -1.75723       -4.07838
|  9> H          0.29386       -2.35977       -4.25632
| 10> H          1.50132       -3.42848       -3.69491
| 11> H         -0.34841       -0.36504       -2.61858
| 12> H          1.35358       -0.04503       -2.38643
| 13> H          0.33317       -0.38682       -1.00984
| 14> *
| 15> %MaxCore 64000
| 16>
| 17> %pal nprocs 4
| 18> end
| 19>
| 20> %scf
| 21>   MaxIter 150
| 22> end
| 23>
| 24>
| 25>                          ****END OF INPUT****

CARTESIAN COORDINATES (ANGSTROEM)
---------------------------------
  C      0.816070   -2.101490   -2.186550
  H      1.696230   -2.368690   -1.600460
  C      1.100550   -2.467490   -3.599270
  C      0.516240   -0.613630   -2.039370
  H     -0.020070   -2.712850   -1.840840
  H      1.700610   -1.757230   -4.078380
  H      0.293860   -2.359770   -4.256320
  H      1.501320   -3.428480   -3.694910
  H     -0.348410   -0.365040   -2.618580
  H      1.353580   -0.045030   -2.386430
  H      0.333170   -0.386820   -1.009840

 Total Charge           Charge          ....    0
 Multiplicity           Mult            ....    1
 Number of Electrons    NEL             ....   26
 Basis Dimension        Dim             ....  141

ORBITAL ENERGIES
----------------

  NO   OCC          E(Eh)            E(eV)
   0   2.0000      -9.972845      -271.3749
   1   2.0000      -9.963809      -271.1290
   2   2.0000      -9.950593      -270.7694
   3   2.0000      -0.732328       -19.9277
   4   2.0000      -0.636652       -17.3242
   5   2.0000      -0.542625       -14.7656
   6   2.0000      -0.418389       -11.3849
   7   2.0000      -0.404479       -11.0064
   8   2.0000      -0.372654       -10.1404
   9   2.0000      -0.338818        -9.2197
  10   2.0000      -0.305028        -8.3002
  11   2.0000      -0.299105        -8.1391
  12   2.0000      -0.286713        -7.8018
  13   0.0000       0.031627         0.8606
  14   0.0000       0.074593         2.0298
  15   0.0000       0.075513         2.0548
  16   0.0000       0.084187         2.2908
  17   0.0000       0.103905         2.8274

MULLIKEN ATOMIC CHARGES
-----------------------
   0 C :   -0.119445
   1 H :    0.080051
   2 C :   -0.347822
   3 C :   -0.333819
   4 H :    0.081576
   5 H :    0.100000
   6 H :    0.104226
   7 H :    0.116097
   8 H :    0.102645
   9 H :    0.105736
  10 H :    0.110756
Sum of atomic charges:    0.0000000

LOEWDIN ATOMIC CHARGES
----------------------
   0 C :   -0.315680
   1 H :    0.129838
   2 C :   -0.312166
   3 C :   -0.298148
   4 H :    0.128764
   5 H :    0.111326
   6 H :    0.109306
   7 H :    0.109198
   8 H :    0.112818
   9 H :    0.112769
  10 H :    0.111975

  Mayer bond orders larger than 0.100000
B(  0-C ,  1-H ) :   0.9544 B(  0-C ,  2-C ) :   1.0283 B(  0-C ,  3-C ) :   1.0216
B(  0-C ,  4-H ) :   0.9555 B(  2-C ,  5-H ) :   0.9725 B(  2-C ,  6-H ) :   0.9724
B(  2-C ,  7-H ) :   0.9688 B(  3-C ,  8-H ) :   0.9725 B(  3-C ,  9-H ) :   0.9715
B(  3-C , 10-H ) :   0.9717

Dispersion correction           -0.007453076
FINAL SINGLE POINT ENERGY      -119.199535543098

DIPOLE MOMENT
-------------
                                X             Y             Z
Electronic contribution:     -0.01832      -0.30779       0.46772
Nuclear contribution   :      0.01737       0.30387      -0.47422
                        -----------------------------------------
Total Dipole Moment    :     -0.00095      -0.00392      -0.00650
                        -----------------------------------------
Magnitude (a.u.)       :      0.00765
Magnitude (Debye)      :      0.01944

Rotational constants in cm-1:     1.006891     0.295208     0.258491
Rotational constants in MHz : 30185.831813  8850.104914  7749.351732

                             ****ORCA TERMINATED NORMALLY****
TOTAL RUN TIME: 0 days 0 hours 0 minutes 7 seconds 51 msec
