                         Program Version 5.0.0 -  RELEASE  -
|  1> !TPSS D3BJ RIJCOSX def2-TZVP def2/J TightSCF
|  2> *xyz 0 1
|  3> C         -0.10608        1.76991       -4.08984
|  4> C         -0.25875        1.00432       -5.40983
|  5> C          0.39596       -0.37070       -5.33994
|  6> H          0.23915        1.56939       -6.20125
|  7> H         -1.30936        0.88869       -5.68245
|  8> O         -0.32633       -1.39040       -5.49128
|  9> F          1.61941       -0.40073       -5.03683
| 10> H         -0.57627        2.72718       -4.17630
| 11> H          0.93321        1.90140       -3.87192
| 12> H         -0.56868        1.21534       -3.30031
| 13> *
| 14> %MaxCore 64000
| 15>
| 16> %pal nprocs 4
| 17> end
| 18>
| 19> %scf
| 20>   MaxIter 150
| 21> end
| 22>
| 23>
| 24>                          ****END OF INPUT****

CARTESIAN COORDINATES (ANGSTROEM)
---------------------------------
  C     -0.106080    1.769910   -4.089840
  C     -0.258750    1.004320   -5.409830
  C      0.395960   -0.370700   -5.339940
  H      0.239150    1.569390   -6.201250
  H     -1.309360    0.888690   -5.682450
  O     -0.326330   -1.390400   -5.491280
  F      1.619410   -0.400730   -5.036830
  H     -0.576270    2.727180   -4.176300
  H      0.933210    1.901400   -3.871920
  H     -0.568680    1.215340   -3.300310

 Total Charge           Charge          ....    0
 Multiplicity           Mult            ....    1
 Number of Electrons    NEL             ....   40
 Basis Dimension        Dim             ....  185

ORBITAL ENERGIES
----------------

  NO   OCC          E(Eh)            E(eV)
   0   2.0000     -24.473364      -665.9541
   1   2.0000     -18.883916      -513.8575
   2   2.0000     -10.148160      -276.1455
   3   2.0000     -10.016552      -272.5642
   4   2.0000      -9.995246      -271.9845
   5   2.0000      -1.233072       -33.5536
   6   2.0000      -0.957938       -26.0668
   7   2.0000      -0.747553       -20.3419
   8   2.0000      -0.631962       -17.1966
   9   2.0000      -0.585435       -15.9305
  10   2.0000      -0.492562       -13.4033
  11   2.0000      -0.479670       -13.0525
  12   2.0000      -0.450686       -12.2638
  13   2.0000      -0.422038       -11.4842
  14   2.0000      -0.391125       -10.6430
  15   2.0000      -0.360169        -9.8007
  16   2.0000      -0.343460        -9.3460
  17   2.0000      -0.337714        -9.1897
  18   2.0000      -0.309666        -8.4265
  19   2.0000      -0.242137        -6.5889
  20   0.0000      -0.057854        -1.5743
  21   0.0000       0.020068         0.5461
  22   0.0000       0.061896         1.6843
  23   0.0000       0.076877         2.0919
  24   0.0000       0.091533         2.4907

MULLIKEN ATOMIC CHARGES
-----------------------
   0 C :   -0.349718
   1 C :   -0.167994
   2 C :    0.303719
   3 H :    0.105223
   4 H :    0.126789
   5 O :   -0.307854
   6 F :   -0.083274
   7 H :    0.125758
   8 H :    0.121737
   9 H :    0.125615
Sum of atomic charges:   -0.0000000

LOEWDIN ATOMIC CHARGES
----------------------
   0 C :   -0.284077
   1 C :   -0.251033
   2 C :   -0.514258
   3 H :    0.145072
   4 H :    0.148308
   5 O :    0.071644
   6 F :    0.328444
   7 H :    0.118688
   8 H :    0.117584
   9 H :    0.119630

  Mayer bond orders larger than 0.100000
B(  0-C ,  1-C ) :   0.9939 B(  0-C ,  7-H ) :   0.9616 B(  0-C ,  8-H ) :   0.9671
B(  0-C ,  9-H ) :   0.9698 B(  1-C ,  2-C ) :   1.0324 B(  1-C ,  3-H ) :   0.9241
B(  1-C ,  4-H ) :   0.9488 B(  2-C ,  5-O ) :   2.0692 B(  2-C ,  6-F ) :   1.1624

Dispersion correction           -0.007611329
FINAL SINGLE POINT ENERGY      -292.558709647751

DIPOLE MOMENT
-------------
                                X             Y             Z
Electronic contribution:      4.07719      -6.56259      -1.80631
Nuclear contribution   :     -3.93139       7.77287       1.92635
                        -----------------------------------------
Total Dipole Moment    :      0.14580       1.21029       0.12005
                        -----------------------------------------
Magnitude (a.u.)       :      1.22493
Magnitude (Debye)      :      3.11354

Rotational constants in cm-1:     0.286068     0.133630     0.103472
Rotational constants in MHz :  8576.109806  4006.118234  3102.010802

                             ****ORCA TERMINATED NORMALLY****
TOTAL RUN TIME: 0 days 0 hours 0 minutes 8 seconds 721 msec
