                         Program Version 5.0.0 -  RELEASE  -
|  1> !TPSS D3BJ RIJCOSX def2-TZVP def2/J TightSCF xyzfile
|  2>
|  3> *xyzfile 0 1 D2.xyz
|  4>
|  5> %MaxCore 64000
|  6>
|  7> %pal nprocs 18
|  8> end
|  9>
| 10> %scf
| 11>   MaxIter 150
| 12> end
| 13>
| 14>
| 15>                          ****END OF INPUT****

CARTESIAN COORDINATES (ANGSTROEM)
---------------------------------
  C      0.816067   -2.101491   -2.186546
  H      1.696232   -2.368691   -1.600457
  C      1.100552   -2.467492   -3.599269
  C      0.516243   -0.613634   -2.039373
  H     -0.020066   -2.712849   -1.840844
  C     -0.868621   -0.193925   -2.546303
  C     -0.984801    1.284739   -2.928686
  H     -0.764939    1.904116   -2.051568
  H     -2.032613    1.478953   -3.178952
  C     -0.106085    1.769914   -4.089836
  H     -0.347744    2.822196   -4.262942
  H      0.949683    1.745875   -3.808781
  C     -0.258747    1.004323   -5.409829
  C      0.395958   -0.370696   -5.339939
  H      0.239150    1.569393   -6.201253
  H     -1.309360    0.888694   -5.682455
  H      1.700606   -1.757225   -4.078378
  H      0.293855   -2.359766   -4.256324
  H      1.501324   -3.428479   -3.694915
  O     -0.326329   -1.390398   -5.491279
  F      1.619412   -0.400726   -5.036827
  H     -1.607271   -0.412651   -1.768955
  H     -1.157234   -0.796164   -3.409254
  H      1.299044   -0.056805   -2.558982
  H      0.612393   -0.365579   -0.979171

 Total Charge           Charge          ....    0
 Multiplicity           Mult            ....    1
 Number of Electrons    NEL             ....   80
 Basis Dimension        Dim             ....  400

ORBITAL ENERGIES
----------------

  NO   OCC          E(Eh)            E(eV)
   0   2.0000     -24.483660      -666.2343
   1   2.0000     -18.891520      -514.0644
   2   2.0000     -10.157088      -276.3884
   3   2.0000     -10.018297      -272.6117
   4   2.0000     -10.002908      -272.1930
   5   2.0000      -9.987770      -271.7810
   6   2.0000      -9.975492      -271.4469
   7   2.0000      -9.970972      -271.3239
   8   2.0000      -9.958869      -270.9946
   9   2.0000      -9.911625      -269.7090
  10   2.0000      -1.248294       -33.9678
  11   2.0000      -0.973371       -26.4868
  12   2.0000      -0.768722       -20.9180
  13   2.0000      -0.736736       -20.0476
  14   2.0000      -0.690267       -18.7831
  15   2.0000      -0.651300       -17.7228
  16   2.0000      -0.608013       -16.5449
  17   2.0000      -0.588121       -16.0036
  18   2.0000      -0.550120       -14.9695
  19   2.0000      -0.514371       -13.9967
  20   2.0000      -0.504469       -13.7273
  21   2.0000      -0.491653       -13.3785
  22   2.0000      -0.461129       -12.5480
  23   2.0000      -0.435111       -11.8400
  24   2.0000      -0.414279       -11.2731
  25   2.0000      -0.403399       -10.9770
  26   2.0000      -0.398437       -10.8420
  27   2.0000      -0.387888       -10.5550
  28   2.0000      -0.369698       -10.0600
  29   2.0000      -0.351746        -9.5715
  30   2.0000      -0.345415        -9.3992
  31   2.0000      -0.335117        -9.1190
  32   2.0000      -0.331161        -9.0114
  33   2.0000      -0.313874        -8.5409
  34   2.0000      -0.295458        -8.0398
  35   2.0000      -0.290797        -7.9130
  36   2.0000      -0.281253        -7.6533
  37   2.0000      -0.267508        -7.2793
  38   2.0000      -0.264005        -7.1839
  39   2.0000      -0.225670        -6.1408
  40   0.0000      -0.071134        -1.9357
  41   0.0000       0.016047         0.4367
  42   0.0000       0.044421         1.2087
  43   0.0000       0.046829         1.2743
  44   0.0000       0.054191         1.4746

MULLIKEN ATOMIC CHARGES
-----------------------
   0 C :   -0.064503
   1 H :    0.069314
   2 C :   -0.413310
   3 C :   -0.201417
   4 H :    0.061425
   5 C :   -0.214045
   6 C :   -0.133606
   7 H :    0.083648
   8 H :    0.084003
   9 C :   -0.229584
  10 H :    0.105538
  11 H :    0.118987
  12 C :   -0.118195
  13 C :    0.268718
  14 H :    0.115878
  15 H :    0.113492
  16 H :    0.091403
  17 H :    0.163507
  18 H :    0.089780
  19 O :   -0.298182
  20 F :   -0.083030
  21 H :    0.081585
  22 H :    0.138147
  23 H :    0.089256
  24 H :    0.081192
Sum of atomic charges:    0.0000000

LOEWDIN ATOMIC CHARGES
----------------------
   0 C :   -0.295743
   1 H :    0.129192
   2 C :   -0.328018
   3 C :   -0.263699
   4 H :    0.130637
   5 C :   -0.262189
   6 C :   -0.261029
   7 H :    0.136188
   8 H :    0.134983
   9 C :   -0.259655
  10 H :    0.139140
  11 H :    0.135514
  12 C :   -0.220700
  13 C :   -0.510829
  14 H :    0.150457
  15 H :    0.152248
  16 H :    0.105062
  17 H :    0.111054
  18 H :    0.103112
  19 O :    0.091499
  20 F :    0.346085
  21 H :    0.134433
  22 H :    0.142923
  23 H :    0.128947
  24 H :    0.130386

  Mayer bond orders larger than 0.100000
B(  0-C ,  1-H ) :   0.9369 B(  0-C ,  2-C ) :   1.0246 B(  0-C ,  3-C ) :   1.0307
B(  0-C ,  4-H ) :   0.9459 B(  2-C , 16-H ) :   0.9735 B(  2-C , 17-H ) :   0.9550
B(  2-C , 18-H ) :   0.9478 B(  3-C ,  5-C ) :   0.9883 B(  3-C , 23-H ) :   0.9697
B(  3-C , 24-H ) :   0.9386 B(  5-C ,  6-C ) :   1.0150 B(  5-C , 21-H ) :   0.9378
B(  5-C , 22-H ) :   0.9569 B(  6-C ,  7-H ) :   0.9417 B(  6-C ,  8-H ) :   0.9422
B(  6-C ,  9-C ) :   1.0350 B(  9-C , 10-H ) :   0.9386 B(  9-C , 11-H ) :   0.9660
B(  9-C , 12-C ) :   0.9672 B( 12-C , 13-C ) :   1.0509 B( 12-C , 14-H ) :   0.9155
B( 12-C , 15-H ) :   0.9428 B( 13-C , 19-O ) :   2.0011 B( 13-C , 20-F ) :   1.1348

Dispersion correction           -0.032448002
FINAL SINGLE POINT ENERGY      -489.185986280003

DIPOLE MOMENT
-------------
                                X             Y             Z
Electronic contribution:      3.59843      -0.37136      -9.80790
Nuclear contribution   :     -3.57245       1.60200       9.69133
                        -----------------------------------------
Total Dipole Moment    :      0.02598       1.23064      -0.11657
                        -----------------------------------------
Magnitude (a.u.)       :      1.23642
Magnitude (Debye)      :      3.14272

Rotational constants in cm-1:     0.051520     0.042563     0.028962
Rotational constants in MHz :  1544.537298  1275.996546   868.258224

                             ****ORCA TERMINATED NORMALLY****
TOTAL RUN TIME: 0 days 0 hours 0 minutes 16 seconds 675 msec
