                         Program Version 5.0.0 -  RELEASE  -
|  1> !wB97X-D3 RIJCOSX def2-TZVPD def2/J TightSCF
|  2> *xyz -1 1
|  3> C         -1.36353       -1.98134       -2.29361
|  4> O         -0.35039       -2.74969       -1.79601
|  5> H         -2.22523       -2.59288       -2.46214
|  6> H         -1.05452       -1.53818       -3.21720
|  7> H         -1.60477       -1.21086       -1.59143
|  8> *
|  9>
| 10> %MaxCore 64000
| 11> %pal nprocs 18
| 12> end
| 13>
| 14> %scf
| 15>   MaxIter 150
| 16> end
| 17>
| 18>
| 19>                          ****END OF INPUT****

CARTESIAN COORDINATES (ANGSTROEM)
---------------------------------
  C     -1.363530   -1.981340   -2.293610
  O     -0.350390   -2.749690   -1.796010
  H     -2.225230   -2.592880   -2.462140
  H     -1.054520   -1.538180   -3.217200
  H     -1.604770   -1.210860   -1.591430

 Total Charge           Charge          ....   -1
 Multiplicity           Mult            ....    1
 Number of Electrons    NEL             ....   18
 Basis Dimension        Dim             ....  104

ORBITAL ENERGIES
----------------

  NO   OCC          E(Eh)            E(eV)
   0   2.0000     -18.873604      -513.5769
   1   2.0000     -10.055404      -273.6215
   2   2.0000      -0.774755       -21.0821
   3   2.0000      -0.508011       -13.8237
   4   2.0000      -0.295379        -8.0377
   5   2.0000      -0.295359        -8.0371
   6   2.0000      -0.195325        -5.3151
   7   2.0000      -0.041505        -1.1294
   8   2.0000      -0.041500        -1.1293
   9   0.0000       0.226266         6.1570
  10   0.0000       0.274750         7.4763
  11   0.0000       0.280060         7.6208
  12   0.0000       0.280063         7.6209
  13   0.0000       0.330088         8.9822

MULLIKEN ATOMIC CHARGES
-----------------------
   0 C :   -0.550602
   1 O :   -0.942459
   2 H :    0.164395
   3 H :    0.164451
   4 H :    0.164214
Sum of atomic charges:   -1.0000000

LOEWDIN ATOMIC CHARGES
----------------------
   0 C :   -0.516520
   1 O :   -0.513152
   2 H :    0.009886
   3 H :    0.009898
   4 H :    0.009888

  Mayer bond orders larger than 0.100000
B(  0-C ,  1-O ) :   1.0575 B(  0-C ,  2-H ) :   0.9589 B(  0-C ,  3-H ) :   0.9591
B(  0-C ,  4-H ) :   0.9591

Dispersion correction           -0.000089283
FINAL SINGLE POINT ENERGY      -115.107367013636

DIPOLE MOMENT
-------------
                                X             Y             Z
Electronic contribution:      1.37825      -1.04521       0.67698
Nuclear contribution   :     -2.13467       1.61890      -1.04844
                        -----------------------------------------
Total Dipole Moment    :     -0.75642       0.57369      -0.37146
                        -----------------------------------------
Magnitude (a.u.)       :      1.01945
Magnitude (Debye)      :      2.59124

Rotational constants in cm-1:     5.477725     0.944113     0.944112
Rotational constants in MHz : 164218.064700 28303.798445 28303.757130

                             ****ORCA TERMINATED NORMALLY****
TOTAL RUN TIME: 0 days 0 hours 0 minutes 5 seconds 244 msec
