                         Program Version 5.0.0 -  RELEASE  -
|  1> !wB97X-D3 RIJCOSX def2-TZVPD def2/J TightSCF
|  2> *xyz 1 1
|  3> C          2.20996       -2.81239       -3.66571
|  4> C          2.48901       -1.66851       -2.73754
|  5> N          3.59631       -0.94761       -2.95225
|  6> N          1.66394       -1.41369       -1.77781
|  7> H          0.81164       -1.96318       -1.70275
|  8> H          1.84550       -0.63508       -1.15875
|  9> H          4.20535       -1.17600       -3.73383
| 10> H          3.81723       -0.12585       -2.40604
| 11> H          2.99011       -2.87840       -4.39503
| 12> H          1.27381       -2.65174       -4.15838
| 13> H          2.16680       -3.72339       -3.10614
| 14> *
| 15>
| 16> %MaxCore 64000
| 17> %pal nprocs 18
| 18> end
| 19>
| 20> %scf
| 21>   MaxIter 150
| 22> end
| 23>
| 24>
| 25>                          ****END OF INPUT****

CARTESIAN COORDINATES (ANGSTROEM)
---------------------------------
  C      2.209960   -2.812390   -3.665710
  C      2.489010   -1.668510   -2.737540
  N      3.596310   -0.947610   -2.952250
  N      1.663940   -1.413690   -1.777810
  H      0.811640   -1.963180   -1.702750
  H      1.845500   -0.635080   -1.158750
  H      4.205350   -1.176000   -3.733830
  H      3.817230   -0.125850   -2.406040
  H      2.990110   -2.878400   -4.395030
  H      1.273810   -2.651740   -4.158380
  H      2.166800   -3.723390   -3.106140

 Total Charge           Charge          ....    1
 Multiplicity           Mult            ....    1
 Number of Electrons    NEL             ....   32
 Basis Dimension        Dim             ....  211

ORBITAL ENERGIES
----------------

  NO   OCC          E(Eh)            E(eV)
   0   2.0000     -14.676071      -399.3562
   1   2.0000     -14.670223      -399.1971
   2   2.0000     -10.610290      -288.7207
   3   2.0000     -10.471540      -284.9451
   4   2.0000      -1.329154       -36.1681
   5   2.0000      -1.230843       -33.4929
   6   2.0000      -1.070236       -29.1226
   7   2.0000      -0.951086       -25.8804
   8   2.0000      -0.886088       -24.1117
   9   2.0000      -0.873550       -23.7705
  10   2.0000      -0.807880       -21.9835
  11   2.0000      -0.765609       -20.8333
  12   2.0000      -0.712439       -19.3864
  13   2.0000      -0.699852       -19.0439
  14   2.0000      -0.674947       -18.3662
  15   2.0000      -0.592541       -16.1239
  16   0.0000      -0.131365        -3.5746
  17   0.0000      -0.098320        -2.6754
  18   0.0000      -0.054666        -1.4875
  19   0.0000      -0.053697        -1.4612
  20   0.0000      -0.029512        -0.8031

MULLIKEN ATOMIC CHARGES
-----------------------
   0 C :   -1.182689
   1 C :    0.997949
   2 N :   -0.419457
   3 N :   -0.395503
   4 H :    0.257525
   5 H :    0.225883
   6 H :    0.241874
   7 H :    0.195816
   8 H :    0.337649
   9 H :    0.370542
  10 H :    0.370411
Sum of atomic charges:    1.0000000

LOEWDIN ATOMIC CHARGES
----------------------
   0 C :    0.032098
   1 C :   -0.375534
   2 N :    0.210321
   3 N :    0.223333
   4 H :    0.162573
   5 H :    0.154250
   6 H :    0.146590
   7 H :    0.143588
   8 H :    0.091284
   9 H :    0.105783
  10 H :    0.105712

  Mayer bond orders larger than 0.100000
B(  0-C ,  1-C ) :   0.6542 B(  0-C ,  8-H ) :   0.9371 B(  0-C ,  9-H ) :   0.8873
B(  0-C , 10-H ) :   0.8987 B(  1-C ,  2-N ) :   1.1121 B(  1-C ,  3-N ) :   1.2569
B(  2-N ,  3-N ) :   0.1038 B(  2-N ,  6-H ) :   0.9542 B(  2-N ,  7-H ) :   1.0589
B(  3-N ,  4-H ) :   0.9505 B(  3-N ,  5-H ) :   1.0120

Dispersion correction           -0.001668903
FINAL SINGLE POINT ENERGY      -189.738423653179

DIPOLE MOMENT
-------------
                                X             Y             Z
Electronic contribution:      0.31271       1.61027       1.43830
Nuclear contribution   :     -0.32363      -1.20411      -1.15396
                        -----------------------------------------
Total Dipole Moment    :     -0.01092       0.40615       0.28434
                        -----------------------------------------
Magnitude (a.u.)       :      0.49591
Magnitude (Debye)      :      1.26051

Rotational constants in cm-1:     0.327805     0.304052     0.162439
Rotational constants in MHz :  9827.347355  9115.244333  4869.808750

                             ****ORCA TERMINATED NORMALLY****
TOTAL RUN TIME: 0 days 0 hours 0 minutes 15 seconds 336 msec
