                         Program Version 5.0.0 -  RELEASE  -
|  1> !wB97X-D3 RIJCOSX def2-TZVPD def2/J TightSCF
|  2> *xyz 0 1
|  3> C         -1.36353       -1.98134       -2.29361
|  4> F         -0.35039       -2.74969       -1.79601
|  5> H         -2.22523       -2.59288       -2.46214
|  6> H         -1.05452       -1.53818       -3.21720
|  7> H         -1.60477       -1.21086       -1.59143
|  8> *
|  9>
| 10> %MaxCore 64000
| 11> %pal nprocs 18
| 12> end
| 13>
| 14> %scf
| 15>   MaxIter 150
| 16> end
| 17>
| 18>
| 19>                          ****END OF INPUT****

CARTESIAN COORDINATES (ANGSTROEM)
---------------------------------
  C     -1.363530   -1.981340   -2.293610
  F     -0.350390   -2.749690   -1.796010
  H     -2.225230   -2.592880   -2.462140
  H     -1.054520   -1.538180   -3.217200
  H     -1.604770   -1.210860   -1.591430

 Total Charge           Charge          ....    0
 Multiplicity           Mult            ....    1
 Number of Electrons    NEL             ....   18
 Basis Dimension        Dim             ....  104

ORBITAL ENERGIES
----------------

  NO   OCC          E(Eh)            E(eV)
   0   2.0000     -24.768378      -673.9818
   1   2.0000     -10.339212      -281.3443
   2   2.0000      -1.313768       -35.7494
   3   2.0000      -0.820946       -22.3391
   4   2.0000      -0.596693       -16.2369
   5   2.0000      -0.593224       -16.1425
   6   2.0000      -0.593215       -16.1422
   7   2.0000      -0.447602       -12.1799
   8   2.0000      -0.447588       -12.1795
   9   0.0000       0.074191         2.0188
  10   0.0000       0.116685         3.1752
  11   0.0000       0.134377         3.6566
  12   0.0000       0.134380         3.6567
  13   0.0000       0.161454         4.3934

MULLIKEN ATOMIC CHARGES
-----------------------
   0 C :   -0.333825
   1 F :   -0.286607
   2 H :    0.206854
   3 H :    0.206775
   4 H :    0.206803
Sum of atomic charges:    0.0000000

LOEWDIN ATOMIC CHARGES
----------------------
   0 C :   -0.119071
   1 F :   -0.096463
   2 H :    0.071840
   3 H :    0.071851
   4 H :    0.071842

  Mayer bond orders larger than 0.100000
B(  0-C ,  1-F ) :   0.8319 B(  0-C ,  2-H ) :   0.9499 B(  0-C ,  3-H ) :   0.9501
B(  0-C ,  4-H ) :   0.9501

Dispersion correction           -0.000128134
FINAL SINGLE POINT ENERGY      -139.766187391406

DIPOLE MOMENT
-------------
                                X             Y             Z
Electronic contribution:      2.18694      -1.65853       1.07421
Nuclear contribution   :     -2.70693       2.05289      -1.32950
                        -----------------------------------------
Total Dipole Moment    :     -0.51999       0.39436      -0.25529
                        -----------------------------------------
Magnitude (a.u.)       :      0.70078
Magnitude (Debye)      :      1.78123

Rotational constants in cm-1:     5.477725     0.878859     0.878857
Rotational constants in MHz : 164218.064700 26347.517988 26347.482187

                             ****ORCA TERMINATED NORMALLY****
TOTAL RUN TIME: 0 days 0 hours 0 minutes 4 seconds 550 msec
