                         Program Version 5.0.0 -  RELEASE  -
|  1> !wB97X-D3 RIJCOSX def2-TZVPD def2/J TightSCF
|  2> *xyz 0 1
|  3> C          2.20996       -2.81239       -3.66571
|  4> C          2.48901       -1.66851       -2.73754
|  5> C          3.59631       -0.94761       -2.95225
|  6> N          1.66394       -1.41369       -1.77781
|  7> H          0.81164       -1.96318       -1.70275
|  8> H          1.84550       -0.63508       -1.15875
|  9> H          4.20535       -1.17600       -3.73383
| 10> H          3.81723       -0.12585       -2.40604
| 11> H          2.99011       -2.87840       -4.39503
| 12> H          1.27381       -2.65174       -4.15838
| 13> H          2.16680       -3.72339       -3.10614
| 14> *
| 15>
| 16> %MaxCore 64000
| 17> %pal nprocs 18
| 18> end
| 19>
| 20> %scf
| 21>   MaxIter 150
| 22> end
| 23>
| 24>
| 25>                          ****END OF INPUT****

CARTESIAN COORDINATES (ANGSTROEM)
---------------------------------
  C      2.209960   -2.812390   -3.665710
  C      2.489010   -1.668510   -2.737540
  C      3.596310   -0.947610   -2.952250
  N      1.663940   -1.413690   -1.777810
  H      0.811640   -1.963180   -1.702750
  H      1.845500   -0.635080   -1.158750
  H      4.205350   -1.176000   -3.733830
  H      3.817230   -0.125850   -2.406040
  H      2.990110   -2.878400   -4.395030
  H      1.273810   -2.651740   -4.158380
  H      2.166800   -3.723390   -3.106140

 Total Charge           Charge          ....    0
 Multiplicity           Mult            ....    1
 Number of Electrons    NEL             ....   32
 Basis Dimension        Dim             ....  211

ORBITAL ENERGIES
----------------

  NO   OCC          E(Eh)            E(eV)
   0   2.0000     -14.426001      -392.5514
   1   2.0000     -10.299537      -280.2646
   2   2.0000     -10.262637      -279.2605
   3   2.0000     -10.203534      -277.6523
   4   2.0000      -1.056875       -28.7590
   5   2.0000      -0.871325       -23.7100
   6   2.0000      -0.798684       -21.7333
   7   2.0000      -0.682164       -18.5626
   8   2.0000      -0.636804       -17.3283
   9   2.0000      -0.574573       -15.6349
  10   2.0000      -0.535052       -14.5595
  11   2.0000      -0.494357       -13.4521
  12   2.0000      -0.487842       -13.2749
  13   2.0000      -0.443555       -12.0697
  14   2.0000      -0.438118       -11.9218
  15   2.0000      -0.274765        -7.4767
  16   0.0000       0.068056         1.8519
  17   0.0000       0.097077         2.6416
  18   0.0000       0.101200         2.7538
  19   0.0000       0.117949         3.2096
  20   0.0000       0.132046         3.5932

MULLIKEN ATOMIC CHARGES
-----------------------
   0 C :   -1.239659
   1 C :    1.229147
   2 C :   -1.478560
   3 N :   -0.487022
   4 H :    0.200813
   5 H :    0.184537
   6 H :    0.289704
   7 H :    0.326181
   8 H :    0.291517
   9 H :    0.344066
  10 H :    0.339277
Sum of atomic charges:   -0.0000000

LOEWDIN ATOMIC CHARGES
----------------------
   0 C :   -0.046293
   1 C :   -0.539703
   2 C :    0.007330
   3 N :    0.090820
   4 H :    0.117601
   5 H :    0.119430
   6 H :    0.014852
   7 H :    0.013681
   8 H :    0.071612
   9 H :    0.075514
  10 H :    0.075156

  Mayer bond orders larger than 0.100000
B(  0-C ,  1-C ) :   0.4754 B(  0-C ,  8-H ) :   0.9779 B(  0-C ,  9-H ) :   0.9220
B(  0-C , 10-H ) :   0.9296 B(  1-C ,  2-C ) :   0.9517 B(  1-C ,  3-N ) :   1.1208
B(  1-C ,  7-H ) :  -0.1017 B(  2-C ,  3-N ) :   0.1188 B(  2-C ,  6-H ) :   0.9900
B(  2-C ,  7-H ) :   0.9889 B(  3-N ,  4-H ) :   1.0108 B(  3-N ,  5-H ) :   1.0097

Dispersion correction           -0.001680036
FINAL SINGLE POINT ENERGY      -173.268476769246

DIPOLE MOMENT
-------------
                                X             Y             Z
Electronic contribution:     -0.66876       0.85328       1.52867
Nuclear contribution   :     -0.07639      -1.03653      -1.19368
                        -----------------------------------------
Total Dipole Moment    :     -0.74515      -0.18325       0.33500
                        -----------------------------------------
Magnitude (a.u.)       :      0.83729
Magnitude (Debye)      :      2.12821

Rotational constants in cm-1:     0.347569     0.308531     0.168494
Rotational constants in MHz : 10419.863808  9249.512495  5051.317883

                             ****ORCA TERMINATED NORMALLY****
TOTAL RUN TIME: 0 days 0 hours 0 minutes 16 seconds 726 msec
