                         Program Version 5.0.0 -  RELEASE  -
|  1> !wB97X-D3 RIJCOSX def2-TZVPD def2/J TightSCF
|  2> *xyz 0 1
|  3> C          2.20996       -2.81239       -3.66571
|  4> C          2.48901       -1.66851       -2.73754
|  5> N          3.59631       -0.94761       -2.95225
|  6> C          1.66394       -1.41369       -1.77781
|  7> H          0.81164       -1.96318       -1.70275
|  8> H          1.84550       -0.63508       -1.15875
|  9> H          4.20535       -1.17600       -3.73383
| 10> H          3.81723       -0.12585       -2.40604
| 11> H          2.99011       -2.87840       -4.39503
| 12> H          1.27381       -2.65174       -4.15838
| 13> H          2.16680       -3.72339       -3.10614
| 14> *
| 15>
| 16> %MaxCore 64000
| 17> %pal nprocs 18
| 18> end
| 19>
| 20> %scf
| 21>   MaxIter 150
| 22> end
| 23>
| 24>
| 25>                          ****END OF INPUT****

CARTESIAN COORDINATES (ANGSTROEM)
---------------------------------
  C      2.209960   -2.812390   -3.665710
  C      2.489010   -1.668510   -2.737540
  N      3.596310   -0.947610   -2.952250
  C      1.663940   -1.413690   -1.777810
  H      0.811640   -1.963180   -1.702750
  H      1.845500   -0.635080   -1.158750
  H      4.205350   -1.176000   -3.733830
  H      3.817230   -0.125850   -2.406040
  H      2.990110   -2.878400   -4.395030
  H      1.273810   -2.651740   -4.158380
  H      2.166800   -3.723390   -3.106140

 Total Charge           Charge          ....    0
 Multiplicity           Mult            ....    1
 Number of Electrons    NEL             ....   32
 Basis Dimension        Dim             ....  211

ORBITAL ENERGIES
----------------

  NO   OCC          E(Eh)            E(eV)
   0   2.0000     -14.421031      -392.4162
   1   2.0000     -10.295576      -280.1569
   2   2.0000     -10.262257      -279.2502
   3   2.0000     -10.200380      -277.5665
   4   2.0000      -1.038383       -28.2558
   5   2.0000      -0.876339       -23.8464
   6   2.0000      -0.804865       -21.9015
   7   2.0000      -0.673964       -18.3395
   8   2.0000      -0.623591       -16.9688
   9   2.0000      -0.576522       -15.6880
  10   2.0000      -0.531097       -14.4519
  11   2.0000      -0.496211       -13.5026
  12   2.0000      -0.490292       -13.3415
  13   2.0000      -0.447194       -12.1688
  14   2.0000      -0.430704       -11.7201
  15   2.0000      -0.280976        -7.6458
  16   0.0000       0.069471         1.8904
  17   0.0000       0.097423         2.6510
  18   0.0000       0.099802         2.7157
  19   0.0000       0.118196         3.2163
  20   0.0000       0.133550         3.6341

MULLIKEN ATOMIC CHARGES
-----------------------
   0 C :   -1.114778
   1 C :    1.130765
   2 N :   -0.458324
   3 C :   -1.496178
   4 H :    0.346774
   5 H :    0.337148
   6 H :    0.189895
   7 H :    0.157206
   8 H :    0.328602
   9 H :    0.289240
  10 H :    0.289649
Sum of atomic charges:   -0.0000000

LOEWDIN ATOMIC CHARGES
----------------------
   0 C :   -0.041123
   1 C :   -0.524680
   2 N :    0.082024
   3 C :   -0.005596
   4 H :    0.033492
   5 H :    0.025655
   6 H :    0.100523
   7 H :    0.107379
   8 H :    0.063249
   9 H :    0.079592
  10 H :    0.079485

  Mayer bond orders larger than 0.100000
B(  0-C ,  1-C ) :   0.5536 B(  0-C ,  3-C ) :   0.1212 B(  0-C ,  8-H ) :   0.9739
B(  0-C ,  9-H ) :   0.9483 B(  0-C , 10-H ) :   0.9550 B(  1-C ,  2-N ) :   0.9609
B(  1-C ,  3-C ) :   1.0755 B(  1-C ,  5-H ) :  -0.1072 B(  2-N ,  3-C ) :   0.1156
B(  2-N ,  6-H ) :   1.0151 B(  2-N ,  7-H ) :   1.0537 B(  3-C ,  4-H ) :   0.9252
B(  3-C ,  5-H ) :   0.9771

Dispersion correction           -0.001666506
FINAL SINGLE POINT ENERGY      -173.268572500480

DIPOLE MOMENT
-------------
                                X             Y             Z
Electronic contribution:      1.03527       1.24426       0.47165
Nuclear contribution   :     -0.50975      -1.14105      -0.93029
                        -----------------------------------------
Total Dipole Moment    :      0.52552       0.10321      -0.45864
                        -----------------------------------------
Magnitude (a.u.)       :      0.70511
Magnitude (Debye)      :      1.79223

Rotational constants in cm-1:     0.350603     0.305690     0.168346
Rotational constants in MHz : 10510.799277  9164.357607  5046.873498

                             ****ORCA TERMINATED NORMALLY****
TOTAL RUN TIME: 0 days 0 hours 0 minutes 16 seconds 233 msec
