                         Program Version 5.0.0 -  RELEASE  -
|  1> !TPSS D3BJ RIJCOSX def2-TZVPD def2/J TightSCF
|  2> *xyz -1 1
|  3> C         -0.77455        2.78833       -0.54394
|  4> C          0.69721        3.22791       -0.52513
|  5> O          1.48929        2.37470        0.19919
|  6> H          0.71600        4.26403       -0.13077
|  7> H          1.03615        3.33092       -1.58367
|  8> H         -1.34746        3.48478       -1.11982
|  9> H         -1.15078        2.75876        0.45729
| 10> H         -0.85058        1.81526       -0.98241
| 11> *
| 12>
| 13> %MaxCore 64000
| 14> %pal nprocs 4
| 15> end
| 16>
| 17> %scf
| 18>   MaxIter 150
| 19> end
| 20>
| 21>
| 22>                          ****END OF INPUT****

CARTESIAN COORDINATES (ANGSTROEM)
---------------------------------
  C     -0.774550    2.788330   -0.543940
  C      0.697210    3.227910   -0.525130
  O      1.489290    2.374700    0.199190
  H      0.716000    4.264030   -0.130770
  H      1.036150    3.330920   -1.583670
  H     -1.347460    3.484780   -1.119820
  H     -1.150780    2.758760    0.457290
  H     -0.850580    1.815260   -0.982410

 Total Charge           Charge          ....   -1
 Multiplicity           Mult            ....    1
 Number of Electrons    NEL             ....   26
 Basis Dimension        Dim             ....  159

ORBITAL ENERGIES
----------------

  NO   OCC          E(Eh)            E(eV)
   0   2.0000     -18.561156      -505.0747
   1   2.0000      -9.801463      -266.7114
   2   2.0000      -9.776999      -266.0457
   3   2.0000      -0.620785       -16.8924
   4   2.0000      -0.474028       -12.8990
   5   2.0000      -0.328555        -8.9404
   6   2.0000      -0.210604        -5.7308
   7   2.0000      -0.189364        -5.1529
   8   2.0000      -0.136338        -3.7099
   9   2.0000      -0.121712        -3.3120
  10   2.0000      -0.075943        -2.0665
  11   2.0000       0.062462         1.6997
  12   2.0000       0.065076         1.7708
  13   0.0000       0.146346         3.9823
  14   0.0000       0.168847         4.5946
  15   0.0000       0.193975         5.2783
  16   0.0000       0.197379         5.3710
  17   0.0000       0.218316         5.9407

MULLIKEN ATOMIC CHARGES
-----------------------
   0 C :   -1.057091
   1 C :   -0.049847
   2 O :   -1.012568
   3 H :    0.136526
   4 H :    0.141977
   5 H :    0.350401
   6 H :    0.245174
   7 H :    0.245428
Sum of atomic charges:   -1.0000000

LOEWDIN ATOMIC CHARGES
----------------------
   0 C :   -0.174913
   1 C :   -0.610477
   2 O :   -0.396773
   3 H :    0.045918
   4 H :    0.048828
   5 H :    0.018471
   6 H :    0.034697
   7 H :    0.034250

  Mayer bond orders larger than 0.100000
B(  0-C ,  1-C ) :   0.9369 B(  0-C ,  2-O ) :   0.6434 B(  0-C ,  5-H ) :   0.9236
B(  0-C ,  6-H ) :   0.9739 B(  0-C ,  7-H ) :   0.9765 B(  1-C ,  2-O ) :   0.6562
B(  1-C ,  3-H ) :   1.0522 B(  1-C ,  4-H ) :   1.0466 B(  2-O ,  5-H ) :  -0.1046

Dispersion correction           -0.004556434
FINAL SINGLE POINT ENERGY      -154.515190029082

DIPOLE MOMENT
-------------
                                X             Y             Z
Electronic contribution:      2.57810      -1.08667       1.25085
Nuclear contribution   :     -3.69910       1.55962      -1.78699
                        -----------------------------------------
Total Dipole Moment    :     -1.12100       0.47296      -0.53614
                        -----------------------------------------
Magnitude (a.u.)       :      1.32957
Magnitude (Debye)      :      3.37951

Rotational constants in cm-1:     1.268893     0.327436     0.287754
Rotational constants in MHz : 38040.440181  9816.269339  8626.646564

                             ****ORCA TERMINATED NORMALLY****
TOTAL RUN TIME: 0 days 0 hours 0 minutes 12 seconds 804 msec
