                         Program Version 5.0.0 -  RELEASE  -
|  1> !TPSS D3BJ RIJCOSX def2-TZVPD def2/J TightSCF
|  2> *xyz 1 1
|  3> C          3.95643        0.50147       -0.37910
|  4> H          3.16840        0.02920        0.20738
|  5> N          3.80389        1.96157       -0.15675
|  6> C          3.84232        0.14849       -1.85406
|  7> H          4.92323        0.17798        0.00937
|  8> H          4.20643        2.24441        0.74536
|  9> H          2.80827        2.21132       -0.09610
| 10> H          4.28076        2.50155       -0.89104
| 11> H          4.62951        0.62800       -2.39748
| 12> H          2.89665        0.48102       -2.22825
| 13> H          3.92053       -0.91187       -1.97413
| 14> *
| 15>
| 16> %MaxCore 64000
| 17> %pal nprocs 4
| 18> end
| 19>
| 20> %scf
| 21>   MaxIter 150
| 22> end
| 23>
| 24>
| 25>                          ****END OF INPUT****

CARTESIAN COORDINATES (ANGSTROEM)
---------------------------------
  C      3.956430    0.501470   -0.379100
  H      3.168400    0.029200    0.207380
  N      3.803890    1.961570   -0.156750
  C      3.842320    0.148490   -1.854060
  H      4.923230    0.177980    0.009370
  H      4.206430    2.244410    0.745360
  H      2.808270    2.211320   -0.096100
  H      4.280760    2.501550   -0.891040
  H      4.629510    0.628000   -2.397480
  H      2.896650    0.481020   -2.228250
  H      3.920530   -0.911870   -1.974130

 Total Charge           Charge          ....    1
 Multiplicity           Mult            ....    1
 Number of Electrons    NEL             ....   26
 Basis Dimension        Dim             ....  183

ORBITAL ENERGIES
----------------

  NO   OCC          E(Eh)            E(eV)
   0   2.0000     -14.435541      -392.8110
   1   2.0000     -10.238761      -278.6108
   2   2.0000     -10.161439      -276.5068
   3   2.0000      -1.156568       -31.4718
   4   2.0000      -0.912666       -24.8349
   5   2.0000      -0.796786       -21.6816
   6   2.0000      -0.758459       -20.6387
   7   2.0000      -0.741012       -20.1640
   8   2.0000      -0.656217       -17.8566
   9   2.0000      -0.604355       -16.4453
  10   2.0000      -0.545813       -14.8523
  11   2.0000      -0.532162       -14.4809
  12   2.0000      -0.517121       -14.0716
  13   0.0000      -0.213786        -5.8174
  14   0.0000      -0.157588        -4.2882
  15   0.0000      -0.152421        -4.1476
  16   0.0000      -0.143968        -3.9176
  17   0.0000      -0.113430        -3.0866

MULLIKEN ATOMIC CHARGES
-----------------------
   0 C :   -0.162903
   1 H :    0.220941
   2 N :   -0.242291
   3 C :   -0.854672
   4 H :    0.220506
   5 H :    0.324003
   6 H :    0.333317
   7 H :    0.315333
   8 H :    0.326376
   9 H :    0.300406
  10 H :    0.218984
Sum of atomic charges:    1.0000000

LOEWDIN ATOMIC CHARGES
----------------------
   0 C :   -0.194792
   1 H :    0.133329
   2 N :    0.184182
   3 C :   -0.047779
   4 H :    0.133833
   5 H :    0.178490
   6 H :    0.181407
   7 H :    0.178401
   8 H :    0.080983
   9 H :    0.080964
  10 H :    0.090981

  Mayer bond orders larger than 0.100000
B(  0-C ,  1-H ) :   0.9232 B(  0-C ,  2-N ) :   0.9893 B(  0-C ,  3-C ) :   0.9428
B(  0-C ,  4-H ) :   0.9224 B(  2-N ,  5-H ) :   0.8733 B(  2-N ,  6-H ) :   0.8622
B(  2-N ,  7-H ) :   0.8731 B(  3-C ,  8-H ) :   0.8918 B(  3-C ,  9-H ) :   0.9301
B(  3-C , 10-H ) :   0.9878

Dispersion correction           -0.007447576
FINAL SINGLE POINT ENERGY      -135.613804517321

DIPOLE MOMENT
-------------
                                X             Y             Z
Electronic contribution:     -0.01127       1.30871       1.23129
Nuclear contribution   :     -0.06214      -0.04120      -0.39947
                        -----------------------------------------
Total Dipole Moment    :     -0.07341       1.26750       0.83182
                        -----------------------------------------
Magnitude (a.u.)       :      1.51785
Magnitude (Debye)      :      3.85808

Rotational constants in cm-1:     1.011771     0.281435     0.249812
Rotational constants in MHz : 30332.138762  8437.210602  7489.166323

                             ****ORCA TERMINATED NORMALLY****
TOTAL RUN TIME: 0 days 0 hours 0 minutes 13 seconds 276 msec
