                         Program Version 5.0.0 -  RELEASE  -
|  1> !TPSS D3BJ RIJCOSX def2-TZVPD def2/J TightSCF xyzfile
|  2>
|  3> *xyzfile 0 1 B.xyz
|  4>
|  5> %MaxCore 64000
|  6>
|  7> %pal nprocs 4
|  8> end
|  9>
| 10> %scf
| 11>   MaxIter 150
| 12> end
| 13>
| 14>
| 15>                          ****END OF INPUT****

CARTESIAN COORDINATES (ANGSTROEM)
---------------------------------
  C      3.956426    0.501466   -0.379100
  H      3.168398    0.029201    0.207383
  N      3.803893    1.961572   -0.156747
  C      3.842322    0.148490   -1.854058
  H      4.923231    0.177982    0.009371
  H      4.620021    0.694502   -2.402150
  H      4.096015   -0.910930   -1.955103
  C      2.475619    0.412708   -2.485377
  H      2.174689    1.445076   -2.287971
  C      1.383931   -0.532740   -1.995203
  H      2.575613    0.318574   -3.571460
  H      1.264698   -0.412309   -0.915491
  H      1.705223   -1.566885   -2.164984
  C      0.031398   -0.317260   -2.677791
  C     -0.587292    1.060853   -2.436460
  H     -0.662815   -1.089530   -2.329985
  H      0.149465   -0.478040   -3.755648
  H      0.104376    1.828590   -2.793130
  C     -0.951213    1.334978   -0.972500
  H     -1.478832    1.161355   -3.062484
  H     -0.317007    0.741648   -0.311389
  H     -1.980916    1.012842   -0.788958
  C     -0.774550    2.788332   -0.543943
  H     -1.352609    3.459372   -1.192585
  H     -1.171014    2.902331    0.469968
  C      0.697208    3.227911   -0.525126
  O      1.489294    2.374703    0.199189
  H      0.715998    4.264030   -0.130774
  H      1.036148    3.330920   -1.583669
  H      4.206425    2.244406    0.745359
  H      2.808269    2.211323   -0.096097
  H      4.280757    2.501552   -0.891037

 Total Charge           Charge          ....    0
 Multiplicity           Mult            ....    1
 Number of Electrons    NEL             ....   90
 Basis Dimension        Dim             ....  599

ORBITAL ENERGIES
----------------

  NO   OCC          E(Eh)            E(eV)
   0   2.0000     -18.756700      -510.3957
   1   2.0000     -14.181833      -385.9073
   2   2.0000     -10.052585      -273.5447
   3   2.0000     -10.009074      -272.3608
   4   2.0000      -9.983423      -271.6628
   5   2.0000      -9.971186      -271.3298
   6   2.0000      -9.968312      -271.2516
   7   2.0000      -9.965372      -271.1716
   8   2.0000      -9.952997      -270.8348
   9   2.0000      -9.940311      -270.4896
  10   2.0000      -9.932990      -270.2904
  11   2.0000      -0.928666       -25.2703
  12   2.0000      -0.826411       -22.4878
  13   2.0000      -0.760160       -20.6850
  14   2.0000      -0.722022       -19.6472
  15   2.0000      -0.685490       -18.6531
  16   2.0000      -0.645797       -17.5730
  17   2.0000      -0.609593       -16.5879
  18   2.0000      -0.572782       -15.5862
  19   2.0000      -0.546454       -14.8698
  20   2.0000      -0.526820       -14.3355
  21   2.0000      -0.521146       -14.1811
  22   2.0000      -0.501438       -13.6448
  23   2.0000      -0.465802       -12.6751
  24   2.0000      -0.451482       -12.2854
  25   2.0000      -0.425954       -11.5908
  26   2.0000      -0.424663       -11.5557
  27   2.0000      -0.396324       -10.7845
  28   2.0000      -0.382854       -10.4180
  29   2.0000      -0.377467       -10.2714
  30   2.0000      -0.363660        -9.8957
  31   2.0000      -0.352385        -9.5889
  32   2.0000      -0.342952        -9.3322
  33   2.0000      -0.326842        -8.8938
  34   2.0000      -0.318147        -8.6572
  35   2.0000      -0.306591        -8.3428
  36   2.0000      -0.297274        -8.0892
  37   2.0000      -0.290722        -7.9109
  38   2.0000      -0.278766        -7.5856
  39   2.0000      -0.272828        -7.4240
  40   2.0000      -0.255157        -6.9432
  41   2.0000      -0.247973        -6.7477
  42   2.0000      -0.246384        -6.7044
  43   2.0000      -0.144265        -3.9256
  44   2.0000      -0.135820        -3.6959
  45   0.0000      -0.036427        -0.9912
  46   0.0000      -0.004583        -0.1247
  47   0.0000      -0.000383        -0.0104
  48   0.0000       0.012766         0.3474
  49   0.0000       0.025989         0.7072

MULLIKEN ATOMIC CHARGES
-----------------------
   0 C :   -0.335854
   1 H :    0.298840
   2 N :   -0.026380
   3 C :   -0.274334
   4 H :    0.144717
   5 H :    0.131680
   6 H :    0.104690
   7 C :   -0.033350
   8 H :    0.091321
   9 C :   -0.316771
  10 H :    0.095745
  11 H :    0.191227
  12 H :    0.113778
  13 C :   -0.340125
  14 C :   -0.517123
  15 H :    0.101214
  16 H :    0.166111
  17 H :    0.336868
  18 C :   -0.217322
  19 H :    0.147478
  20 H :    0.158849
  21 H :    0.145869
  22 C :   -0.373073
  23 H :    0.112134
  24 H :    0.187223
  25 C :   -0.189856
  26 O :   -1.058002
  27 H :    0.157814
  28 H :    0.242504
  29 H :    0.334266
  30 H :    0.081649
  31 H :    0.338213
Sum of atomic charges:    0.0000000

LOEWDIN ATOMIC CHARGES
----------------------
   0 C :   -0.167755
   1 H :    0.124266
   2 N :    0.143348
   3 C :   -0.187244
   4 H :    0.114108
   5 H :    0.107444
   6 H :    0.113005
   7 C :   -0.198767
   8 H :    0.089346
   9 C :   -0.206406
  10 H :    0.115597
  11 H :    0.094424
  12 H :    0.109520
  13 C :   -0.203960
  14 C :   -0.204011
  15 H :    0.107038
  16 H :    0.102833
  17 H :    0.088039
  18 C :   -0.210695
  19 H :    0.104745
  20 H :    0.087686
  21 H :    0.102644
  22 C :   -0.199011
  23 H :    0.102707
  24 H :    0.100412
  25 C :   -0.415639
  26 O :   -0.259702
  27 H :    0.090274
  28 H :    0.081656
  29 H :    0.157580
  30 H :   -0.041480
  31 H :    0.157999

  Mayer bond orders larger than 0.100000
B(  0-C ,  1-H ) :   0.8694 B(  0-C ,  2-N ) :   0.9900 B(  0-C ,  3-C ) :   0.9495
B(  0-C ,  4-H ) :   0.9098 B(  0-C ,  9-C ) :   0.1402 B(  2-N , 26-O ) :  -0.1171
B(  2-N , 29-H ) :   0.8482 B(  2-N , 30-H ) :   0.9122 B(  2-N , 31-H ) :   0.8186
B(  3-C ,  5-H ) :   0.9027 B(  3-C ,  6-H ) :   0.9279 B(  3-C ,  7-C ) :   1.0390
B(  3-C ,  8-H ) :   0.1322 B(  3-C ,  9-C ) :   0.1868 B(  7-C ,  8-H ) :   1.1948
B(  7-C ,  9-C ) :   0.7096 B(  7-C , 10-H ) :   0.8317 B(  7-C , 13-C ) :   0.1841
B(  7-C , 14-C ) :   0.1725 B(  9-C , 11-H ) :   0.9483 B(  9-C , 12-H ) :   0.8972
B(  9-C , 13-C ) :   1.1315 B( 13-C , 14-C ) :   1.0492 B( 13-C , 15-H ) :   0.9230
B( 13-C , 16-H ) :   0.8786 B( 13-C , 18-C ) :   0.2549 B( 14-C , 17-H ) :   0.8379
B( 14-C , 18-C ) :   0.7542 B( 14-C , 19-H ) :   0.9107 B( 14-C , 22-C ) :   0.2990
B( 14-C , 25-C ) :   0.1075 B( 18-C , 20-H ) :   0.9065 B( 18-C , 21-H ) :   0.8994
B( 18-C , 22-C ) :   1.0974 B( 20-H , 26-O ) :   0.1095 B( 22-C , 23-H ) :   0.9702
B( 22-C , 24-H ) :   0.8405 B( 22-C , 25-C ) :   1.0975 B( 22-C , 26-O ) :   0.1646
B( 25-C , 26-O ) :   0.7017 B( 25-C , 27-H ) :   0.9235 B( 25-C , 28-H ) :   0.9064
B( 26-O , 30-H ) :   0.1744

Dispersion correction           -0.041106098
FINAL SINGLE POINT ENERGY      -485.827340062930

DIPOLE MOMENT
-------------
                                X             Y             Z
Electronic contribution:      2.08889       0.87721       2.58737
Nuclear contribution   :      0.61785      -1.47632      -2.91844
                        -----------------------------------------
Total Dipole Moment    :      2.70674      -0.59912      -0.33107
                        -----------------------------------------
Magnitude (a.u.)       :      2.79195
Magnitude (Debye)      :      7.09657

Rotational constants in cm-1:     0.040993     0.027400     0.018162
Rotational constants in MHz :  1228.944366   821.418004   544.476857

                             ****ORCA TERMINATED NORMALLY****
TOTAL RUN TIME: 0 days 0 hours 1 minutes 46 seconds 176 msec
