                         Program Version 5.0.0 -  RELEASE  -
|  1> !TPSS D3BJ RIJCOSX def2-TZVPD def2/J TightSCF
|  2> *xyz 0 1
|  3> C         -0.77455        2.78833       -0.54394
|  4> C          0.69721        3.22791       -0.52513
|  5> F          1.48929        2.37470        0.19919
|  6> H          0.71600        4.26403       -0.13077
|  7> H          1.03615        3.33092       -1.58367
|  8> H         -1.34746        3.48478       -1.11982
|  9> H         -1.15078        2.75876        0.45729
| 10> H         -0.85058        1.81526       -0.98241
| 11> *
| 12>
| 13> %MaxCore 64000
| 14> %pal nprocs 4
| 15> end
| 16>
| 17> %scf
| 18>   MaxIter 150
| 19> end
| 20>
| 21>
| 22>                          ****END OF INPUT****

CARTESIAN COORDINATES (ANGSTROEM)
---------------------------------
  C     -0.774550    2.788330   -0.543940
  C      0.697210    3.227910   -0.525130
  F      1.489290    2.374700    0.199190
  H      0.716000    4.264030   -0.130770
  H      1.036150    3.330920   -1.583670
  H     -1.347460    3.484780   -1.119820
  H     -1.150780    2.758760    0.457290
  H     -0.850580    1.815260   -0.982410

 Total Charge           Charge          ....    0
 Multiplicity           Mult            ....    1
 Number of Electrons    NEL             ....   26
 Basis Dimension        Dim             ....  159

ORBITAL ENERGIES
----------------

  NO   OCC          E(Eh)            E(eV)
   0   2.0000     -24.397886      -663.9002
   1   2.0000     -10.062628      -273.8180
   2   2.0000      -9.980619      -271.5865
   3   2.0000      -1.122352       -30.5407
   4   2.0000      -0.709620       -19.3097
   5   2.0000      -0.581815       -15.8320
   6   2.0000      -0.460163       -12.5217
   7   2.0000      -0.446289       -12.1441
   8   2.0000      -0.407154       -11.0792
   9   2.0000      -0.363031        -9.8786
  10   2.0000      -0.360934        -9.8215
  11   2.0000      -0.291768        -7.9394
  12   2.0000      -0.289478        -7.8771
  13   0.0000       0.000605         0.0165
  14   0.0000       0.027969         0.7611
  15   0.0000       0.040843         1.1114
  16   0.0000       0.046987         1.2786
  17   0.0000       0.071855         1.9553

MULLIKEN ATOMIC CHARGES
-----------------------
   0 C :   -0.730273
   1 C :    0.030410
   2 F :   -0.301214
   3 H :    0.156941
   4 H :    0.162607
   5 H :    0.261733
   6 H :    0.211778
   7 H :    0.208019
Sum of atomic charges:   -0.0000000

LOEWDIN ATOMIC CHARGES
----------------------
   0 C :   -0.078611
   1 C :   -0.290686
   2 F :   -0.034787
   3 H :    0.106522
   4 H :    0.110448
   5 H :    0.064115
   6 H :    0.061697
   7 H :    0.061302

  Mayer bond orders larger than 0.100000
B(  0-C ,  1-C ) :   1.0055 B(  0-C ,  2-F ) :   0.1044 B(  0-C ,  5-H ) :   0.9222
B(  0-C ,  6-H ) :   0.9570 B(  0-C ,  7-H ) :   0.9594 B(  1-C ,  2-F ) :   0.7790
B(  1-C ,  3-H ) :   0.9631 B(  1-C ,  4-H ) :   0.9576

Dispersion correction           -0.004202318
FINAL SINGLE POINT ENERGY      -179.158854852957

DIPOLE MOMENT
-------------
                                X             Y             Z
Electronic contribution:      4.43184      -1.67211       2.01696
Nuclear contribution   :     -4.89513       2.05627      -2.36166
                        -----------------------------------------
Total Dipole Moment    :     -0.46329       0.38416      -0.34470
                        -----------------------------------------
Magnitude (a.u.)       :      0.69357
Magnitude (Debye)      :      1.76291

Rotational constants in cm-1:     1.247826     0.304622     0.269019
Rotational constants in MHz : 37408.889506  9132.346906  8064.979146

                             ****ORCA TERMINATED NORMALLY****
TOTAL RUN TIME: 0 days 0 hours 0 minutes 10 seconds 417 msec
