                         Program Version 5.0.0 -  RELEASE  -
|  1> !TPSS D3BJ RIJCOSX def2-TZVPD def2/J TightSCF
|  2> *xyz 0 1
|  3> C          3.95643        0.50147       -0.37910
|  4> H          3.16840        0.02920        0.20738
|  5> C          3.80389        1.96157       -0.15675
|  6> C          3.84232        0.14849       -1.85406
|  7> H          4.92323        0.17798        0.00937
|  8> H          4.20643        2.24441        0.74536
|  9> H          2.80827        2.21132       -0.09610
| 10> H          4.28076        2.50155       -0.89104
| 11> H          4.62951        0.62800       -2.39748
| 12> H          2.89665        0.48102       -2.22825
| 13> H          3.92053       -0.91187       -1.97413
| 14> *
| 15>
| 16> %MaxCore 64000
| 17> %pal nprocs 4
| 18> end
| 19>
| 20> %scf
| 21>   MaxIter 150
| 22> end
| 23>
| 24>
| 25>                          ****END OF INPUT****

CARTESIAN COORDINATES (ANGSTROEM)
---------------------------------
  C      3.956430    0.501470   -0.379100
  H      3.168400    0.029200    0.207380
  C      3.803890    1.961570   -0.156750
  C      3.842320    0.148490   -1.854060
  H      4.923230    0.177980    0.009370
  H      4.206430    2.244410    0.745360
  H      2.808270    2.211320   -0.096100
  H      4.280760    2.501550   -0.891040
  H      4.629510    0.628000   -2.397480
  H      2.896650    0.481020   -2.228250
  H      3.920530   -0.911870   -1.974130

 Total Charge           Charge          ....    0
 Multiplicity           Mult            ....    1
 Number of Electrons    NEL             ....   26
 Basis Dimension        Dim             ....  183

ORBITAL ENERGIES
----------------

  NO   OCC          E(Eh)            E(eV)
   0   2.0000      -9.970164      -271.3020
   1   2.0000      -9.962804      -271.1017
   2   2.0000      -9.944390      -270.6006
   3   2.0000      -0.734561       -19.9884
   4   2.0000      -0.638402       -17.3718
   5   2.0000      -0.538429       -14.6514
   6   2.0000      -0.427110       -11.6223
   7   2.0000      -0.404046       -10.9946
   8   2.0000      -0.362510        -9.8644
   9   2.0000      -0.352941        -9.6040
  10   2.0000      -0.299552        -8.1512
  11   2.0000      -0.298522        -8.1232
  12   2.0000      -0.290690        -7.9101
  13   0.0000       0.004491         0.1222
  14   0.0000       0.029527         0.8035
  15   0.0000       0.032595         0.8870
  16   0.0000       0.049337         1.3425
  17   0.0000       0.072336         1.9684

MULLIKEN ATOMIC CHARGES
-----------------------
   0 C :    0.154671
   1 H :    0.132517
   2 C :   -1.037071
   3 C :   -0.913109
   4 H :    0.139634
   5 H :    0.248874
   6 H :    0.276442
   7 H :    0.267967
   8 H :    0.265439
   9 H :    0.256588
  10 H :    0.208047
Sum of atomic charges:   -0.0000000

LOEWDIN ATOMIC CHARGES
----------------------
   0 C :   -0.308835
   1 H :    0.100309
   2 C :   -0.122515
   3 C :   -0.110572
   4 H :    0.099884
   5 H :    0.048882
   6 H :    0.054050
   7 H :    0.052651
   8 H :    0.063549
   9 H :    0.064876
  10 H :    0.057721

  Mayer bond orders larger than 0.100000
B(  0-C ,  1-H ) :   0.9477 B(  0-C ,  2-C ) :   0.8529 B(  0-C ,  3-C ) :   0.8096
B(  0-C ,  4-H ) :   0.9540 B(  2-C ,  3-C ) :   0.2018 B(  2-C ,  5-H ) :   0.9742
B(  2-C ,  6-H ) :   0.9485 B(  2-C ,  7-H ) :   0.9556 B(  3-C ,  8-H ) :   0.9559
B(  3-C ,  9-H ) :   0.9666 B(  3-C , 10-H ) :   0.9941

Dispersion correction           -0.007471764
FINAL SINGLE POINT ENERGY      -119.197509154252

DIPOLE MOMENT
-------------
                                X             Y             Z
Electronic contribution:      0.08100      -0.29680       0.23227
Nuclear contribution   :     -0.08172       0.30475      -0.19303
                        -----------------------------------------
Total Dipole Moment    :     -0.00071       0.00795       0.03924
                        -----------------------------------------
Magnitude (a.u.)       :      0.04004
Magnitude (Debye)      :      0.10179

Rotational constants in cm-1:     1.020248     0.295755     0.261591
Rotational constants in MHz : 30586.266829  8866.511639  7842.297953

                             ****ORCA TERMINATED NORMALLY****
TOTAL RUN TIME: 0 days 0 hours 0 minutes 13 seconds 7 msec
