                         Program Version 5.0.0 -  RELEASE  -
|  1> !TPSS D3BJ RIJCOSX def2-TZVPD def2/J TightSCF xyzfile
|  2>
|  3> *xyzfile 0 1 D.xyz
|  4>
|  5> %MaxCore 64000
|  6>
|  7> %pal nprocs 4
|  8> end
|  9>
| 10> %scf
| 11>   MaxIter 150
| 12> end
| 13>
| 14>
| 15>                          ****END OF INPUT****

CARTESIAN COORDINATES (ANGSTROEM)
---------------------------------
  C      3.956426    0.501466   -0.379100
  H      3.168398    0.029201    0.207383
  C      3.803893    1.961572   -0.156747
  C      3.842322    0.148490   -1.854058
  H      4.923231    0.177982    0.009371
  H      4.620021    0.694502   -2.402150
  H      4.096015   -0.910930   -1.955103
  C      2.475619    0.412708   -2.485377
  H      2.174689    1.445076   -2.287971
  C      1.383931   -0.532740   -1.995203
  H      2.575613    0.318574   -3.571460
  H      1.264698   -0.412309   -0.915491
  H      1.705223   -1.566885   -2.164984
  C      0.031398   -0.317260   -2.677791
  C     -0.587292    1.060853   -2.436460
  H     -0.662815   -1.089530   -2.329985
  H      0.149465   -0.478040   -3.755648
  H      0.104376    1.828590   -2.793130
  C     -0.951213    1.334978   -0.972500
  H     -1.478832    1.161355   -3.062484
  H     -0.317007    0.741648   -0.311389
  H     -1.980916    1.012842   -0.788958
  C     -0.774550    2.788332   -0.543943
  H     -1.352609    3.459372   -1.192585
  H     -1.171014    2.902331    0.469968
  C      0.697208    3.227911   -0.525126
  F      1.489294    2.374703    0.199189
  H      0.715998    4.264030   -0.130774
  H      1.036148    3.330920   -1.583669
  H      4.206425    2.244406    0.745359
  H      2.808269    2.211323   -0.096097
  H      4.280757    2.501552   -0.891037

 Total Charge           Charge          ....    0
 Multiplicity           Mult            ....    1
 Number of Electrons    NEL             ....   90
 Basis Dimension        Dim             ....  599

ORBITAL ENERGIES
----------------

  NO   OCC          E(Eh)            E(eV)
   0   2.0000     -24.417747      -664.4407
   1   2.0000     -10.070682      -274.0372
   2   2.0000      -9.995629      -271.9949
   3   2.0000      -9.982952      -271.6499
   4   2.0000      -9.979666      -271.5605
   5   2.0000      -9.976575      -271.4764
   6   2.0000      -9.970972      -271.3239
   7   2.0000      -9.968900      -271.2676
   8   2.0000      -9.963022      -271.1076
   9   2.0000      -9.952168      -270.8122
  10   2.0000      -9.900647      -269.4103
  11   2.0000      -1.155243       -31.4358
  12   2.0000      -0.761510       -20.7218
  13   2.0000      -0.742646       -20.2084
  14   2.0000      -0.711546       -19.3622
  15   2.0000      -0.682195       -18.5635
  16   2.0000      -0.637365       -17.3436
  17   2.0000      -0.612913       -16.6782
  18   2.0000      -0.573414       -15.6034
  19   2.0000      -0.551708       -15.0127
  20   2.0000      -0.518316       -14.1041
  21   2.0000      -0.503738       -13.7074
  22   2.0000      -0.483348       -13.1526
  23   2.0000      -0.464274       -12.6335
  24   2.0000      -0.445900       -12.1336
  25   2.0000      -0.425675       -11.5832
  26   2.0000      -0.413497       -11.2518
  27   2.0000      -0.407112       -11.0781
  28   2.0000      -0.389012       -10.5856
  29   2.0000      -0.382953       -10.4207
  30   2.0000      -0.370599       -10.0845
  31   2.0000      -0.353393        -9.6163
  32   2.0000      -0.346311        -9.4236
  33   2.0000      -0.336324        -9.1518
  34   2.0000      -0.328113        -8.9284
  35   2.0000      -0.316524        -8.6131
  36   2.0000      -0.312076        -8.4920
  37   2.0000      -0.304486        -8.2855
  38   2.0000      -0.288862        -7.8603
  39   2.0000      -0.284912        -7.7528
  40   2.0000      -0.277538        -7.5522
  41   2.0000      -0.276628        -7.5274
  42   2.0000      -0.263610        -7.1732
  43   2.0000      -0.262505        -7.1431
  44   2.0000      -0.236998        -6.4490
  45   0.0000      -0.004778        -0.1300
  46   0.0000       0.003164         0.0861
  47   0.0000       0.009086         0.2472
  48   0.0000       0.014773         0.4020
  49   0.0000       0.027064         0.7365

MULLIKEN ATOMIC CHARGES
-----------------------
   0 C :   -0.024947
   1 H :    0.289651
   2 C :   -0.789388
   3 C :   -0.345852
   4 H :    0.006370
   5 H :    0.152513
   6 H :    0.108546
   7 C :   -0.208554
   8 H :    0.081997
   9 C :   -0.262829
  10 H :    0.119364
  11 H :    0.196465
  12 H :    0.113093
  13 C :   -0.329259
  14 C :   -0.552407
  15 H :    0.098222
  16 H :    0.174815
  17 H :    0.380983
  18 C :   -0.267262
  19 H :    0.145180
  20 H :    0.230274
  21 H :    0.153238
  22 C :   -0.298589
  23 H :    0.116969
  24 H :    0.166286
  25 C :   -0.152962
  26 F :   -0.363715
  27 H :    0.167455
  28 H :    0.310842
  29 H :    0.215470
  30 H :    0.055141
  31 H :    0.312889
Sum of atomic charges:   -0.0000000

LOEWDIN ATOMIC CHARGES
----------------------
   0 C :   -0.245405
   1 H :    0.100982
   2 C :   -0.104071
   3 C :   -0.209983
   4 H :    0.101782
   5 H :    0.107582
   6 H :    0.101979
   7 C :   -0.200316
   8 H :    0.085796
   9 C :   -0.205270
  10 H :    0.112983
  11 H :    0.092512
  12 H :    0.113106
  13 C :   -0.203382
  14 C :   -0.202515
  15 H :    0.107221
  16 H :    0.106138
  17 H :    0.089625
  18 C :   -0.200723
  19 H :    0.107522
  20 H :    0.094944
  21 H :    0.110699
  22 C :   -0.173736
  23 H :    0.117277
  24 H :    0.106888
  25 C :   -0.204913
  26 F :   -0.023569
  27 H :    0.121789
  28 H :    0.116013
  29 H :    0.056792
  30 H :   -0.038771
  31 H :    0.061026

  Mayer bond orders larger than 0.100000
B(  0-C ,  1-H ) :   0.8362 B(  0-C ,  2-C ) :   0.6352 B(  0-C ,  3-C ) :   0.9177
B(  0-C ,  4-H ) :   1.0017 B(  0-C ,  9-C ) :   0.1588 B(  2-C ,  3-C ) :   0.2562
B(  2-C , 26-F ) :   0.2407 B(  2-C , 29-H ) :   0.8560 B(  2-C , 30-H ) :   1.3260
B(  2-C , 31-H ) :   0.9263 B(  3-C ,  5-H ) :   0.8814 B(  3-C ,  6-H ) :   0.8888
B(  3-C ,  7-C ) :   1.2014 B(  3-C ,  8-H ) :   0.1534 B(  3-C ,  9-C ) :   0.1494
B(  7-C ,  8-H ) :   1.2018 B(  7-C ,  9-C ) :   0.6569 B(  7-C , 10-H ) :   0.8142
B(  7-C , 13-C ) :   0.1669 B(  7-C , 14-C ) :   0.1660 B(  9-C , 11-H ) :   0.9411
B(  9-C , 12-H ) :   0.8858 B(  9-C , 13-C ) :   1.1109 B( 13-C , 14-C ) :   1.0659
B( 13-C , 15-H ) :   0.9278 B( 13-C , 16-H ) :   0.8785 B( 13-C , 18-C ) :   0.2406
B( 14-C , 17-H ) :   0.8008 B( 14-C , 18-C ) :   0.7840 B( 14-C , 19-H ) :   0.9218
B( 14-C , 22-C ) :   0.2795 B( 14-C , 25-C ) :   0.1203 B( 18-C , 20-H ) :   0.9103
B( 18-C , 21-H ) :   0.9095 B( 18-C , 22-C ) :   1.0676 B( 22-C , 23-H ) :   0.9353
B( 22-C , 24-H ) :   0.8732 B( 22-C , 25-C ) :   1.0911 B( 22-C , 26-F ) :   0.1445
B( 25-C , 26-F ) :   0.5859 B( 25-C , 27-H ) :   0.8663 B( 25-C , 28-H ) :   0.9059
B( 26-F , 30-H ) :  -0.2840 B( 29-H , 30-H ) :   0.1818

Dispersion correction           -0.040209413
FINAL SINGLE POINT ENERGY      -493.790991702777

DIPOLE MOMENT
-------------
                                X             Y             Z
Electronic contribution:     -1.93359       3.26344       4.29396
Nuclear contribution   :      1.09293      -2.80761      -4.51228
                        -----------------------------------------
Total Dipole Moment    :     -0.84066       0.45582      -0.21832
                        -----------------------------------------
Magnitude (a.u.)       :      0.98090
Magnitude (Debye)      :      2.49324

Rotational constants in cm-1:     0.040502     0.027818     0.018259
Rotational constants in MHz :  1214.218058   833.972871   547.398614

                             ****ORCA TERMINATED NORMALLY****
TOTAL RUN TIME: 0 days 0 hours 1 minutes 39 seconds 436 msec
