                         Program Version 5.0.0 -  RELEASE  -
|  1> !BLYP D3BJ RIJCOSX def2-TZVP def2/J TightSCF
|  2> *xyz -1 1
|  3> C         -0.77455        2.78833       -0.54394
|  4> C          0.69721        3.22791       -0.52513
|  5> O          1.48929        2.37470        0.19919
|  6> H          0.71600        4.26403       -0.13077
|  7> H          1.03615        3.33092       -1.58367
|  8> H         -1.34746        3.48478       -1.11982
|  9> H         -1.15078        2.75876        0.45729
| 10> H         -0.85058        1.81526       -0.98241
| 11> *
| 12>
| 13> %MaxCore 64000
| 14> %pal nprocs 4
| 15> end
| 16>
| 17> %scf
| 18>   MaxIter 150
| 19> end
| 20>
| 21>
| 22>                          ****END OF INPUT****

CARTESIAN COORDINATES (ANGSTROEM)
---------------------------------
  C     -0.774550    2.788330   -0.543940
  C      0.697210    3.227910   -0.525130
  O      1.489290    2.374700    0.199190
  H      0.716000    4.264030   -0.130770
  H      1.036150    3.330920   -1.583670
  H     -1.347460    3.484780   -1.119820
  H     -1.150780    2.758760    0.457290
  H     -0.850580    1.815260   -0.982410

 Total Charge           Charge          ....   -1
 Multiplicity           Mult            ....    1
 Number of Electrons    NEL             ....   26
 Basis Dimension        Dim             ....  123

ORBITAL ENERGIES
----------------

  NO   OCC          E(Eh)            E(eV)
   0   2.0000     -18.427048      -501.4255
   1   2.0000      -9.708771      -264.1891
   2   2.0000      -9.687179      -263.6016
   3   2.0000      -0.579225       -15.7615
   4   2.0000      -0.442684       -12.0460
   5   2.0000      -0.300407        -8.1745
   6   2.0000      -0.190788        -5.1916
   7   2.0000      -0.170192        -4.6312
   8   2.0000      -0.118707        -3.2302
   9   2.0000      -0.102058        -2.7771
  10   2.0000      -0.054365        -1.4793
  11   2.0000       0.084937         2.3113
  12   2.0000       0.088167         2.3991
  13   0.0000       0.197915         5.3855
  14   0.0000       0.231830         6.3084
  15   0.0000       0.256102         6.9689
  16   0.0000       0.259447         7.0599
  17   0.0000       0.292353         7.9553

MULLIKEN ATOMIC CHARGES
-----------------------
   0 C :   -0.022710
   1 C :    0.050189
   2 O :   -0.721810
   3 H :   -0.093550
   4 H :   -0.096259
   5 H :   -0.088294
   6 H :   -0.013116
   7 H :   -0.014450
Sum of atomic charges:   -1.0000000

LOEWDIN ATOMIC CHARGES
----------------------
   0 C :   -0.360092
   1 C :   -0.550420
   2 O :   -0.393160
   3 H :    0.044202
   4 H :    0.043108
   5 H :    0.060064
   6 H :    0.078421
   7 H :    0.077877

  Mayer bond orders larger than 0.100000
B(  0-C ,  1-C ) :   0.8435 B(  0-C ,  2-O ) :  -0.3821 B(  0-C ,  5-H ) :   0.8794
B(  0-C ,  6-H ) :   0.9517 B(  0-C ,  7-H ) :   0.9504 B(  1-C ,  2-O ) :   1.6837
B(  1-C ,  3-H ) :   0.8959 B(  1-C ,  4-H ) :   0.8953 B(  2-O ,  5-H ) :   0.1593

Dispersion correction           -0.007745486
FINAL SINGLE POINT ENERGY      -154.429844952397

DIPOLE MOMENT
-------------
                                X             Y             Z
Electronic contribution:      2.67592      -1.23049       1.36489
Nuclear contribution   :     -3.69910       1.55962      -1.78699
                        -----------------------------------------
Total Dipole Moment    :     -1.02318       0.32914      -0.42210
                        -----------------------------------------
Magnitude (a.u.)       :      1.15473
Magnitude (Debye)      :      2.93509

Rotational constants in cm-1:     1.268893     0.327436     0.287754
Rotational constants in MHz : 38040.440181  9816.269339  8626.646564

                             ****ORCA TERMINATED NORMALLY****
TOTAL RUN TIME: 0 days 0 hours 0 minutes 7 seconds 60 msec
