                         Program Version 5.0.0 -  RELEASE  -
|  1> !BLYP D3BJ RIJCOSX def2-TZVP def2/J TightSCF
|  2> *xyz 1 1
|  3> C          3.95643        0.50147       -0.37910
|  4> H          3.16840        0.02920        0.20738
|  5> N          3.80389        1.96157       -0.15675
|  6> C          3.84232        0.14849       -1.85406
|  7> H          4.92323        0.17798        0.00937
|  8> H          4.20643        2.24441        0.74536
|  9> H          2.80827        2.21132       -0.09610
| 10> H          4.28076        2.50155       -0.89104
| 11> H          4.62951        0.62800       -2.39748
| 12> H          2.89665        0.48102       -2.22825
| 13> H          3.92053       -0.91187       -1.97413
| 14> *
| 15>
| 16> %MaxCore 64000
| 17> %pal nprocs 4
| 18> end
| 19>
| 20> %scf
| 21>   MaxIter 150
| 22> end
| 23>
| 24>
| 25>                          ****END OF INPUT****

CARTESIAN COORDINATES (ANGSTROEM)
---------------------------------
  C      3.956430    0.501470   -0.379100
  H      3.168400    0.029200    0.207380
  N      3.803890    1.961570   -0.156750
  C      3.842320    0.148490   -1.854060
  H      4.923230    0.177980    0.009370
  H      4.206430    2.244410    0.745360
  H      2.808270    2.211320   -0.096100
  H      4.280760    2.501550   -0.891040
  H      4.629510    0.628000   -2.397480
  H      2.896650    0.481020   -2.228250
  H      3.920530   -0.911870   -1.974130

 Total Charge           Charge          ....    1
 Multiplicity           Mult            ....    1
 Number of Electrons    NEL             ....   26
 Basis Dimension        Dim             ....  141

ORBITAL ENERGIES
----------------

  NO   OCC          E(Eh)            E(eV)
   0   2.0000     -14.339322      -390.1928
   1   2.0000     -10.157203      -276.3915
   2   2.0000     -10.079417      -274.2749
   3   2.0000      -1.131064       -30.7778
   4   2.0000      -0.891025       -24.2460
   5   2.0000      -0.779925       -21.2228
   6   2.0000      -0.748245       -20.3608
   7   2.0000      -0.730594       -19.8805
   8   2.0000      -0.646285       -17.5863
   9   2.0000      -0.592934       -16.1346
  10   2.0000      -0.536693       -14.6041
  11   2.0000      -0.523427       -14.2432
  12   2.0000      -0.506736       -13.7890
  13   0.0000      -0.222580        -6.0567
  14   0.0000      -0.166253        -4.5240
  15   0.0000      -0.159439        -4.3385
  16   0.0000      -0.138071        -3.7571
  17   0.0000      -0.099086        -2.6963

MULLIKEN ATOMIC CHARGES
-----------------------
   0 C :   -0.164395
   1 H :    0.174018
   2 N :   -0.245248
   3 C :   -0.314287
   4 H :    0.176259
   5 H :    0.313227
   6 H :    0.313325
   7 H :    0.307669
   8 H :    0.138661
   9 H :    0.133761
  10 H :    0.167008
Sum of atomic charges:    1.0000000

LOEWDIN ATOMIC CHARGES
----------------------
   0 C :   -0.274616
   1 H :    0.150167
   2 N :    0.179451
   3 C :   -0.269389
   4 H :    0.151267
   5 H :    0.219592
   6 H :    0.221334
   7 H :    0.218608
   8 H :    0.128743
   9 H :    0.128313
  10 H :    0.146531

  Mayer bond orders larger than 0.100000
B(  0-C ,  1-H ) :   0.9539 B(  0-C ,  2-N ) :   0.8487 B(  0-C ,  3-C ) :   0.9748
B(  0-C ,  4-H ) :   0.9518 B(  2-N ,  5-H ) :   0.8872 B(  2-N ,  6-H ) :   0.8867
B(  2-N ,  7-H ) :   0.8799 B(  3-C ,  8-H ) :   0.9576 B(  3-C ,  9-H ) :   0.9589
B(  3-C , 10-H ) :   0.9585

Dispersion correction           -0.012450835
FINAL SINGLE POINT ENERGY      -135.518391112323

DIPOLE MOMENT
-------------
                                X             Y             Z
Electronic contribution:     -0.01165       1.32809       1.24597
Nuclear contribution   :     -0.06214      -0.04120      -0.39947
                        -----------------------------------------
Total Dipole Moment    :     -0.07379       1.28688       0.84650
                        -----------------------------------------
Magnitude (a.u.)       :      1.54210
Magnitude (Debye)      :      3.91971

Rotational constants in cm-1:     1.011771     0.281435     0.249812
Rotational constants in MHz : 30332.138762  8437.210602  7489.166323

                             ****ORCA TERMINATED NORMALLY****
TOTAL RUN TIME: 0 days 0 hours 0 minutes 7 seconds 662 msec
