                         Program Version 5.0.0 -  RELEASE  -
|  1> !BLYP D3BJ RIJCOSX def2-TZVP def2/J TightSCF xyzfile
|  2>
|  3> *xyzfile 0 1 B.xyz
|  4>
|  5> %MaxCore 64000
|  6>
|  7> %pal nprocs 18
|  8> end
|  9>
| 10> %scf
| 11>   MaxIter 150
| 12> end
| 13>
| 14>
| 15>                          ****END OF INPUT****

CARTESIAN COORDINATES (ANGSTROEM)
---------------------------------
  C      3.956426    0.501466   -0.379100
  H      3.168398    0.029201    0.207383
  N      3.803893    1.961572   -0.156747
  C      3.842322    0.148490   -1.854058
  H      4.923231    0.177982    0.009371
  H      4.620021    0.694502   -2.402150
  H      4.096015   -0.910930   -1.955103
  C      2.475619    0.412708   -2.485377
  H      2.174689    1.445076   -2.287971
  C      1.383931   -0.532740   -1.995203
  H      2.575613    0.318574   -3.571460
  H      1.264698   -0.412309   -0.915491
  H      1.705223   -1.566885   -2.164984
  C      0.031398   -0.317260   -2.677791
  C     -0.587292    1.060853   -2.436460
  H     -0.662815   -1.089530   -2.329985
  H      0.149465   -0.478040   -3.755648
  H      0.104376    1.828590   -2.793130
  C     -0.951213    1.334978   -0.972500
  H     -1.478832    1.161355   -3.062484
  H     -0.317007    0.741648   -0.311389
  H     -1.980916    1.012842   -0.788958
  C     -0.774550    2.788332   -0.543943
  H     -1.352609    3.459372   -1.192585
  H     -1.171014    2.902331    0.469968
  C      0.697208    3.227911   -0.525126
  O      1.489294    2.374703    0.199189
  H      0.715998    4.264030   -0.130774
  H      1.036148    3.330920   -1.583669
  H      4.206425    2.244406    0.745359
  H      2.808269    2.211323   -0.096097
  H      4.280757    2.501552   -0.891037

 Total Charge           Charge          ....    0
 Multiplicity           Mult            ....    1
 Number of Electrons    NEL             ....   90
 Basis Dimension        Dim             ....  467

ORBITAL ENERGIES
----------------

  NO   OCC          E(Eh)            E(eV)
   0   2.0000     -18.642252      -507.2815
   1   2.0000     -14.084396      -383.2559
   2   2.0000      -9.969999      -271.2975
   3   2.0000      -9.926584      -270.1161
   4   2.0000      -9.900623      -269.4096
   5   2.0000      -9.888363      -269.0760
   6   2.0000      -9.885035      -268.9855
   7   2.0000      -9.882609      -268.9195
   8   2.0000      -9.869970      -268.5755
   9   2.0000      -9.857296      -268.2307
  10   2.0000      -9.850286      -268.0399
  11   2.0000      -0.902316       -24.5533
  12   2.0000      -0.798424       -21.7262
  13   2.0000      -0.736256       -20.0346
  14   2.0000      -0.698416       -19.0049
  15   2.0000      -0.662618       -18.0307
  16   2.0000      -0.624411       -16.9911
  17   2.0000      -0.589099       -16.0302
  18   2.0000      -0.554466       -15.0878
  19   2.0000      -0.527848       -14.3635
  20   2.0000      -0.515208       -14.0195
  21   2.0000      -0.507417       -13.8075
  22   2.0000      -0.484084       -13.1726
  23   2.0000      -0.449597       -12.2342
  24   2.0000      -0.439408       -11.9569
  25   2.0000      -0.413494       -11.2517
  26   2.0000      -0.412941       -11.2367
  27   2.0000      -0.383878       -10.4459
  28   2.0000      -0.372137       -10.1264
  29   2.0000      -0.366182        -9.9643
  30   2.0000      -0.351963        -9.5774
  31   2.0000      -0.341316        -9.2877
  32   2.0000      -0.333171        -9.0660
  33   2.0000      -0.317048        -8.6273
  34   2.0000      -0.308278        -8.3887
  35   2.0000      -0.297102        -8.0846
  36   2.0000      -0.287910        -7.8344
  37   2.0000      -0.280893        -7.6435
  38   2.0000      -0.270520        -7.3612
  39   2.0000      -0.264426        -7.1954
  40   2.0000      -0.245951        -6.6927
  41   2.0000      -0.240198        -6.5361
  42   2.0000      -0.237498        -6.4626
  43   2.0000      -0.136320        -3.7094
  44   2.0000      -0.126872        -3.4524
  45   0.0000      -0.031794        -0.8652
  46   0.0000       0.009477         0.2579
  47   0.0000       0.016570         0.4509
  48   0.0000       0.032464         0.8834
  49   0.0000       0.042502         1.1565

MULLIKEN ATOMIC CHARGES
-----------------------
   0 C :   -0.122532
   1 H :    0.140167
   2 N :   -0.242861
   3 C :   -0.172542
   4 H :    0.112260
   5 H :    0.092446
   6 H :    0.088960
   7 C :   -0.161579
   8 H :    0.095239
   9 C :   -0.157472
  10 H :    0.070087
  11 H :    0.094333
  12 H :    0.058924
  13 C :   -0.102916
  14 C :   -0.183468
  15 H :    0.064433
  16 H :    0.061095
  17 H :    0.079620
  18 C :   -0.083145
  19 H :    0.060863
  20 H :    0.059911
  21 H :    0.052804
  22 C :   -0.047962
  23 H :    0.026336
  24 H :    0.041279
  25 C :    0.009754
  26 O :   -0.681565
  27 H :    0.013155
  28 H :   -0.010578
  29 H :    0.239952
  30 H :    0.276494
  31 H :    0.228506
Sum of atomic charges:    0.0000000

LOEWDIN ATOMIC CHARGES
----------------------
   0 C :   -0.274167
   1 H :    0.143483
   2 N :    0.147142
   3 C :   -0.267810
   4 H :    0.126179
   5 H :    0.131874
   6 H :    0.143427
   7 C :   -0.261356
   8 H :    0.138869
   9 C :   -0.264158
  10 H :    0.133983
  11 H :    0.133105
  12 H :    0.128134
  13 C :   -0.262315
  14 C :   -0.259591
  15 H :    0.132139
  16 H :    0.127981
  17 H :    0.127911
  18 C :   -0.267413
  19 H :    0.127330
  20 H :    0.132981
  21 H :    0.123332
  22 C :   -0.276941
  23 H :    0.120378
  24 H :    0.125536
  25 C :   -0.472268
  26 O :   -0.251628
  27 H :    0.090840
  28 H :    0.075866
  29 H :    0.186795
  30 H :    0.079561
  31 H :    0.180799

  Mayer bond orders larger than 0.100000
B(  0-C ,  1-H ) :   0.9680 B(  0-C ,  2-N ) :   0.8778 B(  0-C ,  3-C ) :   0.9814
B(  0-C ,  4-H ) :   0.9610 B(  2-N , 29-H ) :   0.9185 B(  2-N , 30-H ) :   0.6449
B(  2-N , 31-H ) :   0.9097 B(  3-C ,  5-H ) :   0.9723 B(  3-C ,  6-H ) :   0.9568
B(  3-C ,  7-C ) :   0.9520 B(  7-C ,  8-H ) :   0.9730 B(  7-C ,  9-C ) :   0.9520
B(  7-C , 10-H ) :   0.9556 B(  9-C , 11-H ) :   0.9653 B(  9-C , 12-H ) :   0.9507
B(  9-C , 13-C ) :   0.9920 B( 13-C , 14-C ) :   0.9597 B( 13-C , 15-H ) :   0.9563
B( 13-C , 16-H ) :   0.9617 B( 14-C , 17-H ) :   0.9823 B( 14-C , 18-C ) :   0.9568
B( 14-C , 19-H ) :   0.9544 B( 18-C , 20-H ) :   0.9520 B( 18-C , 21-H ) :   0.9554
B( 18-C , 22-C ) :   0.9914 B( 22-C , 23-H ) :   0.9414 B( 22-C , 24-H ) :   0.9446
B( 22-C , 25-C ) :   0.9558 B( 22-C , 26-O ) :  -0.1103 B( 25-C , 26-O ) :   1.2296
B( 25-C , 27-H ) :   0.9381 B( 25-C , 28-H ) :   0.9343 B( 26-O , 30-H ) :   0.4060

Dispersion correction           -0.065636211
FINAL SINGLE POINT ENERGY      -485.512756863552

DIPOLE MOMENT
-------------
                                X             Y             Z
Electronic contribution:      2.11036       0.89547       2.64198
Nuclear contribution   :      0.61785      -1.47632      -2.91844
                        -----------------------------------------
Total Dipole Moment    :      2.72821      -0.58086      -0.27646
                        -----------------------------------------
Magnitude (a.u.)       :      2.80303
Magnitude (Debye)      :      7.12473

Rotational constants in cm-1:     0.040993     0.027400     0.018162
Rotational constants in MHz :  1228.944366   821.418004   544.476857

                             ****ORCA TERMINATED NORMALLY****
TOTAL RUN TIME: 0 days 0 hours 0 minutes 21 seconds 152 msec
