                         Program Version 5.0.0 -  RELEASE  -
|  1> !BLYP D3BJ RIJCOSX def2-TZVP def2/J TightSCF
|  2> *xyz 0 1
|  3> C         -0.77455        2.78833       -0.54394
|  4> C          0.69721        3.22791       -0.52513
|  5> F          1.48929        2.37470        0.19919
|  6> H          0.71600        4.26403       -0.13077
|  7> H          1.03615        3.33092       -1.58367
|  8> H         -1.34746        3.48478       -1.11982
|  9> H         -1.15078        2.75876        0.45729
| 10> H         -0.85058        1.81526       -0.98241
| 11> *
| 12>
| 13> %MaxCore 64000
| 14> %pal nprocs 4
| 15> end
| 16>
| 17> %scf
| 18>   MaxIter 150
| 19> end
| 20>
| 21>
| 22>                          ****END OF INPUT****

CARTESIAN COORDINATES (ANGSTROEM)
---------------------------------
  C     -0.774550    2.788330   -0.543940
  C      0.697210    3.227910   -0.525130
  F      1.489290    2.374700    0.199190
  H      0.716000    4.264030   -0.130770
  H      1.036150    3.330920   -1.583670
  H     -1.347460    3.484780   -1.119820
  H     -1.150780    2.758760    0.457290
  H     -0.850580    1.815260   -0.982410

 Total Charge           Charge          ....    0
 Multiplicity           Mult            ....    1
 Number of Electrons    NEL             ....   26
 Basis Dimension        Dim             ....  123

ORBITAL ENERGIES
----------------

  NO   OCC          E(Eh)            E(eV)
   0   2.0000     -24.269310      -660.4015
   1   2.0000      -9.980518      -271.5837
   2   2.0000      -9.898408      -269.3494
   3   2.0000      -1.089316       -29.6418
   4   2.0000      -0.686260       -18.6741
   5   2.0000      -0.562596       -15.3090
   6   2.0000      -0.450060       -12.2467
   7   2.0000      -0.434282       -11.8174
   8   2.0000      -0.397569       -10.8184
   9   2.0000      -0.352442        -9.5904
  10   2.0000      -0.350372        -9.5341
  11   2.0000      -0.284114        -7.7311
  12   2.0000      -0.279766        -7.6128
  13   0.0000       0.020475         0.5572
  14   0.0000       0.057685         1.5697
  15   0.0000       0.066486         1.8092
  16   0.0000       0.074412         2.0249
  17   0.0000       0.089420         2.4332

MULLIKEN ATOMIC CHARGES
-----------------------
   0 C :   -0.277901
   1 C :    0.063374
   2 F :   -0.229256
   3 H :    0.074202
   4 H :    0.073963
   5 H :    0.091149
   6 H :    0.102395
   7 H :    0.102073
Sum of atomic charges:   -0.0000000

LOEWDIN ATOMIC CHARGES
----------------------
   0 C :   -0.304809
   1 C :   -0.372501
   2 F :    0.105747
   3 H :    0.112404
   4 H :    0.113040
   5 H :    0.118721
   6 H :    0.113819
   7 H :    0.113580

  Mayer bond orders larger than 0.100000
B(  0-C ,  1-C ) :   0.9654 B(  0-C ,  5-H ) :   0.9532 B(  0-C ,  6-H ) :   0.9699
B(  0-C ,  7-H ) :   0.9700 B(  1-C ,  2-F ) :   1.0136 B(  1-C ,  3-H ) :   0.9625
B(  1-C ,  4-H ) :   0.9625

Dispersion correction           -0.007136014
FINAL SINGLE POINT ENERGY      -179.082058341312

DIPOLE MOMENT
-------------
                                X             Y             Z
Electronic contribution:      4.44852      -1.68559       2.02911
Nuclear contribution   :     -4.89513       2.05627      -2.36166
                        -----------------------------------------
Total Dipole Moment    :     -0.44662       0.37068      -0.33256
                        -----------------------------------------
Magnitude (a.u.)       :      0.66893
Magnitude (Debye)      :      1.70029

Rotational constants in cm-1:     1.247826     0.304622     0.269019
Rotational constants in MHz : 37408.889506  9132.346906  8064.979146

                             ****ORCA TERMINATED NORMALLY****
TOTAL RUN TIME: 0 days 0 hours 0 minutes 7 seconds 222 msec
