                         Program Version 5.0.0 -  RELEASE  -
|  1> !LC-PBE RIJCOSX def2-SVP def2/J TightSCF
|  2> *xyz -1 1
|  3> C         -0.10608        1.76991       -4.08984
|  4> C         -0.25875        1.00432       -5.40983
|  5> C          0.39596       -0.37070       -5.33994
|  6> H          0.23915        1.56939       -6.20125
|  7> H         -1.30936        0.88869       -5.68245
|  8> O         -0.32633       -1.39040       -5.49128
|  9> O          1.61941       -0.40073       -5.03683
| 10> H         -0.57627        2.72718       -4.17630
| 11> H          0.93321        1.90140       -3.87192
| 12> H         -0.56868        1.21534       -3.30031
| 13> *
| 14> %MaxCore 64000
| 15>
| 16> %pal nprocs 4
| 17> end
| 18>
| 19> %scf
| 20>   MaxIter 150
| 21> end
| 22>
| 23>
| 24>                          ****END OF INPUT****

CARTESIAN COORDINATES (ANGSTROEM)
---------------------------------
  C     -0.106080    1.769910   -4.089840
  C     -0.258750    1.004320   -5.409830
  C      0.395960   -0.370700   -5.339940
  H      0.239150    1.569390   -6.201250
  H     -1.309360    0.888690   -5.682450
  O     -0.326330   -1.390400   -5.491280
  O      1.619410   -0.400730   -5.036830
  H     -0.576270    2.727180   -4.176300
  H      0.933210    1.901400   -3.871920
  H     -0.568680    1.215340   -3.300310

 Total Charge           Charge          ....   -1
 Multiplicity           Mult            ....    1
 Number of Electrons    NEL             ....   40
 Basis Dimension        Dim             ....   95

ORBITAL ENERGIES
----------------

  NO   OCC          E(Eh)            E(eV)
   0   2.0000     -18.684474      -508.4304
   1   2.0000     -18.683530      -508.4047
   2   2.0000      -9.984907      -271.7031
   3   2.0000      -9.957361      -270.9536
   4   2.0000      -9.938884      -270.4508
   5   2.0000      -0.944214       -25.6934
   6   2.0000      -0.838359       -22.8129
   7   2.0000      -0.766163       -20.8484
   8   2.0000      -0.622334       -16.9346
   9   2.0000      -0.453723       -12.3464
  10   2.0000      -0.428573       -11.6621
  11   2.0000      -0.381575       -10.3832
  12   2.0000      -0.354687        -9.6515
  13   2.0000      -0.335343        -9.1252
  14   2.0000      -0.326303        -8.8792
  15   2.0000      -0.289129        -7.8676
  16   2.0000      -0.278144        -7.5687
  17   2.0000      -0.143082        -3.8935
  18   2.0000      -0.140663        -3.8276
  19   2.0000      -0.127704        -3.4750
  20   0.0000       0.306350         8.3362
  21   0.0000       0.358668         9.7599
  22   0.0000       0.371452        10.1077
  23   0.0000       0.373965        10.1761
  24   0.0000       0.383479        10.4350

MULLIKEN ATOMIC CHARGES
-----------------------
   0 C :   -0.123852
   1 C :   -0.120829
   2 C :    0.008552
   3 H :    0.015388
   4 H :    0.005886
   5 O :   -0.427967
   6 O :   -0.442861
   7 H :    0.000666
   8 H :    0.048236
   9 H :    0.036782
Sum of atomic charges:   -1.0000000

LOEWDIN ATOMIC CHARGES
----------------------
   0 C :   -0.094797
   1 C :   -0.117863
   2 C :   -0.058297
   3 H :    0.018683
   4 H :    0.011341
   5 O :   -0.402582
   6 O :   -0.412739
   7 H :    0.005735
   8 H :    0.026545
   9 H :    0.023975

  Mayer bond orders larger than 0.100000
B(  0-C ,  1-C ) :   1.0721 B(  0-C ,  7-H ) :   0.9778 B(  0-C ,  8-H ) :   0.9675
B(  0-C ,  9-H ) :   0.9784 B(  1-C ,  2-C ) :   0.9175 B(  1-C ,  3-H ) :   0.9534
B(  1-C ,  4-H ) :   0.9560 B(  2-C ,  5-O ) :   1.8979 B(  2-C ,  6-O ) :   1.8464
B(  5-O ,  6-O ) :   0.1057

FINAL SINGLE POINT ENERGY      -266.831982004996

DIPOLE MOMENT
-------------
                                X             Y             Z
Electronic contribution:      1.76606      -5.38017      -1.70344
Nuclear contribution   :     -2.46071       7.20791       1.95694
                        -----------------------------------------
Total Dipole Moment    :     -0.69465       1.82774       0.25349
                        -----------------------------------------
Magnitude (a.u.)       :      1.97166
Magnitude (Debye)      :      5.01156

Rotational constants in cm-1:     0.309435     0.135317     0.107436
Rotational constants in MHz :  9276.637721  4056.700783  3220.846587

                             ****ORCA TERMINATED NORMALLY****
TOTAL RUN TIME: 0 days 0 hours 0 minutes 11 seconds 835 msec
