                         Program Version 5.0.0 -  RELEASE  -
|  1> !LC-PBE RIJCOSX def2-SVP def2/J TightSCF
|  2> *xyz 1 1
|  3> C          0.81607       -2.10149       -2.18655
|  4> H          1.69623       -2.36869       -1.60046
|  5> N          1.10055       -2.46749       -3.59927
|  6> C          0.51624       -0.61363       -2.03937
|  7> H         -0.02007       -2.71285       -1.84084
|  8> H          1.70061       -1.75723       -4.07838
|  9> H          0.29386       -2.35977       -4.25632
| 10> H          1.50132       -3.42848       -3.69491
| 11> H         -0.34841       -0.36504       -2.61858
| 12> H          1.35358       -0.04503       -2.38643
| 13> H          0.33317       -0.38682       -1.00984
| 14> *
| 15> %MaxCore 64000
| 16>
| 17> %pal nprocs 4
| 18> end
| 19>
| 20> %scf
| 21>   MaxIter 150
| 22> end
| 23>
| 24>
| 25>                          ****END OF INPUT****

CARTESIAN COORDINATES (ANGSTROEM)
---------------------------------
  C      0.816070   -2.101490   -2.186550
  H      1.696230   -2.368690   -1.600460
  N      1.100550   -2.467490   -3.599270
  C      0.516240   -0.613630   -2.039370
  H     -0.020070   -2.712850   -1.840840
  H      1.700610   -1.757230   -4.078380
  H      0.293860   -2.359770   -4.256320
  H      1.501320   -3.428480   -3.694910
  H     -0.348410   -0.365040   -2.618580
  H      1.353580   -0.045030   -2.386430
  H      0.333170   -0.386820   -1.009840

 Total Charge           Charge          ....    1
 Multiplicity           Mult            ....    1
 Number of Electrons    NEL             ....   26
 Basis Dimension        Dim             ....   82

ORBITAL ENERGIES
----------------

  NO   OCC          E(Eh)            E(eV)
   0   2.0000     -14.569856      -396.4659
   1   2.0000     -10.380469      -282.4669
   2   2.0000     -10.300504      -280.2910
   3   2.0000      -1.378729       -37.5171
   4   2.0000      -1.134547       -30.8726
   5   2.0000      -1.009428       -27.4679
   6   2.0000      -0.938901       -25.5488
   7   2.0000      -0.923617       -25.1329
   8   2.0000      -0.846708       -23.0401
   9   2.0000      -0.779212       -21.2034
  10   2.0000      -0.718405       -19.5488
  11   2.0000      -0.701959       -19.1013
  12   2.0000      -0.680202       -18.5092
  13   0.0000      -0.088988        -2.4215
  14   0.0000      -0.029889        -0.8133
  15   0.0000      -0.025923        -0.7054
  16   0.0000       0.003793         0.1032
  17   0.0000       0.048475         1.3191

MULLIKEN ATOMIC CHARGES
-----------------------
   0 C :   -0.117486
   1 H :    0.150241
   2 N :   -0.106891
   3 C :   -0.178600
   4 H :    0.153308
   5 H :    0.240633
   6 H :    0.243169
   7 H :    0.263625
   8 H :    0.104950
   9 H :    0.104244
  10 H :    0.142809
Sum of atomic charges:    1.0000000

LOEWDIN ATOMIC CHARGES
----------------------
   0 C :    0.022934
   1 H :    0.067881
   2 N :    0.251881
   3 C :   -0.078175
   4 H :    0.068596
   5 H :    0.160764
   6 H :    0.162210
   7 H :    0.166548
   8 H :    0.050958
   9 H :    0.050545
  10 H :    0.075858

  Mayer bond orders larger than 0.100000
B(  0-C ,  1-H ) :   0.9512 B(  0-C ,  2-N ) :   0.8986 B(  0-C ,  3-C ) :   1.0694
B(  0-C ,  4-H ) :   0.9503 B(  2-N ,  5-H ) :   0.9198 B(  2-N ,  6-H ) :   0.9190
B(  2-N ,  7-H ) :   0.9141 B(  3-C ,  8-H ) :   0.9713 B(  3-C ,  9-H ) :   0.9680
B(  3-C , 10-H ) :   0.9568

FINAL SINGLE POINT ENERGY      -134.981094111292

DIPOLE MOMENT
-------------
                                X             Y             Z
Electronic contribution:      0.43963      -1.47707      -1.14798
Nuclear contribution   :     -0.07506       0.54337      -0.16191
                        -----------------------------------------
Total Dipole Moment    :      0.36457      -0.93371      -1.30989
                        -----------------------------------------
Magnitude (a.u.)       :      1.64940
Magnitude (Debye)      :      4.19245

Rotational constants in cm-1:     0.999557     0.280801     0.246932
Rotational constants in MHz : 29965.963633  8418.199581  7402.841054

                             ****ORCA TERMINATED NORMALLY****
TOTAL RUN TIME: 0 days 0 hours 0 minutes 9 seconds 715 msec
