                         Program Version 5.0.0 -  RELEASE  -
|  1> !LC-PBE RIJCOSX def2-TZVP def2/J TightSCF xyzfile
|  2>
|  3> *xyzfile 0 1 B.xyz
|  4>
|  5> %MaxCore 64000
|  6>
|  7> %pal nprocs 18
|  8> end
|  9>
| 10> %scf
| 11>   MaxIter 150
| 12> end
| 13>
| 14>
| 15>                          ****END OF INPUT****

CARTESIAN COORDINATES (ANGSTROEM)
---------------------------------
  C      0.816067   -2.101491   -2.186546
  H      1.696232   -2.368691   -1.600457
  N      1.100552   -2.467492   -3.599269
  C      0.516243   -0.613634   -2.039373
  H     -0.020066   -2.712849   -1.840844
  C     -0.868621   -0.193925   -2.546303
  C     -0.984801    1.284739   -2.928686
  H     -0.764939    1.904116   -2.051568
  H     -2.032613    1.478953   -3.178952
  C     -0.106085    1.769914   -4.089836
  H     -0.347744    2.822196   -4.262942
  H      0.949683    1.745875   -3.808781
  C     -0.258747    1.004323   -5.409829
  C      0.395958   -0.370696   -5.339939
  H      0.239150    1.569393   -6.201253
  H     -1.309360    0.888694   -5.682455
  H      1.700606   -1.757225   -4.078378
  H      0.293855   -2.359766   -4.256324
  H      1.501324   -3.428479   -3.694915
  O     -0.326329   -1.390398   -5.491279
  O      1.619412   -0.400726   -5.036827
  H     -1.607271   -0.412651   -1.768955
  H     -1.157234   -0.796164   -3.409254
  H      1.299044   -0.056805   -2.558982
  H      0.612393   -0.365579   -0.979171

 Total Charge           Charge          ....    0
 Multiplicity           Mult            ....    1
 Number of Electrons    NEL             ....   80
 Basis Dimension        Dim             ....  400

ORBITAL ENERGIES
----------------

  NO   OCC          E(Eh)            E(eV)
   0   2.0000     -18.909501      -514.5537
   1   2.0000     -18.908008      -514.5130
   2   2.0000     -14.301868      -389.1736
   3   2.0000     -10.194677      -277.4113
   4   2.0000     -10.189386      -277.2673
   5   2.0000     -10.129580      -275.6399
   6   2.0000     -10.111396      -275.1451
   7   2.0000     -10.107158      -275.0297
   8   2.0000     -10.100590      -274.8510
   9   2.0000     -10.091164      -274.5945
  10   2.0000      -1.200806       -32.6756
  11   2.0000      -1.152185       -31.3525
  12   2.0000      -1.089083       -29.6354
  13   2.0000      -0.996971       -27.1290
  14   2.0000      -0.949473       -25.8365
  15   2.0000      -0.898573       -24.4514
  16   2.0000      -0.827736       -22.5238
  17   2.0000      -0.791822       -21.5466
  18   2.0000      -0.730801       -19.8861
  19   2.0000      -0.719358       -19.5747
  20   2.0000      -0.692647       -18.8479
  21   2.0000      -0.665690       -18.1144
  22   2.0000      -0.628734       -17.1087
  23   2.0000      -0.617751       -16.8099
  24   2.0000      -0.601875       -16.3778
  25   2.0000      -0.588896       -16.0247
  26   2.0000      -0.568687       -15.4748
  27   2.0000      -0.559683       -15.2298
  28   2.0000      -0.538840       -14.6626
  29   2.0000      -0.528371       -14.3777
  30   2.0000      -0.526732       -14.3331
  31   2.0000      -0.505377       -13.7520
  32   2.0000      -0.482843       -13.1388
  33   2.0000      -0.478881       -13.0310
  34   2.0000      -0.453069       -12.3286
  35   2.0000      -0.436367       -11.8742
  36   2.0000      -0.433414       -11.7938
  37   2.0000      -0.378727       -10.3057
  38   2.0000      -0.368244       -10.0204
  39   2.0000      -0.361988        -9.8502
  40   0.0000       0.083385         2.2690
  41   0.0000       0.118373         3.2211
  42   0.0000       0.131762         3.5854
  43   0.0000       0.142751         3.8845
  44   0.0000       0.144885         3.9425

MULLIKEN ATOMIC CHARGES
-----------------------
   0 C :   -0.212547
   1 H :    0.173940
   2 N :   -0.347883
   3 C :   -0.369099
   4 H :    0.176356
   5 C :   -0.361960
   6 C :   -0.276304
   7 H :    0.142449
   8 H :    0.153070
   9 C :   -0.350462
  10 H :    0.148916
  11 H :    0.180358
  12 C :   -0.217186
  13 C :    0.150679
  14 H :    0.151026
  15 H :    0.145000
  16 H :    0.325207
  17 H :    0.325635
  18 H :    0.292090
  19 O :   -0.476137
  20 O :   -0.485980
  21 H :    0.150663
  22 H :    0.205139
  23 H :    0.218234
  24 H :    0.158799
Sum of atomic charges:   -0.0000000

LOEWDIN ATOMIC CHARGES
----------------------
   0 C :   -0.296417
   1 H :    0.142827
   2 N :    0.108837
   3 C :   -0.284820
   4 H :    0.144875
   5 C :   -0.287122
   6 C :   -0.284297
   7 H :    0.143815
   8 H :    0.147318
   9 C :   -0.285230
  10 H :    0.144518
  11 H :    0.147462
  12 C :   -0.249997
  13 C :   -0.649477
  14 H :    0.155040
  15 H :    0.148480
  16 H :    0.188682
  17 H :    0.189284
  18 H :    0.202764
  19 O :   -0.069419
  20 O :   -0.063056
  21 H :    0.143283
  22 H :    0.154189
  23 H :    0.158032
  24 H :    0.150429

  Mayer bond orders larger than 0.100000
B(  0-C ,  1-H ) :   0.9819 B(  0-C ,  2-N ) :   0.8974 B(  0-C ,  3-C ) :   0.9512
B(  0-C ,  4-H ) :   0.9753 B(  2-N , 16-H ) :   0.7613 B(  2-N , 17-H ) :   0.7719
B(  2-N , 18-H ) :   0.8985 B(  3-C ,  5-C ) :   0.8676 B(  3-C , 23-H ) :   0.9752
B(  3-C , 24-H ) :   0.9593 B(  5-C ,  6-C ) :   0.9342 B(  5-C , 21-H ) :   0.9684
B(  5-C , 22-H ) :   0.9780 B(  6-C ,  7-H ) :   0.9809 B(  6-C ,  8-H ) :   0.9820
B(  6-C ,  9-C ) :   0.9419 B(  9-C , 10-H ) :   0.9807 B(  9-C , 11-H ) :   0.9774
B(  9-C , 12-C ) :   0.9156 B( 12-C , 13-C ) :   0.9412 B( 12-C , 14-H ) :   0.9590
B( 12-C , 15-H ) :   0.9740 B( 13-C , 19-O ) :   1.7488 B( 13-C , 20-O ) :   1.7133
B( 16-H , 20-O ) :   0.1794 B( 17-H , 19-O ) :   0.1690

FINAL SINGLE POINT ENERGY      -479.678009539181

DIPOLE MOMENT
-------------
                                X             Y             Z
Electronic contribution:      2.29270      -3.10544      -6.22033
Nuclear contribution   :     -2.02598       1.95876       8.24116
                        -----------------------------------------
Total Dipole Moment    :      0.26672      -1.14667       2.02083
                        -----------------------------------------
Magnitude (a.u.)       :      2.33875
Magnitude (Debye)      :      5.94463

Rotational constants in cm-1:     0.052900     0.041948     0.028766
Rotational constants in MHz :  1585.892512  1257.572595   862.390225

                             ****ORCA TERMINATED NORMALLY****
TOTAL RUN TIME: 0 days 0 hours 0 minutes 42 seconds 603 msec
