                         Program Version 5.0.0 -  RELEASE  -
|  1> !LC-PBE RIJCOSX def2-SVP def2/J TightSCF
|  2> *xyz 0 1
|  3> C         -0.10608        1.76991       -4.08984
|  4> C         -0.25875        1.00432       -5.40983
|  5> C          0.39596       -0.37070       -5.33994
|  6> H          0.23915        1.56939       -6.20125
|  7> H         -1.30936        0.88869       -5.68245
|  8> F         -0.32633       -1.39040       -5.49128
|  9> O          1.61941       -0.40073       -5.03683
| 10> H         -0.57627        2.72718       -4.17630
| 11> H          0.93321        1.90140       -3.87192
| 12> H         -0.56868        1.21534       -3.30031
| 13> *
| 14> %MaxCore 64000
| 15>
| 16> %pal nprocs 4
| 17> end
| 18>
| 19> %scf
| 20>   MaxIter 150
| 21> end
| 22>
| 23>
| 24>                          ****END OF INPUT****

CARTESIAN COORDINATES (ANGSTROEM)
---------------------------------
  C     -0.106080    1.769910   -4.089840
  C     -0.258750    1.004320   -5.409830
  C      0.395960   -0.370700   -5.339940
  H      0.239150    1.569390   -6.201250
  H     -1.309360    0.888690   -5.682450
  F     -0.326330   -1.390400   -5.491280
  O      1.619410   -0.400730   -5.036830
  H     -0.576270    2.727180   -4.176300
  H      0.933210    1.901400   -3.871920
  H     -0.568680    1.215340   -3.300310

 Total Charge           Charge          ....    0
 Multiplicity           Mult            ....    1
 Number of Electrons    NEL             ....   40
 Basis Dimension        Dim             ....   95

ORBITAL ENERGIES
----------------

  NO   OCC          E(Eh)            E(eV)
   0   2.0000     -24.563719      -668.4128
   1   2.0000     -18.987364      -516.6725
   2   2.0000     -10.305794      -280.4349
   3   2.0000     -10.157691      -276.4048
   4   2.0000     -10.131285      -275.6863
   5   2.0000      -1.453755       -39.5587
   6   2.0000      -1.179992       -32.1092
   7   2.0000      -0.972402       -26.4604
   8   2.0000      -0.844957       -22.9924
   9   2.0000      -0.788382       -21.4530
  10   2.0000      -0.700006       -19.0481
  11   2.0000      -0.683015       -18.5858
  12   2.0000      -0.650787       -17.7088
  13   2.0000      -0.608783       -16.5658
  14   2.0000      -0.571726       -15.5575
  15   2.0000      -0.535423       -14.5696
  16   2.0000      -0.510707       -13.8970
  17   2.0000      -0.505498       -13.7553
  18   2.0000      -0.474425       -12.9098
  19   2.0000      -0.423165       -11.5149
  20   0.0000       0.076193         2.0733
  21   0.0000       0.153802         4.1852
  22   0.0000       0.198913         5.4127
  23   0.0000       0.202032         5.4976
  24   0.0000       0.222832         6.0636

MULLIKEN ATOMIC CHARGES
-----------------------
   0 C :   -0.137468
   1 C :   -0.201185
   2 C :    0.221302
   3 H :    0.113057
   4 H :    0.080491
   5 F :   -0.058109
   6 O :   -0.257070
   7 H :    0.074375
   8 H :    0.093142
   9 H :    0.071464
Sum of atomic charges:   -0.0000000

LOEWDIN ATOMIC CHARGES
----------------------
   0 C :   -0.072308
   1 C :   -0.100545
   2 C :    0.097743
   3 H :    0.064096
   4 H :    0.041614
   5 F :    0.049926
   6 O :   -0.203747
   7 H :    0.040043
   8 H :    0.045025
   9 H :    0.038153

  Mayer bond orders larger than 0.100000
B(  0-C ,  1-C ) :   1.0658 B(  0-C ,  7-H ) :   0.9752 B(  0-C ,  8-H ) :   0.9696
B(  0-C ,  9-H ) :   0.9791 B(  1-C ,  2-C ) :   0.9825 B(  1-C ,  3-H ) :   0.9399
B(  1-C ,  4-H ) :   0.9494 B(  2-C ,  5-F ) :   1.2306 B(  2-C ,  6-O ) :   2.0870

FINAL SINGLE POINT ENERGY      -291.358068107971

DIPOLE MOMENT
-------------
                                X             Y             Z
Electronic contribution:      0.85943      -8.20594      -2.58241
Nuclear contribution   :     -1.80992       8.85192       2.42184
                        -----------------------------------------
Total Dipole Moment    :     -0.95049       0.64598      -0.16057
                        -----------------------------------------
Magnitude (a.u.)       :      1.16039
Magnitude (Debye)      :      2.94948

Rotational constants in cm-1:     0.298360     0.128849     0.102271
Rotational constants in MHz :  8944.606599  3862.796179  3066.020510

                             ****ORCA TERMINATED NORMALLY****
TOTAL RUN TIME: 0 days 0 hours 0 minutes 11 seconds 996 msec
