                         Program Version 5.0.0 -  RELEASE  -
|  1> !LC-PBE RIJCOSX def2-SVP def2/J TightSCF
|  2> *xyz 0 1
|  3> C          0.81607       -2.10149       -2.18655
|  4> H          1.69623       -2.36869       -1.60046
|  5> C          1.10055       -2.46749       -3.59927
|  6> C          0.51624       -0.61363       -2.03937
|  7> H         -0.02007       -2.71285       -1.84084
|  8> H          1.70061       -1.75723       -4.07838
|  9> H          0.29386       -2.35977       -4.25632
| 10> H          1.50132       -3.42848       -3.69491
| 11> H         -0.34841       -0.36504       -2.61858
| 12> H          1.35358       -0.04503       -2.38643
| 13> H          0.33317       -0.38682       -1.00984
| 14> *
| 15> %MaxCore 64000
| 16>
| 17> %pal nprocs 4
| 18> end
| 19>
| 20> %scf
| 21>   MaxIter 150
| 22> end
| 23>
| 24>
| 25>                          ****END OF INPUT****

CARTESIAN COORDINATES (ANGSTROEM)
---------------------------------
  C      0.816070   -2.101490   -2.186550
  H      1.696230   -2.368690   -1.600460
  C      1.100550   -2.467490   -3.599270
  C      0.516240   -0.613630   -2.039370
  H     -0.020070   -2.712850   -1.840840
  H      1.700610   -1.757230   -4.078380
  H      0.293860   -2.359770   -4.256320
  H      1.501320   -3.428480   -3.694910
  H     -0.348410   -0.365040   -2.618580
  H      1.353580   -0.045030   -2.386430
  H      0.333170   -0.386820   -1.009840

 Total Charge           Charge          ....    0
 Multiplicity           Mult            ....    1
 Number of Electrons    NEL             ....   26
 Basis Dimension        Dim             ....   82

ORBITAL ENERGIES
----------------

  NO   OCC          E(Eh)            E(eV)
   0   2.0000     -10.113669      -275.2069
   1   2.0000     -10.104113      -274.9469
   2   2.0000     -10.091726      -274.6098
   3   2.0000      -0.962860       -26.2008
   4   2.0000      -0.850821       -23.1520
   5   2.0000      -0.743391       -20.2287
   6   2.0000      -0.606667       -16.5082
   7   2.0000      -0.589753       -16.0480
   8   2.0000      -0.551226       -14.9996
   9   2.0000      -0.510065       -13.8796
  10   2.0000      -0.470666       -12.8075
  11   2.0000      -0.466910       -12.7053
  12   2.0000      -0.445843       -12.1320
  13   0.0000       0.155878         4.2416
  14   0.0000       0.205148         5.5824
  15   0.0000       0.207928         5.6580
  16   0.0000       0.208531         5.6744
  17   0.0000       0.241488         6.5712

MULLIKEN ATOMIC CHARGES
-----------------------
   0 C :   -0.176227
   1 H :    0.060362
   2 C :   -0.100435
   3 C :   -0.137805
   4 H :    0.061961
   5 H :    0.030052
   6 H :    0.034174
   7 H :    0.054392
   8 H :    0.056529
   9 H :    0.057367
  10 H :    0.059629
Sum of atomic charges:   -0.0000000

LOEWDIN ATOMIC CHARGES
----------------------
   0 C :   -0.069401
   1 H :    0.033278
   2 C :   -0.092538
   3 C :   -0.088121
   4 H :    0.033295
   5 H :    0.028330
   6 H :    0.028638
   7 H :    0.029713
   8 H :    0.031859
   9 H :    0.031943
  10 H :    0.033004

  Mayer bond orders larger than 0.100000
B(  0-C ,  1-H ) :   0.9669 B(  0-C ,  2-C ) :   1.0725 B(  0-C ,  3-C ) :   1.0722
B(  0-C ,  4-H ) :   0.9653 B(  2-C ,  5-H ) :   0.9729 B(  2-C ,  6-H ) :   0.9710
B(  2-C ,  7-H ) :   0.9755 B(  3-C ,  8-H ) :   0.9798 B(  3-C ,  9-H ) :   0.9775
B(  3-C , 10-H ) :   0.9772

FINAL SINGLE POINT ENERGY      -118.610804992326

DIPOLE MOMENT
-------------
                                X             Y             Z
Electronic contribution:     -0.01864      -0.29542       0.45240
Nuclear contribution   :      0.01737       0.30387      -0.47422
                        -----------------------------------------
Total Dipole Moment    :     -0.00127       0.00846      -0.02181
                        -----------------------------------------
Magnitude (a.u.)       :      0.02343
Magnitude (Debye)      :      0.05955

Rotational constants in cm-1:     1.006891     0.295208     0.258491
Rotational constants in MHz : 30185.831813  8850.104914  7749.351732

                             ****ORCA TERMINATED NORMALLY****
TOTAL RUN TIME: 0 days 0 hours 0 minutes 9 seconds 267 msec
