                         Program Version 5.0.0 -  RELEASE  -
|  1> !LC-PBE RIJCOSX def2-SVP def2/J TightSCF
|  2> *xyz 0 1
|  3> C         -0.10608        1.76991       -4.08984
|  4> C         -0.25875        1.00432       -5.40983
|  5> C          0.39596       -0.37070       -5.33994
|  6> H          0.23915        1.56939       -6.20125
|  7> H         -1.30936        0.88869       -5.68245
|  8> O         -0.32633       -1.39040       -5.49128
|  9> F          1.61941       -0.40073       -5.03683
| 10> H         -0.57627        2.72718       -4.17630
| 11> H          0.93321        1.90140       -3.87192
| 12> H         -0.56868        1.21534       -3.30031
| 13> *
| 14> %MaxCore 64000
| 15>
| 16> %pal nprocs 4
| 17> end
| 18>
| 19> %scf
| 20>   MaxIter 150
| 21> end
| 22>
| 23>
| 24>                          ****END OF INPUT****

CARTESIAN COORDINATES (ANGSTROEM)
---------------------------------
  C     -0.106080    1.769910   -4.089840
  C     -0.258750    1.004320   -5.409830
  C      0.395960   -0.370700   -5.339940
  H      0.239150    1.569390   -6.201250
  H     -1.309360    0.888690   -5.682450
  O     -0.326330   -1.390400   -5.491280
  F      1.619410   -0.400730   -5.036830
  H     -0.576270    2.727180   -4.176300
  H      0.933210    1.901400   -3.871920
  H     -0.568680    1.215340   -3.300310

 Total Charge           Charge          ....    0
 Multiplicity           Mult            ....    1
 Number of Electrons    NEL             ....   40
 Basis Dimension        Dim             ....   95

ORBITAL ENERGIES
----------------

  NO   OCC          E(Eh)            E(eV)
   0   2.0000     -24.562848      -668.3891
   1   2.0000     -18.987799      -516.6843
   2   2.0000     -10.304803      -280.4079
   3   2.0000     -10.157162      -276.3904
   4   2.0000     -10.136507      -275.8284
   5   2.0000      -1.452539       -39.5256
   6   2.0000      -1.179484       -32.0954
   7   2.0000      -0.977447       -26.5977
   8   2.0000      -0.842051       -22.9134
   9   2.0000      -0.792019       -21.5519
  10   2.0000      -0.701530       -19.0896
  11   2.0000      -0.687156       -18.6985
  12   2.0000      -0.643138       -17.5007
  13   2.0000      -0.608286       -16.5523
  14   2.0000      -0.573534       -15.6066
  15   2.0000      -0.539164       -14.6714
  16   2.0000      -0.517275       -14.0758
  17   2.0000      -0.508795       -13.8450
  18   2.0000      -0.479324       -13.0431
  19   2.0000      -0.419621       -11.4185
  20   0.0000       0.080699         2.1959
  21   0.0000       0.149411         4.0657
  22   0.0000       0.195736         5.3263
  23   0.0000       0.203473         5.5368
  24   0.0000       0.224905         6.1200

MULLIKEN ATOMIC CHARGES
-----------------------
   0 C :   -0.158305
   1 C :   -0.194840
   2 C :    0.219881
   3 H :    0.096436
   4 H :    0.107044
   5 O :   -0.244923
   6 F :   -0.066211
   7 H :    0.080814
   8 H :    0.077588
   9 H :    0.082516
Sum of atomic charges:   -0.0000000

LOEWDIN ATOMIC CHARGES
----------------------
   0 C :   -0.080885
   1 C :   -0.096627
   2 C :    0.096110
   3 H :    0.053399
   4 H :    0.058135
   5 O :   -0.196784
   6 F :    0.045148
   7 H :    0.042853
   8 H :    0.037712
   9 H :    0.040939

  Mayer bond orders larger than 0.100000
B(  0-C ,  1-C ) :   1.0509 B(  0-C ,  7-H ) :   0.9743 B(  0-C ,  8-H ) :   0.9742
B(  0-C ,  9-H ) :   0.9770 B(  1-C ,  2-C ) :   0.9912 B(  1-C ,  3-H ) :   0.9410
B(  1-C ,  4-H ) :   0.9555 B(  2-C ,  5-O ) :   2.1184 B(  2-C ,  6-F ) :   1.2096

FINAL SINGLE POINT ENERGY      -291.359322324263

DIPOLE MOMENT
-------------
                                X             Y             Z
Electronic contribution:      4.08735      -6.54365      -1.81724
Nuclear contribution   :     -3.93139       7.77287       1.92635
                        -----------------------------------------
Total Dipole Moment    :      0.15596       1.22922       0.10911
                        -----------------------------------------
Magnitude (a.u.)       :      1.24387
Magnitude (Debye)      :      3.16166

Rotational constants in cm-1:     0.286068     0.133630     0.103472
Rotational constants in MHz :  8576.109806  4006.118234  3102.010802

                             ****ORCA TERMINATED NORMALLY****
TOTAL RUN TIME: 0 days 0 hours 0 minutes 11 seconds 683 msec
