                         Program Version 5.0.0 -  RELEASE  -
|  1> !LC-PBE RIJCOSX def2-TZVP def2/J TightSCF xyzfile
|  2>
|  3> *xyzfile 0 1 D1.xyz
|  4>
|  5> %MaxCore 64000
|  6>
|  7> %pal nprocs 18
|  8> end
|  9>
| 10> %scf
| 11>   MaxIter 150
| 12> end
| 13>
| 14>
| 15>                          ****END OF INPUT****

CARTESIAN COORDINATES (ANGSTROEM)
---------------------------------
  C      0.816067   -2.101491   -2.186546
  H      1.696232   -2.368691   -1.600457
  C      1.100552   -2.467492   -3.599269
  C      0.516243   -0.613634   -2.039373
  H     -0.020066   -2.712849   -1.840844
  C     -0.868621   -0.193925   -2.546303
  C     -0.984801    1.284739   -2.928686
  H     -0.764939    1.904116   -2.051568
  H     -2.032613    1.478953   -3.178952
  C     -0.106085    1.769914   -4.089836
  H     -0.347744    2.822196   -4.262942
  H      0.949683    1.745875   -3.808781
  C     -0.258747    1.004323   -5.409829
  C      0.395958   -0.370696   -5.339939
  H      0.239150    1.569393   -6.201253
  H     -1.309360    0.888694   -5.682455
  H      1.700606   -1.757225   -4.078378
  H      0.293855   -2.359766   -4.256324
  H      1.501324   -3.428479   -3.694915
  F     -0.326329   -1.390398   -5.491279
  O      1.619412   -0.400726   -5.036827
  H     -1.607271   -0.412651   -1.768955
  H     -1.157234   -0.796164   -3.409254
  H      1.299044   -0.056805   -2.558982
  H      0.612393   -0.365579   -0.979171

 Total Charge           Charge          ....    0
 Multiplicity           Mult            ....    1
 Number of Electrons    NEL             ....   80
 Basis Dimension        Dim             ....  400

ORBITAL ENERGIES
----------------

  NO   OCC          E(Eh)            E(eV)
   0   2.0000     -24.570173      -668.5884
   1   2.0000     -18.990745      -516.7645
   2   2.0000     -10.311481      -280.5897
   3   2.0000     -10.151870      -276.2464
   4   2.0000     -10.130770      -275.6723
   5   2.0000     -10.118490      -275.3381
   6   2.0000     -10.110662      -275.1251
   7   2.0000     -10.096452      -274.7384
   8   2.0000     -10.086728      -274.4738
   9   2.0000     -10.035421      -273.0777
  10   2.0000      -1.490893       -40.5693
  11   2.0000      -1.212782       -33.0015
  12   2.0000      -1.009715       -27.4758
  13   2.0000      -0.974671       -26.5222
  14   2.0000      -0.920968       -25.0608
  15   2.0000      -0.877847       -23.8874
  16   2.0000      -0.827855       -22.5271
  17   2.0000      -0.803299       -21.8589
  18   2.0000      -0.762523       -20.7493
  19   2.0000      -0.718190       -19.5430
  20   2.0000      -0.713664       -19.4198
  21   2.0000      -0.696740       -18.9593
  22   2.0000      -0.679231       -18.4828
  23   2.0000      -0.627416       -17.0729
  24   2.0000      -0.605088       -16.4653
  25   2.0000      -0.588898       -16.0247
  26   2.0000      -0.582717       -15.8565
  27   2.0000      -0.567206       -15.4345
  28   2.0000      -0.552997       -15.0478
  29   2.0000      -0.538652       -14.6575
  30   2.0000      -0.520149       -14.1540
  31   2.0000      -0.501580       -13.6487
  32   2.0000      -0.497772       -13.5451
  33   2.0000      -0.481146       -13.0927
  34   2.0000      -0.465774       -12.6744
  35   2.0000      -0.455475       -12.3941
  36   2.0000      -0.445506       -12.1228
  37   2.0000      -0.432212       -11.7611
  38   2.0000      -0.422475       -11.4961
  39   2.0000      -0.391653       -10.6574
  40   0.0000       0.054253         1.4763
  41   0.0000       0.112418         3.0591
  42   0.0000       0.138473         3.7680
  43   0.0000       0.145450         3.9579
  44   0.0000       0.147307         4.0084

MULLIKEN ATOMIC CHARGES
-----------------------
   0 C :   -0.184609
   1 H :    0.127774
   2 C :   -0.573700
   3 C :   -0.338052
   4 H :    0.121068
   5 C :   -0.356635
   6 C :   -0.272719
   7 H :    0.153403
   8 H :    0.153997
   9 C :   -0.359405
  10 H :    0.163093
  11 H :    0.198774
  12 C :   -0.260529
  13 C :    0.275483
  14 H :    0.186286
  15 H :    0.167035
  16 H :    0.214635
  17 H :    0.148398
  18 H :    0.143208
  19 F :   -0.061950
  20 O :   -0.299757
  21 H :    0.158060
  22 H :    0.167887
  23 H :    0.185698
  24 H :    0.142557
Sum of atomic charges:    0.0000000

LOEWDIN ATOMIC CHARGES
----------------------
   0 C :   -0.319940
   1 H :    0.142293
   2 C :   -0.358129
   3 C :   -0.284869
   4 H :    0.139384
   5 C :   -0.283596
   6 C :   -0.285582
   7 H :    0.149247
   8 H :    0.145117
   9 C :   -0.276044
  10 H :    0.149993
  11 H :    0.153881
  12 C :   -0.243914
  13 C :   -0.501193
  14 H :    0.168392
  15 H :    0.153137
  16 H :    0.121357
  17 H :    0.110880
  18 H :    0.112689
  19 F :    0.341620
  20 O :    0.083829
  21 H :    0.147312
  22 H :    0.144908
  23 H :    0.147715
  24 H :    0.141514

  Mayer bond orders larger than 0.100000
B(  0-C ,  1-H ) :   0.9811 B(  0-C ,  2-C ) :   0.9132 B(  0-C ,  3-C ) :   0.9482
B(  0-C ,  4-H ) :   0.9826 B(  2-C , 16-H ) :   0.9416 B(  2-C , 17-H ) :   0.9813
B(  2-C , 18-H ) :   0.9806 B(  3-C ,  5-C ) :   0.8755 B(  3-C , 23-H ) :   0.9935
B(  3-C , 24-H ) :   0.9708 B(  5-C ,  6-C ) :   0.9404 B(  5-C , 21-H ) :   0.9715
B(  5-C , 22-H ) :   0.9860 B(  6-C ,  7-H ) :   0.9776 B(  6-C ,  8-H ) :   0.9857
B(  6-C ,  9-C ) :   0.9372 B(  9-C , 10-H ) :   0.9760 B(  9-C , 11-H ) :   0.9695
B(  9-C , 12-C ) :   0.9087 B( 12-C , 13-C ) :   0.9735 B( 12-C , 14-H ) :   0.9524
B( 12-C , 15-H ) :   0.9600 B( 13-C , 19-F ) :   1.1815 B( 13-C , 20-O ) :   2.0085

FINAL SINGLE POINT ENERGY      -487.579435068174

DIPOLE MOMENT
-------------
                                X             Y             Z
Electronic contribution:      0.30665      -1.94344     -10.58339
Nuclear contribution   :     -1.21560       2.80077      10.24180
                        -----------------------------------------
Total Dipole Moment    :     -0.90896       0.85733      -0.34158
                        -----------------------------------------
Magnitude (a.u.)       :      1.29534
Magnitude (Debye)      :      3.29248

Rotational constants in cm-1:     0.051255     0.042531     0.028894
Rotational constants in MHz :  1536.587743  1275.050721   866.218876

                             ****ORCA TERMINATED NORMALLY****
TOTAL RUN TIME: 0 days 0 hours 0 minutes 46 seconds 447 msec
