                         Program Version 5.0.0 -  RELEASE  -
|  1> !LC-PBE RIJCOSX def2-TZVP def2/J TightSCF xyzfile
|  2>
|  3> *xyzfile 0 1 D2.xyz
|  4>
|  5> %MaxCore 64000
|  6>
|  7> %pal nprocs 18
|  8> end
|  9>
| 10> %scf
| 11>   MaxIter 150
| 12> end
| 13>
| 14>
| 15>                          ****END OF INPUT****

CARTESIAN COORDINATES (ANGSTROEM)
---------------------------------
  C      0.816067   -2.101491   -2.186546
  H      1.696232   -2.368691   -1.600457
  C      1.100552   -2.467492   -3.599269
  C      0.516243   -0.613634   -2.039373
  H     -0.020066   -2.712849   -1.840844
  C     -0.868621   -0.193925   -2.546303
  C     -0.984801    1.284739   -2.928686
  H     -0.764939    1.904116   -2.051568
  H     -2.032613    1.478953   -3.178952
  C     -0.106085    1.769914   -4.089836
  H     -0.347744    2.822196   -4.262942
  H      0.949683    1.745875   -3.808781
  C     -0.258747    1.004323   -5.409829
  C      0.395958   -0.370696   -5.339939
  H      0.239150    1.569393   -6.201253
  H     -1.309360    0.888694   -5.682455
  H      1.700606   -1.757225   -4.078378
  H      0.293855   -2.359766   -4.256324
  H      1.501324   -3.428479   -3.694915
  O     -0.326329   -1.390398   -5.491279
  F      1.619412   -0.400726   -5.036827
  H     -1.607271   -0.412651   -1.768955
  H     -1.157234   -0.796164   -3.409254
  H      1.299044   -0.056805   -2.558982
  H      0.612393   -0.365579   -0.979171

 Total Charge           Charge          ....    0
 Multiplicity           Mult            ....    1
 Number of Electrons    NEL             ....   80
 Basis Dimension        Dim             ....  400

ORBITAL ENERGIES
----------------

  NO   OCC          E(Eh)            E(eV)
   0   2.0000     -24.570049      -668.5850
   1   2.0000     -18.990557      -516.7593
   2   2.0000     -10.310833      -280.5720
   3   2.0000     -10.151730      -276.2426
   4   2.0000     -10.135120      -275.7906
   5   2.0000     -10.118569      -275.3403
   6   2.0000     -10.105233      -274.9774
   7   2.0000     -10.100604      -274.8514
   8   2.0000     -10.087833      -274.5039
   9   2.0000     -10.036612      -273.1101
  10   2.0000      -1.490412       -40.5562
  11   2.0000      -1.212356       -32.9899
  12   2.0000      -1.012381       -27.5483
  13   2.0000      -0.976563       -26.5736
  14   2.0000      -0.921822       -25.0841
  15   2.0000      -0.877167       -23.8689
  16   2.0000      -0.826091       -22.4791
  17   2.0000      -0.804443       -21.8900
  18   2.0000      -0.764099       -20.7922
  19   2.0000      -0.721604       -19.6359
  20   2.0000      -0.718127       -19.5412
  21   2.0000      -0.701882       -19.0992
  22   2.0000      -0.663149       -18.0452
  23   2.0000      -0.628567       -17.1042
  24   2.0000      -0.603852       -16.4316
  25   2.0000      -0.590062       -16.0564
  26   2.0000      -0.585054       -15.9201
  27   2.0000      -0.572133       -15.5685
  28   2.0000      -0.557194       -15.1620
  29   2.0000      -0.529917       -14.4198
  30   2.0000      -0.522068       -14.2062
  31   2.0000      -0.513188       -13.9646
  32   2.0000      -0.501483       -13.6460
  33   2.0000      -0.480866       -13.0850
  34   2.0000      -0.460917       -12.5422
  35   2.0000      -0.460152       -12.5214
  36   2.0000      -0.443531       -12.0691
  37   2.0000      -0.427897       -11.6437
  38   2.0000      -0.427075       -11.6213
  39   2.0000      -0.392253       -10.6738
  40   0.0000       0.056082         1.5261
  41   0.0000       0.110512         3.0072
  42   0.0000       0.137779         3.7492
  43   0.0000       0.141496         3.8503
  44   0.0000       0.148836         4.0500

MULLIKEN ATOMIC CHARGES
-----------------------
   0 C :   -0.179651
   1 H :    0.125370
   2 C :   -0.566219
   3 C :   -0.337196
   4 H :    0.125903
   5 C :   -0.379958
   6 C :   -0.260200
   7 H :    0.151063
   8 H :    0.155803
   9 C :   -0.379620
  10 H :    0.167094
  11 H :    0.188192
  12 C :   -0.255692
  13 C :    0.278603
  14 H :    0.179174
  15 H :    0.182518
  16 H :    0.141845
  17 H :    0.216492
  18 H :    0.142462
  19 O :   -0.292930
  20 F :   -0.069265
  21 H :    0.154398
  22 H :    0.206504
  23 H :    0.160201
  24 H :    0.145107
Sum of atomic charges:    0.0000000

LOEWDIN ATOMIC CHARGES
----------------------
   0 C :   -0.319763
   1 H :    0.140321
   2 C :   -0.356060
   3 C :   -0.286306
   4 H :    0.142234
   5 C :   -0.284656
   6 C :   -0.285017
   7 H :    0.147977
   8 H :    0.146859
   9 C :   -0.283276
  10 H :    0.150880
  11 H :    0.147300
  12 C :   -0.238778
  13 C :   -0.501323
  14 H :    0.161995
  15 H :    0.164940
  16 H :    0.113882
  17 H :    0.119526
  18 H :    0.113448
  19 O :    0.077645
  20 F :    0.345365
  21 H :    0.146364
  22 H :    0.154048
  23 H :    0.140021
  24 H :    0.142374

  Mayer bond orders larger than 0.100000
B(  0-C ,  1-H ) :   0.9827 B(  0-C ,  2-C ) :   0.9104 B(  0-C ,  3-C ) :   0.9509
B(  0-C ,  4-H ) :   0.9808 B(  2-C , 16-H ) :   0.9752 B(  2-C , 17-H ) :   0.9523
B(  2-C , 18-H ) :   0.9800 B(  3-C ,  5-C ) :   0.8742 B(  3-C , 23-H ) :   1.0005
B(  3-C , 24-H ) :   0.9713 B(  5-C ,  6-C ) :   0.9326 B(  5-C , 21-H ) :   0.9711
B(  5-C , 22-H ) :   0.9791 B(  6-C ,  7-H ) :   0.9790 B(  6-C ,  8-H ) :   0.9832
B(  6-C ,  9-C ) :   0.9331 B(  9-C , 10-H ) :   0.9774 B(  9-C , 11-H ) :   0.9787
B(  9-C , 12-C ) :   0.8896 B( 12-C , 13-C ) :   0.9798 B( 12-C , 14-H ) :   0.9564
B( 12-C , 15-H ) :   0.9654 B( 13-C , 19-O ) :   2.0347 B( 13-C , 20-F ) :   1.1704

FINAL SINGLE POINT ENERGY      -487.579529372450

DIPOLE MOMENT
-------------
                                X             Y             Z
Electronic contribution:      3.58954      -0.26392      -9.80752
Nuclear contribution   :     -3.57245       1.60200       9.69133
                        -----------------------------------------
Total Dipole Moment    :      0.01709       1.33808      -0.11619
                        -----------------------------------------
Magnitude (a.u.)       :      1.34323
Magnitude (Debye)      :      3.41421

Rotational constants in cm-1:     0.051520     0.042563     0.028962
Rotational constants in MHz :  1544.537298  1275.996546   868.258224

                             ****ORCA TERMINATED NORMALLY****
TOTAL RUN TIME: 0 days 0 hours 0 minutes 48 seconds 467 msec
