                         Program Version 5.0.0 -  RELEASE  -
|  1> !LC-BLYP RIJCOSX def2-SVP def2/J TightSCF
|  2> *xyz -1 1
|  3> C          0.13297        2.38587       -4.02462
|  4> C         -1.36646        2.47911       -4.31393
|  5> C         -2.35773        2.30686       -3.13675
|  6> H         -1.63680        1.72709       -5.06399
|  7> H         -1.58235        3.44561       -4.76869
|  8> O         -3.44376        2.84652       -3.25274
|  9> O         -1.97092        1.58304       -2.15123
| 10> H          0.68084        2.52514       -4.93310
| 11> H          0.35823        1.42282       -3.61633
| 12> H          0.40851        3.14443       -3.32208
| 13> *
| 14> %MaxCore 64000
| 15>
| 16> %pal nprocs 4
| 17> end
| 18>
| 19> %scf
| 20>   MaxIter 150
| 21> end
| 22>
| 23>
| 24>                          ****END OF INPUT****

CARTESIAN COORDINATES (ANGSTROEM)
---------------------------------
  C      0.132970    2.385870   -4.024620
  C     -1.366460    2.479110   -4.313930
  C     -2.357730    2.306860   -3.136750
  H     -1.636800    1.727090   -5.063990
  H     -1.582350    3.445610   -4.768690
  O     -3.443760    2.846520   -3.252740
  O     -1.970920    1.583040   -2.151230
  H      0.680840    2.525140   -4.933100
  H      0.358230    1.422820   -3.616330
  H      0.408510    3.144430   -3.322080

 Total Charge           Charge          ....   -1
 Multiplicity           Mult            ....    1
 Number of Electrons    NEL             ....   40
 Basis Dimension        Dim             ....   95

ORBITAL ENERGIES
----------------

  NO   OCC          E(Eh)            E(eV)
   0   2.0000     -18.651363      -507.5294
   1   2.0000     -18.640682      -507.2388
   2   2.0000      -9.936217      -270.3782
   3   2.0000      -9.910588      -269.6808
   4   2.0000      -9.891731      -269.1677
   5   2.0000      -0.870357       -23.6836
   6   2.0000      -0.767559       -20.8863
   7   2.0000      -0.690712       -18.7952
   8   2.0000      -0.558522       -15.1982
   9   2.0000      -0.398026       -10.8308
  10   2.0000      -0.385156       -10.4806
  11   2.0000      -0.336798        -9.1647
  12   2.0000      -0.306757        -8.3473
  13   2.0000      -0.297029        -8.0826
  14   2.0000      -0.280757        -7.6398
  15   2.0000      -0.247895        -6.7456
  16   2.0000      -0.236854        -6.4451
  17   2.0000      -0.105957        -2.8832
  18   2.0000      -0.103042        -2.8039
  19   2.0000      -0.087533        -2.3819
  20   0.0000       0.287175         7.8144
  21   0.0000       0.340861         9.2753
  22   0.0000       0.350878         9.5479
  23   0.0000       0.357082         9.7167
  24   0.0000       0.369722        10.0607

MULLIKEN ATOMIC CHARGES
-----------------------
   0 C :    0.049407
   1 C :   -0.007830
   2 C :   -0.110838
   3 H :   -0.042902
   4 H :   -0.059260
   5 O :   -0.319713
   6 O :   -0.404684
   7 H :   -0.063821
   8 H :   -0.017059
   9 H :   -0.023299
Sum of atomic charges:   -1.0000000

LOEWDIN ATOMIC CHARGES
----------------------
   0 C :   -0.078753
   1 C :   -0.107155
   2 C :   -0.094152
   3 H :    0.009529
   4 H :   -0.000533
   5 O :   -0.334221
   6 O :   -0.413908
   7 H :   -0.005092
   8 H :    0.012164
   9 H :    0.012121

  Mayer bond orders larger than 0.100000
B(  0-C ,  1-C ) :   1.0764 B(  0-C ,  7-H ) :   0.9541 B(  0-C ,  8-H ) :   0.9583
B(  0-C ,  9-H ) :   0.9724 B(  1-C ,  2-C ) :   0.8978 B(  1-C ,  3-H ) :   0.9385
B(  1-C ,  4-H ) :   0.9372 B(  2-C ,  5-O ) :   1.9738 B(  2-C ,  6-O ) :   1.8934
B(  5-O ,  6-O ) :   0.1223

FINAL SINGLE POINT ENERGY      -267.005610793762

DIPOLE MOMENT
-------------
                                X             Y             Z
Electronic contribution:     -5.41885      -0.42361       3.35775
Nuclear contribution   :      6.75610       0.63068      -4.53972
                        -----------------------------------------
Total Dipole Moment    :      1.33725       0.20707      -1.18197
                        -----------------------------------------
Magnitude (a.u.)       :      1.79671
Magnitude (Debye)      :      4.56687

Rotational constants in cm-1:     0.335096     0.130241     0.099025
Rotational constants in MHz : 10045.924902  3904.536250  2968.708333

                             ****ORCA TERMINATED NORMALLY****
TOTAL RUN TIME: 0 days 0 hours 0 minutes 11 seconds 147 msec
