                         Program Version 5.0.0 -  RELEASE  -
|  1> !LC-BLYP RIJCOSX def2-SVP def2/J TightSCF
|  2> *xyz 1 1
|  3> C          0.64866        1.00359       -3.64560
|  4> N          0.28128        0.67645       -2.24018
|  5> C          0.13297        2.38587       -4.02462
|  6> H          0.39079       -0.31925       -2.02649
|  7> H         -0.69269        0.99010       -2.13812
|  8> H          0.85421        1.21221       -1.57528
|  9> H          0.19099        0.23965       -4.27575
| 10> H          1.73157        0.93173       -3.75075
| 11> H          0.40589        2.60338       -5.03610
| 12> H          0.56342        3.11797       -3.37374
| 13> H         -0.93265        2.40724       -3.93025
| 14> *
| 15> %MaxCore 64000
| 16>
| 17> %pal nprocs 4
| 18> end
| 19>
| 20> %scf
| 21>   MaxIter 150
| 22> end
| 23>
| 24>
| 25>                          ****END OF INPUT****

CARTESIAN COORDINATES (ANGSTROEM)
---------------------------------
  C      0.648660    1.003590   -3.645600
  N      0.281280    0.676450   -2.240180
  C      0.132970    2.385870   -4.024620
  H      0.390790   -0.319250   -2.026490
  H     -0.692690    0.990100   -2.138120
  H      0.854210    1.212210   -1.575280
  H      0.190990    0.239650   -4.275750
  H      1.731570    0.931730   -3.750750
  H      0.405890    2.603380   -5.036100
  H      0.563420    3.117970   -3.373740
  H     -0.932650    2.407240   -3.930250

 Total Charge           Charge          ....    1
 Multiplicity           Mult            ....    1
 Number of Electrons    NEL             ....   26
 Basis Dimension        Dim             ....   82

ORBITAL ENERGIES
----------------

  NO   OCC          E(Eh)            E(eV)
   0   2.0000     -14.523788      -395.2124
   1   2.0000     -10.338489      -281.3246
   2   2.0000     -10.262632      -279.2604
   3   2.0000      -1.311336       -35.6833
   4   2.0000      -1.068350       -29.0713
   5   2.0000      -0.949244       -25.8302
   6   2.0000      -0.906675       -24.6719
   7   2.0000      -0.898108       -24.4388
   8   2.0000      -0.798125       -21.7181
   9   2.0000      -0.744945       -20.2710
  10   2.0000      -0.684364       -18.6225
  11   2.0000      -0.669737       -18.2245
  12   2.0000      -0.649798       -17.6819
  13   0.0000      -0.111943        -3.0461
  14   0.0000      -0.049509        -1.3472
  15   0.0000      -0.046387        -1.2623
  16   0.0000      -0.016983        -0.4621
  17   0.0000       0.025565         0.6957

MULLIKEN ATOMIC CHARGES
-----------------------
   0 C :   -0.063218
   1 N :    0.010716
   2 C :   -0.040058
   3 H :    0.226157
   4 H :    0.215233
   5 H :    0.219902
   6 H :    0.103647
   7 H :    0.107419
   8 H :    0.099165
   9 H :    0.060432
  10 H :    0.060606
Sum of atomic charges:    1.0000000

LOEWDIN ATOMIC CHARGES
----------------------
   0 C :    0.037107
   1 N :    0.291211
   2 C :   -0.055755
   3 H :    0.151613
   4 H :    0.147744
   5 H :    0.150285
   6 H :    0.059675
   7 H :    0.059997
   8 H :    0.070235
   9 H :    0.044316
  10 H :    0.043574

  Mayer bond orders larger than 0.100000
B(  0-C ,  1-N ) :   0.9428 B(  0-C ,  2-C ) :   1.1044 B(  0-C ,  6-H ) :   0.9520
B(  0-C ,  7-H ) :   0.9521 B(  1-N ,  3-H ) :   0.9288 B(  1-N ,  4-H ) :   0.9332
B(  1-N ,  5-H ) :   0.9335 B(  2-C ,  8-H ) :   0.9533 B(  2-C ,  9-H ) :   0.9705
B(  2-C , 10-H ) :   0.9635

FINAL SINGLE POINT ENERGY      -135.033415725684

DIPOLE MOMENT
-------------
                                X             Y             Z
Electronic contribution:      0.16281      -1.33924       1.38670
Nuclear contribution   :     -0.22655       0.48066      -0.09136
                        -----------------------------------------
Total Dipole Moment    :     -0.06374      -0.85858       1.29534
                        -----------------------------------------
Magnitude (a.u.)       :      1.55536
Magnitude (Debye)      :      3.95341

Rotational constants in cm-1:     0.998155     0.284845     0.251232
Rotational constants in MHz : 29923.943568  8539.431565  7531.732866

                             ****ORCA TERMINATED NORMALLY****
TOTAL RUN TIME: 0 days 0 hours 0 minutes 9 seconds 771 msec
