                         Program Version 5.0.0 -  RELEASE  -
|  1> !LC-BLYP RIJCOSX def2-SVP def2/J TightSCF
|  2> *xyz 0 1
|  3> C          0.13297        2.38587       -4.02462
|  4> C         -1.36646        2.47911       -4.31393
|  5> C         -2.35773        2.30686       -3.13675
|  6> H         -1.63680        1.72709       -5.06399
|  7> H         -1.58235        3.44561       -4.76869
|  8> F         -3.44376        2.84652       -3.25274
|  9> O         -1.97092        1.58304       -2.15123
| 10> H          0.68084        2.52514       -4.93310
| 11> H          0.35823        1.42282       -3.61633
| 12> H          0.40851        3.14443       -3.32208
| 13> *
| 14> %MaxCore 64000
| 15>
| 16> %pal nprocs 4
| 17> end
| 18>
| 19> %scf
| 20>   MaxIter 150
| 21> end
| 22>
| 23>
| 24>                          ****END OF INPUT****

CARTESIAN COORDINATES (ANGSTROEM)
---------------------------------
  C      0.132970    2.385870   -4.024620
  C     -1.366460    2.479110   -4.313930
  C     -2.357730    2.306860   -3.136750
  H     -1.636800    1.727090   -5.063990
  H     -1.582350    3.445610   -4.768690
  F     -3.443760    2.846520   -3.252740
  O     -1.970920    1.583040   -2.151230
  H      0.680840    2.525140   -4.933100
  H      0.358230    1.422820   -3.616330
  H      0.408510    3.144430   -3.322080

 Total Charge           Charge          ....    0
 Multiplicity           Mult            ....    1
 Number of Electrons    NEL             ....   40
 Basis Dimension        Dim             ....   95

ORBITAL ENERGIES
----------------

  NO   OCC          E(Eh)            E(eV)
   0   2.0000     -24.540141      -667.7712
   1   2.0000     -18.943670      -515.4835
   2   2.0000     -10.258093      -279.1369
   3   2.0000     -10.112455      -275.1739
   4   2.0000     -10.083694      -274.3913
   5   2.0000      -1.400012       -38.0963
   6   2.0000      -1.087626       -29.5958
   7   2.0000      -0.894445       -24.3391
   8   2.0000      -0.789635       -21.4871
   9   2.0000      -0.739065       -20.1110
  10   2.0000      -0.661902       -18.0113
  11   2.0000      -0.641228       -17.4487
  12   2.0000      -0.597030       -16.2460
  13   2.0000      -0.565954       -15.4004
  14   2.0000      -0.523772       -14.2526
  15   2.0000      -0.487859       -13.2753
  16   2.0000      -0.467229       -12.7139
  17   2.0000      -0.462853       -12.5949
  18   2.0000      -0.432683       -11.7739
  19   2.0000      -0.374712       -10.1964
  20   0.0000       0.069588         1.8936
  21   0.0000       0.129618         3.5271
  22   0.0000       0.178609         4.8602
  23   0.0000       0.188916         5.1407
  24   0.0000       0.204602         5.5675

MULLIKEN ATOMIC CHARGES
-----------------------
   0 C :    0.027951
   1 C :   -0.086979
   2 C :    0.109348
   3 H :    0.052184
   4 H :    0.022976
   5 F :    0.023234
   6 O :   -0.222908
   7 H :    0.014931
   8 H :    0.035558
   9 H :    0.023705
Sum of atomic charges:   -0.0000000

LOEWDIN ATOMIC CHARGES
----------------------
   0 C :   -0.054210
   1 C :   -0.087399
   2 C :    0.054267
   3 H :    0.051935
   4 H :    0.033330
   5 F :    0.110180
   6 O :   -0.205318
   7 H :    0.031241
   8 H :    0.034501
   9 H :    0.031472

  Mayer bond orders larger than 0.100000
B(  0-C ,  1-C ) :   1.1021 B(  0-C ,  7-H ) :   0.9613 B(  0-C ,  8-H ) :   0.9666
B(  0-C ,  9-H ) :   0.9778 B(  1-C ,  2-C ) :   0.9866 B(  1-C ,  3-H ) :   0.9264
B(  1-C ,  4-H ) :   0.9379 B(  2-C ,  5-F ) :   1.3070 B(  2-C ,  6-O ) :   2.1189

FINAL SINGLE POINT ENERGY      -291.539570827168

DIPOLE MOMENT
-------------
                                X             Y             Z
Electronic contribution:     -8.44947       0.43397       3.65919
Nuclear contribution   :      8.54799       0.05434      -4.66633
                        -----------------------------------------
Total Dipole Moment    :      0.09852       0.48831      -1.00713
                        -----------------------------------------
Magnitude (a.u.)       :      1.12360
Magnitude (Debye)      :      2.85595

Rotational constants in cm-1:     0.325803     0.123345     0.094275
Rotational constants in MHz :  9767.324172  3697.779805  2826.305733

                             ****ORCA TERMINATED NORMALLY****
TOTAL RUN TIME: 0 days 0 hours 0 minutes 12 seconds 56 msec
