                         Program Version 5.0.0 -  RELEASE  -
|  1> !LC-BLYP RIJCOSX def2-SVP def2/J TightSCF
|  2> *xyz 0 1
|  3> C          0.64866        1.00359       -3.64560
|  4> C          0.28128        0.67645       -2.24018
|  5> C          0.13297        2.38587       -4.02462
|  6> H          0.39079       -0.31925       -2.02649
|  7> H         -0.69269        0.99010       -2.13812
|  8> H          0.85421        1.21221       -1.57528
|  9> H          0.19099        0.23965       -4.27575
| 10> H          1.73157        0.93173       -3.75075
| 11> H          0.40589        2.60338       -5.03610
| 12> H          0.56342        3.11797       -3.37374
| 13> H         -0.93265        2.40724       -3.93025
| 14> *
| 15> %MaxCore 64000
| 16>
| 17> %pal nprocs 4
| 18> end
| 19>
| 20> %scf
| 21>   MaxIter 150
| 22> end
| 23>
| 24>
| 25>                          ****END OF INPUT****

CARTESIAN COORDINATES (ANGSTROEM)
---------------------------------
  C      0.648660    1.003590   -3.645600
  C      0.281280    0.676450   -2.240180
  C      0.132970    2.385870   -4.024620
  H      0.390790   -0.319250   -2.026490
  H     -0.692690    0.990100   -2.138120
  H      0.854210    1.212210   -1.575280
  H      0.190990    0.239650   -4.275750
  H      1.731570    0.931730   -3.750750
  H      0.405890    2.603380   -5.036100
  H      0.563420    3.117970   -3.373740
  H     -0.932650    2.407240   -3.930250

 Total Charge           Charge          ....    0
 Multiplicity           Mult            ....    1
 Number of Electrons    NEL             ....   26
 Basis Dimension        Dim             ....   82

ORBITAL ENERGIES
----------------

  NO   OCC          E(Eh)            E(eV)
   0   2.0000     -10.069772      -274.0124
   1   2.0000     -10.063375      -273.8384
   2   2.0000     -10.046646      -273.3831
   3   2.0000      -0.894200       -24.3324
   4   2.0000      -0.788263       -21.4497
   5   2.0000      -0.685291       -18.6477
   6   2.0000      -0.572943       -15.5906
   7   2.0000      -0.552753       -15.0412
   8   2.0000      -0.502382       -13.6705
   9   2.0000      -0.484458       -13.1828
  10   2.0000      -0.434965       -11.8360
  11   2.0000      -0.430798       -11.7226
  12   2.0000      -0.421105       -11.4588
  13   0.0000       0.134996         3.6734
  14   0.0000       0.184796         5.0286
  15   0.0000       0.187704         5.1077
  16   0.0000       0.190796         5.1918
  17   0.0000       0.220800         6.0083

MULLIKEN ATOMIC CHARGES
-----------------------
   0 C :   -0.058048
   1 C :    0.071293
   2 C :    0.003024
   3 H :   -0.009514
   4 H :   -0.018999
   5 H :   -0.013628
   6 H :    0.001048
   7 H :    0.002236
   8 H :    0.007930
   9 H :    0.006432
  10 H :    0.008225
Sum of atomic charges:    0.0000000

LOEWDIN ATOMIC CHARGES
----------------------
   0 C :   -0.045870
   1 C :   -0.056184
   2 C :   -0.065184
   3 H :    0.017431
   4 H :    0.017328
   5 H :    0.017270
   6 H :    0.022400
   7 H :    0.021245
   8 H :    0.024794
   9 H :    0.023480
  10 H :    0.023290

  Mayer bond orders larger than 0.100000
B(  0-C ,  1-C ) :   1.1103 B(  0-C ,  2-C ) :   1.1084 B(  0-C ,  6-H ) :   0.9549
B(  0-C ,  7-H ) :   0.9552 B(  1-C ,  3-H ) :   0.9602 B(  1-C ,  4-H ) :   0.9657
B(  1-C ,  5-H ) :   0.9643 B(  2-C ,  8-H ) :   0.9675 B(  2-C ,  9-H ) :   0.9748
B(  2-C , 10-H ) :   0.9705

FINAL SINGLE POINT ENERGY      -118.641630786461

DIPOLE MOMENT
-------------
                                X             Y             Z
Electronic contribution:      0.25359      -0.27019      -0.24326
Nuclear contribution   :     -0.24754       0.26111       0.24628
                        -----------------------------------------
Total Dipole Moment    :      0.00606      -0.00908       0.00302
                        -----------------------------------------
Magnitude (a.u.)       :      0.01133
Magnitude (Debye)      :      0.02879

Rotational constants in cm-1:     1.006509     0.299509     0.263145
Rotational constants in MHz : 30174.379724  8979.049324  7888.875355

                             ****ORCA TERMINATED NORMALLY****
TOTAL RUN TIME: 0 days 0 hours 0 minutes 8 seconds 916 msec
