                         Program Version 5.0.0 -  RELEASE  -
|  1> !LC-BLYP RIJCOSX def2-SVP def2/J TightSCF
|  2> *xyz 0 1
|  3> C          0.13297        2.38587       -4.02462
|  4> C         -1.36646        2.47911       -4.31393
|  5> C         -2.35773        2.30686       -3.13675
|  6> H         -1.63680        1.72709       -5.06399
|  7> H         -1.58235        3.44561       -4.76869
|  8> O         -3.44376        2.84652       -3.25274
|  9> F         -1.97092        1.58304       -2.15123
| 10> H          0.68084        2.52514       -4.93310
| 11> H          0.35823        1.42282       -3.61633
| 12> H          0.40851        3.14443       -3.32208
| 13> *
| 14> %MaxCore 64000
| 15>
| 16> %pal nprocs 4
| 17> end
| 18>
| 19> %scf
| 20>   MaxIter 150
| 21> end
| 22>
| 23>
| 24>                          ****END OF INPUT****

CARTESIAN COORDINATES (ANGSTROEM)
---------------------------------
  C      0.132970    2.385870   -4.024620
  C     -1.366460    2.479110   -4.313930
  C     -2.357730    2.306860   -3.136750
  H     -1.636800    1.727090   -5.063990
  H     -1.582350    3.445610   -4.768690
  O     -3.443760    2.846520   -3.252740
  F     -1.970920    1.583040   -2.151230
  H      0.680840    2.525140   -4.933100
  H      0.358230    1.422820   -3.616330
  H      0.408510    3.144430   -3.322080

 Total Charge           Charge          ....    0
 Multiplicity           Mult            ....    1
 Number of Electrons    NEL             ....   40
 Basis Dimension        Dim             ....   95

ORBITAL ENERGIES
----------------

  NO   OCC          E(Eh)            E(eV)
   0   2.0000     -24.516294      -667.1223
   1   2.0000     -18.953549      -515.7523
   2   2.0000     -10.253157      -279.0026
   3   2.0000     -10.110871      -275.1308
   4   2.0000     -10.088925      -274.5336
   5   2.0000      -1.351624       -36.7795
   6   2.0000      -1.126472       -30.6529
   7   2.0000      -0.897494       -24.4220
   8   2.0000      -0.774337       -21.0708
   9   2.0000      -0.727855       -19.8060
  10   2.0000      -0.638209       -17.3665
  11   2.0000      -0.631375       -17.1806
  12   2.0000      -0.583795       -15.8859
  13   2.0000      -0.564019       -15.3477
  14   2.0000      -0.528570       -14.3831
  15   2.0000      -0.499711       -13.5978
  16   2.0000      -0.483453       -13.1554
  17   2.0000      -0.468182       -12.7399
  18   2.0000      -0.445893       -12.1334
  19   2.0000      -0.385610       -10.4930
  20   0.0000       0.074592         2.0298
  21   0.0000       0.124654         3.3920
  22   0.0000       0.177718         4.8360
  23   0.0000       0.189561         5.1582
  24   0.0000       0.202065         5.4985

MULLIKEN ATOMIC CHARGES
-----------------------
   0 C :    0.003596
   1 C :   -0.087299
   2 C :    0.117595
   3 H :    0.054760
   4 H :    0.048590
   5 O :   -0.148658
   6 F :   -0.058825
   7 H :    0.022083
   8 H :    0.023398
   9 H :    0.024760
Sum of atomic charges:   -0.0000000

LOEWDIN ATOMIC CHARGES
----------------------
   0 C :   -0.067056
   1 C :   -0.084567
   2 C :    0.064724
   3 H :    0.052315
   4 H :    0.048362
   5 O :   -0.134938
   6 F :    0.029423
   7 H :    0.034156
   8 H :    0.027970
   9 H :    0.029610

  Mayer bond orders larger than 0.100000
B(  0-C ,  1-C ) :   1.0731 B(  0-C ,  7-H ) :   0.9615 B(  0-C ,  8-H ) :   0.9714
B(  0-C ,  9-H ) :   0.9787 B(  1-C ,  2-C ) :   0.9874 B(  1-C ,  3-H ) :   0.9342
B(  1-C ,  4-H ) :   0.9484 B(  2-C ,  5-O ) :   2.1947 B(  2-C ,  6-F ) :   1.2265

FINAL SINGLE POINT ENERGY      -291.557019540328

DIPOLE MOMENT
-------------
                                X             Y             Z
Electronic contribution:     -5.99964      -1.63343       5.44836
Nuclear contribution   :      6.94213       1.43193      -5.86732
                        -----------------------------------------
Total Dipole Moment    :      0.94249      -0.20150      -0.41896
                        -----------------------------------------
Magnitude (a.u.)       :      1.05092
Magnitude (Debye)      :      2.67121

Rotational constants in cm-1:     0.306336     0.129048     0.095707
Rotational constants in MHz :  9183.725605  3868.769583  2869.236577

                             ****ORCA TERMINATED NORMALLY****
TOTAL RUN TIME: 0 days 0 hours 0 minutes 11 seconds 212 msec
