                         Program Version 5.0.0 -  RELEASE  -
|  1> !LC-BLYP RIJCOSX def2-TZVP def2/J TightSCF xyzfile
|  2>
|  3> *xyzfile 0 1 D2.xyz
|  4>
|  5> %MaxCore 64000
|  6>
|  7> %pal nprocs 18
|  8> end
|  9>
| 10> %scf
| 11>   MaxIter 150
| 12> end
| 13>
| 14>
| 15>                          ****END OF INPUT****

CARTESIAN COORDINATES (ANGSTROEM)
---------------------------------
  C      0.648656    1.003595   -3.645601
  C      0.281280    0.676454   -2.240179
  C      0.132968    2.385869   -4.024618
  C     -1.366462    2.479106   -4.313932
  C     -2.357732    2.306858   -3.136753
  H     -1.636802    1.727095   -5.063993
  H     -1.582347    3.445605   -4.768687
  H      0.390790   -0.319253   -2.026495
  H     -0.692686    0.990104   -2.138123
  H      0.854206    1.212214   -1.575279
  O     -3.443763    2.846518   -3.252744
  F     -1.970922    1.583042   -2.151229
  H      0.190993    0.239655   -4.275752
  H      1.731572    0.931729   -3.750751
  H      0.414839    3.102847   -3.245165
  H      0.683167    2.687560   -4.919721

 Total Charge           Charge          ....    0
 Multiplicity           Mult            ....    1
 Number of Electrons    NEL             ....   56
 Basis Dimension        Dim             ....  271

ORBITAL ENERGIES
----------------

  NO   OCC          E(Eh)            E(eV)
   0   2.0000     -24.525949      -667.3850
   1   2.0000     -18.956580      -515.8348
   2   2.0000     -10.255435      -279.0646
   3   2.0000     -10.103611      -274.9332
   4   2.0000     -10.080214      -274.2966
   5   2.0000     -10.061597      -273.7900
   6   2.0000     -10.009021      -272.3593
   7   2.0000      -1.401975       -38.1497
   8   2.0000      -1.156407       -31.4674
   9   2.0000      -0.935576       -25.4583
  10   2.0000      -0.873324       -23.7643
  11   2.0000      -0.787050       -21.4167
  12   2.0000      -0.783370       -21.3166
  13   2.0000      -0.694061       -18.8864
  14   2.0000      -0.668496       -18.1907
  15   2.0000      -0.658258       -17.9121
  16   2.0000      -0.612254       -16.6603
  17   2.0000      -0.578200       -15.7336
  18   2.0000      -0.558399       -15.1948
  19   2.0000      -0.553361       -15.0577
  20   2.0000      -0.524177       -14.2636
  21   2.0000      -0.494195       -13.4477
  22   2.0000      -0.485764       -13.2183
  23   2.0000      -0.465733       -12.6732
  24   2.0000      -0.437224       -11.8975
  25   2.0000      -0.430676       -11.7193
  26   2.0000      -0.422415       -11.4945
  27   2.0000      -0.389935       -10.6107
  28   0.0000       0.052772         1.4360
  29   0.0000       0.090653         2.4668
  30   0.0000       0.123303         3.3553
  31   0.0000       0.129444         3.5223
  32   0.0000       0.139427         3.7940

MULLIKEN ATOMIC CHARGES
-----------------------
   0 C :   -0.214502
   1 C :   -0.437953
   2 C :   -0.266837
   3 C :   -0.330498
   4 C :    0.272392
   5 H :    0.161949
   6 H :    0.169987
   7 H :    0.127025
   8 H :    0.133972
   9 H :    0.132773
  10 O :   -0.206359
  11 F :   -0.051440
  12 H :    0.112549
  13 H :    0.118354
  14 H :    0.142316
  15 H :    0.136272
Sum of atomic charges:   -0.0000000

LOEWDIN ATOMIC CHARGES
----------------------
   0 C :   -0.309677
   1 C :   -0.329541
   2 C :   -0.277776
   3 C :   -0.240800
   4 C :   -0.510411
   5 H :    0.162623
   6 H :    0.162606
   7 H :    0.108097
   8 H :    0.082255
   9 H :    0.110865
  10 O :    0.133897
  11 F :    0.338761
  12 H :    0.139034
  13 H :    0.137476
  14 H :    0.146069
  15 H :    0.146519

  Mayer bond orders larger than 0.100000
B(  0-C ,  1-C ) :   0.8988 B(  0-C ,  2-C ) :   0.9128 B(  0-C , 12-H ) :   0.9804
B(  0-C , 13-H ) :   0.9813 B(  1-C ,  7-H ) :   0.9898 B(  1-C ,  8-H ) :   0.9714
B(  1-C ,  9-H ) :   0.9853 B(  2-C ,  3-C ) :   0.9008 B(  2-C , 14-H ) :   0.9755
B(  2-C , 15-H ) :   0.9762 B(  3-C ,  4-C ) :   0.9763 B(  3-C ,  5-H ) :   0.9475
B(  3-C ,  6-H ) :   0.9694 B(  4-C , 10-O ) :   2.2056 B(  4-C , 11-F ) :   1.1163

FINAL SINGLE POINT ENERGY      -370.272708215238

DIPOLE MOMENT
-------------
                                X             Y             Z
Electronic contribution:    -10.27143       2.34550       3.28308
Nuclear contribution   :     11.08738      -2.45618      -3.73478
                        -----------------------------------------
Total Dipole Moment    :      0.81595      -0.11068      -0.45170
                        -----------------------------------------
Magnitude (a.u.)       :      0.93918
Magnitude (Debye)      :      2.38721

Rotational constants in cm-1:     0.156244     0.063730     0.048063
Rotational constants in MHz :  4684.071402  1910.571278  1440.877811

                             ****ORCA TERMINATED NORMALLY****
TOTAL RUN TIME: 0 days 0 hours 0 minutes 21 seconds 974 msec
