                         Program Version 5.0.0 -  RELEASE  -
|  1> !LC-PBE RIJCOSX def2-SVP def2/J TightSCF
|  2> *xyz -1 1
|  3> C         -0.87096        0.24804       -2.66280
|  4> C         -0.47749        0.60819       -4.10105
|  5> H          0.20677        1.45830       -4.11875
|  6> H         -1.36844        0.92942       -4.64785
|  7> C          0.18467       -0.50664       -4.91676
|  8> O         -0.15869       -1.70109       -4.65798
|  9> O          1.05594       -0.17441       -5.74037
| 10> H         -1.54056       -0.58646       -2.67455
| 11> H         -1.35339        1.08600       -2.20455
| 12> H          0.00660       -0.00662       -2.10609
| 13> *
| 14>
| 15> %MaxCore 64000
| 16>
| 17> %pal nprocs 4
| 18> end
| 19>
| 20> %scf
| 21>   MaxIter 150
| 22> end
| 23>
| 24>
| 25>                          ****END OF INPUT****

CARTESIAN COORDINATES (ANGSTROEM)
---------------------------------
  C     -0.870960    0.248040   -2.662800
  C     -0.477490    0.608190   -4.101050
  H      0.206770    1.458300   -4.118750
  H     -1.368440    0.929420   -4.647850
  C      0.184670   -0.506640   -4.916760
  O     -0.158690   -1.701090   -4.657980
  O      1.055940   -0.174410   -5.740370
  H     -1.540560   -0.586460   -2.674550
  H     -1.353390    1.086000   -2.204550
  H      0.006600   -0.006620   -2.106090

 Total Charge           Charge          ....   -1
 Multiplicity           Mult            ....    1
 Number of Electrons    NEL             ....   40
 Basis Dimension        Dim             ....   95

ORBITAL ENERGIES
----------------

  NO   OCC          E(Eh)            E(eV)
   0   2.0000     -18.686943      -508.4976
   1   2.0000     -18.683240      -508.3968
   2   2.0000      -9.986274      -271.7403
   3   2.0000      -9.955137      -270.8930
   4   2.0000      -9.939122      -270.4572
   5   2.0000      -0.946545       -25.7568
   6   2.0000      -0.840905       -22.8822
   7   2.0000      -0.763609       -20.7789
   8   2.0000      -0.622626       -16.9425
   9   2.0000      -0.449639       -12.2353
  10   2.0000      -0.429021       -11.6743
  11   2.0000      -0.381740       -10.3877
  12   2.0000      -0.352661        -9.5964
  13   2.0000      -0.338937        -9.2229
  14   2.0000      -0.325222        -8.8498
  15   2.0000      -0.291344        -7.9279
  16   2.0000      -0.276364        -7.5202
  17   2.0000      -0.143827        -3.9137
  18   2.0000      -0.142096        -3.8666
  19   2.0000      -0.129606        -3.5268
  20   0.0000       0.305860         8.3229
  21   0.0000       0.357572         9.7300
  22   0.0000       0.365560         9.9474
  23   0.0000       0.374455        10.1894
  24   0.0000       0.384919        10.4742

MULLIKEN ATOMIC CHARGES
-----------------------
   0 C :   -0.103149
   1 C :   -0.159036
   2 H :    0.012117
   3 H :    0.020145
   4 C :    0.018559
   5 O :   -0.447431
   6 O :   -0.413782
   7 H :    0.045121
   8 H :   -0.005692
   9 H :    0.033148
Sum of atomic charges:   -1.0000000

LOEWDIN ATOMIC CHARGES
----------------------
   0 C :   -0.099397
   1 C :   -0.124264
   2 H :    0.014949
   3 H :    0.021847
   4 C :   -0.059309
   5 O :   -0.420564
   6 O :   -0.387158
   7 H :    0.025767
   8 H :    0.005052
   9 H :    0.023077

  Mayer bond orders larger than 0.100000
B(  0-C ,  1-C ) :   1.0567 B(  0-C ,  7-H ) :   0.9668 B(  0-C ,  8-H ) :   0.9727
B(  0-C ,  9-H ) :   0.9807 B(  1-C ,  2-H ) :   0.9605 B(  1-C ,  3-H ) :   0.9544
B(  1-C ,  4-C ) :   0.9048 B(  4-C ,  5-O ) :   1.8610 B(  4-C ,  6-O ) :   1.9091
B(  5-O ,  6-O ) :   0.1070

FINAL SINGLE POINT ENERGY      -266.833331289071

DIPOLE MOMENT
-------------
                                X             Y             Z
Electronic contribution:      2.65144      -2.95882      -4.62323
Nuclear contribution   :     -3.54611       4.15440       5.90446
                        -----------------------------------------
Total Dipole Moment    :     -0.89467       1.19558       1.28123
                        -----------------------------------------
Magnitude (a.u.)       :      1.96759
Magnitude (Debye)      :      5.00122

Rotational constants in cm-1:     0.332789     0.132085     0.101080
Rotational constants in MHz :  9976.755824  3959.803182  3030.288811

                             ****ORCA TERMINATED NORMALLY****
TOTAL RUN TIME: 0 days 0 hours 0 minutes 12 seconds 486 msec
