                         Program Version 5.0.0 -  RELEASE  -
|  1> !LC-PBE RIJCOSX def2-SVP def2/J TightSCF
|  2> *xyz 1 1
|  3> C          2.48645       -2.67712       -2.56345
|  4> C          3.03764       -2.36672       -3.92351
|  5> N          2.28036       -2.45441       -4.96769
|  6> N          4.32174       -2.01793       -4.01664
|  7> H          4.87994       -1.91167       -3.17382
|  8> H          4.71015       -1.67088       -4.88356
|  9> H          1.27042       -2.41265       -4.86614
| 10> H          2.58183       -2.05528       -5.84688
| 11> C          2.49799       -1.46946       -1.61030
| 12> H          1.47259       -3.05153       -2.69437
| 13> H          3.08320       -3.49064       -2.14147
| 14> H          1.91240       -0.67831       -2.02991
| 15> H          3.50450       -1.13364       -1.47227
| 16> H          2.08509       -1.75655       -0.66585
| 17> *
| 18>
| 19> %MaxCore 64000
| 20>
| 21> %pal nprocs 4
| 22> end
| 23>
| 24> %scf
| 25>   MaxIter 150
| 26> end
| 27>
| 28>
| 29>                          ****END OF INPUT****

CARTESIAN COORDINATES (ANGSTROEM)
---------------------------------
  C      2.486450   -2.677120   -2.563450
  C      3.037640   -2.366720   -3.923510
  N      2.280360   -2.454410   -4.967690
  N      4.321740   -2.017930   -4.016640
  H      4.879940   -1.911670   -3.173820
  H      4.710150   -1.670880   -4.883560
  H      1.270420   -2.412650   -4.866140
  H      2.581830   -2.055280   -5.846880
  C      2.497990   -1.469460   -1.610300
  H      1.472590   -3.051530   -2.694370
  H      3.083200   -3.490640   -2.141470
  H      1.912400   -0.678310   -2.029910
  H      3.504500   -1.133640   -1.472270
  H      2.085090   -1.756550   -0.665850

 Total Charge           Charge          ....    1
 Multiplicity           Mult            ....    1
 Number of Electrons    NEL             ....   40
 Basis Dimension        Dim             ....  115

ORBITAL ENERGIES
----------------

  NO   OCC          E(Eh)            E(eV)
   0   2.0000     -14.479049      -393.9949
   1   2.0000     -14.473231      -393.8366
   2   2.0000     -10.460228      -284.6373
   3   2.0000     -10.325958      -280.9836
   4   2.0000     -10.283985      -279.8415
   5   2.0000      -1.379880       -37.5484
   6   2.0000      -1.272479       -34.6259
   7   2.0000      -1.141992       -31.0752
   8   2.0000      -1.024005       -27.8646
   9   2.0000      -0.972406       -26.4605
  10   2.0000      -0.926088       -25.2001
  11   2.0000      -0.899405       -24.4740
  12   2.0000      -0.843341       -22.9485
  13   2.0000      -0.803373       -21.8609
  14   2.0000      -0.765911       -20.8415
  15   2.0000      -0.752979       -20.4896
  16   2.0000      -0.683853       -18.6086
  17   2.0000      -0.670869       -18.2553
  18   2.0000      -0.658873       -17.9288
  19   2.0000      -0.626883       -17.0583
  20   0.0000      -0.114280        -3.1097
  21   0.0000      -0.047654        -1.2967
  22   0.0000      -0.005536        -0.1506
  23   0.0000      -0.002282        -0.0621
  24   0.0000       0.029103         0.7919

MULLIKEN ATOMIC CHARGES
-----------------------
   0 C :   -0.147236
   1 C :   -0.016051
   2 N :   -0.032008
   3 N :   -0.075759
   4 H :    0.213150
   5 H :    0.203365
   6 H :    0.216873
   7 H :    0.198473
   8 C :   -0.127393
   9 H :    0.109141
  10 H :    0.151441
  11 H :    0.095564
  12 H :    0.081460
  13 H :    0.128980
Sum of atomic charges:    1.0000000

LOEWDIN ATOMIC CHARGES
----------------------
   0 C :   -0.062277
   1 C :    0.160564
   2 N :    0.091253
   3 N :    0.067645
   4 H :    0.127704
   5 H :    0.119076
   6 H :    0.133378
   7 H :    0.121499
   8 C :   -0.059257
   9 H :    0.063503
  10 H :    0.081499
  11 H :    0.049322
  12 H :    0.040311
  13 H :    0.065779

  Mayer bond orders larger than 0.100000
B(  0-C ,  1-C ) :   1.0053 B(  0-C ,  8-C ) :   1.0470 B(  0-C ,  9-H ) :   0.9383
B(  0-C , 10-H ) :   0.9259 B(  1-C ,  2-N ) :   1.5357 B(  1-C ,  3-N ) :   1.4900
B(  2-N ,  6-H ) :   0.9139 B(  2-N ,  7-H ) :   0.9284 B(  3-N ,  4-H ) :   0.9192
B(  3-N ,  5-H ) :   0.9274 B(  8-C , 11-H ) :   0.9713 B(  8-C , 12-H ) :   0.9739
B(  8-C , 13-H ) :   0.9634

FINAL SINGLE POINT ENERGY      -228.118498745884

DIPOLE MOMENT
-------------
                                X             Y             Z
Electronic contribution:      1.06153      -1.04771      -3.96492
Nuclear contribution   :     -0.84604       1.34287       2.92710
                        -----------------------------------------
Total Dipole Moment    :      0.21549       0.29516      -1.03782
                        -----------------------------------------
Magnitude (a.u.)       :      1.10029
Magnitude (Debye)      :      2.79670

Rotational constants in cm-1:     0.265816     0.126189     0.097583
Rotational constants in MHz :  7968.948902  3783.040103  2925.457702

                             ****ORCA TERMINATED NORMALLY****
TOTAL RUN TIME: 0 days 0 hours 0 minutes 16 seconds 680 msec
