                         Program Version 5.0.0 -  RELEASE  -
|  1> !LC-PBE RIJCOSX def2-SVP def2/J TightSCF
|  2> *xyz 0 1
|  3> C         -0.87096        0.24804       -2.66280
|  4> C         -0.47749        0.60819       -4.10105
|  5> H          0.20677        1.45830       -4.11875
|  6> H         -1.36844        0.92942       -4.64785
|  7> C          0.18467       -0.50664       -4.91676
|  8> F         -0.15869       -1.70109       -4.65798
|  9> O          1.05594       -0.17441       -5.74037
| 10> H         -1.54056       -0.58646       -2.67455
| 11> H         -1.35339        1.08600       -2.20455
| 12> H          0.00660       -0.00662       -2.10609
| 13> *
| 14>
| 15> %MaxCore 64000
| 16>
| 17> %pal nprocs 4
| 18> end
| 19>
| 20> %scf
| 21>   MaxIter 150
| 22> end
| 23>
| 24>
| 25>                          ****END OF INPUT****

CARTESIAN COORDINATES (ANGSTROEM)
---------------------------------
  C     -0.870960    0.248040   -2.662800
  C     -0.477490    0.608190   -4.101050
  H      0.206770    1.458300   -4.118750
  H     -1.368440    0.929420   -4.647850
  C      0.184670   -0.506640   -4.916760
  F     -0.158690   -1.701090   -4.657980
  O      1.055940   -0.174410   -5.740370
  H     -1.540560   -0.586460   -2.674550
  H     -1.353390    1.086000   -2.204550
  H      0.006600   -0.006620   -2.106090

 Total Charge           Charge          ....    0
 Multiplicity           Mult            ....    1
 Number of Electrons    NEL             ....   40
 Basis Dimension        Dim             ....   95

ORBITAL ENERGIES
----------------

  NO   OCC          E(Eh)            E(eV)
   0   2.0000     -24.560055      -668.3131
   1   2.0000     -18.989778      -516.7381
   2   2.0000     -10.305162      -280.4177
   3   2.0000     -10.156967      -276.3851
   4   2.0000     -10.133814      -275.7551
   5   2.0000      -1.446267       -39.3549
   6   2.0000      -1.188997       -32.3543
   7   2.0000      -0.973522       -26.4909
   8   2.0000      -0.840028       -22.8583
   9   2.0000      -0.790828       -21.5195
  10   2.0000      -0.697631       -18.9835
  11   2.0000      -0.688876       -18.7453
  12   2.0000      -0.636258       -17.3135
  13   2.0000      -0.609141       -16.5756
  14   2.0000      -0.571783       -15.5590
  15   2.0000      -0.539269       -14.6742
  16   2.0000      -0.521134       -14.1808
  17   2.0000      -0.509657       -13.8685
  18   2.0000      -0.478397       -13.0179
  19   2.0000      -0.423122       -11.5137
  20   0.0000       0.082320         2.2400
  21   0.0000       0.145256         3.9526
  22   0.0000       0.196515         5.3474
  23   0.0000       0.207729         5.6526
  24   0.0000       0.221533         6.0282

MULLIKEN ATOMIC CHARGES
-----------------------
   0 C :   -0.142532
   1 C :   -0.232705
   2 H :    0.110319
   3 H :    0.109467
   4 C :    0.233103
   5 F :   -0.074797
   6 O :   -0.231945
   7 H :    0.076096
   8 H :    0.075634
   9 H :    0.077360
Sum of atomic charges:   -0.0000000

LOEWDIN ATOMIC CHARGES
----------------------
   0 C :   -0.087247
   1 C :   -0.103192
   2 H :    0.060439
   3 H :    0.061510
   4 C :    0.096453
   5 F :    0.035339
   6 O :   -0.182808
   7 H :    0.037558
   8 H :    0.042751
   9 H :    0.039197

  Mayer bond orders larger than 0.100000
B(  0-C ,  1-C ) :   1.0442 B(  0-C ,  7-H ) :   0.9739 B(  0-C ,  8-H ) :   0.9709
B(  0-C ,  9-H ) :   0.9802 B(  1-C ,  2-H ) :   0.9555 B(  1-C ,  3-H ) :   0.9393
B(  1-C ,  4-C ) :   0.9829 B(  4-C ,  5-F ) :   1.2080 B(  4-C ,  6-O ) :   2.1302

FINAL SINGLE POINT ENERGY      -291.362402754358

DIPOLE MOMENT
-------------
                                X             Y             Z
Electronic contribution:      2.62064      -5.37217      -5.33374
Nuclear contribution   :     -3.42837       5.66737       6.17046
                        -----------------------------------------
Total Dipole Moment    :     -0.80773       0.29520       0.83671
                        -----------------------------------------
Magnitude (a.u.)       :      1.19985
Magnitude (Debye)      :      3.04979

Rotational constants in cm-1:     0.304660     0.130969     0.097716
Rotational constants in MHz :  9133.464515  3926.366384  2929.457090

                             ****ORCA TERMINATED NORMALLY****
TOTAL RUN TIME: 0 days 0 hours 0 minutes 11 seconds 530 msec
