                         Program Version 5.0.0 -  RELEASE  -
|  1> !LC-PBE RIJCOSX def2-SVP def2/J TightSCF
|  2> *xyz 0 1
|  3> C          2.48645       -2.67712       -2.56345
|  4> C          3.03764       -2.36672       -3.92351
|  5> C          2.28036       -2.45441       -4.96769
|  6> N          4.32174       -2.01793       -4.01664
|  7> H          4.87994       -1.91167       -3.17382
|  8> H          4.71015       -1.67088       -4.88356
|  9> H          1.27042       -2.41265       -4.86614
| 10> H          2.58183       -2.05528       -5.84688
| 11> C          2.49799       -1.46946       -1.61030
| 12> H          1.47259       -3.05153       -2.69437
| 13> H          3.08320       -3.49064       -2.14147
| 14> H          1.91240       -0.67831       -2.02991
| 15> H          3.50450       -1.13364       -1.47227
| 16> H          2.08509       -1.75655       -0.66585
| 17> *
| 18>
| 19> %MaxCore 64000
| 20>
| 21> %pal nprocs 4
| 22> end
| 23>
| 24> %scf
| 25>   MaxIter 150
| 26> end
| 27>
| 28>
| 29>                          ****END OF INPUT****

CARTESIAN COORDINATES (ANGSTROEM)
---------------------------------
  C      2.486450   -2.677120   -2.563450
  C      3.037640   -2.366720   -3.923510
  C      2.280360   -2.454410   -4.967690
  N      4.321740   -2.017930   -4.016640
  H      4.879940   -1.911670   -3.173820
  H      4.710150   -1.670880   -4.883560
  H      1.270420   -2.412650   -4.866140
  H      2.581830   -2.055280   -5.846880
  C      2.497990   -1.469460   -1.610300
  H      1.472590   -3.051530   -2.694370
  H      3.083200   -3.490640   -2.141470
  H      1.912400   -0.678310   -2.029910
  H      3.504500   -1.133640   -1.472270
  H      2.085090   -1.756550   -0.665850

 Total Charge           Charge          ....    0
 Multiplicity           Mult            ....    1
 Number of Electrons    NEL             ....   40
 Basis Dimension        Dim             ....  115

ORBITAL ENERGIES
----------------

  NO   OCC          E(Eh)            E(eV)
   0   2.0000     -14.221141      -386.9769
   1   2.0000     -10.146814      -276.1088
   2   2.0000     -10.123877      -275.4847
   3   2.0000     -10.114958      -275.2420
   4   2.0000     -10.052166      -273.5333
   5   2.0000      -1.086677       -29.5700
   6   2.0000      -0.946645       -25.7595
   7   2.0000      -0.886090       -24.1117
   8   2.0000      -0.792283       -21.5591
   9   2.0000      -0.712700       -19.3936
  10   2.0000      -0.666530       -18.1372
  11   2.0000      -0.621448       -16.9105
  12   2.0000      -0.576379       -15.6841
  13   2.0000      -0.571468       -15.5504
  14   2.0000      -0.521985       -14.2039
  15   2.0000      -0.517444       -14.0804
  16   2.0000      -0.483227       -13.1493
  17   2.0000      -0.463832       -12.6215
  18   2.0000      -0.454181       -12.3589
  19   2.0000      -0.311005        -8.4629
  20   0.0000       0.140634         3.8269
  21   0.0000       0.152039         4.1372
  22   0.0000       0.193181         5.2567
  23   0.0000       0.195683         5.3248
  24   0.0000       0.214009         5.8235

MULLIKEN ATOMIC CHARGES
-----------------------
   0 C :   -0.090136
   1 C :   -0.074738
   2 C :   -0.151490
   3 N :   -0.164632
   4 H :    0.136916
   5 H :    0.146090
   6 H :    0.012759
   7 H :   -0.005749
   8 C :   -0.116796
   9 H :    0.062605
  10 H :    0.069040
  11 H :    0.065953
  12 H :    0.043877
  13 H :    0.066300
Sum of atomic charges:    0.0000000

LOEWDIN ATOMIC CHARGES
----------------------
   0 C :   -0.056794
   1 C :    0.012860
   2 C :   -0.201142
   3 N :   -0.036180
   4 H :    0.077047
   5 H :    0.084192
   6 H :    0.013278
   7 H :    0.004562
   8 C :   -0.082992
   9 H :    0.045855
  10 H :    0.039927
  11 H :    0.037541
  12 H :    0.025713
  13 H :    0.036134

  Mayer bond orders larger than 0.100000
B(  0-C ,  1-C ) :   1.0103 B(  0-C ,  8-C ) :   1.0616 B(  0-C ,  9-H ) :   0.9512
B(  0-C , 10-H ) :   0.9496 B(  1-C ,  2-C ) :   1.9085 B(  1-C ,  3-N ) :   1.2326
B(  2-C ,  6-H ) :   0.9492 B(  2-C ,  7-H ) :   0.9660 B(  3-N ,  4-H ) :   0.9558
B(  3-N ,  5-H ) :   0.9523 B(  8-C , 11-H ) :   0.9738 B(  8-C , 12-H ) :   0.9763
B(  8-C , 13-H ) :   0.9758

FINAL SINGLE POINT ENERGY      -211.676646674455

DIPOLE MOMENT
-------------
                                X             Y             Z
Electronic contribution:      1.58359      -0.85912      -2.09731
Nuclear contribution   :     -0.99743       1.27863       2.57190
                        -----------------------------------------
Total Dipole Moment    :      0.58616       0.41951       0.47459
                        -----------------------------------------
Magnitude (a.u.)       :      0.86302
Magnitude (Debye)      :      2.19363

Rotational constants in cm-1:     0.274050     0.130114     0.100964
Rotational constants in MHz :  8215.815505  3900.722919  3026.834930

                             ****ORCA TERMINATED NORMALLY****
TOTAL RUN TIME: 0 days 0 hours 0 minutes 14 seconds 763 msec
