                         Program Version 5.0.0 -  RELEASE  -
|  1> !LC-PBE RIJCOSX def2-SVP def2/J TightSCF
|  2> *xyz 0 1
|  3> C         -0.87096        0.24804       -2.66280
|  4> C         -0.47749        0.60819       -4.10105
|  5> H          0.20677        1.45830       -4.11875
|  6> H         -1.36844        0.92942       -4.64785
|  7> C          0.18467       -0.50664       -4.91676
|  8> O         -0.15869       -1.70109       -4.65798
|  9> F          1.05594       -0.17441       -5.74037
| 10> H         -1.54056       -0.58646       -2.67455
| 11> H         -1.35339        1.08600       -2.20455
| 12> H          0.00660       -0.00662       -2.10609
| 13> *
| 14>
| 15> %MaxCore 64000
| 16>
| 17> %pal nprocs 4
| 18> end
| 19>
| 20> %scf
| 21>   MaxIter 150
| 22> end
| 23>
| 24>
| 25>                          ****END OF INPUT****

CARTESIAN COORDINATES (ANGSTROEM)
---------------------------------
  C     -0.870960    0.248040   -2.662800
  C     -0.477490    0.608190   -4.101050
  H      0.206770    1.458300   -4.118750
  H     -1.368440    0.929420   -4.647850
  C      0.184670   -0.506640   -4.916760
  O     -0.158690   -1.701090   -4.657980
  F      1.055940   -0.174410   -5.740370
  H     -1.540560   -0.586460   -2.674550
  H     -1.353390    1.086000   -2.204550
  H      0.006600   -0.006620   -2.106090

 Total Charge           Charge          ....    0
 Multiplicity           Mult            ....    1
 Number of Electrons    NEL             ....   40
 Basis Dimension        Dim             ....   95

ORBITAL ENERGIES
----------------

  NO   OCC          E(Eh)            E(eV)
   0   2.0000     -24.569611      -668.5731
   1   2.0000     -18.986309      -516.6437
   2   2.0000     -10.307617      -280.4845
   3   2.0000     -10.158422      -276.4247
   4   2.0000     -10.127546      -275.5845
   5   2.0000      -1.465386       -39.8752
   6   2.0000      -1.174402       -31.9571
   7   2.0000      -0.969032       -26.3687
   8   2.0000      -0.849537       -23.1171
   9   2.0000      -0.790648       -21.5146
  10   2.0000      -0.705984       -19.2108
  11   2.0000      -0.688550       -18.7364
  12   2.0000      -0.649466       -17.6729
  13   2.0000      -0.608936       -16.5700
  14   2.0000      -0.569238       -15.4898
  15   2.0000      -0.529913       -14.4197
  16   2.0000      -0.506665       -13.7871
  17   2.0000      -0.505429       -13.7534
  18   2.0000      -0.473688       -12.8897
  19   2.0000      -0.421139       -11.4598
  20   0.0000       0.079129         2.1532
  21   0.0000       0.150444         4.0938
  22   0.0000       0.198039         5.3889
  23   0.0000       0.207042         5.6339
  24   0.0000       0.223081         6.0703

MULLIKEN ATOMIC CHARGES
-----------------------
   0 C :   -0.116546
   1 C :   -0.234315
   2 H :    0.084068
   3 H :    0.110348
   4 C :    0.228186
   5 O :   -0.262071
   6 F :   -0.041638
   7 H :    0.090136
   8 H :    0.067950
   9 H :    0.073884
Sum of atomic charges:    0.0000000

LOEWDIN ATOMIC CHARGES
----------------------
   0 C :   -0.074518
   1 C :   -0.106252
   2 H :    0.044581
   3 H :    0.063318
   4 C :    0.092860
   5 O :   -0.212177
   6 F :    0.067796
   7 H :    0.044875
   8 H :    0.039490
   9 H :    0.040026

  Mayer bond orders larger than 0.100000
B(  0-C ,  1-C ) :   1.0693 B(  0-C ,  7-H ) :   0.9684 B(  0-C ,  8-H ) :   0.9714
B(  0-C ,  9-H ) :   0.9810 B(  1-C ,  2-H ) :   0.9503 B(  1-C ,  3-H ) :   0.9334
B(  1-C ,  4-C ) :   0.9807 B(  4-C ,  5-O ) :   2.0916 B(  4-C ,  6-F ) :   1.2457

FINAL SINGLE POINT ENERGY      -291.355231534578

DIPOLE MOMENT
-------------
                                X             Y             Z
Electronic contribution:      4.65110      -2.84835      -7.15942
Nuclear contribution   :     -4.75269       4.00281       7.35060
                        -----------------------------------------
Total Dipole Moment    :     -0.10160       1.15446       0.19118
                        -----------------------------------------
Magnitude (a.u.)       :      1.17459
Magnitude (Debye)      :      2.98557

Rotational constants in cm-1:     0.323805     0.124913     0.096140
Rotational constants in MHz :  9707.430323  3744.789513  2882.191141

                             ****ORCA TERMINATED NORMALLY****
TOTAL RUN TIME: 0 days 0 hours 0 minutes 13 seconds 126 msec
