                         Program Version 5.0.0 -  RELEASE  -
|  1> !LC-PBE RIJCOSX def2-SVP def2/J TightSCF
|  2> *xyz 0 1
|  3> C          2.48645       -2.67712       -2.56345
|  4> C          3.03764       -2.36672       -3.92351
|  5> N          2.28036       -2.45441       -4.96769
|  6> C          4.32174       -2.01793       -4.01664
|  7> H          4.87994       -1.91167       -3.17382
|  8> H          4.71015       -1.67088       -4.88356
|  9> H          1.27042       -2.41265       -4.86614
| 10> H          2.58183       -2.05528       -5.84688
| 11> C          2.49799       -1.46946       -1.61030
| 12> H          1.47259       -3.05153       -2.69437
| 13> H          3.08320       -3.49064       -2.14147
| 14> H          1.91240       -0.67831       -2.02991
| 15> H          3.50450       -1.13364       -1.47227
| 16> H          2.08509       -1.75655       -0.66585
| 17> *
| 18>
| 19> %MaxCore 64000
| 20>
| 21> %pal nprocs 4
| 22> end
| 23>
| 24> %scf
| 25>   MaxIter 150
| 26> end
| 27>
| 28>
| 29>                          ****END OF INPUT****

CARTESIAN COORDINATES (ANGSTROEM)
---------------------------------
  C      2.486450   -2.677120   -2.563450
  C      3.037640   -2.366720   -3.923510
  N      2.280360   -2.454410   -4.967690
  C      4.321740   -2.017930   -4.016640
  H      4.879940   -1.911670   -3.173820
  H      4.710150   -1.670880   -4.883560
  H      1.270420   -2.412650   -4.866140
  H      2.581830   -2.055280   -5.846880
  C      2.497990   -1.469460   -1.610300
  H      1.472590   -3.051530   -2.694370
  H      3.083200   -3.490640   -2.141470
  H      1.912400   -0.678310   -2.029910
  H      3.504500   -1.133640   -1.472270
  H      2.085090   -1.756550   -0.665850

 Total Charge           Charge          ....    0
 Multiplicity           Mult            ....    1
 Number of Electrons    NEL             ....   40
 Basis Dimension        Dim             ....  115

ORBITAL ENERGIES
----------------

  NO   OCC          E(Eh)            E(eV)
   0   2.0000     -14.224988      -387.0816
   1   2.0000     -10.147759      -276.1346
   2   2.0000     -10.124569      -275.5035
   3   2.0000     -10.110528      -275.1215
   4   2.0000     -10.052409      -273.5399
   5   2.0000      -1.101502       -29.9734
   6   2.0000      -0.949340       -25.8329
   7   2.0000      -0.868820       -23.6418
   8   2.0000      -0.798243       -21.7213
   9   2.0000      -0.715848       -19.4792
  10   2.0000      -0.663863       -18.0646
  11   2.0000      -0.625585       -17.0230
  12   2.0000      -0.587733       -15.9930
  13   2.0000      -0.544603       -14.8194
  14   2.0000      -0.531799       -14.4710
  15   2.0000      -0.510264       -13.8850
  16   2.0000      -0.482362       -13.1257
  17   2.0000      -0.465932       -12.6787
  18   2.0000      -0.462886       -12.5958
  19   2.0000      -0.300480        -8.1765
  20   0.0000       0.143983         3.9180
  21   0.0000       0.146990         3.9998
  22   0.0000       0.190878         5.1941
  23   0.0000       0.194793         5.3006
  24   0.0000       0.217378         5.9152

MULLIKEN ATOMIC CHARGES
-----------------------
   0 C :   -0.090032
   1 C :   -0.130113
   2 N :   -0.119807
   3 C :   -0.147863
   4 H :    0.009464
   5 H :   -0.001994
   6 H :    0.136563
   7 H :    0.140868
   8 C :   -0.109605
   9 H :    0.039586
  10 H :    0.088563
  11 H :    0.057145
  12 H :    0.067422
  13 H :    0.059803
Sum of atomic charges:    0.0000000

LOEWDIN ATOMIC CHARGES
----------------------
   0 C :   -0.058063
   1 C :   -0.000709
   2 N :   -0.012763
   3 C :   -0.209130
   4 H :    0.007905
   5 H :    0.001893
   6 H :    0.078827
   7 H :    0.085511
   8 C :   -0.076054
   9 H :    0.028200
  10 H :    0.052301
  11 H :    0.033348
  12 H :    0.036047
  13 H :    0.032687

  Mayer bond orders larger than 0.100000
B(  0-C ,  1-C ) :   0.9838 B(  0-C ,  8-C ) :   1.0748 B(  0-C ,  9-H ) :   0.9569
B(  0-C , 10-H ) :   0.9501 B(  1-C ,  2-N ) :   1.2693 B(  1-C ,  3-C ) :   1.8640
B(  2-N ,  6-H ) :   0.9513 B(  2-N ,  7-H ) :   0.9536 B(  3-C ,  4-H ) :   0.9616
B(  3-C ,  5-H ) :   0.9665 B(  8-C , 11-H ) :   0.9752 B(  8-C , 12-H ) :   0.9761
B(  8-C , 13-H ) :   0.9751

FINAL SINGLE POINT ENERGY      -211.676811460146

DIPOLE MOMENT
-------------
                                X             Y             Z
Electronic contribution:     -0.32326      -1.19242      -2.98361
Nuclear contribution   :     -0.52463       1.37972       2.79217
                        -----------------------------------------
Total Dipole Moment    :     -0.84789       0.18730      -0.19144
                        -----------------------------------------
Magnitude (a.u.)       :      0.88918
Magnitude (Debye)      :      2.26012

Rotational constants in cm-1:     0.281086     0.127387     0.100311
Rotational constants in MHz :  8426.743103  3818.969834  3007.238026

                             ****ORCA TERMINATED NORMALLY****
TOTAL RUN TIME: 0 days 0 hours 0 minutes 14 seconds 704 msec
