                         Program Version 5.0.0 -  RELEASE  -
|  1> !LC-PBE RIJCOSX def2-TZVP def2/J TightSCF xyzfile
|  2>
|  3> *xyzfile 0 1 D1.xyz
|  4>
|  5> %MaxCore 64000
|  6>
|  7> %pal nprocs 18
|  8> end
|  9>
| 10> %scf
| 11>   MaxIter 150
| 12> end
| 13>
| 14>
| 15>                          ****END OF INPUT****

CARTESIAN COORDINATES (ANGSTROEM)
---------------------------------
  C      2.486452   -2.677121   -2.563447
  C     -0.870963    0.248043   -2.662804
  C     -0.477492    0.608191   -4.101052
  H      0.206773    1.458299   -4.118748
  H     -1.368442    0.929419   -4.647855
  C      0.184673   -0.506640   -4.916760
  C      3.037640   -2.366715   -3.923509
  C      2.280360   -2.454408   -4.967692
  N      4.321736   -2.017932   -4.016641
  H      4.879940   -1.911668   -3.173823
  H      4.710148   -1.670882   -4.883561
  H      1.270423   -2.412650   -4.866143
  H      2.581829   -2.055282   -5.846878
  F     -0.158685   -1.701088   -4.657981
  O      1.055938   -0.174410   -5.740373
  C      2.497991   -1.469464   -1.610303
  C      1.582841   -0.321986   -2.042619
  H      2.193083   -1.833912   -0.625420
  H      3.523356   -1.103982   -1.490392
  C      0.100160   -0.673551   -1.915815
  H      1.822311   -0.040361   -3.072834
  H      1.813180    0.557019   -1.433266
  H     -0.063284   -1.679120   -2.301112
  H     -0.168820   -0.691680   -0.853831
  H     -1.001048    1.181040   -2.104071
  H     -1.844645   -0.246592   -2.663281
  H      1.472592   -3.051527   -2.694366
  H      3.083201   -3.490638   -2.141472

 Total Charge           Charge          ....    0
 Multiplicity           Mult            ....    1
 Number of Electrons    NEL             ....   94
 Basis Dimension        Dim             ....  468

ORBITAL ENERGIES
----------------

  NO   OCC          E(Eh)            E(eV)
   0   2.0000     -24.558120      -668.2604
   1   2.0000     -18.982142      -516.5304
   2   2.0000     -14.198361      -386.3570
   3   2.0000     -10.299815      -280.2722
   4   2.0000     -10.145647      -276.0771
   5   2.0000     -10.130171      -275.6560
   6   2.0000     -10.123635      -275.4781
   7   2.0000     -10.117478      -275.3106
   8   2.0000     -10.114904      -275.2405
   9   2.0000     -10.112839      -275.1843
  10   2.0000     -10.108231      -275.0590
  11   2.0000     -10.019859      -272.6542
  12   2.0000      -1.475990       -40.1637
  13   2.0000      -1.204940       -32.7881
  14   2.0000      -1.087888       -29.6029
  15   2.0000      -1.010644       -27.5010
  16   2.0000      -0.971247       -26.4290
  17   2.0000      -0.916296       -24.9337
  18   2.0000      -0.892547       -24.2874
  19   2.0000      -0.843211       -22.9449
  20   2.0000      -0.816674       -22.2228
  21   2.0000      -0.779643       -21.2152
  22   2.0000      -0.738693       -20.1009
  23   2.0000      -0.729448       -19.8493
  24   2.0000      -0.704526       -19.1711
  25   2.0000      -0.687633       -18.7115
  26   2.0000      -0.655652       -17.8412
  27   2.0000      -0.642544       -17.4845
  28   2.0000      -0.629409       -17.1271
  29   2.0000      -0.617857       -16.8127
  30   2.0000      -0.602302       -16.3895
  31   2.0000      -0.583780       -15.8854
  32   2.0000      -0.573273       -15.5996
  33   2.0000      -0.551389       -15.0041
  34   2.0000      -0.542132       -14.7522
  35   2.0000      -0.524730       -14.2786
  36   2.0000      -0.511217       -13.9109
  37   2.0000      -0.508816       -13.8456
  38   2.0000      -0.488927       -13.3044
  39   2.0000      -0.482615       -13.1326
  40   2.0000      -0.471385       -12.8270
  41   2.0000      -0.464199       -12.6315
  42   2.0000      -0.446886       -12.1604
  43   2.0000      -0.441041       -12.0013
  44   2.0000      -0.435376       -11.8472
  45   2.0000      -0.421420       -11.4674
  46   2.0000      -0.300681        -8.1819
  47   0.0000       0.071875         1.9558
  48   0.0000       0.107463         2.9242
  49   0.0000       0.118154         3.2151
  50   0.0000       0.135727         3.6933
  51   0.0000       0.141377         3.8471

MULLIKEN ATOMIC CHARGES
-----------------------
   0 C :   -0.402420
   1 C :   -0.245771
   2 C :   -0.362241
   3 H :    0.204226
   4 H :    0.184215
   5 C :    0.283324
   6 C :    0.213289
   7 C :   -0.483411
   8 N :   -0.493646
   9 H :    0.245122
  10 H :    0.254763
  11 H :    0.124402
  12 H :    0.141767
  13 F :   -0.080122
  14 O :   -0.273281
  15 C :   -0.266497
  16 C :   -0.330332
  17 H :    0.148255
  18 H :    0.149383
  19 C :   -0.370352
  20 H :    0.210919
  21 H :    0.152328
  22 H :    0.171258
  23 H :    0.158669
  24 H :    0.154747
  25 H :    0.159514
  26 H :    0.182140
  27 H :    0.169749
Sum of atomic charges:    0.0000000

LOEWDIN ATOMIC CHARGES
----------------------
   0 C :   -0.233306
   1 C :   -0.282575
   2 C :   -0.251392
   3 H :    0.166928
   4 H :    0.164213
   5 C :   -0.510796
   6 C :   -0.386064
   7 C :   -0.276982
   8 N :   -0.023386
   9 H :    0.169939
  10 H :    0.175486
  11 H :    0.102829
  12 H :    0.110062
  13 F :    0.332968
  14 O :    0.102457
  15 C :   -0.278486
  16 C :   -0.276775
  17 H :    0.145984
  18 H :    0.139897
  19 C :   -0.287849
  20 H :    0.157009
  21 H :    0.144031
  22 H :    0.144570
  23 H :    0.147068
  24 H :    0.149143
  25 H :    0.148509
  26 H :    0.154094
  27 H :    0.152424

  Mayer bond orders larger than 0.100000
B(  0-C ,  6-C ) :   0.9007 B(  0-C , 15-C ) :   0.9002 B(  0-C , 26-H ) :   1.0121
B(  0-C , 27-H ) :   0.9825 B(  1-C ,  2-C ) :   0.9104 B(  1-C , 19-C ) :   0.9315
B(  1-C , 24-H ) :   0.9753 B(  1-C , 25-H ) :   0.9842 B(  2-C ,  3-H ) :   0.9601
B(  2-C ,  4-H ) :   0.9547 B(  2-C ,  5-C ) :   0.9721 B(  5-C , 13-F ) :   1.1447
B(  5-C , 14-O ) :   2.0850 B(  6-C ,  7-C ) :   1.7218 B(  6-C ,  8-N ) :   1.0988
B(  7-C , 11-H ) :   1.0273 B(  7-C , 12-H ) :   1.0109 B(  8-N ,  9-H ) :   0.9292
B(  8-N , 10-H ) :   0.9215 B( 15-C , 16-C ) :   0.9302 B( 15-C , 17-H ) :   0.9813
B( 15-C , 18-H ) :   0.9846 B( 16-C , 19-C ) :   0.8957 B( 16-C , 20-H ) :   0.9641
B( 16-C , 21-H ) :   0.9729 B( 19-C , 22-H ) :   0.9911 B( 19-C , 23-H ) :   0.9686

FINAL SINGLE POINT ENERGY      -580.765581322892

DIPOLE MOMENT
-------------
                                X             Y             Z
Electronic contribution:     -3.71197      -1.60246     -10.19582
Nuclear contribution   :      3.32973       2.37270      11.37738
                        -----------------------------------------
Total Dipole Moment    :     -0.38224       0.77024       1.18156
                        -----------------------------------------
Magnitude (a.u.)       :      1.46132
Magnitude (Debye)      :      3.71439

Rotational constants in cm-1:     0.040902     0.025807     0.019036
Rotational constants in MHz :  1226.202138   773.670450   570.681201

                             ****ORCA TERMINATED NORMALLY****
TOTAL RUN TIME: 0 days 0 hours 1 minutes 4 seconds 637 msec
