                         Program Version 5.0.0 -  RELEASE  -
|  1> !LC-PBE RIJCOSX def2-TZVP def2/J TightSCF xyzfile
|  2>
|  3> *xyzfile 0 1 D2.xyz
|  4>
|  5> %MaxCore 64000
|  6>
|  7> %pal nprocs 18
|  8> end
|  9>
| 10> %scf
| 11>   MaxIter 150
| 12> end
| 13>
| 14>
| 15>                          ****END OF INPUT****

CARTESIAN COORDINATES (ANGSTROEM)
---------------------------------
  C      2.486452   -2.677121   -2.563447
  C     -0.870963    0.248043   -2.662804
  C     -0.477492    0.608191   -4.101052
  H      0.206773    1.458299   -4.118748
  H     -1.368442    0.929419   -4.647855
  C      0.184673   -0.506640   -4.916760
  C      3.037640   -2.366715   -3.923509
  N      2.280360   -2.454408   -4.967692
  C      4.321736   -2.017932   -4.016641
  H      4.879940   -1.911668   -3.173823
  H      4.710148   -1.670882   -4.883561
  H      1.270423   -2.412650   -4.866143
  H      2.581829   -2.055282   -5.846878
  F     -0.158685   -1.701088   -4.657981
  O      1.055938   -0.174410   -5.740373
  C      2.497991   -1.469464   -1.610303
  C      1.582841   -0.321986   -2.042619
  H      2.193083   -1.833912   -0.625420
  H      3.523356   -1.103982   -1.490392
  C      0.100160   -0.673551   -1.915815
  H      1.822311   -0.040361   -3.072834
  H      1.813180    0.557019   -1.433266
  H     -0.063284   -1.679120   -2.301112
  H     -0.168820   -0.691680   -0.853831
  H     -1.001048    1.181040   -2.104071
  H     -1.844645   -0.246592   -2.663281
  H      1.472592   -3.051527   -2.694366
  H      3.083201   -3.490638   -2.141472

 Total Charge           Charge          ....    0
 Multiplicity           Mult            ....    1
 Number of Electrons    NEL             ....   94
 Basis Dimension        Dim             ....  468

ORBITAL ENERGIES
----------------

  NO   OCC          E(Eh)            E(eV)
   0   2.0000     -24.587137      -669.0500
   1   2.0000     -19.002626      -517.0878
   2   2.0000     -14.188735      -386.0951
   3   2.0000     -10.319305      -280.8026
   4   2.0000     -10.157324      -276.3948
   5   2.0000     -10.137850      -275.8649
   6   2.0000     -10.128632      -275.6141
   7   2.0000     -10.122962      -275.4598
   8   2.0000     -10.115419      -275.2545
   9   2.0000     -10.112573      -275.1771
  10   2.0000     -10.109520      -275.0940
  11   2.0000     -10.029134      -272.9066
  12   2.0000      -1.503532       -40.9132
  13   2.0000      -1.225339       -33.3432
  14   2.0000      -1.098559       -29.8933
  15   2.0000      -1.018781       -27.7224
  16   2.0000      -0.974291       -26.5118
  17   2.0000      -0.928176       -25.2570
  18   2.0000      -0.877463       -23.8770
  19   2.0000      -0.855192       -23.2710
  20   2.0000      -0.830877       -22.6093
  21   2.0000      -0.790201       -21.5025
  22   2.0000      -0.752755       -20.4835
  23   2.0000      -0.743189       -20.2232
  24   2.0000      -0.724173       -19.7058
  25   2.0000      -0.690523       -18.7901
  26   2.0000      -0.661055       -17.9882
  27   2.0000      -0.646156       -17.5828
  28   2.0000      -0.631557       -17.1855
  29   2.0000      -0.625242       -17.0137
  30   2.0000      -0.615673       -16.7533
  31   2.0000      -0.588822       -16.0227
  32   2.0000      -0.570302       -15.5187
  33   2.0000      -0.560767       -15.2592
  34   2.0000      -0.547944       -14.9103
  35   2.0000      -0.532628       -14.4936
  36   2.0000      -0.522916       -14.2293
  37   2.0000      -0.512164       -13.9367
  38   2.0000      -0.499474       -13.5914
  39   2.0000      -0.487377       -13.2622
  40   2.0000      -0.476606       -12.9691
  41   2.0000      -0.470024       -12.7900
  42   2.0000      -0.457453       -12.4479
  43   2.0000      -0.449402       -12.2288
  44   2.0000      -0.440317       -11.9816
  45   2.0000      -0.434396       -11.8205
  46   2.0000      -0.290548        -7.9062
  47   0.0000       0.053877         1.4661
  48   0.0000       0.101478         2.7614
  49   0.0000       0.125028         3.4022
  50   0.0000       0.134710         3.6657
  51   0.0000       0.142116         3.8672

MULLIKEN ATOMIC CHARGES
-----------------------
   0 C :   -0.387701
   1 C :   -0.245645
   2 C :   -0.367230
   3 H :    0.211279
   4 H :    0.188281
   5 C :    0.279324
   6 C :    0.149101
   7 N :   -0.416365
   8 C :   -0.477293
   9 H :    0.115858
  10 H :    0.126497
  11 H :    0.236782
  12 H :    0.262313
  13 F :   -0.093819
  14 O :   -0.273697
  15 C :   -0.273613
  16 C :   -0.325179
  17 H :    0.142115
  18 H :    0.168601
  19 C :   -0.379558
  20 H :    0.206254
  21 H :    0.155741
  22 H :    0.169663
  23 H :    0.162801
  24 H :    0.158983
  25 H :    0.161997
  26 H :    0.162848
  27 H :    0.181664
Sum of atomic charges:   -0.0000000

LOEWDIN ATOMIC CHARGES
----------------------
   0 C :   -0.229992
   1 C :   -0.282197
   2 C :   -0.249609
   3 H :    0.169651
   4 H :    0.165950
   5 C :   -0.514895
   6 C :   -0.393790
   7 N :    0.021097
   8 C :   -0.299859
   9 H :    0.107742
  10 H :    0.101732
  11 H :    0.148790
  12 H :    0.179265
  13 F :    0.328863
  14 O :    0.096218
  15 C :   -0.270277
  16 C :   -0.277286
  17 H :    0.144271
  18 H :    0.149066
  19 C :   -0.289650
  20 H :    0.155631
  21 H :    0.145747
  22 H :    0.142041
  23 H :    0.148557
  24 H :    0.150930
  25 H :    0.148713
  26 H :    0.141300
  27 H :    0.161990

  Mayer bond orders larger than 0.100000
B(  0-C ,  6-C ) :   0.8686 B(  0-C , 15-C ) :   0.9220 B(  0-C , 26-H ) :   1.0250
B(  0-C , 27-H ) :   0.9760 B(  1-C ,  2-C ) :   0.9088 B(  1-C , 19-C ) :   0.9254
B(  1-C , 24-H ) :   0.9734 B(  1-C , 25-H ) :   0.9853 B(  2-C ,  3-H ) :   0.9575
B(  2-C ,  4-H ) :   0.9506 B(  2-C ,  5-C ) :   0.9757 B(  5-C , 13-F ) :   1.1192
B(  5-C , 14-O ) :   2.0843 B(  6-C ,  7-N ) :   1.2052 B(  6-C ,  8-C ) :   1.7358
B(  7-N , 11-H ) :   0.9157 B(  7-N , 12-H ) :   0.9208 B(  8-C ,  9-H ) :   0.9928
B(  8-C , 10-H ) :   0.9946 B( 15-C , 16-C ) :   0.9483 B( 15-C , 17-H ) :   0.9795
B( 15-C , 18-H ) :   0.9743 B( 16-C , 19-C ) :   0.8853 B( 16-C , 20-H ) :   0.9598
B( 16-C , 21-H ) :   0.9709 B( 19-C , 22-H ) :   0.9934 B( 19-C , 23-H ) :   0.9692

FINAL SINGLE POINT ENERGY      -580.776641014107

DIPOLE MOMENT
-------------
                                X             Y             Z
Electronic contribution:     -5.37578      -1.76601     -10.83139
Nuclear contribution   :      3.65024       2.44123      11.52670
                        -----------------------------------------
Total Dipole Moment    :     -1.72554       0.67522       0.69532
                        -----------------------------------------
Magnitude (a.u.)       :      1.97911
Magnitude (Debye)      :      5.03050

Rotational constants in cm-1:     0.040600     0.026409     0.019262
Rotational constants in MHz :  1217.142957   791.712481   577.449390

                             ****ORCA TERMINATED NORMALLY****
TOTAL RUN TIME: 0 days 0 hours 0 minutes 59 seconds 366 msec
