                         Program Version 5.0.0 -  RELEASE  -
|  1> !LC-PBE RIJCOSX def2-TZVP def2/J TightSCF xyzfile
|  2>
|  3> *xyzfile 0 1 D3.xyz
|  4>
|  5> %MaxCore 64000
|  6>
|  7> %pal nprocs 18
|  8> end
|  9>
| 10> %scf
| 11>   MaxIter 150
| 12> end
| 13>
| 14>
| 15>                          ****END OF INPUT****

CARTESIAN COORDINATES (ANGSTROEM)
---------------------------------
  C      2.486452   -2.677121   -2.563447
  C     -0.870963    0.248043   -2.662804
  C     -0.477492    0.608191   -4.101052
  H      0.206773    1.458299   -4.118748
  H     -1.368442    0.929419   -4.647855
  C      0.184673   -0.506640   -4.916760
  C      3.037640   -2.366715   -3.923509
  C      2.280360   -2.454408   -4.967692
  N      4.321736   -2.017932   -4.016641
  H      4.879940   -1.911668   -3.173823
  H      4.710148   -1.670882   -4.883561
  H      1.270423   -2.412650   -4.866143
  H      2.581829   -2.055282   -5.846878
  O     -0.158685   -1.701088   -4.657981
  F      1.055938   -0.174410   -5.740373
  C      2.497991   -1.469464   -1.610303
  C      1.582841   -0.321986   -2.042619
  H      2.193083   -1.833912   -0.625420
  H      3.523356   -1.103982   -1.490392
  C      0.100160   -0.673551   -1.915815
  H      1.822311   -0.040361   -3.072834
  H      1.813180    0.557019   -1.433266
  H     -0.063284   -1.679120   -2.301112
  H     -0.168820   -0.691680   -0.853831
  H     -1.001048    1.181040   -2.104071
  H     -1.844645   -0.246592   -2.663281
  H      1.472592   -3.051527   -2.694366
  H      3.083201   -3.490638   -2.141472

 Total Charge           Charge          ....    0
 Multiplicity           Mult            ....    1
 Number of Electrons    NEL             ....   94
 Basis Dimension        Dim             ....  468

ORBITAL ENERGIES
----------------

  NO   OCC          E(Eh)            E(eV)
   0   2.0000     -24.565917      -668.4726
   1   2.0000     -18.981211      -516.5050
   2   2.0000     -14.197195      -386.3253
   3   2.0000     -10.306113      -280.4436
   4   2.0000     -10.148574      -276.1567
   5   2.0000     -10.126967      -275.5688
   6   2.0000     -10.120861      -275.4026
   7   2.0000     -10.111581      -275.1501
   8   2.0000     -10.110866      -275.1306
   9   2.0000     -10.108140      -275.0565
  10   2.0000     -10.102657      -274.9073
  11   2.0000     -10.011911      -272.4379
  12   2.0000      -1.487567       -40.4788
  13   2.0000      -1.200576       -32.6693
  14   2.0000      -1.086253       -29.5584
  15   2.0000      -1.004770       -27.3412
  16   2.0000      -0.968568       -26.3561
  17   2.0000      -0.914494       -24.8846
  18   2.0000      -0.889976       -24.2175
  19   2.0000      -0.845480       -23.0067
  20   2.0000      -0.814560       -22.1653
  21   2.0000      -0.775080       -21.0910
  22   2.0000      -0.734524       -19.9874
  23   2.0000      -0.720550       -19.6072
  24   2.0000      -0.704533       -19.1713
  25   2.0000      -0.682322       -18.5669
  26   2.0000      -0.669750       -18.2248
  27   2.0000      -0.653790       -17.7905
  28   2.0000      -0.627070       -17.0634
  29   2.0000      -0.616495       -16.7757
  30   2.0000      -0.597708       -16.2645
  31   2.0000      -0.581573       -15.8254
  32   2.0000      -0.575749       -15.6669
  33   2.0000      -0.540955       -14.7201
  34   2.0000      -0.535792       -14.5796
  35   2.0000      -0.532873       -14.5002
  36   2.0000      -0.512118       -13.9354
  37   2.0000      -0.500263       -13.6128
  38   2.0000      -0.488421       -13.2906
  39   2.0000      -0.487661       -13.2699
  40   2.0000      -0.465675       -12.6717
  41   2.0000      -0.459210       -12.4957
  42   2.0000      -0.442485       -12.0406
  43   2.0000      -0.439021       -11.9464
  44   2.0000      -0.434754       -11.8302
  45   2.0000      -0.396419       -10.7871
  46   2.0000      -0.299290        -8.1441
  47   0.0000       0.065513         1.7827
  48   0.0000       0.110495         3.0067
  49   0.0000       0.120533         3.2799
  50   0.0000       0.134476         3.6593
  51   0.0000       0.146676         3.9912

MULLIKEN ATOMIC CHARGES
-----------------------
   0 C :   -0.391772
   1 C :   -0.231867
   2 C :   -0.374117
   3 H :    0.189501
   4 H :    0.185789
   5 C :    0.321119
   6 C :    0.196074
   7 C :   -0.536257
   8 N :   -0.487652
   9 H :    0.245112
  10 H :    0.249172
  11 H :    0.194218
  12 H :    0.116603
  13 O :   -0.321064
  14 F :   -0.051803
  15 C :   -0.269983
  16 C :   -0.309363
  17 H :    0.149206
  18 H :    0.145852
  19 C :   -0.366068
  20 H :    0.175898
  21 H :    0.149812
  22 H :    0.190733
  23 H :    0.154878
  24 H :    0.153065
  25 H :    0.158886
  26 H :    0.196293
  27 H :    0.167734
Sum of atomic charges:   -0.0000000

LOEWDIN ATOMIC CHARGES
----------------------
   0 C :   -0.230514
   1 C :   -0.272248
   2 C :   -0.255345
   3 H :    0.155785
   4 H :    0.166012
   5 C :   -0.504606
   6 C :   -0.389271
   7 C :   -0.280628
   8 N :   -0.027131
   9 H :    0.169403
  10 H :    0.172727
  11 H :    0.103922
  12 H :    0.101626
  13 O :    0.072651
  14 F :    0.371513
  15 C :   -0.278086
  16 C :   -0.276224
  17 H :    0.146642
  18 H :    0.138392
  19 C :   -0.285211
  20 H :    0.149714
  21 H :    0.142638
  22 H :    0.151610
  23 H :    0.145349
  24 H :    0.148110
  25 H :    0.152289
  26 H :    0.159291
  27 H :    0.151591

  Mayer bond orders larger than 0.100000
B(  0-C ,  6-C ) :   0.8954 B(  0-C , 15-C ) :   0.8998 B(  0-C , 26-H ) :   1.0074
B(  0-C , 27-H ) :   0.9836 B(  1-C ,  2-C ) :   0.9283 B(  1-C , 19-C ) :   0.9445
B(  1-C , 24-H ) :   0.9783 B(  1-C , 25-H ) :   0.9752 B(  2-C ,  3-H ) :   0.9580
B(  2-C ,  4-H ) :   0.9471 B(  2-C ,  5-C ) :   0.9810 B(  5-C , 13-O ) :   1.9737
B(  5-C , 14-F ) :   1.2152 B(  6-C ,  7-C ) :   1.7168 B(  6-C ,  8-N ) :   1.0924
B(  7-C , 11-H ) :   0.9902 B(  7-C , 12-H ) :   1.0231 B(  8-N ,  9-H ) :   0.9293
B(  8-N , 10-H ) :   0.9230 B( 15-C , 16-C ) :   0.9381 B( 15-C , 17-H ) :   0.9814
B( 15-C , 18-H ) :   0.9858 B( 16-C , 19-C ) :   0.9051 B( 16-C , 20-H ) :   0.9688
B( 16-C , 21-H ) :   0.9740 B( 19-C , 22-H ) :   0.9806 B( 19-C , 23-H ) :   0.9685

FINAL SINGLE POINT ENERGY      -580.759871332459

DIPOLE MOMENT
-------------
                                X             Y             Z
Electronic contribution:     -1.75229       0.97066     -12.08519
Nuclear contribution   :      1.88979       0.56282      12.66056
                        -----------------------------------------
Total Dipole Moment    :      0.13750       1.53348       0.57537
                        -----------------------------------------
Magnitude (a.u.)       :      1.64363
Magnitude (Debye)      :      4.17778

Rotational constants in cm-1:     0.040271     0.025954     0.018866
Rotational constants in MHz :  1207.302496   778.083475   565.600538

                             ****ORCA TERMINATED NORMALLY****
TOTAL RUN TIME: 0 days 0 hours 0 minutes 47 seconds 105 msec
