                         Program Version 5.0.0 -  RELEASE  -
|  1> !LC-PBE RIJCOSX def2-TZVP def2/J TightSCF xyzfile
|  2>
|  3> *xyzfile 0 1 D4.xyz
|  4>
|  5> %MaxCore 64000
|  6>
|  7> %pal nprocs 18
|  8> end
|  9>
| 10> %scf
| 11>   MaxIter 150
| 12> end
| 13>
| 14>
| 15>                          ****END OF INPUT****

CARTESIAN COORDINATES (ANGSTROEM)
---------------------------------
  C      2.486452   -2.677121   -2.563447
  C     -0.870963    0.248043   -2.662804
  C     -0.477492    0.608191   -4.101052
  H      0.206773    1.458299   -4.118748
  H     -1.368442    0.929419   -4.647855
  C      0.184673   -0.506640   -4.916760
  C      3.037640   -2.366715   -3.923509
  N      2.280360   -2.454408   -4.967692
  C      4.321736   -2.017932   -4.016641
  H      4.879940   -1.911668   -3.173823
  H      4.710148   -1.670882   -4.883561
  H      1.270423   -2.412650   -4.866143
  H      2.581829   -2.055282   -5.846878
  O     -0.158685   -1.701088   -4.657981
  F      1.055938   -0.174410   -5.740373
  C      2.497991   -1.469464   -1.610303
  C      1.582841   -0.321986   -2.042619
  H      2.193083   -1.833912   -0.625420
  H      3.523356   -1.103982   -1.490392
  C      0.100160   -0.673551   -1.915815
  H      1.822311   -0.040361   -3.072834
  H      1.813180    0.557019   -1.433266
  H     -0.063284   -1.679120   -2.301112
  H     -0.168820   -0.691680   -0.853831
  H     -1.001048    1.181040   -2.104071
  H     -1.844645   -0.246592   -2.663281
  H      1.472592   -3.051527   -2.694366
  H      3.083201   -3.490638   -2.141472

 Total Charge           Charge          ....    0
 Multiplicity           Mult            ....    1
 Number of Electrons    NEL             ....   94
 Basis Dimension        Dim             ....  468

ORBITAL ENERGIES
----------------

  NO   OCC          E(Eh)            E(eV)
   0   2.0000     -24.588443      -669.0855
   1   2.0000     -19.008480      -517.2470
   2   2.0000     -14.179614      -385.8469
   3   2.0000     -10.330056      -281.0951
   4   2.0000     -10.161789      -276.5163
   5   2.0000     -10.135583      -275.8032
   6   2.0000     -10.125556      -275.5304
   7   2.0000     -10.114061      -275.2176
   8   2.0000     -10.113745      -275.2090
   9   2.0000     -10.108967      -275.0790
  10   2.0000     -10.103264      -274.9238
  11   2.0000     -10.026649      -272.8390
  12   2.0000      -1.510018       -41.0897
  13   2.0000      -1.227134       -33.3920
  14   2.0000      -1.092502       -29.7285
  15   2.0000      -1.014165       -27.5968
  16   2.0000      -0.971904       -26.4468
  17   2.0000      -0.926389       -25.2083
  18   2.0000      -0.879587       -23.9348
  19   2.0000      -0.850367       -23.1397
  20   2.0000      -0.828021       -22.5316
  21   2.0000      -0.785208       -21.3666
  22   2.0000      -0.745228       -20.2787
  23   2.0000      -0.736295       -20.0356
  24   2.0000      -0.712861       -19.3979
  25   2.0000      -0.701997       -19.1023
  26   2.0000      -0.678300       -18.4575
  27   2.0000      -0.645992       -17.5783
  28   2.0000      -0.631619       -17.1872
  29   2.0000      -0.624187       -16.9850
  30   2.0000      -0.617361       -16.7993
  31   2.0000      -0.589055       -16.0290
  32   2.0000      -0.566551       -15.4166
  33   2.0000      -0.551739       -15.0136
  34   2.0000      -0.544787       -14.8244
  35   2.0000      -0.532142       -14.4803
  36   2.0000      -0.516344       -14.0504
  37   2.0000      -0.508259       -13.8304
  38   2.0000      -0.494617       -13.4592
  39   2.0000      -0.490651       -13.3513
  40   2.0000      -0.470411       -12.8005
  41   2.0000      -0.466727       -12.7003
  42   2.0000      -0.453224       -12.3328
  43   2.0000      -0.448108       -12.1936
  44   2.0000      -0.441656       -12.0181
  45   2.0000      -0.426483       -11.6052
  46   2.0000      -0.287867        -7.8332
  47   0.0000       0.044243         1.2039
  48   0.0000       0.105319         2.8659
  49   0.0000       0.127524         3.4701
  50   0.0000       0.137387         3.7385
  51   0.0000       0.140032         3.8105

MULLIKEN ATOMIC CHARGES
-----------------------
   0 C :   -0.380294
   1 C :   -0.231375
   2 C :   -0.381752
   3 H :    0.198692
   4 H :    0.191073
   5 C :    0.327598
   6 C :    0.130781
   7 N :   -0.438075
   8 C :   -0.474693
   9 H :    0.115743
  10 H :    0.116938
  11 H :    0.275493
  12 H :    0.237037
  13 O :   -0.341153
  14 F :   -0.049058
  15 C :   -0.275400
  16 C :   -0.304871
  17 H :    0.142817
  18 H :    0.165371
  19 C :   -0.373777
  20 H :    0.168830
  21 H :    0.153532
  22 H :    0.190558
  23 H :    0.159400
  24 H :    0.157959
  25 H :    0.161639
  26 H :    0.177850
  27 H :    0.179137
Sum of atomic charges:    0.0000000

LOEWDIN ATOMIC CHARGES
----------------------
   0 C :   -0.227533
   1 C :   -0.271573
   2 C :   -0.252290
   3 H :    0.159483
   4 H :    0.168441
   5 C :   -0.499968
   6 C :   -0.394085
   7 N :    0.015383
   8 C :   -0.309298
   9 H :    0.107207
  10 H :    0.099083
  11 H :    0.145009
  12 H :    0.169850
  13 O :    0.062431
  14 F :    0.368809
  15 C :   -0.270006
  16 C :   -0.276527
  17 H :    0.144856
  18 H :    0.147607
  19 C :   -0.286582
  20 H :    0.148102
  21 H :    0.144394
  22 H :    0.149609
  23 H :    0.146981
  24 H :    0.150132
  25 H :    0.152639
  26 H :    0.146910
  27 H :    0.160936

  Mayer bond orders larger than 0.100000
B(  0-C ,  6-C ) :   0.8667 B(  0-C , 15-C ) :   0.9213 B(  0-C , 26-H ) :   1.0202
B(  0-C , 27-H ) :   0.9767 B(  1-C ,  2-C ) :   0.9257 B(  1-C , 19-C ) :   0.9388
B(  1-C , 24-H ) :   0.9764 B(  1-C , 25-H ) :   0.9761 B(  2-C ,  3-H ) :   0.9554
B(  2-C ,  4-H ) :   0.9408 B(  2-C ,  5-C ) :   0.9858 B(  5-C , 13-O ) :   1.9354
B(  5-C , 14-F ) :   1.2200 B(  6-C ,  7-N ) :   1.2113 B(  6-C ,  8-C ) :   1.7337
B(  7-N , 11-H ) :   0.8594 B(  7-N , 12-H ) :   0.9312 B(  8-C ,  9-H ) :   0.9932
B(  8-C , 10-H ) :   0.9959 B( 11-H , 13-O ) :   0.1020 B( 15-C , 16-C ) :   0.9558
B( 15-C , 17-H ) :   0.9795 B( 15-C , 18-H ) :   0.9761 B( 16-C , 19-C ) :   0.8966
B( 16-C , 20-H ) :   0.9633 B( 16-C , 21-H ) :   0.9721 B( 19-C , 22-H ) :   0.9824
B( 19-C , 23-H ) :   0.9691

FINAL SINGLE POINT ENERGY      -580.778282766636

DIPOLE MOMENT
-------------
                                X             Y             Z
Electronic contribution:     -3.45974       0.85495     -12.72256
Nuclear contribution   :      2.21030       0.63135      12.80988
                        -----------------------------------------
Total Dipole Moment    :     -1.24944       1.48630       0.08733
                        -----------------------------------------
Magnitude (a.u.)       :      1.94366
Magnitude (Debye)      :      4.94038

Rotational constants in cm-1:     0.039980     0.026547     0.019089
Rotational constants in MHz :  1198.568620   795.867393   572.288555

                             ****ORCA TERMINATED NORMALLY****
TOTAL RUN TIME: 0 days 0 hours 0 minutes 48 seconds 98 msec
