                         Program Version 5.0.0 -  RELEASE  -
|  1> !PBE D3BJ RIJCOSX def2-TZVPD def2/J TightSCF
|  2> *xyz -1 1
|  3> C          3.76678       -2.26611       -6.51175
|  4> C          2.49670       -1.84416       -5.73570
|  5> H          1.62642       -2.21743       -6.30895
|  6> H          2.48182       -2.45607       -4.79341
|  7> O          2.45973       -0.50920       -5.50576
|  8> H          3.82914       -1.70941       -7.42340
|  9> H          3.71764       -3.31144       -6.73483
| 10> H          4.63199       -2.06931       -5.91377
| 11> *
| 12>
| 13> %MaxCore 64000
| 14>
| 15> %pal nprocs 4
| 16> end
| 17>
| 18> %scf
| 19>   MaxIter 150
| 20> end
| 21>
| 22>
| 23>                          ****END OF INPUT****

CARTESIAN COORDINATES (ANGSTROEM)
---------------------------------
  C      3.766780   -2.266110   -6.511750
  C      2.496700   -1.844160   -5.735700
  H      1.626420   -2.217430   -6.308950
  H      2.481820   -2.456070   -4.793410
  O      2.459730   -0.509200   -5.505760
  H      3.829140   -1.709410   -7.423400
  H      3.717640   -3.311440   -6.734830
  H      4.631990   -2.069310   -5.913770

 Total Charge           Charge          ....   -1
 Multiplicity           Mult            ....    1
 Number of Electrons    NEL             ....   26
 Basis Dimension        Dim             ....  159

ORBITAL ENERGIES
----------------

  NO   OCC          E(Eh)            E(eV)
   0   2.0000     -18.434512      -501.6286
   1   2.0000      -9.698747      -263.9163
   2   2.0000      -9.671988      -263.1882
   3   2.0000      -0.613815       -16.7027
   4   2.0000      -0.457781       -12.4569
   5   2.0000      -0.316257        -8.6058
   6   2.0000      -0.203045        -5.5251
   7   2.0000      -0.181942        -4.9509
   8   2.0000      -0.133176        -3.6239
   9   2.0000      -0.115663        -3.1474
  10   2.0000      -0.080886        -2.2010
  11   2.0000       0.059516         1.6195
  12   2.0000       0.063020         1.7149
  13   0.0000       0.140682         3.8282
  14   0.0000       0.163076         4.4375
  15   0.0000       0.187609         5.1051
  16   0.0000       0.191326         5.2063
  17   0.0000       0.212442         5.7808

MULLIKEN ATOMIC CHARGES
-----------------------
   0 C :   -0.987627
   1 C :   -0.177861
   2 H :    0.131045
   3 H :    0.126221
   4 O :   -0.855235
   5 H :    0.211713
   6 H :    0.341522
   7 H :    0.210222
Sum of atomic charges:   -1.0000000

LOEWDIN ATOMIC CHARGES
----------------------
   0 C :   -0.182019
   1 C :   -0.642228
   2 H :    0.047229
   3 H :    0.052775
   4 O :   -0.362403
   5 H :    0.034823
   6 H :    0.018251
   7 H :    0.033573

  Mayer bond orders larger than 0.100000
B(  0-C ,  1-C ) :   0.8847 B(  0-C ,  4-O ) :   0.6166 B(  0-C ,  5-H ) :   1.0144
B(  0-C ,  6-H ) :   0.9691 B(  0-C ,  7-H ) :   1.0092 B(  1-C ,  2-H ) :   1.0842
B(  1-C ,  3-H ) :   1.0734 B(  1-C ,  4-O ) :   0.9004 B(  2-H ,  3-H ) :   0.1309
B(  4-O ,  6-H ) :  -0.1217

Dispersion correction           -0.003763250
FINAL SINGLE POINT ENERGY      -154.301957647962

DIPOLE MOMENT
-------------
                                X             Y             Z
Electronic contribution:     -1.18796       2.75906       1.05363
Nuclear contribution   :      1.63615      -3.79938      -1.48621
                        -----------------------------------------
Total Dipole Moment    :      0.44820      -1.04032      -0.43258
                        -----------------------------------------
Magnitude (a.u.)       :      1.21255
Magnitude (Debye)      :      3.08206

Rotational constants in cm-1:     1.265582     0.329289     0.289024
Rotational constants in MHz : 37941.194363  9871.829581  8664.719106

                             ****ORCA TERMINATED NORMALLY****
TOTAL RUN TIME: 0 days 0 hours 0 minutes 9 seconds 37 msec
