                         Program Version 5.0.0 -  RELEASE  -
|  1> !PBE D3BJ RIJCOSX def2-TZVPD def2/J TightSCF
|  2> *xyz 1 1
|  3> C          4.99986       -1.59613       -5.92488
|  4> N          5.28156       -1.97413       -4.53576
|  5> C          3.76678       -2.26611       -6.51175
|  6> C          4.79250       -1.36132       -3.45730
|  7> N          3.93990       -0.37492       -3.55736
|  8> N          5.25986       -1.75422       -2.23913
|  9> H          5.92282       -2.52145       -2.18672
| 10> H          4.65468       -1.64040       -1.44202
| 11> H          5.70914       -2.87560       -4.38702
| 12> H          3.33010       -0.31764       -4.36125
| 13> H          3.69849        0.11447       -2.70833
| 14> H          4.84333       -0.51793       -5.94302
| 15> H          5.90170       -1.82250       -6.49647
| 16> H          3.63046       -1.94025       -7.52177
| 17> H          2.90710       -2.00116       -5.93240
| 18> H          3.89538       -3.32820       -6.49392
| 19> *
| 20>
| 21> %MaxCore 64000
| 22>
| 23> %pal nprocs 4
| 24> end
| 25>
| 26> %scf
| 27>   MaxIter 150
| 28> end
| 29>
| 30>
| 31>                          ****END OF INPUT****

CARTESIAN COORDINATES (ANGSTROEM)
---------------------------------
  C      4.999860   -1.596130   -5.924880
  N      5.281560   -1.974130   -4.535760
  C      3.766780   -2.266110   -6.511750
  C      4.792500   -1.361320   -3.457300
  N      3.939900   -0.374920   -3.557360
  N      5.259860   -1.754220   -2.239130
  H      5.922820   -2.521450   -2.186720
  H      4.654680   -1.640400   -1.442020
  H      5.709140   -2.875600   -4.387020
  H      3.330100   -0.317640   -4.361250
  H      3.698490    0.114470   -2.708330
  H      4.843330   -0.517930   -5.943020
  H      5.901700   -1.822500   -6.496470
  H      3.630460   -1.940250   -7.521770
  H      2.907100   -2.001160   -5.932400
  H      3.895380   -3.328200   -6.493920

 Total Charge           Charge          ....    1
 Multiplicity           Mult            ....    1
 Number of Electrons    NEL             ....   48
 Basis Dimension        Dim             ....  312

ORBITAL ENERGIES
----------------

  NO   OCC          E(Eh)            E(eV)
   0   2.0000     -14.210810      -386.6958
   1   2.0000     -14.209317      -386.6552
   2   2.0000     -14.202127      -386.4595
   3   2.0000     -10.203912      -277.6626
   4   2.0000     -10.087294      -274.4892
   5   2.0000     -10.020607      -272.6746
   6   2.0000      -1.130090       -30.7513
   7   2.0000      -1.028239       -27.9798
   8   2.0000      -1.013557       -27.5803
   9   2.0000      -0.863166       -23.4879
  10   2.0000      -0.782077       -21.2814
  11   2.0000      -0.744641       -20.2627
  12   2.0000      -0.734082       -19.9754
  13   2.0000      -0.686221       -18.6730
  14   2.0000      -0.646533       -17.5930
  15   2.0000      -0.642976       -17.4963
  16   2.0000      -0.595910       -16.2155
  17   2.0000      -0.580582       -15.7984
  18   2.0000      -0.560260       -15.2455
  19   2.0000      -0.518426       -14.1071
  20   2.0000      -0.491371       -13.3709
  21   2.0000      -0.472921       -12.8688
  22   2.0000      -0.439315       -11.9544
  23   2.0000      -0.414104       -11.2684
  24   0.0000      -0.210301        -5.7226
  25   0.0000      -0.180777        -4.9192
  26   0.0000      -0.150923        -4.1068
  27   0.0000      -0.139346        -3.7918
  28   0.0000      -0.123060        -3.3486

MULLIKEN ATOMIC CHARGES
-----------------------
   0 C :   -0.470158
   1 N :    0.016544
   2 C :   -0.687459
   3 C :    0.356561
   4 N :   -0.151668
   5 N :   -0.232905
   6 H :    0.186359
   7 H :    0.202929
   8 H :    0.214122
   9 H :    0.191232
  10 H :    0.178545
  11 H :    0.296680
  12 H :    0.168119
  13 H :    0.248587
  14 H :    0.246157
  15 H :    0.236355
Sum of atomic charges:    1.0000000

LOEWDIN ATOMIC CHARGES
----------------------
   0 C :   -0.206463
   1 N :    0.098674
   2 C :   -0.059150
   3 C :   -0.455657
   4 N :    0.237671
   5 N :    0.207735
   6 H :    0.131467
   7 H :    0.125435
   8 H :    0.161813
   9 H :    0.130810
  10 H :    0.143176
  11 H :    0.120533
  12 H :    0.132252
  13 H :    0.085787
  14 H :    0.066672
  15 H :    0.079246

  Mayer bond orders larger than 0.100000
B(  0-C ,  1-N ) :   0.9729 B(  0-C ,  2-C ) :   0.8262 B(  0-C ,  4-N ) :   0.1178
B(  0-C , 11-H ) :   0.8890 B(  0-C , 12-H ) :   0.9869 B(  1-N ,  3-C ) :   1.2540
B(  1-N ,  5-N ) :   0.1007 B(  1-N ,  8-H ) :   0.9354 B(  2-C , 13-H ) :   0.9826
B(  2-C , 14-H ) :   0.9550 B(  2-C , 15-H ) :   0.9856 B(  3-C ,  4-N ) :   1.2953
B(  3-C ,  5-N ) :   1.1770 B(  4-N ,  9-H ) :   0.9364 B(  4-N , 10-H ) :   0.9856
B(  5-N ,  6-H ) :   0.9604 B(  5-N ,  7-H ) :   0.9667

Dispersion correction           -0.012363524
FINAL SINGLE POINT ENERGY      -284.156277521981

DIPOLE MOMENT
-------------
                                X             Y             Z
Electronic contribution:      1.76036       1.09679       4.69853
Nuclear contribution   :     -1.95709      -1.20097      -3.70214
                        -----------------------------------------
Total Dipole Moment    :     -0.19672      -0.10418       0.99639
                        -----------------------------------------
Magnitude (a.u.)       :      1.02095
Magnitude (Debye)      :      2.59506

Rotational constants in cm-1:     0.241661     0.071598     0.061743
Rotational constants in MHz :  7244.800091  2146.442409  1851.001864

                             ****ORCA TERMINATED NORMALLY****
TOTAL RUN TIME: 0 days 0 hours 0 minutes 21 seconds 74 msec
