                         Program Version 5.0.0 -  RELEASE  -
|  1> !PBE D3BJ RIJCOSX def2-TZVPD def2/J TightSCF xyzfile
|  2>
|  3> *xyzfile 0 1 B.xyz
|  4>
|  5> %MaxCore 64000
|  6>
|  7> %pal nprocs 4
|  8> end
|  9>
| 10> %scf
| 11>   MaxIter 150
| 12> end
| 13>
| 14>
| 15>                          ****END OF INPUT****

CARTESIAN COORDINATES (ANGSTROEM)
---------------------------------
  C      4.999862   -1.596133   -5.924876
  N      5.281560   -1.974132   -4.535764
  C      3.766779   -2.266110   -6.511752
  C      2.496702   -1.844161   -5.735704
  H      1.626416   -2.217434   -6.308950
  H      2.481824   -2.456069   -4.793414
  O      2.459729   -0.509204   -5.505757
  C      4.792500   -1.361316   -3.457295
  N      3.939898   -0.374925   -3.557359
  N      5.259860   -1.754224   -2.239133
  H      5.922824   -2.521451   -2.186720
  H      4.654678   -1.640404   -1.442016
  H      5.709139   -2.875599   -4.387021
  H      3.330101   -0.317639   -4.361247
  H      3.698494    0.114468   -2.708333
  H      4.843333   -0.517930   -5.943019
  H      5.901695   -1.822503   -6.496467
  H      3.886191   -3.357076   -6.533604
  H      3.685602   -1.922168   -7.547128

 Total Charge           Charge          ....    0
 Multiplicity           Mult            ....    1
 Number of Electrons    NEL             ....   64
 Basis Dimension        Dim             ....  398

ORBITAL ENERGIES
----------------

  NO   OCC          E(Eh)            E(eV)
   0   2.0000     -18.616756      -506.5877
   1   2.0000     -14.045505      -382.1976
   2   2.0000     -14.040811      -382.0699
   3   2.0000     -13.997883      -380.9018
   4   2.0000     -10.026134      -272.8250
   5   2.0000      -9.914637      -269.7910
   6   2.0000      -9.865807      -268.4622
   7   2.0000      -9.852705      -268.1057
   8   2.0000      -0.955427       -25.9985
   9   2.0000      -0.856666       -23.3111
  10   2.0000      -0.840399       -22.8684
  11   2.0000      -0.804837       -21.9007
  12   2.0000      -0.688610       -18.7380
  13   2.0000      -0.614793       -16.7294
  14   2.0000      -0.574205       -15.6249
  15   2.0000      -0.556402       -15.1405
  16   2.0000      -0.530749       -14.4424
  17   2.0000      -0.487870       -13.2756
  18   2.0000      -0.471341       -12.8259
  19   2.0000      -0.452284       -12.3073
  20   2.0000      -0.422612       -11.4999
  21   2.0000      -0.409496       -11.1429
  22   2.0000      -0.388050       -10.5594
  23   2.0000      -0.360352        -9.8057
  24   2.0000      -0.319717        -8.6999
  25   2.0000      -0.300062        -8.1651
  26   2.0000      -0.289356        -7.8738
  27   2.0000      -0.267835        -7.2882
  28   2.0000      -0.259654        -7.0655
  29   2.0000      -0.240162        -6.5351
  30   2.0000      -0.131494        -3.5781
  31   2.0000      -0.124989        -3.4011
  32   0.0000      -0.051394        -1.3985
  33   0.0000      -0.034028        -0.9259
  34   0.0000      -0.014092        -0.3835
  35   0.0000       0.001297         0.0353
  36   0.0000       0.021674         0.5898

MULLIKEN ATOMIC CHARGES
-----------------------
   0 C :   -0.450656
   1 N :   -0.013842
   2 C :   -0.090355
   3 C :   -0.302482
   4 H :    0.136939
   5 H :    0.155359
   6 O :   -0.823528
   7 C :    0.228780
   8 N :   -0.076773
   9 N :   -0.271335
  10 H :    0.148897
  11 H :    0.173135
  12 H :    0.205226
  13 H :    0.155766
  14 H :    0.139409
  15 H :    0.263302
  16 H :    0.129958
  17 H :    0.150755
  18 H :    0.141447
Sum of atomic charges:   -0.0000000

LOEWDIN ATOMIC CHARGES
----------------------
   0 C :   -0.185538
   1 N :    0.090016
   2 C :   -0.186990
   3 C :   -0.460267
   4 H :    0.095509
   5 H :    0.090770
   6 O :   -0.254579
   7 C :   -0.480926
   8 N :    0.224182
   9 N :    0.163229
  10 H :    0.106277
  11 H :    0.106122
  12 H :    0.145617
  13 H :   -0.022892
  14 H :    0.125674
  15 H :    0.120791
  16 H :    0.114652
  17 H :    0.100002
  18 H :    0.108349

  Mayer bond orders larger than 0.100000
B(  0-C ,  1-N ) :   1.0038 B(  0-C ,  2-C ) :   0.9904 B(  0-C ,  6-O ) :   0.1463
B(  0-C , 15-H ) :   0.8366 B(  0-C , 16-H ) :   0.9805 B(  1-N ,  7-C ) :   1.2217
B(  1-N , 12-H ) :   0.9252 B(  2-C ,  3-C ) :   0.9730 B(  2-C , 17-H ) :   0.9991
B(  2-C , 18-H ) :   0.8986 B(  3-C ,  4-H ) :   1.0596 B(  3-C ,  5-H ) :   0.9447
B(  3-C ,  6-O ) :   1.0967 B(  6-O , 13-H ) :   0.2709 B(  7-C ,  8-N ) :   1.3642
B(  7-C ,  9-N ) :   1.0791 B(  8-N , 13-H ) :   0.7550 B(  8-N , 14-H ) :   1.0088
B(  9-N , 10-H ) :   0.9875 B(  9-N , 11-H ) :   0.9869

Dispersion correction           -0.017606166
FINAL SINGLE POINT ENERGY      -398.186469089043

DIPOLE MOMENT
-------------
                                X             Y             Z
Electronic contribution:      1.77840       2.06675       3.58030
Nuclear contribution   :      0.51577      -3.31768      -1.36804
                        -----------------------------------------
Total Dipole Moment    :      2.29417      -1.25093       2.21227
                        -----------------------------------------
Magnitude (a.u.)       :      3.42377
Magnitude (Debye)      :      8.70252

Rotational constants in cm-1:     0.111492     0.050787     0.040163
Rotational constants in MHz :  3342.457536  1522.560798  1204.057148

                             ****ORCA TERMINATED NORMALLY****
TOTAL RUN TIME: 0 days 0 hours 0 minutes 29 seconds 330 msec
