                         Program Version 5.0.0 -  RELEASE  -
|  1> !PBE D3BJ RIJCOSX def2-TZVPD def2/J TightSCF
|  2> *xyz 0 1
|  3> C          3.76678       -2.26611       -6.51175
|  4> C          2.49670       -1.84416       -5.73570
|  5> H          1.62642       -2.21743       -6.30895
|  6> H          2.48182       -2.45607       -4.79341
|  7> F          2.45973       -0.50920       -5.50576
|  8> H          3.82914       -1.70941       -7.42340
|  9> H          3.71764       -3.31144       -6.73483
| 10> H          4.63199       -2.06931       -5.91377
| 11> *
| 12>
| 13> %MaxCore 64000
| 14>
| 15> %pal nprocs 4
| 16> end
| 17>
| 18> %scf
| 19>   MaxIter 150
| 20> end
| 21>
| 22>
| 23>                          ****END OF INPUT****

CARTESIAN COORDINATES (ANGSTROEM)
---------------------------------
  C      3.766780   -2.266110   -6.511750
  C      2.496700   -1.844160   -5.735700
  H      1.626420   -2.217430   -6.308950
  H      2.481820   -2.456070   -4.793410
  F      2.459730   -0.509200   -5.505760
  H      3.829140   -1.709410   -7.423400
  H      3.717640   -3.311440   -6.734830
  H      4.631990   -2.069310   -5.913770

 Total Charge           Charge          ....    0
 Multiplicity           Mult            ....    1
 Number of Electrons    NEL             ....   26
 Basis Dimension        Dim             ....  159

ORBITAL ENERGIES
----------------

  NO   OCC          E(Eh)            E(eV)
   0   2.0000     -24.250181      -659.8810
   1   2.0000      -9.957704      -270.9629
   2   2.0000      -9.874335      -268.6943
   3   2.0000      -1.107271       -30.1304
   4   2.0000      -0.691333       -18.8121
   5   2.0000      -0.569748       -15.5036
   6   2.0000      -0.460073       -12.5192
   7   2.0000      -0.440606       -11.9895
   8   2.0000      -0.406163       -11.0523
   9   2.0000      -0.355753        -9.6805
  10   2.0000      -0.354814        -9.6550
  11   2.0000      -0.286790        -7.8039
  12   2.0000      -0.282111        -7.6766
  13   0.0000      -0.005365        -0.1460
  14   0.0000       0.022669         0.6169
  15   0.0000       0.034864         0.9487
  16   0.0000       0.041144         1.1196
  17   0.0000       0.066633         1.8132

MULLIKEN ATOMIC CHARGES
-----------------------
   0 C :   -0.687897
   1 C :   -0.011868
   2 H :    0.150467
   3 H :    0.141598
   4 F :   -0.239146
   5 H :    0.200336
   6 H :    0.247263
   7 H :    0.199246
Sum of atomic charges:   -0.0000000

LOEWDIN ATOMIC CHARGES
----------------------
   0 C :   -0.082914
   1 C :   -0.318739
   2 H :    0.107719
   3 H :    0.115470
   4 F :   -0.011343
   5 H :    0.062886
   6 H :    0.064940
   7 H :    0.061981

  Mayer bond orders larger than 0.100000
B(  0-C ,  1-C ) :   0.9124 B(  0-C ,  5-H ) :   0.9743 B(  0-C ,  6-H ) :   0.9467
B(  0-C ,  7-H ) :   0.9734 B(  1-C ,  2-H ) :   0.9837 B(  1-C ,  3-H ) :   0.9792
B(  1-C ,  4-F ) :   0.8943

Dispersion correction           -0.003481210
FINAL SINGLE POINT ENERGY      -178.923606125791

DIPOLE MOMENT
-------------
                                X             Y             Z
Electronic contribution:     -2.08082       4.38466       1.81982
Nuclear contribution   :      2.16248      -5.01128      -1.96962
                        -----------------------------------------
Total Dipole Moment    :      0.08166      -0.62662      -0.14980
                        -----------------------------------------
Magnitude (a.u.)       :      0.64943
Magnitude (Debye)      :      1.65072

Rotational constants in cm-1:     1.244010     0.306580     0.270375
Rotational constants in MHz : 37294.476802  9191.037795  8105.639967

                             ****ORCA TERMINATED NORMALLY****
TOTAL RUN TIME: 0 days 0 hours 0 minutes 7 seconds 903 msec
