                         Program Version 5.0.0 -  RELEASE  -
|  1> !PBE D3BJ RIJCOSX def2-TZVPD def2/J TightSCF
|  2> *xyz 0 1
|  3> C          4.99986       -1.59613       -5.92488
|  4> C          5.28156       -1.97413       -4.53576
|  5> C          3.76678       -2.26611       -6.51175
|  6> C          4.79250       -1.36132       -3.45730
|  7> N          3.93990       -0.37492       -3.55736
|  8> N          5.25986       -1.75422       -2.23913
|  9> H          5.92282       -2.52145       -2.18672
| 10> H          4.65468       -1.64040       -1.44202
| 11> H          5.70914       -2.87560       -4.38702
| 12> H          3.33010       -0.31764       -4.36125
| 13> H          3.69849        0.11447       -2.70833
| 14> H          4.84333       -0.51793       -5.94302
| 15> H          5.90170       -1.82250       -6.49647
| 16> H          3.63046       -1.94025       -7.52177
| 17> H          2.90710       -2.00116       -5.93240
| 18> H          3.89538       -3.32820       -6.49392
| 19> *
| 20>
| 21> %MaxCore 64000
| 22>
| 23> %pal nprocs 4
| 24> end
| 25>
| 26> %scf
| 27>   MaxIter 150
| 28> end
| 29>
| 30>
| 31>                          ****END OF INPUT****

CARTESIAN COORDINATES (ANGSTROEM)
---------------------------------
  C      4.999860   -1.596130   -5.924880
  C      5.281560   -1.974130   -4.535760
  C      3.766780   -2.266110   -6.511750
  C      4.792500   -1.361320   -3.457300
  N      3.939900   -0.374920   -3.557360
  N      5.259860   -1.754220   -2.239130
  H      5.922820   -2.521450   -2.186720
  H      4.654680   -1.640400   -1.442020
  H      5.709140   -2.875600   -4.387020
  H      3.330100   -0.317640   -4.361250
  H      3.698490    0.114470   -2.708330
  H      4.843330   -0.517930   -5.943020
  H      5.901700   -1.822500   -6.496470
  H      3.630460   -1.940250   -7.521770
  H      2.907100   -2.001160   -5.932400
  H      3.895380   -3.328200   -6.493920

 Total Charge           Charge          ....    0
 Multiplicity           Mult            ....    1
 Number of Electrons    NEL             ....   48
 Basis Dimension        Dim             ....  312

ORBITAL ENERGIES
----------------

  NO   OCC          E(Eh)            E(eV)
   0   2.0000     -13.990765      -380.7081
   1   2.0000     -13.982652      -380.4873
   2   2.0000      -9.918597      -269.8987
   3   2.0000      -9.855576      -268.1839
   4   2.0000      -9.848794      -267.9993
   5   2.0000      -9.808717      -266.9088
   6   2.0000      -0.881894       -23.9975
   7   2.0000      -0.796456       -21.6727
   8   2.0000      -0.701289       -19.0830
   9   2.0000      -0.628110       -17.0918
  10   2.0000      -0.556233       -15.1359
  11   2.0000      -0.522445       -14.2165
  12   2.0000      -0.494835       -13.4652
  13   2.0000      -0.453334       -12.3358
  14   2.0000      -0.431309       -11.7365
  15   2.0000      -0.396001       -10.7757
  16   2.0000      -0.369222       -10.0470
  17   2.0000      -0.348873        -9.4933
  18   2.0000      -0.338423        -9.2090
  19   2.0000      -0.310080        -8.4377
  20   2.0000      -0.285233        -7.7616
  21   2.0000      -0.277914        -7.5624
  22   2.0000      -0.224853        -6.1186
  23   2.0000      -0.134760        -3.6670
  24   0.0000      -0.021538        -0.5861
  25   0.0000       0.005297         0.1441
  26   0.0000       0.016481         0.4485
  27   0.0000       0.025673         0.6986
  28   0.0000       0.040113         1.0915

MULLIKEN ATOMIC CHARGES
-----------------------
   0 C :   -0.422672
   1 C :   -0.644543
   2 C :   -0.769852
   3 C :    0.518715
   4 N :   -0.212968
   5 N :   -0.320544
   6 H :    0.147385
   7 H :    0.143705
   8 H :    0.264207
   9 H :    0.151378
  10 H :    0.138703
  11 H :    0.219250
  12 H :    0.106733
  13 H :    0.201216
  14 H :    0.242757
  15 H :    0.236529
Sum of atomic charges:   -0.0000000

LOEWDIN ATOMIC CHARGES
----------------------
   0 C :   -0.286860
   1 C :   -0.135320
   2 C :   -0.110235
   3 C :   -0.559368
   4 N :    0.146368
   5 N :    0.113181
   6 H :    0.100759
   7 H :    0.080816
   8 H :    0.062398
   9 H :    0.103814
  10 H :    0.102527
  11 H :    0.097494
  12 H :    0.102848
  13 H :    0.058610
  14 H :    0.057121
  15 H :    0.065845

  Mayer bond orders larger than 0.100000
B(  0-C ,  1-C ) :   0.9674 B(  0-C ,  2-C ) :   0.6623 B(  0-C ,  3-C ) :   0.1089
B(  0-C ,  4-N ) :   0.1073 B(  0-C , 11-H ) :   0.9829 B(  0-C , 12-H ) :   1.0724
B(  1-C ,  2-C ) :   0.1247 B(  1-C ,  3-C ) :   1.3514 B(  1-C ,  4-N ) :   0.1281
B(  1-C ,  5-N ) :   0.1746 B(  1-C ,  8-H ) :   0.9788 B(  2-C , 13-H ) :   0.9880
B(  2-C , 14-H ) :   0.9758 B(  2-C , 15-H ) :   1.0026 B(  3-C ,  4-N ) :   1.0959
B(  3-C ,  5-N ) :   0.9531 B(  3-C ,  8-H ) :  -0.1067 B(  4-N ,  9-H ) :   0.9661
B(  4-N , 10-H ) :   1.0170 B(  5-N ,  6-H ) :   0.9910 B(  5-N ,  7-H ) :   1.0290

Dispersion correction           -0.012825878
FINAL SINGLE POINT ENERGY      -267.678548866643

DIPOLE MOMENT
-------------
                                X             Y             Z
Electronic contribution:      1.25266       1.39436       4.50603
Nuclear contribution   :     -1.82485      -1.28952      -3.74132
                        -----------------------------------------
Total Dipole Moment    :     -0.57220       0.10484       0.76472
                        -----------------------------------------
Magnitude (a.u.)       :      0.96083
Magnitude (Debye)      :      2.44224

Rotational constants in cm-1:     0.245790     0.071632     0.062004
Rotational constants in MHz :  7368.599517  2147.482078  1858.844841

                             ****ORCA TERMINATED NORMALLY****
TOTAL RUN TIME: 0 days 0 hours 0 minutes 21 seconds 982 msec
