                         Program Version 5.0.0 -  RELEASE  -
|  1> !PBE D3BJ RIJCOSX def2-TZVPD def2/J TightSCF
|  2> *xyz 0 1
|  3> C          4.99986       -1.59613       -5.92488
|  4> N          5.28156       -1.97413       -4.53576
|  5> C          3.76678       -2.26611       -6.51175
|  6> C          4.79250       -1.36132       -3.45730
|  7> C          3.93990       -0.37492       -3.55736
|  8> N          5.25986       -1.75422       -2.23913
|  9> H          5.92282       -2.52145       -2.18672
| 10> H          4.65468       -1.64040       -1.44202
| 11> H          5.70914       -2.87560       -4.38702
| 12> H          3.33010       -0.31764       -4.36125
| 13> H          3.69849        0.11447       -2.70833
| 14> H          4.84333       -0.51793       -5.94302
| 15> H          5.90170       -1.82250       -6.49647
| 16> H          3.63046       -1.94025       -7.52177
| 17> H          2.90710       -2.00116       -5.93240
| 18> H          3.89538       -3.32820       -6.49392
| 19> *
| 20>
| 21> %MaxCore 64000
| 22>
| 23> %pal nprocs 4
| 24> end
| 25>
| 26> %scf
| 27>   MaxIter 150
| 28> end
| 29>
| 30>
| 31>                          ****END OF INPUT****

CARTESIAN COORDINATES (ANGSTROEM)
---------------------------------
  C      4.999860   -1.596130   -5.924880
  N      5.281560   -1.974130   -4.535760
  C      3.766780   -2.266110   -6.511750
  C      4.792500   -1.361320   -3.457300
  C      3.939900   -0.374920   -3.557360
  N      5.259860   -1.754220   -2.239130
  H      5.922820   -2.521450   -2.186720
  H      4.654680   -1.640400   -1.442020
  H      5.709140   -2.875600   -4.387020
  H      3.330100   -0.317640   -4.361250
  H      3.698490    0.114470   -2.708330
  H      4.843330   -0.517930   -5.943020
  H      5.901700   -1.822500   -6.496470
  H      3.630460   -1.940250   -7.521770
  H      2.907100   -2.001160   -5.932400
  H      3.895380   -3.328200   -6.493920

 Total Charge           Charge          ....    0
 Multiplicity           Mult            ....    1
 Number of Electrons    NEL             ....   48
 Basis Dimension        Dim             ....  312

ORBITAL ENERGIES
----------------

  NO   OCC          E(Eh)            E(eV)
   0   2.0000     -13.989656      -380.6779
   1   2.0000     -13.983456      -380.5092
   2   2.0000      -9.919696      -269.9287
   3   2.0000      -9.911821      -269.7144
   4   2.0000      -9.865105      -268.4431
   5   2.0000      -9.796386      -266.5732
   6   2.0000      -0.881113       -23.9763
   7   2.0000      -0.803471       -21.8636
   8   2.0000      -0.687047       -18.6955
   9   2.0000      -0.648278       -17.6405
  10   2.0000      -0.577000       -15.7010
  11   2.0000      -0.509608       -13.8671
  12   2.0000      -0.491897       -13.3852
  13   2.0000      -0.461667       -12.5626
  14   2.0000      -0.411273       -11.1913
  15   2.0000      -0.398489       -10.8434
  16   2.0000      -0.378149       -10.2900
  17   2.0000      -0.353318        -9.6143
  18   2.0000      -0.339629        -9.2418
  19   2.0000      -0.329174        -8.9573
  20   2.0000      -0.310620        -8.4524
  21   2.0000      -0.303554        -8.2601
  22   2.0000      -0.210751        -5.7348
  23   2.0000      -0.144438        -3.9304
  24   0.0000      -0.018733        -0.5097
  25   0.0000       0.005515         0.1501
  26   0.0000       0.014377         0.3912
  27   0.0000       0.022612         0.6153
  28   0.0000       0.040756         1.1090

MULLIKEN ATOMIC CHARGES
-----------------------
   0 C :   -0.478553
   1 N :   -0.059403
   2 C :   -0.723403
   3 C :    0.555797
   4 C :   -1.141719
   5 N :   -0.272642
   6 H :    0.131557
   7 H :    0.177337
   8 H :    0.178709
   9 H :    0.232064
  10 H :    0.252275
  11 H :    0.324906
  12 H :    0.148552
  13 H :    0.239507
  14 H :    0.221651
  15 H :    0.213366
Sum of atomic charges:    0.0000000

LOEWDIN ATOMIC CHARGES
----------------------
   0 C :   -0.244028
   1 N :    0.024152
   2 C :   -0.086958
   3 C :   -0.570138
   4 C :    0.006690
   5 N :    0.119490
   6 H :    0.089507
   7 H :    0.095380
   8 H :    0.129234
   9 H :    0.009524
  10 H :    0.015959
  11 H :    0.109356
  12 H :    0.110368
  13 H :    0.065546
  14 H :    0.062442
  15 H :    0.063476

  Mayer bond orders larger than 0.100000
B(  0-C ,  1-N ) :   0.9488 B(  0-C ,  2-C ) :   0.7771 B(  0-C ,  4-C ) :   0.2276
B(  0-C , 11-H ) :   0.9038 B(  0-C , 12-H ) :   0.9703 B(  1-N ,  3-C ) :   1.1027
B(  1-N ,  8-H ) :   0.9558 B(  2-C , 13-H ) :   0.9713 B(  2-C , 14-H ) :   1.0083
B(  2-C , 15-H ) :   0.9843 B(  3-C ,  4-C ) :   1.3831 B(  3-C ,  5-N ) :   1.0043
B(  4-C ,  5-N ) :   0.1053 B(  4-C ,  9-H ) :   0.9555 B(  4-C , 10-H ) :   1.0486
B(  5-N ,  6-H ) :   1.0137 B(  5-N ,  7-H ) :   0.9751

Dispersion correction           -0.012782707
FINAL SINGLE POINT ENERGY      -267.670827783892

DIPOLE MOMENT
-------------
                                X             Y             Z
Electronic contribution:      2.41197      -0.07046       3.49908
Nuclear contribution   :     -2.10948      -0.95026      -3.53375
                        -----------------------------------------
Total Dipole Moment    :      0.30249      -1.02072      -0.03468
                        -----------------------------------------
Magnitude (a.u.)       :      1.06516
Magnitude (Debye)      :      2.70743

Rotational constants in cm-1:     0.255209     0.072067     0.062929
Rotational constants in MHz :  7650.964615  2160.525743  1886.569524

                             ****ORCA TERMINATED NORMALLY****
TOTAL RUN TIME: 0 days 0 hours 0 minutes 25 seconds 531 msec
