                         Program Version 5.0.0 -  RELEASE  -
|  1> !PBE D3BJ RIJCOSX def2-TZVPD def2/J TightSCF
|  2> *xyz 0 1
|  3> C          4.99986       -1.59613       -5.92488
|  4> N          5.28156       -1.97413       -4.53576
|  5> C          3.76678       -2.26611       -6.51175
|  6> C          4.79250       -1.36132       -3.45730
|  7> N          3.93990       -0.37492       -3.55736
|  8> C          5.25986       -1.75422       -2.23913
|  9> H          5.92282       -2.52145       -2.18672
| 10> H          4.65468       -1.64040       -1.44202
| 11> H          5.70914       -2.87560       -4.38702
| 12> H          3.33010       -0.31764       -4.36125
| 13> H          3.69849        0.11447       -2.70833
| 14> H          4.84333       -0.51793       -5.94302
| 15> H          5.90170       -1.82250       -6.49647
| 16> H          3.63046       -1.94025       -7.52177
| 17> H          2.90710       -2.00116       -5.93240
| 18> H          3.89538       -3.32820       -6.49392
| 19> *
| 20>
| 21> %MaxCore 64000
| 22>
| 23> %pal nprocs 4
| 24> end
| 25>
| 26> %scf
| 27>   MaxIter 150
| 28> end
| 29>
| 30>
| 31>                          ****END OF INPUT****

CARTESIAN COORDINATES (ANGSTROEM)
---------------------------------
  C      4.999860   -1.596130   -5.924880
  N      5.281560   -1.974130   -4.535760
  C      3.766780   -2.266110   -6.511750
  C      4.792500   -1.361320   -3.457300
  N      3.939900   -0.374920   -3.557360
  C      5.259860   -1.754220   -2.239130
  H      5.922820   -2.521450   -2.186720
  H      4.654680   -1.640400   -1.442020
  H      5.709140   -2.875600   -4.387020
  H      3.330100   -0.317640   -4.361250
  H      3.698490    0.114470   -2.708330
  H      4.843330   -0.517930   -5.943020
  H      5.901700   -1.822500   -6.496470
  H      3.630460   -1.940250   -7.521770
  H      2.907100   -2.001160   -5.932400
  H      3.895380   -3.328200   -6.493920

 Total Charge           Charge          ....    0
 Multiplicity           Mult            ....    1
 Number of Electrons    NEL             ....   48
 Basis Dimension        Dim             ....  312

ORBITAL ENERGIES
----------------

  NO   OCC          E(Eh)            E(eV)
   0   2.0000     -13.990203      -380.6928
   1   2.0000     -13.989694      -380.6789
   2   2.0000      -9.923473      -270.0314
   3   2.0000      -9.920300      -269.9451
   4   2.0000      -9.875514      -268.7264
   5   2.0000      -9.793470      -266.4939
   6   2.0000      -0.890883       -24.2422
   7   2.0000      -0.813964       -22.1491
   8   2.0000      -0.703185       -19.1346
   9   2.0000      -0.630387       -17.1537
  10   2.0000      -0.568209       -15.4618
  11   2.0000      -0.548318       -14.9205
  12   2.0000      -0.493981       -13.4419
  13   2.0000      -0.451063       -12.2740
  14   2.0000      -0.435216       -11.8428
  15   2.0000      -0.399655       -10.8752
  16   2.0000      -0.384376       -10.4594
  17   2.0000      -0.359612        -9.7855
  18   2.0000      -0.342419        -9.3177
  19   2.0000      -0.324956        -8.8425
  20   2.0000      -0.321364        -8.7448
  21   2.0000      -0.304685        -8.2909
  22   2.0000      -0.217732        -5.9248
  23   2.0000      -0.131965        -3.5910
  24   0.0000      -0.021798        -0.5932
  25   0.0000       0.007380         0.2008
  26   0.0000       0.010684         0.2907
  27   0.0000       0.016901         0.4599
  28   0.0000       0.035737         0.9725

MULLIKEN ATOMIC CHARGES
-----------------------
   0 C :   -0.442663
   1 N :   -0.016095
   2 C :   -0.726277
   3 C :    0.527664
   4 N :   -0.222763
   5 C :   -1.173269
   6 H :    0.217532
   7 H :    0.240539
   8 H :    0.165903
   9 H :    0.139462
  10 H :    0.162288
  11 H :    0.294827
  12 H :    0.150099
  13 H :    0.236990
  14 H :    0.240952
  15 H :    0.204812
Sum of atomic charges:    0.0000000

LOEWDIN ATOMIC CHARGES
----------------------
   0 C :   -0.246727
   1 N :    0.034477
   2 C :   -0.090303
   3 C :   -0.583453
   4 N :    0.141530
   5 C :   -0.002518
   6 H :   -0.000720
   7 H :   -0.006695
   8 H :    0.138925
   9 H :    0.093399
  10 H :    0.113991
  11 H :    0.106559
  12 H :    0.111220
  13 H :    0.064989
  14 H :    0.059040
  15 H :    0.066286

  Mayer bond orders larger than 0.100000
B(  0-C ,  1-N ) :   0.9393 B(  0-C ,  2-C ) :   0.7773 B(  0-C ,  4-N ) :   0.1479
B(  0-C , 11-H ) :   0.9140 B(  0-C , 12-H ) :   1.0063 B(  1-N ,  3-C ) :   1.1370
B(  1-N ,  5-C ) :   0.1066 B(  1-N ,  8-H ) :   0.9459 B(  2-C , 13-H ) :   0.9923
B(  2-C , 14-H ) :   0.9852 B(  2-C , 15-H ) :   1.0018 B(  3-C ,  4-N ) :   1.1693
B(  3-C ,  5-C ) :   1.1659 B(  4-N ,  5-C ) :   0.1231 B(  4-N ,  9-H ) :   0.9781
B(  4-N , 10-H ) :   0.9976 B(  5-C ,  6-H ) :   1.0441 B(  5-C ,  7-H ) :   1.0577

Dispersion correction           -0.012709443
FINAL SINGLE POINT ENERGY      -267.665534411943

DIPOLE MOMENT
-------------
                                X             Y             Z
Electronic contribution:      1.18082       1.24594       2.16398
Nuclear contribution   :     -1.82946      -1.24287      -3.25410
                        -----------------------------------------
Total Dipole Moment    :     -0.64863       0.00307      -1.09011
                        -----------------------------------------
Magnitude (a.u.)       :      1.26850
Magnitude (Debye)      :      3.22426

Rotational constants in cm-1:     0.244672     0.074506     0.064043
Rotational constants in MHz :  7335.067153  2233.624025  1919.970379

                             ****ORCA TERMINATED NORMALLY****
TOTAL RUN TIME: 0 days 0 hours 0 minutes 25 seconds 342 msec
