                         Program Version 5.0.0 -  RELEASE  -
|  1> !PBE D3BJ RIJCOSX def2-TZVPD def2/J TightSCF xyzfile
|  2>
|  3> *xyzfile 0 1 D1.xyz
|  4>
|  5> %MaxCore 64000
|  6>
|  7> %pal nprocs 4
|  8> end
|  9>
| 10> %scf
| 11>   MaxIter 150
| 12> end
| 13>
| 14>
| 15>                          ****END OF INPUT****

CARTESIAN COORDINATES (ANGSTROEM)
---------------------------------
  C      4.999862   -1.596133   -5.924876
  C      5.281560   -1.974132   -4.535764
  C      3.766779   -2.266110   -6.511752
  C      2.496702   -1.844161   -5.735704
  H      1.626416   -2.217434   -6.308950
  H      2.481824   -2.456069   -4.793414
  F      2.459729   -0.509204   -5.505757
  C      4.792500   -1.361316   -3.457295
  N      3.939898   -0.374925   -3.557359
  N      5.259860   -1.754224   -2.239133
  H      5.922824   -2.521451   -2.186720
  H      4.654678   -1.640404   -1.442016
  H      5.709139   -2.875599   -4.387021
  H      3.330101   -0.317639   -4.361247
  H      3.698494    0.114468   -2.708333
  H      4.843333   -0.517930   -5.943019
  H      5.901695   -1.822503   -6.496467
  H      3.886191   -3.357076   -6.533604
  H      3.685602   -1.922168   -7.547128

 Total Charge           Charge          ....    0
 Multiplicity           Mult            ....    1
 Number of Electrons    NEL             ....   64
 Basis Dimension        Dim             ....  398

ORBITAL ENERGIES
----------------

  NO   OCC          E(Eh)            E(eV)
   0   2.0000     -24.282527      -660.7612
   1   2.0000     -13.977156      -380.3378
   2   2.0000     -13.963449      -379.9648
   3   2.0000      -9.961032      -271.0535
   4   2.0000      -9.912717      -269.7387
   5   2.0000      -9.877107      -268.7698
   6   2.0000      -9.858010      -268.2501
   7   2.0000      -9.805043      -266.8088
   8   2.0000      -1.146949       -31.2101
   9   2.0000      -0.870584       -23.6898
  10   2.0000      -0.786348       -21.3976
  11   2.0000      -0.722223       -19.6527
  12   2.0000      -0.655579       -17.8392
  13   2.0000      -0.607811       -16.5394
  14   2.0000      -0.542088       -14.7510
  15   2.0000      -0.530767       -14.4429
  16   2.0000      -0.490040       -13.3347
  17   2.0000      -0.475474       -12.9383
  18   2.0000      -0.462125       -12.5751
  19   2.0000      -0.446116       -12.1394
  20   2.0000      -0.434642       -11.8272
  21   2.0000      -0.406884       -11.0719
  22   2.0000      -0.375665       -10.2224
  23   2.0000      -0.357180        -9.7194
  24   2.0000      -0.348955        -9.4955
  25   2.0000      -0.325929        -8.8690
  26   2.0000      -0.306844        -8.3496
  27   2.0000      -0.293298        -7.9810
  28   2.0000      -0.283464        -7.7134
  29   2.0000      -0.274239        -7.4624
  30   2.0000      -0.214039        -5.8243
  31   2.0000      -0.131151        -3.5688
  32   0.0000      -0.014521        -0.3951
  33   0.0000       0.002887         0.0786
  34   0.0000       0.012380         0.3369
  35   0.0000       0.017945         0.4883
  36   0.0000       0.030798         0.8380

MULLIKEN ATOMIC CHARGES
-----------------------
   0 C :   -0.213769
   1 C :   -1.002879
   2 C :   -0.187863
   3 C :   -0.142701
   4 H :    0.148940
   5 H :    0.211132
   6 F :   -0.311336
   7 C :    0.639249
   8 N :   -0.229572
   9 N :   -0.333057
  10 H :    0.138727
  11 H :    0.142567
  12 H :    0.232734
  13 H :    0.225236
  14 H :    0.110285
  15 H :    0.200031
  16 H :    0.077707
  17 H :    0.187037
  18 H :    0.107532
Sum of atomic charges:    0.0000000

LOEWDIN ATOMIC CHARGES
----------------------
   0 C :   -0.235135
   1 C :   -0.128678
   2 C :   -0.177193
   3 C :   -0.236193
   4 H :    0.117914
   5 H :    0.130073
   6 F :   -0.003042
   7 C :   -0.555103
   8 N :    0.160898
   9 N :    0.115485
  10 H :    0.098460
  11 H :    0.080563
  12 H :    0.061892
  13 H :    0.025146
  14 H :    0.105985
  15 H :    0.108624
  16 H :    0.108431
  17 H :    0.118959
  18 H :    0.102914

  Mayer bond orders larger than 0.100000
B(  0-C ,  1-C ) :   0.9665 B(  0-C ,  2-C ) :   0.8227 B(  0-C , 15-H ) :   0.9012
B(  0-C , 16-H ) :   1.1071 B(  1-C ,  2-C ) :   0.1705 B(  1-C ,  3-C ) :   0.1561
B(  1-C ,  7-C ) :   1.2541 B(  1-C ,  8-N ) :   0.1664 B(  1-C ,  9-N ) :   0.1493
B(  1-C , 12-H ) :   1.0567 B(  2-C ,  3-C ) :   1.0639 B(  2-C , 17-H ) :   0.9574
B(  2-C , 18-H ) :   0.9288 B(  3-C ,  4-H ) :   0.9820 B(  3-C ,  5-H ) :   0.9304
B(  3-C ,  6-F ) :   0.8265 B(  7-C ,  8-N ) :   1.0517 B(  7-C ,  9-N ) :   0.9461
B(  7-C , 12-H ) :  -0.1427 B(  8-N , 13-H ) :   0.8495 B(  8-N , 14-H ) :   1.0353
B(  9-N , 10-H ) :   0.9965 B(  9-N , 11-H ) :   1.0281

Dispersion correction           -0.017554553
FINAL SINGLE POINT ENERGY      -406.132664665871

DIPOLE MOMENT
-------------
                                X             Y             Z
Electronic contribution:     -3.31163       4.04227       0.78866
Nuclear contribution   :      2.63975      -4.51113      -0.34926
                        -----------------------------------------
Total Dipole Moment    :     -0.67189      -0.46886       0.43940
                        -----------------------------------------
Magnitude (a.u.)       :      0.92969
Magnitude (Debye)      :      2.36309

Rotational constants in cm-1:     0.109429     0.049838     0.039337
Rotational constants in MHz :  3280.611039  1494.113088  1179.280063

                             ****ORCA TERMINATED NORMALLY****
TOTAL RUN TIME: 0 days 0 hours 0 minutes 27 seconds 997 msec
