                         Program Version 5.0.0 -  RELEASE  -
|  1> !PBE D3BJ RIJCOSX def2-TZVPD def2/J TightSCF xyzfile
|  2>
|  3> *xyzfile 0 1 D2.xyz
|  4>
|  5> %MaxCore 64000
|  6>
|  7> %pal nprocs 4
|  8> end
|  9>
| 10> %scf
| 11>   MaxIter 150
| 12> end
| 13>
| 14>
| 15>                          ****END OF INPUT****

CARTESIAN COORDINATES (ANGSTROEM)
---------------------------------
  C      4.999862   -1.596133   -5.924876
  N      5.281560   -1.974132   -4.535764
  C      3.766779   -2.266110   -6.511752
  C      2.496702   -1.844161   -5.735704
  H      1.626416   -2.217434   -6.308950
  H      2.481824   -2.456069   -4.793414
  F      2.459729   -0.509204   -5.505757
  C      4.792500   -1.361316   -3.457295
  C      3.939898   -0.374925   -3.557359
  N      5.259860   -1.754224   -2.239133
  H      5.922824   -2.521451   -2.186720
  H      4.654678   -1.640404   -1.442016
  H      5.709139   -2.875599   -4.387021
  H      3.330101   -0.317639   -4.361247
  H      3.698494    0.114468   -2.708333
  H      4.843333   -0.517930   -5.943019
  H      5.901695   -1.822503   -6.496467
  H      3.886191   -3.357076   -6.533604
  H      3.685602   -1.922168   -7.547128

 Total Charge           Charge          ....    0
 Multiplicity           Mult            ....    1
 Number of Electrons    NEL             ....   64
 Basis Dimension        Dim             ....  398

ORBITAL ENERGIES
----------------

  NO   OCC          E(Eh)            E(eV)
   0   2.0000     -24.260610      -660.1647
   1   2.0000     -13.987057      -380.6072
   2   2.0000     -13.975985      -380.3059
   3   2.0000      -9.960194      -271.0307
   4   2.0000      -9.914474      -269.7866
   5   2.0000      -9.909545      -269.6524
   6   2.0000      -9.892107      -269.1779
   7   2.0000      -9.771986      -265.9093
   8   2.0000      -1.127418       -30.6786
   9   2.0000      -0.876776       -23.8583
  10   2.0000      -0.799858       -21.7652
  11   2.0000      -0.713598       -19.4180
  12   2.0000      -0.643677       -17.5153
  13   2.0000      -0.627789       -17.0830
  14   2.0000      -0.554605       -15.0916
  15   2.0000      -0.512853       -13.9555
  16   2.0000      -0.494940       -13.4680
  17   2.0000      -0.465123       -12.6566
  18   2.0000      -0.462904       -12.5962
  19   2.0000      -0.445512       -12.1230
  20   2.0000      -0.430089       -11.7033
  21   2.0000      -0.410141       -11.1605
  22   2.0000      -0.377982       -10.2854
  23   2.0000      -0.360228        -9.8023
  24   2.0000      -0.341750        -9.2995
  25   2.0000      -0.332631        -9.0514
  26   2.0000      -0.317744        -8.6463
  27   2.0000      -0.300966        -8.1897
  28   2.0000      -0.290628        -7.9084
  29   2.0000      -0.259223        -7.0538
  30   2.0000      -0.207272        -5.6401
  31   2.0000      -0.134544        -3.6611
  32   0.0000      -0.021019        -0.5720
  33   0.0000       0.000520         0.0141
  34   0.0000       0.009517         0.2590
  35   0.0000       0.016793         0.4570
  36   0.0000       0.030578         0.8321

MULLIKEN ATOMIC CHARGES
-----------------------
   0 C :   -0.515202
   1 N :   -0.087142
   2 C :   -0.128745
   3 C :   -0.186449
   4 H :    0.143796
   5 H :    0.232275
   6 F :   -0.238479
   7 C :    0.605778
   8 C :   -1.469479
   9 N :   -0.305312
  10 H :    0.124374
  11 H :    0.170305
  12 H :    0.168925
  13 H :    0.519179
  14 H :    0.254926
  15 H :    0.294268
  16 H :    0.133240
  17 H :    0.132097
  18 H :    0.151645
Sum of atomic charges:   -0.0000000

LOEWDIN ATOMIC CHARGES
----------------------
   0 C :   -0.191774
   1 N :    0.035108
   2 C :   -0.160646
   3 C :   -0.239515
   4 H :    0.117631
   5 H :    0.129341
   6 F :   -0.020058
   7 C :   -0.564255
   8 C :    0.023109
   9 N :    0.117003
  10 H :    0.085559
  11 H :    0.093884
  12 H :    0.128884
  13 H :   -0.039923
  14 H :    0.026028
  15 H :    0.120624
  16 H :    0.115903
  17 H :    0.115029
  18 H :    0.108066

  Mayer bond orders larger than 0.100000
B(  0-C ,  1-N ) :   0.9933 B(  0-C ,  2-C ) :   0.9726 B(  0-C ,  8-C ) :   0.1390
B(  0-C , 15-H ) :   0.8421 B(  0-C , 16-H ) :   1.0056 B(  1-N ,  7-C ) :   1.0566
B(  1-N , 12-H ) :   0.9632 B(  2-C ,  3-C ) :   1.0926 B(  2-C , 17-H ) :   0.9697
B(  2-C , 18-H ) :   0.9226 B(  3-C ,  4-H ) :   0.9810 B(  3-C ,  5-H ) :   0.9163
B(  3-C ,  6-F ) :   0.8628 B(  3-C ,  8-C ) :   0.1354 B(  6-F ,  8-C ) :   0.1288
B(  6-F , 13-H ) :  -0.2326 B(  7-C ,  8-C ) :   1.1824 B(  7-C ,  9-N ) :   0.9569
B(  8-C ,  9-N ) :   0.1134 B(  8-C , 13-H ) :   0.8673 B(  8-C , 14-H ) :   1.1007
B(  9-N , 10-H ) :   1.0218 B(  9-N , 11-H ) :   0.9826

Dispersion correction           -0.017515688
FINAL SINGLE POINT ENERGY      -406.101091089725

DIPOLE MOMENT
-------------
                                X             Y             Z
Electronic contribution:     -2.26899       2.76205      -0.13128
Nuclear contribution   :      2.43398      -4.26587      -0.19921
                        -----------------------------------------
Total Dipole Moment    :      0.16499      -1.50382      -0.33049
                        -----------------------------------------
Magnitude (a.u.)       :      1.54852
Magnitude (Debye)      :      3.93603

Rotational constants in cm-1:     0.110089     0.049944     0.039407
Rotational constants in MHz :  3300.378855  1497.273856  1181.385913

                             ****ORCA TERMINATED NORMALLY****
TOTAL RUN TIME: 0 days 0 hours 0 minutes 28 seconds 25 msec
