                         Program Version 5.0.0 -  RELEASE  -
|  1> !PBE D3BJ RIJCOSX def2-TZVPD def2/J TightSCF xyzfile
|  2>
|  3> *xyzfile 0 1 D3.xyz
|  4>
|  5> %MaxCore 64000
|  6>
|  7> %pal nprocs 4
|  8> end
|  9>
| 10> %scf
| 11>   MaxIter 150
| 12> end
| 13>
| 14>
| 15>                          ****END OF INPUT****

CARTESIAN COORDINATES (ANGSTROEM)
---------------------------------
  C      4.999862   -1.596133   -5.924876
  N      5.281560   -1.974132   -4.535764
  C      3.766779   -2.266110   -6.511752
  C      2.496702   -1.844161   -5.735704
  H      1.626416   -2.217434   -6.308950
  H      2.481824   -2.456069   -4.793414
  F      2.459729   -0.509204   -5.505757
  C      4.792500   -1.361316   -3.457295
  N      3.939898   -0.374925   -3.557359
  C      5.259860   -1.754224   -2.239133
  H      5.922824   -2.521451   -2.186720
  H      4.654678   -1.640404   -1.442016
  H      5.709139   -2.875599   -4.387021
  H      3.330101   -0.317639   -4.361247
  H      3.698494    0.114468   -2.708333
  H      4.843333   -0.517930   -5.943019
  H      5.901695   -1.822503   -6.496467
  H      3.886191   -3.357076   -6.533604
  H      3.685602   -1.922168   -7.547128

 Total Charge           Charge          ....    0
 Multiplicity           Mult            ....    1
 Number of Electrons    NEL             ....   64
 Basis Dimension        Dim             ....  398

ORBITAL ENERGIES
----------------

  NO   OCC          E(Eh)            E(eV)
   0   2.0000     -24.296515      -661.1418
   1   2.0000     -13.987411      -380.6168
   2   2.0000     -13.961162      -379.9025
   3   2.0000      -9.979809      -271.5644
   4   2.0000      -9.922590      -270.0074
   5   2.0000      -9.914111      -269.7767
   6   2.0000      -9.903585      -269.4902
   7   2.0000      -9.784201      -266.2417
   8   2.0000      -1.161310       -31.6009
   9   2.0000      -0.882395       -24.0112
  10   2.0000      -0.805152       -21.9093
  11   2.0000      -0.728498       -19.8234
  12   2.0000      -0.661823       -18.0091
  13   2.0000      -0.606196       -16.4954
  14   2.0000      -0.562031       -15.2936
  15   2.0000      -0.541557       -14.7365
  16   2.0000      -0.516027       -14.0418
  17   2.0000      -0.491587       -13.3768
  18   2.0000      -0.462031       -12.5725
  19   2.0000      -0.452305       -12.3078
  20   2.0000      -0.424707       -11.5569
  21   2.0000      -0.421971       -11.4824
  22   2.0000      -0.387993       -10.5578
  23   2.0000      -0.376564       -10.2468
  24   2.0000      -0.342503        -9.3200
  25   2.0000      -0.334506        -9.1024
  26   2.0000      -0.328309        -8.9337
  27   2.0000      -0.312217        -8.4959
  28   2.0000      -0.301432        -8.2024
  29   2.0000      -0.296394        -8.0653
  30   2.0000      -0.208992        -5.6870
  31   2.0000      -0.123282        -3.3547
  32   0.0000      -0.021295        -0.5795
  33   0.0000       0.000794         0.0216
  34   0.0000       0.006309         0.1717
  35   0.0000       0.007863         0.2140
  36   0.0000       0.030769         0.8373

MULLIKEN ATOMIC CHARGES
-----------------------
   0 C :   -0.460216
   1 N :   -0.033107
   2 C :   -0.134942
   3 C :   -0.157862
   4 H :    0.153466
   5 H :    0.209242
   6 F :   -0.308524
   7 C :    0.446575
   8 N :   -0.212978
   9 C :   -1.232692
  10 H :    0.241297
  11 H :    0.254457
  12 H :    0.170276
  13 H :    0.225798
  14 H :    0.134360
  15 H :    0.276230
  16 H :    0.128579
  17 H :    0.138069
  18 H :    0.161971
Sum of atomic charges:   -0.0000000

LOEWDIN ATOMIC CHARGES
----------------------
   0 C :   -0.194542
   1 N :    0.045489
   2 C :   -0.161146
   3 C :   -0.232212
   4 H :    0.121461
   5 H :    0.134415
   6 F :   -0.002333
   7 C :   -0.584644
   8 N :    0.157552
   9 C :   -0.007774
  10 H :   -0.005673
  11 H :   -0.008989
  12 H :    0.139343
  13 H :    0.020595
  14 H :    0.117209
  15 H :    0.117023
  16 H :    0.116801
  17 H :    0.118668
  18 H :    0.108756

  Mayer bond orders larger than 0.100000
B(  0-C ,  1-N ) :   0.9665 B(  0-C ,  2-C ) :   0.9612 B(  0-C , 15-H ) :   0.8582
B(  0-C , 16-H ) :   1.0363 B(  1-N ,  7-C ) :   1.1140 B(  1-N ,  9-C ) :   0.1244
B(  1-N , 12-H ) :   0.9306 B(  2-C ,  3-C ) :   1.0859 B(  2-C , 17-H ) :   0.9602
B(  2-C , 18-H ) :   0.9467 B(  3-C ,  4-H ) :   0.9812 B(  3-C ,  5-H ) :   0.9297
B(  3-C ,  6-F ) :   0.8409 B(  7-C ,  8-N ) :   1.1746 B(  7-C ,  9-C ) :   1.1737
B(  8-N ,  9-C ) :   0.1314 B(  8-N , 13-H ) :   0.8466 B(  8-N , 14-H ) :   1.0017
B(  9-C , 10-H ) :   1.0238 B(  9-C , 11-H ) :   1.0373

Dispersion correction           -0.017401008
FINAL SINGLE POINT ENERGY      -406.115098323752

DIPOLE MOMENT
-------------
                                X             Y             Z
Electronic contribution:     -3.47605       3.91518      -1.48296
Nuclear contribution   :      2.63642      -4.47741       0.00296
                        -----------------------------------------
Total Dipole Moment    :     -0.83963      -0.56222      -1.48000
                        -----------------------------------------
Magnitude (a.u.)       :      1.79206
Magnitude (Debye)      :      4.55505

Rotational constants in cm-1:     0.108041     0.051979     0.040387
Rotational constants in MHz :  3238.993235  1558.297571  1210.782552

                             ****ORCA TERMINATED NORMALLY****
TOTAL RUN TIME: 0 days 0 hours 0 minutes 25 seconds 493 msec
