                         Program Version 5.0.0 -  RELEASE  -
|  1> !LC-PBE RIJCOSX def2-SVPD def2/J TightSCF
|  2> *xyz -1 1
|  3> C          3.34350        3.35457       -3.59200
|  4> C          2.95263        1.86308       -3.57485
|  5> C          4.12921        0.89839       -3.41895
|  6> H          3.73369       -0.10060       -3.23763
|  7> H          4.71910        0.86256       -4.33901
|  8> C          5.01734        1.31521       -2.22130
|  9> H          2.27894        1.73525       -2.72550
| 10> H          2.37747        1.62579       -4.47587
| 11> O          4.73706        0.85411       -1.12283
| 12> O          5.92815        2.16811       -2.49136
| 13> H          4.00801        3.53975       -4.40994
| 14> H          3.83025        3.60631       -2.67298
| 15> H          2.46347        3.95263       -3.70497
| 16> *
| 17> %MaxCore 64000
| 18>
| 19> %pal nprocs 4
| 20> end
| 21>
| 22> %scf
| 23>   MaxIter 150
| 24> end
| 25>
| 26>
| 27>                          ****END OF INPUT****

CARTESIAN COORDINATES (ANGSTROEM)
---------------------------------
  C      3.343500    3.354570   -3.592000
  C      2.952630    1.863080   -3.574850
  C      4.129210    0.898390   -3.418950
  H      3.733690   -0.100600   -3.237630
  H      4.719100    0.862560   -4.339010
  C      5.017340    1.315210   -2.221300
  H      2.278940    1.735250   -2.725500
  H      2.377470    1.625790   -4.475870
  O      4.737060    0.854110   -1.122830
  O      5.928150    2.168110   -2.491360
  H      4.008010    3.539750   -4.409940
  H      3.830250    3.606310   -2.672980
  H      2.463470    3.952630   -3.704970

 Total Charge           Charge          ....   -1
 Multiplicity           Mult            ....    1
 Number of Electrons    NEL             ....   48
 Basis Dimension        Dim             ....  182

ORBITAL ENERGIES
----------------

  NO   OCC          E(Eh)            E(eV)
   0   2.0000     -18.737910      -509.8844
   1   2.0000     -18.725462      -509.5457
   2   2.0000     -10.022318      -272.7211
   3   2.0000      -9.982803      -271.6459
   4   2.0000      -9.964603      -271.1506
   5   2.0000      -9.954057      -270.8637
   6   2.0000      -0.990246       -26.9460
   7   2.0000      -0.883631       -24.0448
   8   2.0000      -0.808105       -21.9897
   9   2.0000      -0.702975       -19.1289
  10   2.0000      -0.597841       -16.2681
  11   2.0000      -0.479851       -13.0574
  12   2.0000      -0.443888       -12.0788
  13   2.0000      -0.434033       -11.8106
  14   2.0000      -0.392334       -10.6760
  15   2.0000      -0.380744       -10.3606
  16   2.0000      -0.353503        -9.6193
  17   2.0000      -0.342693        -9.3252
  18   2.0000      -0.333775        -9.0825
  19   2.0000      -0.306565        -8.3421
  20   2.0000      -0.304119        -8.2755
  21   2.0000      -0.183736        -4.9997
  22   2.0000      -0.175905        -4.7866
  23   2.0000      -0.167674        -4.5627
  24   0.0000       0.214453         5.8356
  25   0.0000       0.237584         6.4650
  26   0.0000       0.251393         6.8407
  27   0.0000       0.263830         7.1792
  28   0.0000       0.294984         8.0269

MULLIKEN ATOMIC CHARGES
-----------------------
   0 C :    0.450097
   1 C :   -0.530007
   2 C :    0.019053
   3 H :    0.059202
   4 H :    0.052979
   5 C :    0.217105
   6 H :    0.044122
   7 H :   -0.105857
   8 O :   -0.565190
   9 O :   -0.647142
  10 H :    0.011977
  11 H :    0.059082
  12 H :   -0.065420
Sum of atomic charges:   -1.0000000

LOEWDIN ATOMIC CHARGES
----------------------
   0 C :    0.079560
   1 C :   -0.105733
   2 C :   -0.028323
   3 H :    0.012793
   4 H :    0.019441
   5 C :   -0.328128
   6 H :    0.023802
   7 H :    0.010605
   8 O :   -0.293705
   9 O :   -0.336821
  10 H :   -0.010013
  11 H :   -0.014385
  12 H :   -0.029093

  Mayer bond orders larger than 0.100000
B(  0-C ,  1-C ) :   1.3025 B(  0-C , 10-H ) :   0.8298 B(  0-C , 11-H ) :   0.8310
B(  0-C , 12-H ) :   0.8373 B(  1-C ,  2-C ) :   1.1965 B(  1-C ,  3-H ) :   0.1196
B(  1-C ,  4-H ) :   0.1162 B(  1-C ,  6-H ) :   0.9461 B(  1-C ,  7-H ) :   1.0157
B(  1-C , 10-H ) :   0.1671 B(  1-C , 11-H ) :   0.1839 B(  1-C , 12-H ) :   0.1677
B(  2-C ,  3-H ) :   0.8759 B(  2-C ,  4-H ) :   0.9195 B(  2-C ,  5-C ) :   0.9905
B(  3-H ,  5-C ) :   0.1250 B(  5-C ,  8-O ) :   1.6174 B(  5-C ,  9-O ) :   1.5748

FINAL SINGLE POINT ENERGY      -306.022294207059

DIPOLE MOMENT
-------------
                                X             Y             Z
Electronic contribution:      4.86549      -2.56444       4.40091
Nuclear contribution   :     -6.63819       2.74067      -6.05656
                        -----------------------------------------
Total Dipole Moment    :     -1.77271       0.17623      -1.65565
                        -----------------------------------------
Magnitude (a.u.)       :      2.43202
Magnitude (Debye)      :      6.18170

Rotational constants in cm-1:     0.190880     0.089683     0.076466
Rotational constants in MHz :  5722.446013  2688.617255  2292.390699

                             ****ORCA TERMINATED NORMALLY****
TOTAL RUN TIME: 0 days 0 hours 0 minutes 18 seconds 625 msec
