                         Program Version 5.0.0 -  RELEASE  -
|  1> !LC-PBE RIJCOSX def2-SVPD def2/J TightSCF
|  2> *xyz 1 1
|  3> C          3.34350        3.35457       -3.59200
|  4> C          2.95263        1.86308       -3.57485
|  5> C          4.12921        0.89839       -3.41895
|  6> C          4.25587        3.70385       -4.72605
|  7> N          3.73403        4.29378       -5.80077
|  8> N          5.51504        3.40725       -4.63718
|  9> H          6.14919        3.60120       -5.39905
| 10> H          5.81358        2.89950       -3.80879
| 11> H          2.74138        4.51311       -5.82470
| 12> H          4.28755        4.52126       -6.61434
| 13> H          2.27894        1.73525       -2.72550
| 14> H          2.37747        1.62579       -4.47587
| 15> H          3.86125        3.59725       -2.66298
| 16> H          2.44649        3.97346       -3.65656
| 17> H          4.79753        1.01430       -4.24649
| 18> H          3.76482       -0.10731       -3.39293
| 19> H          4.64840        1.11330       -2.50837
| 20> *
| 21> %MaxCore 64000
| 22>
| 23> %pal nprocs 4
| 24> end
| 25>
| 26> %scf
| 27>   MaxIter 150
| 28> end
| 29>
| 30>
| 31>                          ****END OF INPUT****

CARTESIAN COORDINATES (ANGSTROEM)
---------------------------------
  C      3.343500    3.354570   -3.592000
  C      2.952630    1.863080   -3.574850
  C      4.129210    0.898390   -3.418950
  C      4.255870    3.703850   -4.726050
  N      3.734030    4.293780   -5.800770
  N      5.515040    3.407250   -4.637180
  H      6.149190    3.601200   -5.399050
  H      5.813580    2.899500   -3.808790
  H      2.741380    4.513110   -5.824700
  H      4.287550    4.521260   -6.614340
  H      2.278940    1.735250   -2.725500
  H      2.377470    1.625790   -4.475870
  H      3.861250    3.597250   -2.662980
  H      2.446490    3.973460   -3.656560
  H      4.797530    1.014300   -4.246490
  H      3.764820   -0.107310   -3.392930
  H      4.648400    1.113300   -2.508370

 Total Charge           Charge          ....    1
 Multiplicity           Mult            ....    1
 Number of Electrons    NEL             ....   48
 Basis Dimension        Dim             ....  208

ORBITAL ENERGIES
----------------

  NO   OCC          E(Eh)            E(eV)
   0   2.0000     -14.475438      -393.8967
   1   2.0000     -14.470746      -393.7690
   2   2.0000     -10.456001      -284.5222
   3   2.0000     -10.322701      -280.8950
   4   2.0000     -10.291069      -280.0342
   5   2.0000     -10.258191      -279.1396
   6   2.0000      -1.373412       -37.3724
   7   2.0000      -1.268440       -34.5160
   8   2.0000      -1.147241       -31.2180
   9   2.0000      -1.055646       -28.7256
  10   2.0000      -0.985542       -26.8180
  11   2.0000      -0.945224       -25.7209
  12   2.0000      -0.922706       -25.1081
  13   2.0000      -0.881594       -23.9894
  14   2.0000      -0.840728       -22.8774
  15   2.0000      -0.804469       -21.8907
  16   2.0000      -0.767213       -20.8769
  17   2.0000      -0.749981       -20.4080
  18   2.0000      -0.714513       -19.4429
  19   2.0000      -0.697080       -18.9685
  20   2.0000      -0.641001       -17.4425
  21   2.0000      -0.632570       -17.2131
  22   2.0000      -0.627593       -17.0777
  23   2.0000      -0.612610       -16.6700
  24   0.0000      -0.114699        -3.1211
  25   0.0000      -0.073322        -1.9952
  26   0.0000      -0.034833        -0.9479
  27   0.0000      -0.030568        -0.8318
  28   0.0000      -0.008471        -0.2305

MULLIKEN ATOMIC CHARGES
-----------------------
   0 C :   -0.152510
   1 C :   -0.386460
   2 C :    0.497206
   3 C :    0.741184
   4 N :   -0.106686
   5 N :    0.021583
   6 H :   -0.078214
   7 H :    0.130714
   8 H :    0.097500
   9 H :   -0.060393
  10 H :    0.075625
  11 H :    0.018814
  12 H :    0.139968
  13 H :    0.061529
  14 H :   -0.016064
  15 H :   -0.036198
  16 H :    0.052402
Sum of atomic charges:    1.0000000

LOEWDIN ATOMIC CHARGES
----------------------
   0 C :    0.021284
   1 C :   -0.056315
   2 C :    0.102858
   3 C :   -0.040616
   4 N :    0.265569
   5 N :    0.276963
   6 H :    0.065014
   7 H :    0.052765
   8 H :    0.059549
   9 H :    0.051703
  10 H :    0.050338
  11 H :    0.045160
  12 H :    0.059312
  13 H :    0.050699
  14 H :   -0.023005
  15 H :    0.013092
  16 H :    0.005629

  Mayer bond orders larger than 0.100000
B(  0-C ,  1-C ) :   1.1851 B(  0-C ,  3-C ) :   1.0671 B(  0-C ,  4-N ) :   0.1100
B(  0-C ,  5-N ) :   0.1082 B(  0-C , 12-H ) :   0.8673 B(  0-C , 13-H ) :   0.9322
B(  1-C ,  2-C ) :   1.2993 B(  1-C , 10-H ) :   0.9279 B(  1-C , 11-H ) :   1.0149
B(  1-C , 14-H ) :   0.1616 B(  1-C , 15-H ) :   0.1651 B(  1-C , 16-H ) :   0.1629
B(  2-C , 14-H ) :   0.8363 B(  2-C , 15-H ) :   0.8837 B(  2-C , 16-H ) :   0.8201
B(  3-C ,  4-N ) :   1.0327 B(  3-C ,  5-N ) :   1.1525 B(  3-C ,  6-H ) :  -0.1821
B(  3-C ,  9-H ) :  -0.1600 B(  4-N ,  5-N ) :   0.1492 B(  4-N ,  8-H ) :   1.0777
B(  4-N ,  9-H ) :   1.2817 B(  5-N ,  6-H ) :   1.3378 B(  5-N ,  7-H ) :   0.9912
B(  6-H ,  7-H ) :  -0.1839 B(  8-H ,  9-H ) :  -0.1683

FINAL SINGLE POINT ENERGY      -267.286748847016

DIPOLE MOMENT
-------------
                                X             Y             Z
Electronic contribution:      1.42898       4.43561      -2.93753
Nuclear contribution   :     -0.87169      -3.40560       1.97790
                        -----------------------------------------
Total Dipole Moment    :      0.55729       1.03002      -0.95962
                        -----------------------------------------
Magnitude (a.u.)       :      1.51406
Magnitude (Debye)      :      3.84844

Rotational constants in cm-1:     0.188632     0.081113     0.066356
Rotational constants in MHz :  5655.057814  2431.708101  1989.304146

                             ****ORCA TERMINATED NORMALLY****
TOTAL RUN TIME: 0 days 0 hours 0 minutes 25 seconds 435 msec
