                         Program Version 5.0.0 -  RELEASE  -
|  1> !LC-PBE RIJCOSX def2-SVPD def2/J TightSCF xyzfile
|  2>
|  3> *xyzfile 0 1 B.xyz
|  4>
|  5> %MaxCore 64000
|  6>
|  7> %pal nprocs 4
|  8> end
|  9>
| 10> %scf
| 11>   MaxIter 150
| 12> end
| 13>
| 14>
| 15>                          ****END OF INPUT****

CARTESIAN COORDINATES (ANGSTROEM)
---------------------------------
  C      3.343500    3.354571   -3.591998
  C      2.952633    1.863077   -3.574849
  C      4.129209    0.898394   -3.418950
  H      3.733687   -0.100605   -3.237633
  H      4.719095    0.862556   -4.339005
  C      5.017344    1.315212   -2.221305
  C      4.255868    3.703851   -4.726054
  N      3.734032    4.293783   -5.800770
  N      5.515039    3.407255   -4.637185
  H      6.149187    3.601203   -5.399053
  H      5.813584    2.899504   -3.808785
  H      2.741380    4.513109   -5.824701
  H      4.287548    4.521260   -6.614341
  H      2.278938    1.735250   -2.725496
  H      2.377466    1.625787   -4.475869
  O      4.737055    0.854112   -1.122825
  O      5.928146    2.168108   -2.491365
  H      3.861246    3.597252   -2.662979
  H      2.446493    3.973461   -3.656556

 Total Charge           Charge          ....    0
 Multiplicity           Mult            ....    1
 Number of Electrons    NEL             ....   70
 Basis Dimension        Dim             ....  266

ORBITAL ENERGIES
----------------

  NO   OCC          E(Eh)            E(eV)
   0   2.0000     -18.902876      -514.3734
   1   2.0000     -18.890737      -514.0431
   2   2.0000     -14.331437      -389.9782
   3   2.0000     -14.291189      -388.8830
   4   2.0000     -10.301812      -280.3266
   5   2.0000     -10.185241      -277.1545
   6   2.0000     -10.175074      -276.8778
   7   2.0000     -10.151453      -276.2351
   8   2.0000     -10.109607      -275.0964
   9   2.0000      -1.219375       -33.1809
  10   2.0000      -1.155440       -31.4411
  11   2.0000      -1.113529       -30.3007
  12   2.0000      -1.055787       -28.7294
  13   2.0000      -0.999344       -27.1935
  14   2.0000      -0.906341       -24.6628
  15   2.0000      -0.835198       -22.7269
  16   2.0000      -0.792759       -21.5721
  17   2.0000      -0.772847       -21.0302
  18   2.0000      -0.739949       -20.1350
  19   2.0000      -0.691849       -18.8262
  20   2.0000      -0.656175       -17.8554
  21   2.0000      -0.636223       -17.3125
  22   2.0000      -0.608934       -16.5699
  23   2.0000      -0.592080       -16.1113
  24   2.0000      -0.568632       -15.4733
  25   2.0000      -0.542117       -14.7518
  26   2.0000      -0.522851       -14.2275
  27   2.0000      -0.513940       -13.9850
  28   2.0000      -0.505373       -13.7519
  29   2.0000      -0.475019       -12.9259
  30   2.0000      -0.468024       -12.7356
  31   2.0000      -0.461652       -12.5622
  32   2.0000      -0.352496        -9.5919
  33   2.0000      -0.348947        -9.4953
  34   2.0000      -0.327798        -8.9198
  35   0.0000       0.034441         0.9372
  36   0.0000       0.044297         1.2054
  37   0.0000       0.080443         2.1890
  38   0.0000       0.101487         2.7616
  39   0.0000       0.107572         2.9272

MULLIKEN ATOMIC CHARGES
-----------------------
   0 C :   -0.113860
   1 C :   -0.141111
   2 C :    0.061746
   3 H :   -0.042054
   4 H :    0.137872
   5 C :    0.322728
   6 C :    0.656697
   7 N :   -0.079414
   8 N :    0.351000
   9 H :   -0.116635
  10 H :   -0.233852
  11 H :    0.032923
  12 H :   -0.106943
  13 H :    0.131053
  14 H :   -0.064886
  15 O :   -0.503061
  16 O :   -0.564803
  17 H :    0.301291
  18 H :   -0.028691
Sum of atomic charges:    0.0000000

LOEWDIN ATOMIC CHARGES
----------------------
   0 C :    0.028540
   1 C :   -0.020261
   2 C :    0.006457
   3 H :    0.035553
   4 H :    0.021844
   5 C :   -0.245658
   6 C :   -0.039920
   7 N :    0.228951
   8 N :    0.297397
   9 H :    0.051204
  10 H :   -0.134134
  11 H :    0.039579
  12 H :    0.033202
  13 H :    0.048383
  14 H :    0.031158
  15 O :   -0.214653
  16 O :   -0.259310
  17 H :    0.055154
  18 H :    0.036511

  Mayer bond orders larger than 0.100000
B(  0-C ,  1-C ) :   1.2251 B(  0-C ,  6-C ) :   1.0841 B(  0-C , 14-H ) :   0.1124
B(  0-C , 17-H ) :   0.7345 B(  0-C , 18-H ) :   0.9434 B(  1-C ,  2-C ) :   1.2677
B(  1-C ,  3-H ) :   0.1441 B(  1-C ,  4-H ) :   0.1382 B(  1-C , 13-H ) :   0.8777
B(  1-C , 14-H ) :   0.9777 B(  1-C , 17-H ) :   0.1095 B(  1-C , 18-H ) :   0.1419
B(  2-C ,  3-H ) :   0.8792 B(  2-C ,  4-H ) :   0.8393 B(  2-C ,  5-C ) :   1.0013
B(  2-C , 13-H ) :   0.1136 B(  3-H ,  5-C ) :   0.1381 B(  5-C , 15-O ) :   1.7022
B(  5-C , 16-O ) :   1.3184 B(  6-C ,  7-N ) :   0.9757 B(  6-C ,  8-N ) :   1.1756
B(  6-C ,  9-H ) :  -0.2073 B(  6-C , 11-H ) :  -0.1155 B(  6-C , 12-H ) :  -0.1483
B(  7-N ,  8-N ) :   0.1356 B(  7-N , 11-H ) :   1.1495 B(  7-N , 12-H ) :   1.2964
B(  8-N ,  9-H ) :   1.2864 B(  8-N , 10-H ) :   1.0836 B(  9-H , 10-H ) :  -0.2225
B( 10-H , 16-O ) :   0.3045 B( 11-H , 12-H ) :  -0.1698 B( 15-O , 16-O ) :   0.1208

FINAL SINGLE POINT ENERGY      -454.846141131194

DIPOLE MOMENT
-------------
                                X             Y             Z
Electronic contribution:      3.82741       0.05791       2.46834
Nuclear contribution   :     -5.42217       2.65262      -7.07590
                        -----------------------------------------
Total Dipole Moment    :     -1.59476       2.71053      -4.60757
                        -----------------------------------------
Magnitude (a.u.)       :      5.57852
Magnitude (Debye)      :     14.17948

Rotational constants in cm-1:     0.107541     0.035862     0.030371
Rotational constants in MHz :  3223.996852  1075.120464   910.508313

                             ****ORCA TERMINATED NORMALLY****
TOTAL RUN TIME: 0 days 0 hours 1 minutes 2 seconds 919 msec
