                         Program Version 5.0.0 -  RELEASE  -
|  1> !LC-PBE RIJCOSX def2-SVPD def2/J TightSCF
|  2> *xyz 0 1
|  3> C          3.34350        3.35457       -3.59200
|  4> C          2.95263        1.86308       -3.57485
|  5> C          4.12921        0.89839       -3.41895
|  6> H          3.73369       -0.10060       -3.23763
|  7> H          4.71910        0.86256       -4.33901
|  8> C          5.01734        1.31521       -2.22130
|  9> H          2.27894        1.73525       -2.72550
| 10> H          2.37747        1.62579       -4.47587
| 11> F          4.73706        0.85411       -1.12283
| 12> O          5.92815        2.16811       -2.49136
| 13> H          4.00801        3.53975       -4.40994
| 14> H          3.83025        3.60631       -2.67298
| 15> H          2.46347        3.95263       -3.70497
| 16> *
| 17> %MaxCore 64000
| 18>
| 19> %pal nprocs 4
| 20> end
| 21>
| 22> %scf
| 23>   MaxIter 150
| 24> end
| 25>
| 26>
| 27>                          ****END OF INPUT****

CARTESIAN COORDINATES (ANGSTROEM)
---------------------------------
  C      3.343500    3.354570   -3.592000
  C      2.952630    1.863080   -3.574850
  C      4.129210    0.898390   -3.418950
  H      3.733690   -0.100600   -3.237630
  H      4.719100    0.862560   -4.339010
  C      5.017340    1.315210   -2.221300
  H      2.278940    1.735250   -2.725500
  H      2.377470    1.625790   -4.475870
  F      4.737060    0.854110   -1.122830
  O      5.928150    2.168110   -2.491360
  H      4.008010    3.539750   -4.409940
  H      3.830250    3.606310   -2.672980
  H      2.463470    3.952630   -3.704970

 Total Charge           Charge          ....    0
 Multiplicity           Mult            ....    1
 Number of Electrons    NEL             ....   48
 Basis Dimension        Dim             ....  182

ORBITAL ENERGIES
----------------

  NO   OCC          E(Eh)            E(eV)
   0   2.0000     -24.596369      -669.3012
   1   2.0000     -19.000457      -517.0287
   2   2.0000     -10.322787      -280.8973
   3   2.0000     -10.159948      -276.4662
   4   2.0000     -10.147705      -276.1331
   5   2.0000     -10.114546      -275.2308
   6   2.0000      -1.493880       -40.6505
   7   2.0000      -1.181682       -32.1552
   8   2.0000      -0.988869       -26.9085
   9   2.0000      -0.893023       -24.3004
  10   2.0000      -0.831557       -22.6278
  11   2.0000      -0.773691       -21.0532
  12   2.0000      -0.727347       -19.7921
  13   2.0000      -0.705074       -19.1860
  14   2.0000      -0.652357       -17.7515
  15   2.0000      -0.617114       -16.7925
  16   2.0000      -0.601351       -16.3636
  17   2.0000      -0.557066       -15.1585
  18   2.0000      -0.535956       -14.5841
  19   2.0000      -0.501028       -13.6337
  20   2.0000      -0.496054       -13.4983
  21   2.0000      -0.484031       -13.1711
  22   2.0000      -0.469248       -12.7689
  23   2.0000      -0.423317       -11.5190
  24   0.0000       0.061041         1.6610
  25   0.0000       0.083484         2.2717
  26   0.0000       0.111156         3.0247
  27   0.0000       0.116497         3.1700
  28   0.0000       0.124572         3.3898

MULLIKEN ATOMIC CHARGES
-----------------------
   0 C :    0.452589
   1 C :   -0.506779
   2 C :   -0.050555
   3 H :    0.104178
   4 H :    0.094243
   5 C :    0.621290
   6 H :    0.042746
   7 H :   -0.055506
   8 F :   -0.290195
   9 O :   -0.451325
  10 H :    0.026694
  11 H :    0.044056
  12 H :   -0.031436
Sum of atomic charges:    0.0000000

LOEWDIN ATOMIC CHARGES
----------------------
   0 C :    0.098879
   1 C :   -0.084265
   2 C :    0.019207
   3 H :    0.034162
   4 H :    0.050266
   5 C :   -0.029831
   6 H :    0.032382
   7 H :    0.036296
   8 F :    0.008307
   9 O :   -0.146444
  10 H :    0.002390
  11 H :   -0.014688
  12 H :   -0.006659

  Mayer bond orders larger than 0.100000
B(  0-C ,  1-C ) :   1.3157 B(  0-C , 10-H ) :   0.8373 B(  0-C , 11-H ) :   0.8410
B(  0-C , 12-H ) :   0.8474 B(  1-C ,  2-C ) :   1.1939 B(  1-C ,  3-H ) :   0.1150
B(  1-C ,  4-H ) :   0.1133 B(  1-C ,  6-H ) :   0.9484 B(  1-C ,  7-H ) :   1.0156
B(  1-C , 10-H ) :   0.1580 B(  1-C , 11-H ) :   0.1655 B(  1-C , 12-H ) :   0.1592
B(  2-C ,  3-H ) :   0.8766 B(  2-C ,  4-H ) :   0.9280 B(  2-C ,  5-C ) :   1.0463
B(  5-C ,  8-F ) :   0.8234 B(  5-C ,  9-O ) :   1.8787

FINAL SINGLE POINT ENERGY      -330.515451761137

DIPOLE MOMENT
-------------
                                X             Y             Z
Electronic contribution:      6.03426      -4.39448       7.56121
Nuclear contribution   :     -7.06456       3.75953      -7.86734
                        -----------------------------------------
Total Dipole Moment    :     -1.03030      -0.63494      -0.30613
                        -----------------------------------------
Magnitude (a.u.)       :      1.24835
Magnitude (Debye)      :      3.17305

Rotational constants in cm-1:     0.185871     0.085512     0.073500
Rotational constants in MHz :  5572.269993  2563.593529  2203.466497

                             ****ORCA TERMINATED NORMALLY****
TOTAL RUN TIME: 0 days 0 hours 0 minutes 19 seconds 914 msec
