                         Program Version 5.0.0 -  RELEASE  -
|  1> !LC-PBE RIJCOSX def2-SVPD def2/J TightSCF
|  2> *xyz 0 1
|  3> C          3.34350        3.35457       -3.59200
|  4> C          2.95263        1.86308       -3.57485
|  5> C          4.12921        0.89839       -3.41895
|  6> C          4.25587        3.70385       -4.72605
|  7> C          3.73403        4.29378       -5.80077
|  8> N          5.51504        3.40725       -4.63718
|  9> H          6.14919        3.60120       -5.39905
| 10> H          5.81358        2.89950       -3.80879
| 11> H          2.74138        4.51311       -5.82470
| 12> H          4.28755        4.52126       -6.61434
| 13> H          2.27894        1.73525       -2.72550
| 14> H          2.37747        1.62579       -4.47587
| 15> H          3.86125        3.59725       -2.66298
| 16> H          2.44649        3.97346       -3.65656
| 17> H          4.79753        1.01430       -4.24649
| 18> H          3.76482       -0.10731       -3.39293
| 19> H          4.64840        1.11330       -2.50837
| 20> *
| 21> %MaxCore 64000
| 22>
| 23> %pal nprocs 4
| 24> end
| 25>
| 26> %scf
| 27>   MaxIter 150
| 28> end
| 29>
| 30>
| 31>                          ****END OF INPUT****

CARTESIAN COORDINATES (ANGSTROEM)
---------------------------------
  C      3.343500    3.354570   -3.592000
  C      2.952630    1.863080   -3.574850
  C      4.129210    0.898390   -3.418950
  C      4.255870    3.703850   -4.726050
  C      3.734030    4.293780   -5.800770
  N      5.515040    3.407250   -4.637180
  H      6.149190    3.601200   -5.399050
  H      5.813580    2.899500   -3.808790
  H      2.741380    4.513110   -5.824700
  H      4.287550    4.521260   -6.614340
  H      2.278940    1.735250   -2.725500
  H      2.377470    1.625790   -4.475870
  H      3.861250    3.597250   -2.662980
  H      2.446490    3.973460   -3.656560
  H      4.797530    1.014300   -4.246490
  H      3.764820   -0.107310   -3.392930
  H      4.648400    1.113300   -2.508370

 Total Charge           Charge          ....    0
 Multiplicity           Mult            ....    1
 Number of Electrons    NEL             ....   48
 Basis Dimension        Dim             ....  208

ORBITAL ENERGIES
----------------

  NO   OCC          E(Eh)            E(eV)
   0   2.0000     -14.230592      -387.2341
   1   2.0000     -10.151982      -276.2495
   2   2.0000     -10.126264      -275.5496
   3   2.0000     -10.125914      -275.5401
   4   2.0000     -10.112106      -275.1644
   5   2.0000     -10.057009      -273.6651
   6   2.0000      -1.105269       -30.0759
   7   2.0000      -0.966228       -26.2924
   8   2.0000      -0.902193       -24.5499
   9   2.0000      -0.842721       -22.9316
  10   2.0000      -0.764645       -20.8071
  11   2.0000      -0.715801       -19.4779
  12   2.0000      -0.674490       -18.3538
  13   2.0000      -0.634063       -17.2537
  14   2.0000      -0.597552       -16.2602
  15   2.0000      -0.575897       -15.6710
  16   2.0000      -0.551543       -15.0082
  17   2.0000      -0.527181       -14.3453
  18   2.0000      -0.509676       -13.8690
  19   2.0000      -0.497228       -13.5303
  20   2.0000      -0.470298       -12.7974
  21   2.0000      -0.458540       -12.4775
  22   2.0000      -0.449401       -12.2288
  23   2.0000      -0.305136        -8.3032
  24   0.0000       0.088492         2.4080
  25   0.0000       0.113486         3.0881
  26   0.0000       0.115954         3.1553
  27   0.0000       0.122347         3.3292
  28   0.0000       0.143345         3.9006

MULLIKEN ATOMIC CHARGES
-----------------------
   0 C :    0.076741
   1 C :   -0.392086
   2 C :    0.490498
   3 C :   -0.092344
   4 C :    0.279712
   5 N :    0.174207
   6 H :   -0.144872
   7 H :   -0.019803
   8 H :   -0.102060
   9 H :   -0.406327
  10 H :    0.032225
  11 H :   -0.025428
  12 H :    0.033098
  13 H :    0.124549
  14 H :    0.002073
  15 H :   -0.068313
  16 H :    0.038132
Sum of atomic charges:   -0.0000000

LOEWDIN ATOMIC CHARGES
----------------------
   0 C :   -0.018609
   1 C :   -0.079292
   2 C :    0.082678
   3 C :   -0.270335
   4 C :    0.149155
   5 N :    0.159842
   6 H :    0.026574
   7 H :    0.007136
   8 H :   -0.072430
   9 H :   -0.078686
  10 H :    0.027262
  11 H :    0.035960
  12 H :    0.034166
  13 H :    0.035450
  14 H :   -0.024575
  15 H :   -0.007716
  16 H :   -0.006581

  Mayer bond orders larger than 0.100000
B(  0-C ,  1-C ) :   1.1714 B(  0-C ,  3-C ) :   1.1712 B(  0-C ,  4-C ) :   0.1406
B(  0-C ,  5-N ) :   0.1144 B(  0-C , 11-H ) :   0.1039 B(  0-C , 12-H ) :   0.8012
B(  0-C , 13-H ) :   0.8711 B(  1-C ,  2-C ) :   1.2821 B(  1-C , 10-H ) :   0.9259
B(  1-C , 11-H ) :   1.0272 B(  1-C , 12-H ) :   0.1093 B(  1-C , 14-H ) :   0.1694
B(  1-C , 15-H ) :   0.1722 B(  1-C , 16-H ) :   0.1700 B(  2-C , 14-H ) :   0.8507
B(  2-C , 15-H ) :   0.8636 B(  2-C , 16-H ) :   0.8124 B(  3-C ,  4-C ) :   1.7862
B(  3-C ,  5-N ) :   1.1449 B(  3-C ,  6-H ) :  -0.1139 B(  3-C ,  9-H ) :   0.1551
B(  3-C , 12-H ) :   0.1524 B(  3-C , 13-H ) :   0.1213 B(  4-C ,  5-N ) :   0.2586
B(  4-C ,  8-H ) :   0.9830 B(  4-C ,  9-H ) :   0.7517 B(  5-N ,  6-H ) :   1.2944
B(  5-N ,  7-H ) :   1.0039 B(  6-H ,  7-H ) :  -0.1660

FINAL SINGLE POINT ENERGY      -250.843983834943

DIPOLE MOMENT
-------------
                                X             Y             Z
Electronic contribution:      1.42579       2.64817      -1.20363
Nuclear contribution   :     -0.93682      -3.08083       1.62582
                        -----------------------------------------
Total Dipole Moment    :      0.48898      -0.43266       0.42218
                        -----------------------------------------
Magnitude (a.u.)       :      0.77751
Magnitude (Debye)      :      1.97628

Rotational constants in cm-1:     0.191400     0.084268     0.068511
Rotational constants in MHz :  5738.038424  2526.291061  2053.912421

                             ****ORCA TERMINATED NORMALLY****
TOTAL RUN TIME: 0 days 0 hours 0 minutes 27 seconds 6 msec
