                         Program Version 5.0.0 -  RELEASE  -
|  1> !LC-PBE RIJCOSX def2-SVPD def2/J TightSCF
|  2> *xyz 0 1
|  3> C          3.34350        3.35457       -3.59200
|  4> C          2.95263        1.86308       -3.57485
|  5> C          4.12921        0.89839       -3.41895
|  6> H          3.73369       -0.10060       -3.23763
|  7> H          4.71910        0.86256       -4.33901
|  8> C          5.01734        1.31521       -2.22130
|  9> H          2.27894        1.73525       -2.72550
| 10> H          2.37747        1.62579       -4.47587
| 11> O          4.73706        0.85411       -1.12283
| 12> F          5.92815        2.16811       -2.49136
| 13> H          4.00801        3.53975       -4.40994
| 14> H          3.83025        3.60631       -2.67298
| 15> H          2.46347        3.95263       -3.70497
| 16> *
| 17> %MaxCore 64000
| 18>
| 19> %pal nprocs 4
| 20> end
| 21>
| 22> %scf
| 23>   MaxIter 150
| 24> end
| 25>
| 26>
| 27>                          ****END OF INPUT****

CARTESIAN COORDINATES (ANGSTROEM)
---------------------------------
  C      3.343500    3.354570   -3.592000
  C      2.952630    1.863080   -3.574850
  C      4.129210    0.898390   -3.418950
  H      3.733690   -0.100600   -3.237630
  H      4.719100    0.862560   -4.339010
  C      5.017340    1.315210   -2.221300
  H      2.278940    1.735250   -2.725500
  H      2.377470    1.625790   -4.475870
  O      4.737060    0.854110   -1.122830
  F      5.928150    2.168110   -2.491360
  H      4.008010    3.539750   -4.409940
  H      3.830250    3.606310   -2.672980
  H      2.463470    3.952630   -3.704970

 Total Charge           Charge          ....    0
 Multiplicity           Mult            ....    1
 Number of Electrons    NEL             ....   48
 Basis Dimension        Dim             ....  182

ORBITAL ENERGIES
----------------

  NO   OCC          E(Eh)            E(eV)
   0   2.0000     -24.574100      -668.6952
   1   2.0000     -19.010777      -517.3095
   2   2.0000     -10.318115      -280.7702
   3   2.0000     -10.159153      -276.4446
   4   2.0000     -10.148013      -276.1415
   5   2.0000     -10.123692      -275.4797
   6   2.0000      -1.452682       -39.5295
   7   2.0000      -1.213747       -33.0277
   8   2.0000      -0.991198       -26.9719
   9   2.0000      -0.892914       -24.2974
  10   2.0000      -0.815662       -22.1953
  11   2.0000      -0.770669       -20.9710
  12   2.0000      -0.705879       -19.2080
  13   2.0000      -0.683889       -18.6096
  14   2.0000      -0.660236       -17.9659
  15   2.0000      -0.611768       -16.6471
  16   2.0000      -0.600452       -16.3391
  17   2.0000      -0.560043       -15.2395
  18   2.0000      -0.553331       -15.0569
  19   2.0000      -0.526417       -14.3245
  20   2.0000      -0.493446       -13.4273
  21   2.0000      -0.486219       -13.2307
  22   2.0000      -0.477823       -13.0022
  23   2.0000      -0.434286       -11.8175
  24   0.0000       0.066995         1.8230
  25   0.0000       0.085993         2.3400
  26   0.0000       0.110030         2.9941
  27   0.0000       0.115082         3.1316
  28   0.0000       0.129351         3.5198

MULLIKEN ATOMIC CHARGES
-----------------------
   0 C :    0.434999
   1 C :   -0.481470
   2 C :   -0.059917
   3 H :    0.109181
   4 H :    0.094772
   5 C :    0.623256
   6 H :    0.062495
   7 H :   -0.058221
   8 O :   -0.389754
   9 F :   -0.347667
  10 H :    0.014657
  11 H :    0.022697
  12 H :   -0.025029
Sum of atomic charges:    0.0000000

LOEWDIN ATOMIC CHARGES
----------------------
   0 C :    0.097385
   1 C :   -0.082025
   2 C :    0.020065
   3 H :    0.043744
   4 H :    0.041324
   5 C :   -0.033114
   6 H :    0.038195
   7 H :    0.035983
   8 O :   -0.106428
   9 F :   -0.037184
  10 H :   -0.001474
  11 H :   -0.011985
  12 H :   -0.004485

  Mayer bond orders larger than 0.100000
B(  0-C ,  1-C ) :   1.3192 B(  0-C , 10-H ) :   0.8344 B(  0-C , 11-H ) :   0.8464
B(  0-C , 12-H ) :   0.8519 B(  1-C ,  2-C ) :   1.2070 B(  1-C ,  3-H ) :   0.1105
B(  1-C ,  4-H ) :   0.1114 B(  1-C ,  6-H ) :   0.9505 B(  1-C ,  7-H ) :   1.0187
B(  1-C , 10-H ) :   0.1528 B(  1-C , 11-H ) :   0.1630 B(  1-C , 12-H ) :   0.1581
B(  2-C ,  3-H ) :   0.8868 B(  2-C ,  4-H ) :   0.9184 B(  2-C ,  5-C ) :   1.0289
B(  5-C ,  8-O ) :   1.9257 B(  5-C ,  9-F ) :   0.7576 B(  8-O ,  9-F ) :   0.1009

FINAL SINGLE POINT ENERGY      -330.532775801121

DIPOLE MOMENT
-------------
                                X             Y             Z
Electronic contribution:      8.04314      -2.13044       5.19366
Nuclear contribution   :     -8.40998       2.27527      -6.32148
                        -----------------------------------------
Total Dipole Moment    :     -0.36684       0.14484      -1.12783
                        -----------------------------------------
Magnitude (a.u.)       :      1.19480
Magnitude (Debye)      :      3.03693

Rotational constants in cm-1:     0.181105     0.088112     0.073966
Rotational constants in MHz :  5429.384816  2641.525058  2217.445966

                             ****ORCA TERMINATED NORMALLY****
TOTAL RUN TIME: 0 days 0 hours 0 minutes 21 seconds 337 msec
