                         Program Version 5.0.0 -  RELEASE  -
|  1> !LC-PBE RIJCOSX def2-SVPD def2/J TightSCF
|  2> *xyz 0 1
|  3> C          3.34350        3.35457       -3.59200
|  4> C          2.95263        1.86308       -3.57485
|  5> C          4.12921        0.89839       -3.41895
|  6> C          4.25587        3.70385       -4.72605
|  7> N          3.73403        4.29378       -5.80077
|  8> C          5.51504        3.40725       -4.63718
|  9> H          6.14919        3.60120       -5.39905
| 10> H          5.81358        2.89950       -3.80879
| 11> H          2.74138        4.51311       -5.82470
| 12> H          4.28755        4.52126       -6.61434
| 13> H          2.27894        1.73525       -2.72550
| 14> H          2.37747        1.62579       -4.47587
| 15> H          3.86125        3.59725       -2.66298
| 16> H          2.44649        3.97346       -3.65656
| 17> H          4.79753        1.01430       -4.24649
| 18> H          3.76482       -0.10731       -3.39293
| 19> H          4.64840        1.11330       -2.50837
| 20> *
| 21> %MaxCore 64000
| 22>
| 23> %pal nprocs 4
| 24> end
| 25>
| 26> %scf
| 27>   MaxIter 150
| 28> end
| 29>
| 30>
| 31>                          ****END OF INPUT****

CARTESIAN COORDINATES (ANGSTROEM)
---------------------------------
  C      3.343500    3.354570   -3.592000
  C      2.952630    1.863080   -3.574850
  C      4.129210    0.898390   -3.418950
  C      4.255870    3.703850   -4.726050
  N      3.734030    4.293780   -5.800770
  C      5.515040    3.407250   -4.637180
  H      6.149190    3.601200   -5.399050
  H      5.813580    2.899500   -3.808790
  H      2.741380    4.513110   -5.824700
  H      4.287550    4.521260   -6.614340
  H      2.278940    1.735250   -2.725500
  H      2.377470    1.625790   -4.475870
  H      3.861250    3.597250   -2.662980
  H      2.446490    3.973460   -3.656560
  H      4.797530    1.014300   -4.246490
  H      3.764820   -0.107310   -3.392930
  H      4.648400    1.113300   -2.508370

 Total Charge           Charge          ....    0
 Multiplicity           Mult            ....    1
 Number of Electrons    NEL             ....   48
 Basis Dimension        Dim             ....  208

ORBITAL ENERGIES
----------------

  NO   OCC          E(Eh)            E(eV)
   0   2.0000     -14.227146      -387.1403
   1   2.0000     -10.148798      -276.1628
   2   2.0000     -10.125194      -275.5205
   3   2.0000     -10.124090      -275.4905
   4   2.0000     -10.100253      -274.8419
   5   2.0000     -10.056600      -273.6540
   6   2.0000      -1.090585       -29.6763
   7   2.0000      -0.967059       -26.3150
   8   2.0000      -0.896379       -24.3917
   9   2.0000      -0.850848       -23.1527
  10   2.0000      -0.753177       -20.4950
  11   2.0000      -0.713976       -19.4283
  12   2.0000      -0.665674       -18.1139
  13   2.0000      -0.627383       -17.0720
  14   2.0000      -0.597564       -16.2605
  15   2.0000      -0.579021       -15.7560
  16   2.0000      -0.531809       -14.4713
  17   2.0000      -0.529563       -14.4101
  18   2.0000      -0.510090       -13.8802
  19   2.0000      -0.496541       -13.5116
  20   2.0000      -0.463538       -12.6135
  21   2.0000      -0.454024       -12.3546
  22   2.0000      -0.445810       -12.1311
  23   2.0000      -0.311939        -8.4883
  24   0.0000       0.089768         2.4427
  25   0.0000       0.114359         3.1119
  26   0.0000       0.115610         3.1459
  27   0.0000       0.123783         3.3683
  28   0.0000       0.141666         3.8549

MULLIKEN ATOMIC CHARGES
-----------------------
   0 C :    0.042262
   1 C :   -0.383374
   2 C :    0.447838
   3 C :    0.095970
   4 N :   -0.012941
   5 C :    0.269146
   6 H :   -0.510547
   7 H :    0.082804
   8 H :   -0.038333
   9 H :   -0.118261
  10 H :    0.029217
  11 H :   -0.021242
  12 H :    0.153207
  13 H :   -0.034506
  14 H :    0.047347
  15 H :   -0.104543
  16 H :    0.055955
Sum of atomic charges:    0.0000000

LOEWDIN ATOMIC CHARGES
----------------------
   0 C :   -0.018683
   1 C :   -0.080955
   2 C :    0.085513
   3 C :   -0.256593
   4 N :    0.152694
   5 C :    0.140699
   6 H :   -0.064195
   7 H :   -0.064887
   8 H :    0.006716
   9 H :    0.011738
  10 H :    0.026788
  11 H :    0.032361
  12 H :    0.040181
  13 H :    0.025439
  14 H :   -0.024448
  15 H :   -0.009763
  16 H :   -0.002604

  Mayer bond orders larger than 0.100000
B(  0-C ,  1-C ) :   1.1832 B(  0-C ,  3-C ) :   1.0265 B(  0-C ,  4-N ) :   0.1265
B(  0-C ,  5-C ) :   0.2029 B(  0-C , 12-H ) :   0.8287 B(  0-C , 13-H ) :   0.9015
B(  1-C ,  2-C ) :   1.2997 B(  1-C , 10-H ) :   0.8993 B(  1-C , 11-H ) :   1.0077
B(  1-C , 12-H ) :   0.1140 B(  1-C , 13-H ) :   0.1036 B(  1-C , 14-H ) :   0.1686
B(  1-C , 15-H ) :   0.1805 B(  1-C , 16-H ) :   0.1661 B(  2-C , 14-H ) :   0.8400
B(  2-C , 15-H ) :   0.8897 B(  2-C , 16-H ) :   0.8142 B(  3-C ,  4-N ) :   1.0823
B(  3-C ,  5-C ) :   1.9408 B(  3-C ,  6-H ) :   0.1915 B(  3-C ,  7-H ) :   0.1989
B(  3-C ,  9-H ) :  -0.1047 B(  4-N ,  5-C ) :   0.2353 B(  4-N ,  8-H ) :   1.1208
B(  4-N ,  9-H ) :   1.2657 B(  5-C ,  6-H ) :   0.8572 B(  5-C ,  7-H ) :   0.7073
B(  6-H ,  7-H ) :  -0.1412 B(  8-H ,  9-H ) :  -0.1562

FINAL SINGLE POINT ENERGY      -250.843941820403

DIPOLE MOMENT
-------------
                                X             Y             Z
Electronic contribution:     -0.07915       3.46511      -2.21889
Nuclear contribution   :     -0.51555      -3.29052       1.90104
                        -----------------------------------------
Total Dipole Moment    :     -0.59471       0.17459      -0.31785
                        -----------------------------------------
Magnitude (a.u.)       :      0.69655
Magnitude (Debye)      :      1.77049

Rotational constants in cm-1:     0.197086     0.081749     0.067746
Rotational constants in MHz :  5908.486274  2450.769911  2030.963952

                             ****ORCA TERMINATED NORMALLY****
TOTAL RUN TIME: 0 days 0 hours 0 minutes 26 seconds 998 msec
