                         Program Version 5.0.0 -  RELEASE  -
|  1> !LC-PBE RIJCOSX def2-SVPD def2/J TightSCF xyzfile
|  2>
|  3> *xyzfile 0 1 D4.xyz
|  4>
|  5> %MaxCore 64000
|  6>
|  7> %pal nprocs 4
|  8> end
|  9>
| 10> %scf
| 11>   MaxIter 150
| 12> end
| 13>
| 14>
| 15>                          ****END OF INPUT****

CARTESIAN COORDINATES (ANGSTROEM)
---------------------------------
  C      3.343500    3.354571   -3.591998
  C      2.952633    1.863077   -3.574849
  C      4.129209    0.898394   -3.418950
  H      3.733687   -0.100605   -3.237633
  H      4.719095    0.862556   -4.339005
  C      5.017344    1.315212   -2.221305
  C      4.255868    3.703851   -4.726054
  N      3.734032    4.293783   -5.800770
  C      5.515039    3.407255   -4.637185
  H      6.149187    3.601203   -5.399053
  H      5.813584    2.899504   -3.808785
  H      2.741380    4.513109   -5.824701
  H      4.287548    4.521260   -6.614341
  H      2.278938    1.735250   -2.725496
  H      2.377466    1.625787   -4.475869
  O      4.737055    0.854112   -1.122825
  F      5.928146    2.168108   -2.491365
  H      3.861246    3.597252   -2.662979
  H      2.446493    3.973461   -3.656556

 Total Charge           Charge          ....    0
 Multiplicity           Mult            ....    1
 Number of Electrons    NEL             ....   70
 Basis Dimension        Dim             ....  266

ORBITAL ENERGIES
----------------

  NO   OCC          E(Eh)            E(eV)
   0   2.0000     -24.578604      -668.8178
   1   2.0000     -19.013157      -517.3743
   2   2.0000     -14.231720      -387.2648
   3   2.0000     -10.320523      -280.8357
   4   2.0000     -10.156016      -276.3592
   5   2.0000     -10.153738      -276.2972
   6   2.0000     -10.150326      -276.2044
   7   2.0000     -10.140075      -275.9255
   8   2.0000     -10.049828      -273.4697
   9   2.0000      -1.463780       -39.8315
  10   2.0000      -1.216267       -33.0963
  11   2.0000      -1.096166       -29.8282
  12   2.0000      -0.996737       -27.1226
  13   2.0000      -0.921847       -25.0847
  14   2.0000      -0.877958       -23.8904
  15   2.0000      -0.834677       -22.7127
  16   2.0000      -0.781436       -21.2640
  17   2.0000      -0.741740       -20.1838
  18   2.0000      -0.705902       -19.2086
  19   2.0000      -0.689328       -18.7576
  20   2.0000      -0.676434       -18.4067
  21   2.0000      -0.655266       -17.8307
  22   2.0000      -0.631081       -17.1726
  23   2.0000      -0.610789       -16.6204
  24   2.0000      -0.592687       -16.1278
  25   2.0000      -0.566128       -15.4051
  26   2.0000      -0.538650       -14.6574
  27   2.0000      -0.524681       -14.2773
  28   2.0000      -0.516188       -14.0462
  29   2.0000      -0.503995       -13.7144
  30   2.0000      -0.485924       -13.2227
  31   2.0000      -0.469420       -12.7736
  32   2.0000      -0.459438       -12.5019
  33   2.0000      -0.435455       -11.8493
  34   2.0000      -0.315708        -8.5908
  35   0.0000       0.065431         1.7805
  36   0.0000       0.084293         2.2937
  37   0.0000       0.102716         2.7951
  38   0.0000       0.108190         2.9440
  39   0.0000       0.114238         3.1086

MULLIKEN ATOMIC CHARGES
-----------------------
   0 C :    0.057147
   1 C :   -0.109199
   2 C :   -0.060446
   3 H :   -0.065731
   4 H :    0.292008
   5 C :    0.623591
   6 C :    0.204999
   7 N :   -0.016782
   8 C :    0.728758
   9 H :   -0.552246
  10 H :   -0.294961
  11 H :   -0.057333
  12 H :   -0.132774
  13 H :    0.108100
  14 H :   -0.050173
  15 O :   -0.375187
  16 F :   -0.423316
  17 H :    0.239160
  18 H :   -0.115618
Sum of atomic charges:    0.0000000

LOEWDIN ATOMIC CHARGES
----------------------
   0 C :   -0.000522
   1 C :   -0.021464
   2 C :    0.036391
   3 H :    0.043829
   4 H :    0.037681
   5 C :   -0.001987
   6 C :   -0.239206
   7 N :    0.151643
   8 C :    0.173134
   9 H :   -0.056619
  10 H :   -0.145993
  11 H :    0.005974
  12 H :    0.012655
  13 H :    0.040540
  14 H :    0.041462
  15 O :   -0.095656
  16 F :   -0.051672
  17 H :    0.038601
  18 H :    0.031209

  Mayer bond orders larger than 0.100000
B(  0-C ,  1-C ) :   1.1979 B(  0-C ,  6-C ) :   1.0693 B(  0-C ,  7-N ) :   0.1276
B(  0-C ,  8-C ) :   0.1837 B(  0-C , 14-H ) :   0.1104 B(  0-C , 17-H ) :   0.7619
B(  0-C , 18-H ) :   0.9546 B(  1-C ,  2-C ) :   1.2722 B(  1-C ,  3-H ) :   0.1474
B(  1-C ,  4-H ) :   0.1167 B(  1-C , 13-H ) :   0.8550 B(  1-C , 14-H ) :   0.9733
B(  1-C , 17-H ) :   0.1283 B(  1-C , 18-H ) :   0.1369 B(  2-C ,  3-H ) :   0.9375
B(  2-C ,  4-H ) :   0.7931 B(  2-C ,  5-C ) :   1.0587 B(  2-C , 13-H ) :   0.1051
B(  2-C , 16-F ) :   0.1485 B(  3-H ,  5-C ) :   0.1156 B(  5-C , 15-O ) :   1.9284
B(  5-C , 16-F ) :   0.6785 B(  6-C ,  7-N ) :   0.9940 B(  6-C ,  8-C ) :   1.9630
B(  6-C ,  9-H ) :   0.2390 B(  6-C , 10-H ) :   0.2865 B(  6-C , 12-H ) :  -0.1235
B(  7-N ,  8-C ) :   0.2630 B(  7-N , 11-H ) :   1.1505 B(  7-N , 12-H ) :   1.3049
B(  8-C ,  9-H ) :   0.8158 B(  8-C , 10-H ) :   0.5285 B(  9-H , 10-H ) :  -0.2444
B( 10-H , 16-F ) :   0.1393 B( 11-H , 12-H ) :  -0.1538 B( 15-O , 16-F ) :   0.1217

FINAL SINGLE POINT ENERGY      -462.727091111792

DIPOLE MOMENT
-------------
                                X             Y             Z
Electronic contribution:      6.16867      -2.82637       7.06583
Nuclear contribution   :     -6.99695       3.07955      -8.37829
                        -----------------------------------------
Total Dipole Moment    :     -0.82828       0.25318      -1.31246
                        -----------------------------------------
Magnitude (a.u.)       :      1.57248
Magnitude (Debye)      :      3.99692

Rotational constants in cm-1:     0.106302     0.035771     0.030198
Rotational constants in MHz :  3186.860872  1072.397550   905.318354

                             ****ORCA TERMINATED NORMALLY****
TOTAL RUN TIME: 0 days 0 hours 1 minutes 4 seconds 177 msec
