                         Program Version 5.0.0 -  RELEASE  -
|  1> !PBE0 D3BJ RIJCOSX def2-TZVP def2/J TightSCF
|  2> *xyz -1 1
|  3> C          0.96805        1.63064       -3.71575
|  4> C         -0.50835        1.72268       -4.12430
|  5> S         -1.32861        0.14674       -4.43578
|  6> H         -0.59151        2.29496       -5.04722
|  7> H         -1.11411        2.23561       -3.37436
|  8> O         -2.57135        0.47573       -5.06834
|  9> O         -1.51496       -0.40051       -3.06342
| 10> O         -0.37793       -0.62756       -5.20114
| 11> H          1.51840        1.12197       -4.47946
| 12> H          1.05062        1.08971       -2.79625
| 13> H          1.36450        2.61606       -3.58668
| 14> *
| 15> %MaxCore 64000
| 16>
| 17> %pal nprocs 4
| 18> end
| 19>
| 20> %scf
| 21>   MaxIter 150
| 22> end
| 23>
| 24>
| 25>                          ****END OF INPUT****

CARTESIAN COORDINATES (ANGSTROEM)
---------------------------------
  C      0.968050    1.630640   -3.715750
  C     -0.508350    1.722680   -4.124300
  S     -1.328610    0.146740   -4.435780
  H     -0.591510    2.294960   -5.047220
  H     -1.114110    2.235610   -3.374360
  O     -2.571350    0.475730   -5.068340
  O     -1.514960   -0.400510   -3.063420
  O     -0.377930   -0.627560   -5.201140
  H      1.518400    1.121970   -4.479460
  H      1.050620    1.089710   -2.796250
  H      1.364500    2.616060   -3.586680

 Total Charge           Charge          ....   -1
 Multiplicity           Mult            ....    1
 Number of Electrons    NEL             ....   58
 Basis Dimension        Dim             ....  222

ORBITAL ENERGIES
----------------

  NO   OCC          E(Eh)            E(eV)
   0   2.0000     -88.992824     -2421.6179
   1   2.0000     -18.981613      -516.5160
   2   2.0000     -18.978122      -516.4210
   3   2.0000     -18.961718      -515.9746
   4   2.0000     -10.075057      -274.1562
   5   2.0000     -10.069920      -274.0164
   6   2.0000      -7.938417      -216.0153
   7   2.0000      -5.875842      -159.8898
   8   2.0000      -5.874458      -159.8521
   9   2.0000      -5.874231      -159.8460
  10   2.0000      -0.946766       -25.7628
  11   2.0000      -0.820276       -22.3209
  12   2.0000      -0.789199       -21.4752
  13   2.0000      -0.646403       -17.5895
  14   2.0000      -0.519168       -14.1273
  15   2.0000      -0.391733       -10.6596
  16   2.0000      -0.324204        -8.8220
  17   2.0000      -0.323810        -8.8113
  18   2.0000      -0.283838        -7.7236
  19   2.0000      -0.270776        -7.3682
  20   2.0000      -0.263813        -7.1787
  21   2.0000      -0.235256        -6.4016
  22   2.0000      -0.220089        -5.9889
  23   2.0000      -0.160597        -4.3701
  24   2.0000      -0.159674        -4.3450
  25   2.0000      -0.127063        -3.4576
  26   2.0000      -0.115664        -3.1474
  27   2.0000      -0.102319        -2.7842
  28   2.0000      -0.071202        -1.9375
  29   0.0000       0.185003         5.0342
  30   0.0000       0.227553         6.1920
  31   0.0000       0.244136         6.6433
  32   0.0000       0.248502         6.7621
  33   0.0000       0.275307         7.4915

MULLIKEN ATOMIC CHARGES
-----------------------
   0 C :   -0.344681
   1 C :   -0.243393
   2 S :    0.804571
   3 H :    0.074288
   4 H :    0.083455
   5 O :   -0.531624
   6 O :   -0.595276
   7 O :   -0.548506
   8 H :    0.118516
   9 H :    0.111295
  10 H :    0.071354
Sum of atomic charges:   -1.0000000

LOEWDIN ATOMIC CHARGES
----------------------
   0 C :   -0.346083
   1 C :   -0.434344
   2 S :    0.392342
   3 H :    0.114300
   4 H :    0.118292
   5 O :   -0.361498
   6 O :   -0.436265
   7 O :   -0.374989
   8 H :    0.114705
   9 H :    0.114254
  10 H :    0.099289

  Mayer bond orders larger than 0.100000
B(  0-C ,  1-C ) :   0.9852 B(  0-C ,  8-H ) :   0.9703 B(  0-C ,  9-H ) :   0.9723
B(  0-C , 10-H ) :   0.9622 B(  1-C ,  2-S ) :   0.8766 B(  1-C ,  3-H ) :   0.9499
B(  1-C ,  4-H ) :   0.9586 B(  2-S ,  5-O ) :   1.8418 B(  2-S ,  6-O ) :   1.7488
B(  2-S ,  7-O ) :   1.7795

Dispersion correction           -0.008254975
FINAL SINGLE POINT ENERGY      -702.841454950869

DIPOLE MOMENT
-------------
                                X             Y             Z
Electronic contribution:     -5.64166      -5.36302      -1.94845
Nuclear contribution   :      6.64523       6.80157       2.07300
                        -----------------------------------------
Total Dipole Moment    :      1.00357       1.43856       0.12455
                        -----------------------------------------
Magnitude (a.u.)       :      1.75844
Magnitude (Debye)      :      4.46959

Rotational constants in cm-1:     0.163070     0.082807     0.081541
Rotational constants in MHz :  4888.719902  2482.497026  2444.541148

                             ****ORCA TERMINATED NORMALLY****
TOTAL RUN TIME: 0 days 0 hours 0 minutes 24 seconds 108 msec
