                         Program Version 5.0.0 -  RELEASE  -
|  1> !PBE0 D3BJ RIJCOSX def2-TZVP def2/J TightSCF
|  2> *xyz 1 1
|  3> C          1.36401        0.46874       -2.81376
|  4> N          0.42884        0.32140       -1.65531
|  5> C          0.96805        1.63064       -3.71575
|  6> H          0.74858       -0.40054       -1.00134
|  7> H         -0.46105        0.02333       -2.07773
|  8> H          0.31026        1.20137       -1.13495
|  9> H          1.29485       -0.46874       -3.36468
| 10> H          2.37622        0.59740       -2.43149
| 11> H          1.65923        1.70213       -4.52942
| 12> H          0.98421        2.54058       -3.15304
| 13> H         -0.01744        1.46536       -4.09838
| 14> *
| 15> %MaxCore 64000
| 16>
| 17> %pal nprocs 4
| 18> end
| 19>
| 20> %scf
| 21>   MaxIter 150
| 22> end
| 23>
| 24>
| 25>                          ****END OF INPUT****

CARTESIAN COORDINATES (ANGSTROEM)
---------------------------------
  C      1.364010    0.468740   -2.813760
  N      0.428840    0.321400   -1.655310
  C      0.968050    1.630640   -3.715750
  H      0.748580   -0.400540   -1.001340
  H     -0.461050    0.023330   -2.077730
  H      0.310260    1.201370   -1.134950
  H      1.294850   -0.468740   -3.364680
  H      2.376220    0.597400   -2.431490
  H      1.659230    1.702130   -4.529420
  H      0.984210    2.540580   -3.153040
  H     -0.017440    1.465360   -4.098380

 Total Charge           Charge          ....    1
 Multiplicity           Mult            ....    1
 Number of Electrons    NEL             ....   26
 Basis Dimension        Dim             ....  141

ORBITAL ENERGIES
----------------

  NO   OCC          E(Eh)            E(eV)
   0   2.0000     -14.719069      -400.5262
   1   2.0000     -10.475886      -285.0634
   2   2.0000     -10.395147      -282.8663
   3   2.0000      -1.242125       -33.7999
   4   2.0000      -0.988528       -26.8992
   5   2.0000      -0.862505       -23.4699
   6   2.0000      -0.819914       -22.3110
   7   2.0000      -0.804012       -21.8783
   8   2.0000      -0.708471       -19.2785
   9   2.0000      -0.658074       -17.9071
  10   2.0000      -0.597435       -16.2570
  11   2.0000      -0.580261       -15.7897
  12   2.0000      -0.564988       -15.3741
  13   0.0000      -0.186138        -5.0651
  14   0.0000      -0.124347        -3.3837
  15   0.0000      -0.119589        -3.2542
  16   0.0000      -0.100979        -2.7478
  17   0.0000      -0.063113        -1.7174

MULLIKEN ATOMIC CHARGES
-----------------------
   0 C :   -0.221991
   1 N :   -0.288354
   2 C :   -0.365783
   3 H :    0.336147
   4 H :    0.331101
   5 H :    0.328449
   6 H :    0.193212
   7 H :    0.194366
   8 H :    0.187229
   9 H :    0.154146
  10 H :    0.151478
Sum of atomic charges:    1.0000000

LOEWDIN ATOMIC CHARGES
----------------------
   0 C :   -0.279794
   1 N :    0.169164
   2 C :   -0.279588
   3 H :    0.221655
   4 H :    0.227620
   5 H :    0.221842
   6 H :    0.153994
   7 H :    0.152865
   8 H :    0.149669
   9 H :    0.131523
  10 H :    0.131050

  Mayer bond orders larger than 0.100000
B(  0-C ,  1-N ) :   0.8831 B(  0-C ,  2-C ) :   1.0277 B(  0-C ,  6-H ) :   0.9468
B(  0-C ,  7-H ) :   0.9434 B(  1-N ,  3-H ) :   0.8729 B(  1-N ,  4-H ) :   0.8769
B(  1-N ,  5-H ) :   0.8713 B(  2-C ,  8-H ) :   0.9529 B(  2-C ,  9-H ) :   0.9567
B(  2-C , 10-H ) :   0.9548

Dispersion correction           -0.005023740
FINAL SINGLE POINT ENERGY      -135.423042234595

DIPOLE MOMENT
-------------
                                X             Y             Z
Electronic contribution:     -0.34897      -0.94884       1.57566
Nuclear contribution   :     -0.20470       0.31427      -0.31587
                        -----------------------------------------
Total Dipole Moment    :     -0.55367      -0.63458       1.25979
                        -----------------------------------------
Magnitude (a.u.)       :      1.51536
Magnitude (Debye)      :      3.85173

Rotational constants in cm-1:     1.011480     0.279280     0.248378
Rotational constants in MHz : 30323.408050  8372.602834  7446.185305

                             ****ORCA TERMINATED NORMALLY****
TOTAL RUN TIME: 0 days 0 hours 0 minutes 12 seconds 671 msec
