                         Program Version 5.0.0 -  RELEASE  -
|  1> !PBE0 D3BJ RIJCOSX def2-TZVP def2/J TightSCF
|  2> *xyz 0 1
|  3> C          0.96805        1.63064       -3.71575
|  4> C         -0.50835        1.72268       -4.12430
|  5> S         -1.32861        0.14674       -4.43578
|  6> H         -0.59151        2.29496       -5.04722
|  7> H         -1.11411        2.23561       -3.37436
|  8> F         -2.57135        0.47573       -5.06834
|  9> O         -1.51496       -0.40051       -3.06342
| 10> O         -0.37793       -0.62756       -5.20114
| 11> H          1.51840        1.12197       -4.47946
| 12> H          1.05062        1.08971       -2.79625
| 13> H          1.36450        2.61606       -3.58668
| 14> *
| 15> %MaxCore 64000
| 16>
| 17> %pal nprocs 4
| 18> end
| 19>
| 20> %scf
| 21>   MaxIter 150
| 22> end
| 23>
| 24>
| 25>                          ****END OF INPUT****

CARTESIAN COORDINATES (ANGSTROEM)
---------------------------------
  C      0.968050    1.630640   -3.715750
  C     -0.508350    1.722680   -4.124300
  S     -1.328610    0.146740   -4.435780
  H     -0.591510    2.294960   -5.047220
  H     -1.114110    2.235610   -3.374360
  F     -2.571350    0.475730   -5.068340
  O     -1.514960   -0.400510   -3.063420
  O     -0.377930   -0.627560   -5.201140
  H      1.518400    1.121970   -4.479460
  H      1.050620    1.089710   -2.796250
  H      1.364500    2.616060   -3.586680

 Total Charge           Charge          ....    0
 Multiplicity           Mult            ....    1
 Number of Electrons    NEL             ....   58
 Basis Dimension        Dim             ....  222

ORBITAL ENERGIES
----------------

  NO   OCC          E(Eh)            E(eV)
   0   2.0000     -89.261351     -2428.9248
   1   2.0000     -24.898347      -677.5185
   2   2.0000     -19.218679      -522.9668
   3   2.0000     -19.202771      -522.5340
   4   2.0000     -10.280353      -279.7426
   5   2.0000     -10.235933      -278.5339
   6   2.0000      -8.207493      -223.3372
   7   2.0000      -6.147718      -167.2879
   8   2.0000      -6.141706      -167.1243
   9   2.0000      -6.141190      -167.1103
  10   2.0000      -1.425507       -38.7900
  11   2.0000      -1.129950       -30.7475
  12   2.0000      -1.028576       -27.9890
  13   2.0000      -0.839692       -22.8492
  14   2.0000      -0.760909       -20.7054
  15   2.0000      -0.695284       -18.9196
  16   2.0000      -0.611641       -16.6436
  17   2.0000      -0.609127       -16.5752
  18   2.0000      -0.572413       -15.5761
  19   2.0000      -0.504909       -13.7393
  20   2.0000      -0.496382       -13.5072
  21   2.0000      -0.456935       -12.4338
  22   2.0000      -0.442301       -12.0356
  23   2.0000      -0.419127       -11.4050
  24   2.0000      -0.399119       -10.8606
  25   2.0000      -0.396344       -10.7851
  26   2.0000      -0.346806        -9.4371
  27   2.0000      -0.329967        -8.9789
  28   2.0000      -0.316983        -8.6255
  29   0.0000       0.027625         0.7517
  30   0.0000       0.041507         1.1295
  31   0.0000       0.068776         1.8715
  32   0.0000       0.075436         2.0527
  33   0.0000       0.084438         2.2977

MULLIKEN ATOMIC CHARGES
-----------------------
   0 C :   -0.364045
   1 C :   -0.252115
   2 S :    0.832451
   3 H :    0.132069
   4 H :    0.147371
   5 F :   -0.080827
   6 O :   -0.445285
   7 O :   -0.401691
   8 H :    0.149430
   9 H :    0.148661
  10 H :    0.133981
Sum of atomic charges:    0.0000000

LOEWDIN ATOMIC CHARGES
----------------------
   0 C :   -0.304202
   1 C :   -0.400950
   2 S :    0.516270
   3 H :    0.133120
   4 H :    0.139163
   5 F :    0.111786
   6 O :   -0.316358
   7 O :   -0.259876
   8 H :    0.127321
   9 H :    0.128138
  10 H :    0.125588

  Mayer bond orders larger than 0.100000
B(  0-C ,  1-C ) :   1.0051 B(  0-C ,  8-H ) :   0.9642 B(  0-C ,  9-H ) :   0.9662
B(  0-C , 10-H ) :   0.9552 B(  1-C ,  2-S ) :   0.9203 B(  1-C ,  3-H ) :   0.9320
B(  1-C ,  4-H ) :   0.9352 B(  2-S ,  5-F ) :   1.1618 B(  2-S ,  6-O ) :   1.8895
B(  2-S ,  7-O ) :   1.9285

Dispersion correction           -0.007893210
FINAL SINGLE POINT ENERGY      -727.345158659087

DIPOLE MOMENT
-------------
                                X             Y             Z
Electronic contribution:     -8.34439      -5.16840      -3.24192
Nuclear contribution   :      8.31000       6.74109       2.87442
                        -----------------------------------------
Total Dipole Moment    :     -0.03439       1.57269      -0.36750
                        -----------------------------------------
Magnitude (a.u.)       :      1.61542
Magnitude (Debye)      :      4.10608

Rotational constants in cm-1:     0.158705     0.080192     0.078179
Rotational constants in MHz :  4757.865601  2404.095079  2343.752507

                             ****ORCA TERMINATED NORMALLY****
TOTAL RUN TIME: 0 days 0 hours 0 minutes 28 seconds 639 msec
