                         Program Version 5.0.0 -  RELEASE  -
|  1> !PBE0 D3BJ RIJCOSX def2-TZVP def2/J TightSCF
|  2> *xyz 0 1
|  3> C          1.36401        0.46874       -2.81376
|  4> C          0.42884        0.32140       -1.65531
|  5> C          0.96805        1.63064       -3.71575
|  6> H          0.74858       -0.40054       -1.00134
|  7> H         -0.46105        0.02333       -2.07773
|  8> H          0.31026        1.20137       -1.13495
|  9> H          1.29485       -0.46874       -3.36468
| 10> H          2.37622        0.59740       -2.43149
| 11> H          1.65923        1.70213       -4.52942
| 12> H          0.98421        2.54058       -3.15304
| 13> H         -0.01744        1.46536       -4.09838
| 14> *
| 15> %MaxCore 64000
| 16>
| 17> %pal nprocs 4
| 18> end
| 19>
| 20> %scf
| 21>   MaxIter 150
| 22> end
| 23>
| 24>
| 25>                          ****END OF INPUT****

CARTESIAN COORDINATES (ANGSTROEM)
---------------------------------
  C      1.364010    0.468740   -2.813760
  C      0.428840    0.321400   -1.655310
  C      0.968050    1.630640   -3.715750
  H      0.748580   -0.400540   -1.001340
  H     -0.461050    0.023330   -2.077730
  H      0.310260    1.201370   -1.134950
  H      1.294850   -0.468740   -3.364680
  H      2.376220    0.597400   -2.431490
  H      1.659230    1.702130   -4.529420
  H      0.984210    2.540580   -3.153040
  H     -0.017440    1.465360   -4.098380

 Total Charge           Charge          ....    0
 Multiplicity           Mult            ....    1
 Number of Electrons    NEL             ....   26
 Basis Dimension        Dim             ....  141

ORBITAL ENERGIES
----------------

  NO   OCC          E(Eh)            E(eV)
   0   2.0000     -10.206740      -277.7395
   1   2.0000     -10.196384      -277.4577
   2   2.0000     -10.178294      -276.9655
   3   2.0000      -0.814570       -22.1656
   4   2.0000      -0.710534       -19.3346
   5   2.0000      -0.601687       -16.3727
   6   2.0000      -0.484533       -13.1848
   7   2.0000      -0.458036       -12.4638
   8   2.0000      -0.414787       -11.2869
   9   2.0000      -0.402544       -10.9538
  10   2.0000      -0.347997        -9.4695
  11   2.0000      -0.343233        -9.3398
  12   2.0000      -0.339190        -9.2298
  13   0.0000       0.050384         1.3710
  14   0.0000       0.094564         2.5732
  15   0.0000       0.101432         2.7601
  16   0.0000       0.104917         2.8549
  17   0.0000       0.122650         3.3375

MULLIKEN ATOMIC CHARGES
-----------------------
   0 C :   -0.168857
   1 C :   -0.335650
   2 C :   -0.345332
   3 H :    0.117527
   4 H :    0.106787
   5 H :    0.106038
   6 H :    0.090862
   7 H :    0.091656
   8 H :    0.118662
   9 H :    0.109711
  10 H :    0.108596
Sum of atomic charges:   -0.0000000

LOEWDIN ATOMIC CHARGES
----------------------
   0 C :   -0.324989
   1 C :   -0.305336
   2 C :   -0.309834
   3 H :    0.107753
   4 H :    0.113770
   5 H :    0.107410
   6 H :    0.133759
   7 H :    0.129405
   8 H :    0.115943
   9 H :    0.115916
  10 H :    0.116201

  Mayer bond orders larger than 0.100000
B(  0-C ,  1-C ) :   0.9995 B(  0-C ,  2-C ) :   1.0060 B(  0-C ,  6-H ) :   0.9670
B(  0-C ,  7-H ) :   0.9642 B(  1-C ,  3-H ) :   0.9767 B(  1-C ,  4-H ) :   0.9782
B(  1-C ,  5-H ) :   0.9764 B(  2-C ,  8-H ) :   0.9742 B(  2-C ,  9-H ) :   0.9745
B(  2-C , 10-H ) :   0.9732

Dispersion correction           -0.005043461
FINAL SINGLE POINT ENERGY      -119.020546175725

DIPOLE MOMENT
-------------
                                X             Y             Z
Electronic contribution:      0.36679      -0.18480      -0.01651
Nuclear contribution   :     -0.35842       0.15752       0.02695
                        -----------------------------------------
Total Dipole Moment    :      0.00836      -0.02728       0.01044
                        -----------------------------------------
Magnitude (a.u.)       :      0.03039
Magnitude (Debye)      :      0.07724

Rotational constants in cm-1:     1.019891     0.293671     0.260247
Rotational constants in MHz : 30575.551403  8804.039097  7802.009261

                             ****ORCA TERMINATED NORMALLY****
TOTAL RUN TIME: 0 days 0 hours 0 minutes 12 seconds 803 msec
