                         Program Version 5.0.0 -  RELEASE  -
|  1> !PBE0 D3BJ RIJCOSX def2-TZVP def2/J TightSCF
|  2> *xyz 0 1
|  3> C          0.96805        1.63064       -3.71575
|  4> C         -0.50835        1.72268       -4.12430
|  5> S         -1.32861        0.14674       -4.43578
|  6> H         -0.59151        2.29496       -5.04722
|  7> H         -1.11411        2.23561       -3.37436
|  8> O         -2.57135        0.47573       -5.06834
|  9> F         -1.51496       -0.40051       -3.06342
| 10> O         -0.37793       -0.62756       -5.20114
| 11> H          1.51840        1.12197       -4.47946
| 12> H          1.05062        1.08971       -2.79625
| 13> H          1.36450        2.61606       -3.58668
| 14> *
| 15> %MaxCore 64000
| 16>
| 17> %pal nprocs 4
| 18> end
| 19>
| 20> %scf
| 21>   MaxIter 150
| 22> end
| 23>
| 24>
| 25>                          ****END OF INPUT****

CARTESIAN COORDINATES (ANGSTROEM)
---------------------------------
  C      0.968050    1.630640   -3.715750
  C     -0.508350    1.722680   -4.124300
  S     -1.328610    0.146740   -4.435780
  H     -0.591510    2.294960   -5.047220
  H     -1.114110    2.235610   -3.374360
  O     -2.571350    0.475730   -5.068340
  F     -1.514960   -0.400510   -3.063420
  O     -0.377930   -0.627560   -5.201140
  H      1.518400    1.121970   -4.479460
  H      1.050620    1.089710   -2.796250
  H      1.364500    2.616060   -3.586680

 Total Charge           Charge          ....    0
 Multiplicity           Mult            ....    1
 Number of Electrons    NEL             ....   58
 Basis Dimension        Dim             ....  222

ORBITAL ENERGIES
----------------

  NO   OCC          E(Eh)            E(eV)
   0   2.0000     -89.258440     -2428.8456
   1   2.0000     -24.869054      -676.7214
   2   2.0000     -19.222104      -523.0600
   3   2.0000     -19.218665      -522.9664
   4   2.0000     -10.279580      -279.7216
   5   2.0000     -10.237398      -278.5738
   6   2.0000      -8.204665      -223.2603
   7   2.0000      -6.145053      -167.2154
   8   2.0000      -6.138995      -167.0506
   9   2.0000      -6.138264      -167.0307
  10   2.0000      -1.378154       -37.5015
  11   2.0000      -1.145885       -31.1811
  12   2.0000      -1.055248       -28.7148
  13   2.0000      -0.841435       -22.8966
  14   2.0000      -0.740755       -20.1570
  15   2.0000      -0.687852       -18.7174
  16   2.0000      -0.592181       -16.1141
  17   2.0000      -0.577913       -15.7258
  18   2.0000      -0.564944       -15.3729
  19   2.0000      -0.506556       -13.7841
  20   2.0000      -0.491396       -13.3716
  21   2.0000      -0.473127       -12.8745
  22   2.0000      -0.447500       -12.1771
  23   2.0000      -0.418853       -11.3976
  24   2.0000      -0.415051       -11.2941
  25   2.0000      -0.394770       -10.7422
  26   2.0000      -0.357163        -9.7189
  27   2.0000      -0.344869        -9.3844
  28   2.0000      -0.337276        -9.1778
  29   0.0000       0.023339         0.6351
  30   0.0000       0.052663         1.4330
  31   0.0000       0.064556         1.7567
  32   0.0000       0.078696         2.1414
  33   0.0000       0.091189         2.4814

MULLIKEN ATOMIC CHARGES
-----------------------
   0 C :   -0.360072
   1 C :   -0.268306
   2 S :    0.840782
   3 H :    0.158523
   4 H :    0.143359
   5 O :   -0.394709
   6 F :   -0.125024
   7 O :   -0.411969
   8 H :    0.155276
   9 H :    0.128130
  10 H :    0.134011
Sum of atomic charges:    0.0000000

LOEWDIN ATOMIC CHARGES
----------------------
   0 C :   -0.316532
   1 C :   -0.396416
   2 S :    0.525332
   3 H :    0.148182
   4 H :    0.136911
   5 O :   -0.250218
   6 F :    0.042656
   7 O :   -0.262890
   8 H :    0.127314
   9 H :    0.120965
  10 H :    0.124696

  Mayer bond orders larger than 0.100000
B(  0-C ,  1-C ) :   0.9927 B(  0-C ,  8-H ) :   0.9630 B(  0-C ,  9-H ) :   0.9682
B(  0-C , 10-H ) :   0.9574 B(  1-C ,  2-S ) :   0.9133 B(  1-C ,  3-H ) :   0.9387
B(  1-C ,  4-H ) :   0.9416 B(  2-S ,  5-O ) :   1.9698 B(  2-S ,  6-F ) :   1.1006
B(  2-S ,  7-O ) :   1.9249

Dispersion correction           -0.007858204
FINAL SINGLE POINT ENERGY      -727.369347450564

DIPOLE MOMENT
-------------
                                X             Y             Z
Electronic contribution:     -6.56502      -6.65299       0.16804
Nuclear contribution   :      7.20921       7.65416       0.78523
                        -----------------------------------------
Total Dipole Moment    :      0.64419       1.00117       0.95328
                        -----------------------------------------
Magnitude (a.u.)       :      1.52514
Magnitude (Debye)      :      3.87660

Rotational constants in cm-1:     0.153780     0.081282     0.079816
Rotational constants in MHz :  4610.199589  2436.778679  2392.820729

                             ****ORCA TERMINATED NORMALLY****
TOTAL RUN TIME: 0 days 0 hours 0 minutes 25 seconds 593 msec
