                         Program Version 5.0.0 -  RELEASE  -
|  1> !PBE0 D3BJ RIJCOSX def2-TZVP def2/J TightSCF
|  2> *xyz 0 1
|  3> C          0.96805        1.63064       -3.71575
|  4> C         -0.50835        1.72268       -4.12430
|  5> S         -1.32861        0.14674       -4.43578
|  6> H         -0.59151        2.29496       -5.04722
|  7> H         -1.11411        2.23561       -3.37436
|  8> O         -2.57135        0.47573       -5.06834
|  9> O         -1.51496       -0.40051       -3.06342
| 10> F         -0.37793       -0.62756       -5.20114
| 11> H          1.51840        1.12197       -4.47946
| 12> H          1.05062        1.08971       -2.79625
| 13> H          1.36450        2.61606       -3.58668
| 14> *
| 15> %MaxCore 64000
| 16>
| 17> %pal nprocs 4
| 18> end
| 19>
| 20> %scf
| 21>   MaxIter 150
| 22> end
| 23>
| 24>
| 25>                          ****END OF INPUT****

CARTESIAN COORDINATES (ANGSTROEM)
---------------------------------
  C      0.968050    1.630640   -3.715750
  C     -0.508350    1.722680   -4.124300
  S     -1.328610    0.146740   -4.435780
  H     -0.591510    2.294960   -5.047220
  H     -1.114110    2.235610   -3.374360
  O     -2.571350    0.475730   -5.068340
  O     -1.514960   -0.400510   -3.063420
  F     -0.377930   -0.627560   -5.201140
  H      1.518400    1.121970   -4.479460
  H      1.050620    1.089710   -2.796250
  H      1.364500    2.616060   -3.586680

 Total Charge           Charge          ....    0
 Multiplicity           Mult            ....    1
 Number of Electrons    NEL             ....   58
 Basis Dimension        Dim             ....  222

ORBITAL ENERGIES
----------------

  NO   OCC          E(Eh)            E(eV)
   0   2.0000     -89.260637     -2428.9054
   1   2.0000     -24.892117      -677.3489
   2   2.0000     -19.222495      -523.0707
   3   2.0000     -19.202981      -522.5397
   4   2.0000     -10.280258      -279.7401
   5   2.0000     -10.240986      -278.6714
   6   2.0000      -8.206815      -223.3188
   7   2.0000      -6.147207      -167.2740
   8   2.0000      -6.140932      -167.1032
   9   2.0000      -6.140485      -167.0911
  10   2.0000      -1.414892       -38.5012
  11   2.0000      -1.136152       -30.9163
  12   2.0000      -1.031507       -28.0687
  13   2.0000      -0.843682       -22.9578
  14   2.0000      -0.753847       -20.5132
  15   2.0000      -0.697609       -18.9829
  16   2.0000      -0.614228       -16.7140
  17   2.0000      -0.603531       -16.4229
  18   2.0000      -0.564251       -15.3541
  19   2.0000      -0.506716       -13.7884
  20   2.0000      -0.491232       -13.3671
  21   2.0000      -0.466016       -12.6809
  22   2.0000      -0.451415       -12.2836
  23   2.0000      -0.423136       -11.5141
  24   2.0000      -0.408381       -11.1126
  25   2.0000      -0.395169       -10.7531
  26   2.0000      -0.349790        -9.5183
  27   2.0000      -0.330750        -9.0002
  28   2.0000      -0.319999        -8.7076
  29   0.0000       0.017915         0.4875
  30   0.0000       0.051981         1.4145
  31   0.0000       0.064705         1.7607
  32   0.0000       0.078736         2.1425
  33   0.0000       0.084807         2.3077

MULLIKEN ATOMIC CHARGES
-----------------------
   0 C :   -0.372504
   1 C :   -0.255641
   2 S :    0.832563
   3 H :    0.143393
   4 H :    0.163700
   5 O :   -0.385229
   6 O :   -0.447899
   7 F :   -0.094160
   8 H :    0.127825
   9 H :    0.151302
  10 H :    0.136651
Sum of atomic charges:   -0.0000000

LOEWDIN ATOMIC CHARGES
----------------------
   0 C :   -0.319075
   1 C :   -0.394011
   2 S :    0.518867
   3 H :    0.137085
   4 H :    0.150481
   5 O :   -0.246198
   6 O :   -0.316576
   7 F :    0.097894
   8 H :    0.119095
   9 H :    0.126474
  10 H :    0.125964

  Mayer bond orders larger than 0.100000
B(  0-C ,  1-C ) :   0.9917 B(  0-C ,  8-H ) :   0.9680 B(  0-C ,  9-H ) :   0.9644
B(  0-C , 10-H ) :   0.9582 B(  1-C ,  2-S ) :   0.9145 B(  1-C ,  3-H ) :   0.9372
B(  1-C ,  4-H ) :   0.9390 B(  2-S ,  5-O ) :   1.9726 B(  2-S ,  6-O ) :   1.8859
B(  2-S ,  7-F ) :   1.1369

Dispersion correction           -0.007845164
FINAL SINGLE POINT ENERGY      -727.350005322064

DIPOLE MOMENT
-------------
                                X             Y             Z
Electronic contribution:     -4.63906      -7.01304      -3.45217
Nuclear contribution   :      6.02439       7.89075       3.01280
                        -----------------------------------------
Total Dipole Moment    :      1.38533       0.87771      -0.43937
                        -----------------------------------------
Magnitude (a.u.)       :      1.69782
Magnitude (Debye)      :      4.31550

Rotational constants in cm-1:     0.153652     0.082400     0.079295
Rotational constants in MHz :  4606.361242  2470.285703  2377.214112

                             ****ORCA TERMINATED NORMALLY****
TOTAL RUN TIME: 0 days 0 hours 0 minutes 25 seconds 244 msec
