                         Program Version 5.0.0 -  RELEASE  -
|  1> !PBE0 D3BJ RIJCOSX def2-TZVP def2/J TightSCF xyzfile
|  2>
|  3> *xyzfile 0 1 D2.xyz
|  4>
|  5> %MaxCore 64000
|  6>
|  7> %pal nprocs 18
|  8> end
|  9>
| 10> %scf
| 11>   MaxIter 150
| 12> end
| 13>
| 14>
| 15>                          ****END OF INPUT****

CARTESIAN COORDINATES (ANGSTROEM)
---------------------------------
  C      1.364014    0.468742   -2.813764
  C      0.428844    0.321402   -1.655312
  C      0.968045    1.630639   -3.715749
  C     -0.508347    1.722679   -4.124300
  S     -1.328608    0.146737   -4.435781
  H     -0.591511    2.294958   -5.047219
  H     -1.114114    2.235610   -3.374362
  H      0.748578   -0.400542   -1.001345
  H     -0.461053    0.023332   -2.077731
  H      0.310258    1.201375   -1.134948
  O     -2.571347    0.475733   -5.068341
  F     -1.514963   -0.400512   -3.063420
  H      1.294847   -0.468742   -3.364684
  H      2.376216    0.597400   -2.431495
  H      1.578688    1.520652   -4.612733
  H      1.266653    2.575988   -3.250448
  O     -0.377928   -0.627558   -5.201141

 Total Charge           Charge          ....    0
 Multiplicity           Mult            ....    1
 Number of Electrons    NEL             ....   74
 Basis Dimension        Dim             ....  308

ORBITAL ENERGIES
----------------

  NO   OCC          E(Eh)            E(eV)
   0   2.0000     -89.262283     -2428.9502
   1   2.0000     -24.876327      -676.9193
   2   2.0000     -19.225132      -523.1424
   3   2.0000     -19.222139      -523.0610
   4   2.0000     -10.279154      -279.7100
   5   2.0000     -10.243381      -278.7366
   6   2.0000     -10.220187      -278.1054
   7   2.0000     -10.177076      -276.9323
   8   2.0000      -8.208792      -223.3726
   9   2.0000      -6.149317      -167.3314
  10   2.0000      -6.142964      -167.1585
  11   2.0000      -6.142297      -167.1404
  12   2.0000      -1.392848       -37.9013
  13   2.0000      -1.150439       -31.3050
  14   2.0000      -1.058889       -28.8138
  15   2.0000      -0.861064       -23.4307
  16   2.0000      -0.801665       -21.8144
  17   2.0000      -0.735855       -20.0236
  18   2.0000      -0.713960       -19.4278
  19   2.0000      -0.617772       -16.8104
  20   2.0000      -0.606078       -16.4922
  21   2.0000      -0.588509       -16.0142
  22   2.0000      -0.566824       -15.4241
  23   2.0000      -0.512902       -13.9568
  24   2.0000      -0.496331       -13.5058
  25   2.0000      -0.490310       -13.3420
  26   2.0000      -0.476509       -12.9665
  27   2.0000      -0.444344       -12.0912
  28   2.0000      -0.426782       -11.6133
  29   2.0000      -0.416519       -11.3341
  30   2.0000      -0.409158       -11.1338
  31   2.0000      -0.368947       -10.0396
  32   2.0000      -0.364476        -9.9179
  33   2.0000      -0.352421        -9.5899
  34   2.0000      -0.346123        -9.4185
  35   2.0000      -0.340410        -9.2630
  36   2.0000      -0.330265        -8.9870
  37   0.0000       0.024547         0.6680
  38   0.0000       0.040153         1.0926
  39   0.0000       0.054800         1.4912
  40   0.0000       0.065999         1.7959
  41   0.0000       0.082102         2.2341

MULLIKEN ATOMIC CHARGES
-----------------------
   0 C :   -0.248418
   1 C :   -0.374746
   2 C :   -0.186043
   3 C :   -0.310274
   4 S :    0.826775
   5 H :    0.174222
   6 H :    0.155119
   7 H :    0.122084
   8 H :    0.128644
   9 H :    0.103323
  10 O :   -0.395177
  11 F :   -0.093944
  12 H :    0.144315
  13 H :    0.108966
  14 H :    0.125337
  15 H :    0.119925
  16 O :   -0.400109
Sum of atomic charges:   -0.0000000

LOEWDIN ATOMIC CHARGES
----------------------
   0 C :   -0.309868
   1 C :   -0.318595
   2 C :   -0.285602
   3 C :   -0.365127
   4 S :    0.537185
   5 H :    0.152125
   6 H :    0.141679
   7 H :    0.109572
   8 H :    0.087296
   9 H :    0.106961
  10 O :   -0.246965
  11 F :    0.072763
  12 H :    0.142885
  13 H :    0.137041
  14 H :    0.147560
  15 H :    0.145147
  16 O :   -0.254057

  Mayer bond orders larger than 0.100000
B(  0-C ,  1-C ) :   0.9833 B(  0-C ,  2-C ) :   0.9966 B(  0-C , 12-H ) :   0.9696
B(  0-C , 13-H ) :   0.9565 B(  1-C ,  7-H ) :   0.9722 B(  1-C ,  8-H ) :   0.9798
B(  1-C ,  9-H ) :   0.9735 B(  2-C ,  3-C ) :   0.9774 B(  2-C , 14-H ) :   0.9591
B(  2-C , 15-H ) :   0.9453 B(  3-C ,  4-S ) :   0.9208 B(  3-C ,  5-H ) :   0.9384
B(  3-C ,  6-H ) :   0.9386 B(  4-S , 10-O ) :   1.9801 B(  4-S , 11-F ) :   1.0674
B(  4-S , 16-O ) :   1.9156

Dispersion correction           -0.015172798
FINAL SINGLE POINT ENERGY      -805.884805780483

DIPOLE MOMENT
-------------
                                X             Y             Z
Electronic contribution:    -10.52325      -5.58314      -6.17429
Nuclear contribution   :     11.08796       6.45140       7.05645
                        -----------------------------------------
Total Dipole Moment    :      0.56472       0.86826       0.88217
                        -----------------------------------------
Magnitude (a.u.)       :      1.36051
Magnitude (Debye)      :      3.45815

Rotational constants in cm-1:     0.100113     0.046890     0.041843
Rotational constants in MHz :  3001.313402  1405.711946  1254.411771

                             ****ORCA TERMINATED NORMALLY****
TOTAL RUN TIME: 0 days 0 hours 0 minutes 17 seconds 815 msec
