                         Program Version 5.0.0 -  RELEASE  -
|  1> !DLPNO-CCSD(T) aug-cc-pVTZ aug-cc-pVTZ/C TightSCF TightPNO RIJCOSX def2/J
|  2> *xyz -1 1
|  3> C         -5.57236       -5.80780       -0.81644
|  4> S         -6.90318       -4.61903       -0.52846
|  5> O         -8.11485       -5.25093       -0.95701
|  6> O         -6.53271       -3.42684       -1.31485
|  7> O         -6.86563       -4.29496        0.91412
|  8> C         -3.82708       -4.66110        0.78617
|  9> C         -4.45780       -5.94187        0.22919
| 10> H         -5.17735       -5.54257       -1.79771
| 11> H         -6.07420       -6.76889       -0.92127
| 12> H         -3.68106       -6.56224       -0.22988
| 13> H         -4.84394       -6.51273        1.07581
| 14> H         -3.43706       -4.07576       -0.02016
| 15> H         -3.03403       -4.91680        1.45744
| 16> H         -4.56975       -4.09647        1.31013
| 17> *
| 18> %MaxCore 64000
| 19>
| 20> %pal nprocs 2
| 21> end
| 22>
| 23> %scf
| 24>   MaxIter 150
| 25> end
| 26>
| 27>                          ****END OF INPUT****

CARTESIAN COORDINATES (ANGSTROEM)
---------------------------------
  C     -5.572360   -5.807800   -0.816440
  S     -6.903180   -4.619030   -0.528460
  O     -8.114850   -5.250930   -0.957010
  O     -6.532710   -3.426840   -1.314850
  O     -6.865630   -4.294960    0.914120
  C     -3.827080   -4.661100    0.786170
  C     -4.457800   -5.941870    0.229190
  H     -5.177350   -5.542570   -1.797710
  H     -6.074200   -6.768890   -0.921270
  H     -3.681060   -6.562240   -0.229880
  H     -4.843940   -6.512730    1.075810
  H     -3.437060   -4.075760   -0.020160
  H     -3.034030   -4.916800    1.457440
  H     -4.569750   -4.096470    1.310130

 Total Charge           Charge          ....   -1
 Multiplicity           Mult            ....    1
 Number of Electrons    NEL             ....   66
 Basis Dimension        Dim             ....  487

ORBITAL ENERGIES
----------------

  NO   OCC          E(Eh)            E(eV)
   0   2.0000     -91.985416     -2503.0504
   1   2.0000     -20.338517      -553.4392
   2   2.0000     -20.324196      -553.0495
   3   2.0000     -20.323525      -553.0312
   4   2.0000     -11.101108      -302.0765
   5   2.0000     -11.096131      -301.9411
   6   2.0000     -11.073262      -301.3188
   7   2.0000      -8.948608      -243.5040
   8   2.0000      -6.634694      -180.5392
   9   2.0000      -6.633463      -180.5057
  10   2.0000      -6.633342      -180.5024
  11   2.0000      -1.272400       -34.6238
  12   2.0000      -1.129374       -30.7318
  13   2.0000      -1.103877       -30.0380
  14   2.0000      -0.932041       -25.3621
  15   2.0000      -0.822663       -22.3858
  16   2.0000      -0.699363       -19.0306
  17   2.0000      -0.594037       -16.1646
  18   2.0000      -0.510902       -13.9023
  19   2.0000      -0.488843       -13.3021
  20   2.0000      -0.467568       -12.7232
  21   2.0000      -0.457890       -12.4598
  22   2.0000      -0.446482       -12.1494
  23   2.0000      -0.419193       -11.4068
  24   2.0000      -0.374465       -10.1897
  25   2.0000      -0.363661        -9.8957
  26   2.0000      -0.351239        -9.5577
  27   2.0000      -0.320092        -8.7101
  28   2.0000      -0.317561        -8.6413
  29   2.0000      -0.278391        -7.5754
  30   2.0000      -0.264493        -7.1972
  31   2.0000      -0.249392        -6.7863
  32   2.0000      -0.229130        -6.2349
  33   0.0000       0.109041         2.9672
  34   0.0000       0.119791         3.2597
  35   0.0000       0.128563         3.4984
  36   0.0000       0.141141         3.8406
  37   0.0000       0.145534         3.9602

MULLIKEN ATOMIC CHARGES
-----------------------
   0 C :   -0.506809
   1 S :    2.223324
   2 O :   -1.047749
   3 O :   -1.064623
   4 O :   -1.057947
   5 C :   -1.026487
   6 C :   -0.451601
   7 H :    0.256317
   8 H :    0.192195
   9 H :    0.248551
  10 H :    0.302487
  11 H :    0.326364
  12 H :    0.221661
  13 H :    0.384316
Sum of atomic charges:   -1.0000000

LOEWDIN ATOMIC CHARGES
----------------------
   0 C :    0.149362
   1 S :   -0.366327
   2 O :   -0.046120
   3 O :   -0.073817
   4 O :   -0.040366
   5 C :    0.569767
   6 C :    0.216578
   7 H :   -0.216415
   8 H :   -0.223268
   9 H :   -0.168723
  10 H :   -0.166951
  11 H :   -0.189424
  12 H :   -0.199590
  13 H :   -0.244706

  Mayer bond orders larger than 0.100000
B(  0-C ,  1-S ) :   0.7730 B(  0-C ,  6-C ) :   0.8881 B(  0-C ,  7-H ) :   0.9620
B(  0-C ,  8-H ) :   0.9951 B(  1-S ,  2-O ) :   1.2621 B(  1-S ,  3-O ) :   1.2796
B(  1-S ,  4-O ) :   1.3108 B(  5-C ,  6-C ) :   0.8235 B(  5-C , 11-H ) :   0.9087
B(  5-C , 12-H ) :   1.0567 B(  5-C , 13-H ) :   0.8648 B(  6-C ,  9-H ) :   0.9913
B(  6-C , 10-H ) :   0.8998

E(0)                                       ...   -739.964500968
E(0)                                       ...   -739.964500968
E(CORR)(strong-pairs)                      ...     -1.491107135
E(CORR)(weak-pairs)                        ...     -0.001593702
E(CORR)(corrected)                         ...     -1.492700837
E(TOT)                                     ...   -741.457201805
E(CCSD(T))                                 ...   -741.520849547
FINAL SINGLE POINT ENERGY      -741.520849546769

DIPOLE MOMENT
-------------
                                X             Y             Z
Electronic contribution:     -9.71418       3.10939      -2.58266
Nuclear contribution   :     11.75544      -4.53524       2.70749
                        -----------------------------------------
Total Dipole Moment    :      2.04127      -1.42585       0.12483
                        -----------------------------------------
Magnitude (a.u.)       :      2.49307
Magnitude (Debye)      :      6.33688

Rotational constants in cm-1:     0.134586     0.054907     0.051455
Rotational constants in MHz :  4034.798577  1646.069534  1542.570153

                             ****ORCA TERMINATED NORMALLY****
TOTAL RUN TIME: 0 days 1 hours 25 minutes 54 seconds 575 msec
