                         Program Version 5.0.0 -  RELEASE  -
|  1> !DLPNO-CCSD(T) aug-cc-pVTZ aug-cc-pVTZ/C TightSCF TightPNO RIJCOSX def2/J
|  2> *xyz 1 1
|  3> C         -4.38262       -1.67089        1.21620
|  4> N         -5.76354       -1.91517        0.70501
|  5> C         -3.28173       -2.19127        0.29436
|  6> H         -5.84081       -2.11520       -0.30065
|  7> H         -6.40882       -1.14866        0.93612
|  8> H         -6.17478       -2.79061        1.05143
|  9> H         -4.32862       -2.13922        2.19810
| 10> H         -4.26158       -0.59740        1.35725
| 11> C         -3.47464       -3.60590       -0.25961
| 12> H         -2.35455       -2.12760        0.87143
| 13> H         -3.16661       -1.49969       -0.54504
| 14> H         -2.64612       -3.85908       -0.88759
| 15> H         -4.37934       -3.64545       -0.82956
| 16> H         -3.53324       -4.30157        0.55126
| 17> *
| 18> %MaxCore 64000
| 19>
| 20> %pal nprocs 8
| 21> end
| 22>
| 23> %scf
| 24>   MaxIter 150
| 25> end
| 26>
| 27>                          ****END OF INPUT****

CARTESIAN COORDINATES (ANGSTROEM)
---------------------------------
  C     -4.382620   -1.670890    1.216200
  N     -5.763540   -1.915170    0.705010
  C     -3.281730   -2.191270    0.294360
  H     -5.840810   -2.115200   -0.300650
  H     -6.408820   -1.148660    0.936120
  H     -6.174780   -2.790610    1.051430
  H     -4.328620   -2.139220    2.198100
  H     -4.261580   -0.597400    1.357250
  C     -3.474640   -3.605900   -0.259610
  H     -2.354550   -2.127600    0.871430
  H     -3.166610   -1.499690   -0.545040
  H     -2.646120   -3.859080   -0.887590
  H     -4.379340   -3.645450   -0.829560
  H     -3.533240   -4.301570    0.551260

 Total Charge           Charge          ....    1
 Multiplicity           Mult            ....    1
 Number of Electrons    NEL             ....   34
 Basis Dimension        Dim             ....  414

ORBITAL ENERGIES
----------------

  NO   OCC          E(Eh)            E(eV)
   0   2.0000     -15.895414      -432.5362
   1   2.0000     -11.474630      -312.2405
   2   2.0000     -11.399668      -310.2007
   3   2.0000     -11.369978      -309.3928
   4   2.0000      -1.514267       -41.2053
   5   2.0000      -1.240219       -33.7481
   6   2.0000      -1.131307       -30.7844
   7   2.0000      -1.003114       -27.2961
   8   2.0000      -0.973468       -26.4894
   9   2.0000      -0.947206       -25.7748
  10   2.0000      -0.855558       -23.2809
  11   2.0000      -0.799062       -21.7436
  12   2.0000      -0.764371       -20.7996
  13   2.0000      -0.739003       -20.1093
  14   2.0000      -0.669921       -18.2295
  15   2.0000      -0.667959       -18.1761
  16   2.0000      -0.649939       -17.6857
  17   0.0000      -0.115816        -3.1515
  18   0.0000      -0.080794        -2.1985
  19   0.0000      -0.079716        -2.1692
  20   0.0000      -0.068967        -1.8767
  21   0.0000      -0.045568        -1.2400

MULLIKEN ATOMIC CHARGES
-----------------------
   0 C :   -0.328425
   1 N :    0.127649
   2 C :   -0.435769
   3 H :    0.131004
   4 H :    0.106912
   5 H :    0.154375
   6 H :    0.330069
   7 H :    0.342840
   8 C :   -0.911696
   9 H :    0.330646
  10 H :    0.272701
  11 H :    0.299706
  12 H :    0.279315
  13 H :    0.300672
Sum of atomic charges:    1.0000000

LOEWDIN ATOMIC CHARGES
----------------------
   0 C :    0.351210
   1 N :    1.103947
   2 C :    0.319961
   3 H :   -0.152490
   4 H :   -0.117170
   5 H :   -0.129582
   6 H :   -0.113566
   7 H :   -0.113923
   8 C :    0.632021
   9 H :   -0.126089
  10 H :   -0.136182
  11 H :   -0.156580
  12 H :   -0.192210
  13 H :   -0.169349

  Mayer bond orders larger than 0.100000
B(  0-C ,  1-N ) :   0.7830 B(  0-C ,  2-C ) :   0.8909 B(  0-C ,  6-H ) :   0.9046
B(  0-C ,  7-H ) :   0.9001 B(  1-N ,  3-H ) :   0.9971 B(  1-N ,  4-H ) :   1.0466
B(  1-N ,  5-H ) :   0.9957 B(  2-C ,  8-C ) :   0.8266 B(  2-C ,  9-H ) :   0.9134
B(  2-C , 10-H ) :   0.9560 B(  8-C , 11-H ) :   0.9754 B(  8-C , 12-H ) :   0.9526
B(  8-C , 13-H ) :   0.9238

E(0)                                       ...   -173.715226692
E(0)                                       ...   -173.715226692
E(CORR)(strong-pairs)                      ...     -0.802942590
E(CORR)(weak-pairs)                        ...     -0.000697145
E(CORR)(corrected)                         ...     -0.803639735
E(TOT)                                     ...   -174.518866427
E(CCSD(T))                                 ...   -174.547400656
FINAL SINGLE POINT ENERGY      -174.547400656094

DIPOLE MOMENT
-------------
                                X             Y             Z
Electronic contribution:     -1.74810       1.32414       0.79593
Nuclear contribution   :     -0.18358      -0.73024      -0.44649
                        -----------------------------------------
Total Dipole Moment    :     -1.93168       0.59390       0.34943
                        -----------------------------------------
Magnitude (a.u.)       :      2.05090
Magnitude (Debye)      :      5.21298

Rotational constants in cm-1:     0.423641     0.164544     0.133152
Rotational constants in MHz : 12700.438743  4932.897948  3991.802402

                             ****ORCA TERMINATED NORMALLY****
TOTAL RUN TIME: 0 days 0 hours 6 minutes 15 seconds 793 msec
