                         Program Version 5.0.0 -  RELEASE  -
|  1> !DLPNO-CCSD(T) aug-cc-pVTZ aug-cc-pVTZ/C TightSCF TightPNO RIJCOSX def2/J
|  2>
|  3> *xyzfile 0 1 B.xyz
|  4>
|  5> %MaxCore 64000
|  6>
|  7> %pal nprocs 18
|  8> end
|  9>
| 10> %scf
| 11>   MaxIter 150
| 12> end
| 13>
| 14>
| 15>                          ****END OF INPUT****

CARTESIAN COORDINATES (ANGSTROEM)
---------------------------------
  C     -4.382623   -1.670889    1.216201
  N     -5.763539   -1.915170    0.705012
  C     -3.281728   -2.191272    0.294361
  C     -5.572364   -5.807798   -0.816445
  S     -6.903179   -4.619033   -0.528458
  H     -5.840812   -2.115205   -0.300646
  H     -6.408823   -1.148656    0.936124
  H     -6.174781   -2.790606    1.051433
  O     -8.114853   -5.250932   -0.957007
  O     -6.532715   -3.426838   -1.314848
  H     -4.328618   -2.139223    2.198103
  H     -4.261583   -0.597399    1.357248
  O     -6.865632   -4.294957    0.914118
  C     -3.474641   -3.605898   -0.259608
  H     -2.354548   -2.127602    0.871433
  H     -3.166611   -1.499693   -0.545037
  C     -3.827078   -4.661097    0.786174
  H     -2.560559   -3.889391   -0.788050
  H     -4.255932   -3.570040   -1.019300
  C     -4.457800   -5.941875    0.229195
  H     -5.177347   -5.542575   -1.797714
  H     -6.074202   -6.768894   -0.921272
  H     -4.530506   -4.253640    1.511979
  H     -2.933400   -4.932302    1.356825
  H     -3.681064   -6.562236   -0.229885
  H     -4.843942   -6.512728    1.075805

 Total Charge           Charge          ....    0
 Multiplicity           Mult            ....    1
 Number of Electrons    NEL             ....   98
 Basis Dimension        Dim             ....  855

ORBITAL ENERGIES
----------------

  NO   OCC          E(Eh)            E(eV)
   0   2.0000     -92.151272     -2507.5636
   1   2.0000     -20.505699      -557.9884
   2   2.0000     -20.501648      -557.8782
   3   2.0000     -20.488692      -557.5257
   4   2.0000     -15.673341      -426.4933
   5   2.0000     -11.317751      -307.9717
   6   2.0000     -11.260684      -306.4188
   7   2.0000     -11.236545      -305.7619
   8   2.0000     -11.233937      -305.6910
   9   2.0000     -11.231739      -305.6312
  10   2.0000     -11.228435      -305.5412
  11   2.0000      -9.114961      -248.0307
  12   2.0000      -6.800727      -185.0572
  13   2.0000      -6.800370      -185.0475
  14   2.0000      -6.799241      -185.0167
  15   2.0000      -1.445047       -39.3217
  16   2.0000      -1.318194       -35.8699
  17   2.0000      -1.292321       -35.1658
  18   2.0000      -1.290628       -35.1198
  19   2.0000      -1.112096       -30.2617
  20   2.0000      -1.063244       -28.9323
  21   2.0000      -0.998909       -27.1817
  22   2.0000      -0.932891       -25.3853
  23   2.0000      -0.863530       -23.4978
  24   2.0000      -0.801357       -21.8060
  25   2.0000      -0.789657       -21.4877
  26   2.0000      -0.761133       -20.7115
  27   2.0000      -0.746073       -20.3017
  28   2.0000      -0.684377       -18.6228
  29   2.0000      -0.665430       -18.1073
  30   2.0000      -0.660232       -17.9658
  31   2.0000      -0.642097       -17.4723
  32   2.0000      -0.621301       -16.9065
  33   2.0000      -0.620198       -16.8764
  34   2.0000      -0.610064       -16.6007
  35   2.0000      -0.583059       -15.8658
  36   2.0000      -0.576066       -15.6755
  37   2.0000      -0.537766       -14.6334
  38   2.0000      -0.528122       -14.3709
  39   2.0000      -0.523926       -14.2568
  40   2.0000      -0.496553       -13.5119
  41   2.0000      -0.491280       -13.3684
  42   2.0000      -0.485890       -13.2217
  43   2.0000      -0.478588       -13.0231
  44   2.0000      -0.466544       -12.6953
  45   2.0000      -0.444047       -12.0831
  46   2.0000      -0.434542       -11.8245
  47   2.0000      -0.408762       -11.1230
  48   2.0000      -0.405858       -11.0440
  49   0.0000       0.009618         0.2617
  50   0.0000       0.023708         0.6451
  51   0.0000       0.027393         0.7454
  52   0.0000       0.032525         0.8850
  53   0.0000       0.043861         1.1935

MULLIKEN ATOMIC CHARGES
-----------------------
   0 C :   -0.382752
   1 N :    0.073350
   2 C :   -0.604109
   3 C :   -0.556567
   4 S :    2.563279
   5 H :    0.131099
   6 H :    0.070629
   7 H :    0.231777
   8 O :   -1.147259
   9 O :   -1.117020
  10 H :    0.236785
  11 H :    0.378191
  12 O :   -1.083733
  13 C :   -0.367236
  14 H :    0.225732
  15 H :    0.231984
  16 C :   -0.221178
  17 H :    0.333176
  18 H :    0.265444
  19 C :   -0.584698
  20 H :    0.198512
  21 H :    0.210722
  22 H :    0.117911
  23 H :    0.378900
  24 H :    0.216493
  25 H :    0.200567
Sum of atomic charges:   -0.0000000

LOEWDIN ATOMIC CHARGES
----------------------
   0 C :    0.332007
   1 N :    1.067857
   2 C :    0.329916
   3 C :    0.196638
   4 S :   -0.142485
   5 H :   -0.396868
   6 H :   -0.116147
   7 H :   -0.512860
   8 O :    0.016346
   9 O :    0.132397
  10 H :   -0.129478
  11 H :   -0.126283
  12 O :    0.167163
  13 C :    0.297168
  14 H :   -0.135123
  15 H :   -0.136773
  16 C :    0.282281
  17 H :   -0.127185
  18 H :   -0.230748
  19 C :    0.273808
  20 H :   -0.200583
  21 H :   -0.199881
  22 H :   -0.215591
  23 H :   -0.131341
  24 H :   -0.145393
  25 H :   -0.148843

  Mayer bond orders larger than 0.100000
B(  0-C ,  1-N ) :   0.8725 B(  0-C ,  2-C ) :   0.8706 B(  0-C , 10-H ) :   1.0433
B(  0-C , 11-H ) :   0.8410 B(  1-N ,  5-H ) :   1.0157 B(  1-N ,  6-H ) :   1.1114
B(  1-N ,  7-H ) :   0.8229 B(  2-C , 13-C ) :   0.8589 B(  2-C , 14-H ) :   1.0156
B(  2-C , 15-H ) :   1.0144 B(  3-C ,  4-S ) :   0.8653 B(  3-C ,  8-O ) :   0.1321
B(  3-C , 19-C ) :   0.8675 B(  3-C , 20-H ) :   1.0602 B(  3-C , 21-H ) :   0.9183
B(  4-S ,  8-O ) :   0.8125 B(  4-S ,  9-O ) :   1.2620 B(  4-S , 12-O ) :   1.1881
B(  7-H ,  9-O ) :   0.1592 B(  8-O , 21-H ) :   0.1513 B(  9-O , 12-O ) :   0.1069
B(  9-O , 18-H ) :  -0.1200 B( 13-C , 16-C ) :   0.7690 B( 13-C , 17-H ) :   0.8778
B( 13-C , 18-H ) :   1.1161 B( 16-C , 19-C ) :   0.8776 B( 16-C , 22-H ) :   1.1682
B( 16-C , 23-H ) :   0.8371 B( 19-C , 24-H ) :   1.0200 B( 19-C , 25-H ) :   1.0472
B( 24-H , 25-H ) :   0.1039

E(0)                                       ...   -912.681794561
E(0)                                       ...   -912.681794561
E(CORR)(strong-pairs)                      ...     -2.277018195
E(CORR)(weak-pairs)                        ...     -0.003295388
E(CORR)(corrected)                         ...     -2.280313583
E(TOT)                                     ...   -914.962108144
E(CCSD(T))                                 ...   -915.058176415
FINAL SINGLE POINT ENERGY      -915.058176414559

DIPOLE MOMENT
-------------
                                X             Y             Z
Electronic contribution:    -13.31703      -2.87541      -3.61470
Nuclear contribution   :     16.18863       5.15617       4.97370
                        -----------------------------------------
Total Dipole Moment    :      2.87160       2.28076       1.35900
                        -----------------------------------------
Magnitude (a.u.)       :      3.91086
Magnitude (Debye)      :      9.94061

Rotational constants in cm-1:     0.048546     0.025588     0.020102
Rotational constants in MHz :  1455.374030   767.095631   602.645620

                             ****ORCA TERMINATED NORMALLY****
TOTAL RUN TIME: 0 days 3 hours 52 minutes 14 seconds 343 msec
