                         Program Version 5.0.0 -  RELEASE  -
|  1> !DLPNO-CCSD(T) aug-cc-pVTZ aug-cc-pVTZ/C TightSCF TightPNO RIJCOSX def2/J
|  2> *xyz 0 1
|  3> C         -5.57236       -5.80780       -0.81644
|  4> S         -6.90318       -4.61903       -0.52846
|  5> F         -8.11485       -5.25093       -0.95701
|  6> O         -6.53271       -3.42684       -1.31485
|  7> O         -6.86563       -4.29496        0.91412
|  8> C         -3.82708       -4.66110        0.78617
|  9> C         -4.45780       -5.94187        0.22919
| 10> H         -5.17735       -5.54257       -1.79771
| 11> H         -6.07420       -6.76889       -0.92127
| 12> H         -3.68106       -6.56224       -0.22988
| 13> H         -4.84394       -6.51273        1.07581
| 14> H         -3.43706       -4.07576       -0.02016
| 15> H         -3.03403       -4.91680        1.45744
| 16> H         -4.56975       -4.09647        1.31013
| 17> *
| 18> %MaxCore 64000
| 19>
| 20> %pal nprocs 2
| 21> end
| 22>
| 23> %scf
| 24>   MaxIter 150
| 25> end
| 26>
| 27>                          ****END OF INPUT****

CARTESIAN COORDINATES (ANGSTROEM)
---------------------------------
  C     -5.572360   -5.807800   -0.816440
  S     -6.903180   -4.619030   -0.528460
  F     -8.114850   -5.250930   -0.957010
  O     -6.532710   -3.426840   -1.314850
  O     -6.865630   -4.294960    0.914120
  C     -3.827080   -4.661100    0.786170
  C     -4.457800   -5.941870    0.229190
  H     -5.177350   -5.542570   -1.797710
  H     -6.074200   -6.768890   -0.921270
  H     -3.681060   -6.562240   -0.229880
  H     -4.843940   -6.512730    1.075810
  H     -3.437060   -4.075760   -0.020160
  H     -3.034030   -4.916800    1.457440
  H     -4.569750   -4.096470    1.310130

 Total Charge           Charge          ....    0
 Multiplicity           Mult            ....    1
 Number of Electrons    NEL             ....   66
 Basis Dimension        Dim             ....  487

ORBITAL ENERGIES
----------------

  NO   OCC          E(Eh)            E(eV)
   0   2.0000     -92.251786     -2510.2987
   1   2.0000     -26.439455      -719.4542
   2   2.0000     -20.558276      -559.4191
   3   2.0000     -20.558021      -559.4122
   4   2.0000     -11.296957      -307.4058
   5   2.0000     -11.257291      -306.3265
   6   2.0000     -11.211671      -305.0851
   7   2.0000      -9.215200      -250.7583
   8   2.0000      -6.902589      -187.8290
   9   2.0000      -6.898743      -187.7243
  10   2.0000      -6.897875      -187.7007
  11   2.0000      -1.811972       -49.3063
  12   2.0000      -1.439132       -39.1608
  13   2.0000      -1.331321       -36.2271
  14   2.0000      -1.107090       -30.1254
  15   2.0000      -1.019481       -27.7415
  16   2.0000      -0.958770       -26.0895
  17   2.0000      -0.868392       -23.6302
  18   2.0000      -0.837216       -22.7818
  19   2.0000      -0.817402       -22.2426
  20   2.0000      -0.757570       -20.6145
  21   2.0000      -0.671664       -18.2769
  22   2.0000      -0.658021       -17.9057
  23   2.0000      -0.629728       -17.1358
  24   2.0000      -0.617701       -16.8085
  25   2.0000      -0.581804       -15.8317
  26   2.0000      -0.551049       -14.9948
  27   2.0000      -0.524317       -14.2674
  28   2.0000      -0.520776       -14.1710
  29   2.0000      -0.506793       -13.7905
  30   2.0000      -0.483357       -13.1528
  31   2.0000      -0.468805       -12.7568
  32   2.0000      -0.466502       -12.6942
  33   0.0000       0.022230         0.6049
  34   0.0000       0.034691         0.9440
  35   0.0000       0.038338         1.0432
  36   0.0000       0.046328         1.2607
  37   0.0000       0.057855         1.5743

MULLIKEN ATOMIC CHARGES
-----------------------
   0 C :   -0.467155
   1 S :    2.102001
   2 F :   -0.476643
   3 O :   -0.908180
   4 O :   -0.904667
   5 C :   -1.008125
   6 C :   -0.426706
   7 H :    0.296645
   8 H :    0.246983
   9 H :    0.276309
  10 H :    0.313507
  11 H :    0.332405
  12 H :    0.248272
  13 H :    0.375354
Sum of atomic charges:   -0.0000000

LOEWDIN ATOMIC CHARGES
----------------------
   0 C :    0.199786
   1 S :   -0.081399
   2 F :    0.293883
   3 O :    0.011253
   4 O :    0.035340
   5 C :    0.593915
   6 C :    0.250413
   7 H :   -0.197851
   8 H :   -0.206136
   9 H :   -0.146285
  10 H :   -0.156175
  11 H :   -0.181154
  12 H :   -0.179619
  13 H :   -0.235971

  Mayer bond orders larger than 0.100000
B(  0-C ,  1-S ) :   0.8344 B(  0-C ,  6-C ) :   0.8920 B(  0-C ,  7-H ) :   0.9358
B(  0-C ,  8-H ) :   0.9354 B(  1-S ,  2-F ) :   0.5237 B(  1-S ,  3-O ) :   1.4891
B(  1-S ,  4-O ) :   1.5305 B(  5-C ,  6-C ) :   0.8354 B(  5-C , 11-H ) :   0.9028
B(  5-C , 12-H ) :   1.0355 B(  5-C , 13-H ) :   0.8806 B(  6-C ,  9-H ) :   0.9589
B(  6-C , 10-H ) :   0.8910

E(0)                                       ...   -764.456353049
E(0)                                       ...   -764.456353049
E(CORR)(strong-pairs)                      ...     -1.496335907
E(CORR)(weak-pairs)                        ...     -0.001599655
E(CORR)(corrected)                         ...     -1.497935562
E(TOT)                                     ...   -765.954288611
E(CCSD(T))                                 ...   -766.015622952
FINAL SINGLE POINT ENERGY      -766.015622952002

DIPOLE MOMENT
-------------
                                X             Y             Z
Electronic contribution:    -13.36963       2.27394      -3.93736
Nuclear contribution   :     13.81909      -4.05404       3.42760
                        -----------------------------------------
Total Dipole Moment    :      0.44946      -1.78009      -0.50976
                        -----------------------------------------
Magnitude (a.u.)       :      1.90541
Magnitude (Debye)      :      4.84317

Rotational constants in cm-1:     0.132500     0.053014     0.049575
Rotational constants in MHz :  3972.256497  1589.318970  1486.215991

                             ****ORCA TERMINATED NORMALLY****
TOTAL RUN TIME: 0 days 1 hours 21 minutes 5 seconds 156 msec
