                         Program Version 5.0.0 -  RELEASE  -
|  1> !DLPNO-CCSD(T) aug-cc-pVTZ aug-cc-pVTZ/C TightSCF TightPNO RIJCOSX def2/J
|  2> *xyz 0 1
|  3> C         -4.38262       -1.67089        1.21620
|  4> C         -5.76354       -1.91517        0.70501
|  5> C         -3.28173       -2.19127        0.29436
|  6> H         -5.84081       -2.11520       -0.30065
|  7> H         -6.40882       -1.14866        0.93612
|  8> H         -6.17478       -2.79061        1.05143
|  9> H         -4.32862       -2.13922        2.19810
| 10> H         -4.26158       -0.59740        1.35725
| 11> C         -3.47464       -3.60590       -0.25961
| 12> H         -2.35455       -2.12760        0.87143
| 13> H         -3.16661       -1.49969       -0.54504
| 14> H         -2.64612       -3.85908       -0.88759
| 15> H         -4.37934       -3.64545       -0.82956
| 16> H         -3.53324       -4.30157        0.55126
| 17> *
| 18> %MaxCore 64000
| 19>
| 20> %pal nprocs 8
| 21> end
| 22>
| 23> %scf
| 24>   MaxIter 150
| 25> end
| 26>
| 27>                          ****END OF INPUT****

CARTESIAN COORDINATES (ANGSTROEM)
---------------------------------
  C     -4.382620   -1.670890    1.216200
  C     -5.763540   -1.915170    0.705010
  C     -3.281730   -2.191270    0.294360
  H     -5.840810   -2.115200   -0.300650
  H     -6.408820   -1.148660    0.936120
  H     -6.174780   -2.790610    1.051430
  H     -4.328620   -2.139220    2.198100
  H     -4.261580   -0.597400    1.357250
  C     -3.474640   -3.605900   -0.259610
  H     -2.354550   -2.127600    0.871430
  H     -3.166610   -1.499690   -0.545040
  H     -2.646120   -3.859080   -0.887590
  H     -4.379340   -3.645450   -0.829560
  H     -3.533240   -4.301570    0.551260

 Total Charge           Charge          ....    0
 Multiplicity           Mult            ....    1
 Number of Electrons    NEL             ....   34
 Basis Dimension        Dim             ....  414

ORBITAL ENERGIES
----------------

  NO   OCC          E(Eh)            E(eV)
   0   2.0000     -11.211762      -305.0875
   1   2.0000     -11.207594      -304.9741
   2   2.0000     -11.201104      -304.7975
   3   2.0000     -11.177480      -304.1547
   4   2.0000      -1.076500       -29.2931
   5   2.0000      -0.987008       -26.8578
   6   2.0000      -0.887477       -24.1495
   7   2.0000      -0.777666       -21.1614
   8   2.0000      -0.633769       -17.2457
   9   2.0000      -0.627561       -17.0768
  10   2.0000      -0.576887       -15.6979
  11   2.0000      -0.548029       -14.9126
  12   2.0000      -0.536469       -14.5981
  13   2.0000      -0.507109       -13.7991
  14   2.0000      -0.465012       -12.6536
  15   2.0000      -0.457258       -12.4426
  16   2.0000      -0.450946       -12.2709
  17   0.0000       0.032585         0.8867
  18   0.0000       0.039048         1.0625
  19   0.0000       0.039953         1.0872
  20   0.0000       0.041446         1.1278
  21   0.0000       0.059004         1.6056

MULLIKEN ATOMIC CHARGES
-----------------------
   0 C :   -0.309960
   1 C :   -1.060896
   2 C :   -0.429564
   3 H :    0.312475
   4 H :    0.286465
   5 H :    0.309595
   6 H :    0.259720
   7 H :    0.230204
   8 C :   -0.930124
   9 H :    0.250674
  10 H :    0.240449
  11 H :    0.268778
  12 H :    0.276899
  13 H :    0.295286
Sum of atomic charges:    0.0000000

LOEWDIN ATOMIC CHARGES
----------------------
   0 C :    0.286378
   1 C :    0.611247
   2 C :    0.275886
   3 H :   -0.224678
   4 H :   -0.198249
   5 H :   -0.207655
   6 H :   -0.144237
   7 H :   -0.146145
   8 C :    0.604271
   9 H :   -0.152428
  10 H :   -0.146790
  11 H :   -0.181763
  12 H :   -0.198293
  13 H :   -0.177544

  Mayer bond orders larger than 0.100000
B(  0-C ,  1-C ) :   0.7604 B(  0-C ,  2-C ) :   0.8530 B(  0-C ,  6-H ) :   0.9641
B(  0-C ,  7-H ) :   0.9951 B(  1-C ,  3-H ) :   0.9354 B(  1-C ,  4-H ) :   0.9605
B(  1-C ,  5-H ) :   0.9664 B(  2-C ,  8-C ) :   0.7900 B(  2-C ,  9-H ) :   0.9889
B(  2-C , 10-H ) :   0.9835 B(  8-C , 11-H ) :   0.9957 B(  8-C , 12-H ) :   0.9568
B(  8-C , 13-H ) :   0.9349

E(0)                                       ...   -157.337302938
E(0)                                       ...   -157.337302938
E(CORR)(strong-pairs)                      ...     -0.778114409
E(CORR)(weak-pairs)                        ...     -0.000690677
E(CORR)(corrected)                         ...     -0.778805086
E(TOT)                                     ...   -158.116108024
E(CCSD(T))                                 ...   -158.144287871
FINAL SINGLE POINT ENERGY      -158.144287870700

DIPOLE MOMENT
-------------
                                X             Y             Z
Electronic contribution:      0.63589       0.59099       0.37342
Nuclear contribution   :     -0.64996      -0.59433      -0.37777
                        -----------------------------------------
Total Dipole Moment    :     -0.01407      -0.00333      -0.00435
                        -----------------------------------------
Magnitude (a.u.)       :      0.01510
Magnitude (Debye)      :      0.03839

Rotational constants in cm-1:     0.431358     0.171688     0.138554
Rotational constants in MHz : 12931.797515  5147.084397  4153.759343

                             ****ORCA TERMINATED NORMALLY****
TOTAL RUN TIME: 0 days 0 hours 6 minutes 4 seconds 417 msec
