                         Program Version 5.0.0 -  RELEASE  -
|  1> !DLPNO-CCSD(T) aug-cc-pVTZ aug-cc-pVTZ/C TightSCF TightPNO RIJCOSX def2/J
|  2> *xyz 0 1
|  3> C         -5.57236       -5.80780       -0.81644
|  4> S         -6.90318       -4.61903       -0.52846
|  5> O         -8.11485       -5.25093       -0.95701
|  6> F         -6.53271       -3.42684       -1.31485
|  7> O         -6.86563       -4.29496        0.91412
|  8> C         -3.82708       -4.66110        0.78617
|  9> C         -4.45780       -5.94187        0.22919
| 10> H         -5.17735       -5.54257       -1.79771
| 11> H         -6.07420       -6.76889       -0.92127
| 12> H         -3.68106       -6.56224       -0.22988
| 13> H         -4.84394       -6.51273        1.07581
| 14> H         -3.43706       -4.07576       -0.02016
| 15> H         -3.03403       -4.91680        1.45744
| 16> H         -4.56975       -4.09647        1.31013
| 17> *
| 18> %MaxCore 64000
| 19>
| 20> %pal nprocs 8
| 21> end
| 22>
| 23> %scf
| 24>   MaxIter 150
| 25> end
| 26>
| 27>                          ****END OF INPUT****

CARTESIAN COORDINATES (ANGSTROEM)
---------------------------------
  C     -5.572360   -5.807800   -0.816440
  S     -6.903180   -4.619030   -0.528460
  O     -8.114850   -5.250930   -0.957010
  F     -6.532710   -3.426840   -1.314850
  O     -6.865630   -4.294960    0.914120
  C     -3.827080   -4.661100    0.786170
  C     -4.457800   -5.941870    0.229190
  H     -5.177350   -5.542570   -1.797710
  H     -6.074200   -6.768890   -0.921270
  H     -3.681060   -6.562240   -0.229880
  H     -4.843940   -6.512730    1.075810
  H     -3.437060   -4.075760   -0.020160
  H     -3.034030   -4.916800    1.457440
  H     -4.569750   -4.096470    1.310130

 Total Charge           Charge          ....    0
 Multiplicity           Mult            ....    1
 Number of Electrons    NEL             ....   66
 Basis Dimension        Dim             ....  487

ORBITAL ENERGIES
----------------

  NO   OCC          E(Eh)            E(eV)
   0   2.0000     -92.250570     -2510.2656
   1   2.0000     -26.416244      -718.8226
   2   2.0000     -20.573201      -559.8253
   3   2.0000     -20.557041      -559.3855
   4   2.0000     -11.296400      -307.3907
   5   2.0000     -11.257198      -306.3239
   6   2.0000     -11.218990      -305.2842
   7   2.0000      -9.213669      -250.7167
   8   2.0000      -6.901227      -187.7919
   9   2.0000      -6.897326      -187.6858
  10   2.0000      -6.896331      -187.6587
  11   2.0000      -1.772015       -48.2190
  12   2.0000      -1.459117       -39.7046
  13   2.0000      -1.348716       -36.7004
  14   2.0000      -1.108389       -30.1608
  15   2.0000      -1.012347       -27.5474
  16   2.0000      -0.945738       -25.7348
  17   2.0000      -0.861414       -23.4403
  18   2.0000      -0.808932       -22.0122
  19   2.0000      -0.799460       -21.7544
  20   2.0000      -0.759065       -20.6552
  21   2.0000      -0.680555       -18.5188
  22   2.0000      -0.656188       -17.8558
  23   2.0000      -0.635735       -17.2992
  24   2.0000      -0.620384       -16.8815
  25   2.0000      -0.597479       -16.2582
  26   2.0000      -0.561312       -15.2741
  27   2.0000      -0.533732       -14.5236
  28   2.0000      -0.526571       -14.3287
  29   2.0000      -0.505042       -13.7429
  30   2.0000      -0.496816       -13.5191
  31   2.0000      -0.481359       -13.0984
  32   2.0000      -0.468619       -12.7518
  33   0.0000       0.023180         0.6307
  34   0.0000       0.034901         0.9497
  35   0.0000       0.036119         0.9828
  36   0.0000       0.046015         1.2521
  37   0.0000       0.056631         1.5410

MULLIKEN ATOMIC CHARGES
-----------------------
   0 C :   -0.450272
   1 S :    2.158092
   2 O :   -0.905862
   3 F :   -0.514233
   4 O :   -0.901785
   5 C :   -1.014832
   6 C :   -0.438676
   7 H :    0.289084
   8 H :    0.245580
   9 H :    0.276375
  10 H :    0.323522
  11 H :    0.321640
  12 H :    0.248579
  13 H :    0.362789
Sum of atomic charges:    0.0000000

LOEWDIN ATOMIC CHARGES
----------------------
   0 C :    0.203727
   1 S :   -0.076656
   2 O :    0.035940
   3 F :    0.261698
   4 O :    0.038717
   5 C :    0.590562
   6 C :    0.246579
   7 H :   -0.199169
   8 H :   -0.194496
   9 H :   -0.148074
  10 H :   -0.153784
  11 H :   -0.185526
  12 H :   -0.178209
  13 H :   -0.241308

  Mayer bond orders larger than 0.100000
B(  0-C ,  1-S ) :   0.8283 B(  0-C ,  6-C ) :   0.9094 B(  0-C ,  7-H ) :   0.9250
B(  0-C ,  8-H ) :   0.9540 B(  1-S ,  2-O ) :   1.4685 B(  1-S ,  3-F ) :   0.5463
B(  1-S ,  4-O ) :   1.5188 B(  1-S ,  6-C ) :   0.1007 B(  5-C ,  6-C ) :   0.8317
B(  5-C , 11-H ) :   0.9093 B(  5-C , 12-H ) :   1.0407 B(  5-C , 13-H ) :   0.8830
B(  6-C ,  9-H ) :   0.9619 B(  6-C , 10-H ) :   0.8875

E(0)                                       ...   -764.475106048
E(0)                                       ...   -764.475106048
E(CORR)(strong-pairs)                      ...     -1.495227791
E(CORR)(weak-pairs)                        ...     -0.001538907
E(CORR)(corrected)                         ...     -1.496766697
E(TOT)                                     ...   -765.971872745
E(CCSD(T))                                 ...   -766.032875720
FINAL SINGLE POINT ENERGY      -766.032875719717

DIPOLE MOMENT
-------------
                                X             Y             Z
Electronic contribution:    -10.50823       5.55563      -4.58245
Nuclear contribution   :     12.11759      -6.01574       3.81244
                        -----------------------------------------
Total Dipole Moment    :      1.60936      -0.46011      -0.77001
                        -----------------------------------------
Magnitude (a.u.)       :      1.84246
Magnitude (Debye)      :      4.68316

Rotational constants in cm-1:     0.128152     0.053825     0.050608
Rotational constants in MHz :  3841.897096  1613.621976  1517.196867

                             ****ORCA TERMINATED NORMALLY****
TOTAL RUN TIME: 0 days 0 hours 26 minutes 24 seconds 366 msec
