                         Program Version 5.0.0 -  RELEASE  -
|  1> !DLPNO-CCSD(T) aug-cc-pVTZ aug-cc-pVTZ/C TightSCF TightPNO RIJCOSX def2/J
|  2> *xyz 0 1
|  3> C         -5.57236       -5.80780       -0.81644
|  4> S         -6.90318       -4.61903       -0.52846
|  5> O         -8.11485       -5.25093       -0.95701
|  6> O         -6.53271       -3.42684       -1.31485
|  7> F         -6.86563       -4.29496        0.91412
|  8> C         -3.82708       -4.66110        0.78617
|  9> C         -4.45780       -5.94187        0.22919
| 10> H         -5.17735       -5.54257       -1.79771
| 11> H         -6.07420       -6.76889       -0.92127
| 12> H         -3.68106       -6.56224       -0.22988
| 13> H         -4.84394       -6.51273        1.07581
| 14> H         -3.43706       -4.07576       -0.02016
| 15> H         -3.03403       -4.91680        1.45744
| 16> H         -4.56975       -4.09647        1.31013
| 17> *
| 18> %MaxCore 64000
| 19>
| 20> %pal nprocs 2
| 21> end
| 22>
| 23> %scf
| 24>   MaxIter 150
| 25> end
| 26>
| 27>                          ****END OF INPUT****

CARTESIAN COORDINATES (ANGSTROEM)
---------------------------------
  C     -5.572360   -5.807800   -0.816440
  S     -6.903180   -4.619030   -0.528460
  O     -8.114850   -5.250930   -0.957010
  O     -6.532710   -3.426840   -1.314850
  F     -6.865630   -4.294960    0.914120
  C     -3.827080   -4.661100    0.786170
  C     -4.457800   -5.941870    0.229190
  H     -5.177350   -5.542570   -1.797710
  H     -6.074200   -6.768890   -0.921270
  H     -3.681060   -6.562240   -0.229880
  H     -4.843940   -6.512730    1.075810
  H     -3.437060   -4.075760   -0.020160
  H     -3.034030   -4.916800    1.457440
  H     -4.569750   -4.096470    1.310130

 Total Charge           Charge          ....    0
 Multiplicity           Mult            ....    1
 Number of Electrons    NEL             ....   66
 Basis Dimension        Dim             ....  487

ORBITAL ENERGIES
----------------

  NO   OCC          E(Eh)            E(eV)
   0   2.0000     -92.249120     -2510.2262
   1   2.0000     -26.414119      -718.7647
   2   2.0000     -20.572386      -559.8031
   3   2.0000     -20.556248      -559.3640
   4   2.0000     -11.295212      -307.3583
   5   2.0000     -11.264350      -306.5185
   6   2.0000     -11.230607      -305.6004
   7   2.0000      -9.212334      -250.6803
   8   2.0000      -6.900018      -187.7590
   9   2.0000      -6.895758      -187.6431
  10   2.0000      -6.895082      -187.6247
  11   2.0000      -1.769222       -48.1430
  12   2.0000      -1.458988       -39.7011
  13   2.0000      -1.348069       -36.6828
  14   2.0000      -1.113556       -30.3014
  15   2.0000      -1.013549       -27.5801
  16   2.0000      -0.946623       -25.7589
  17   2.0000      -0.867572       -23.6078
  18   2.0000      -0.808123       -21.9901
  19   2.0000      -0.807257       -21.9666
  20   2.0000      -0.749359       -20.3911
  21   2.0000      -0.675858       -18.3910
  22   2.0000      -0.657509       -17.8917
  23   2.0000      -0.641672       -17.4608
  24   2.0000      -0.628950       -17.1146
  25   2.0000      -0.598193       -16.2776
  26   2.0000      -0.563146       -15.3240
  27   2.0000      -0.543864       -14.7993
  28   2.0000      -0.528260       -14.3747
  29   2.0000      -0.516538       -14.0557
  30   2.0000      -0.493784       -13.4365
  31   2.0000      -0.479964       -13.0605
  32   2.0000      -0.472052       -12.8452
  33   0.0000       0.022245         0.6053
  34   0.0000       0.033537         0.9126
  35   0.0000       0.036075         0.9816
  36   0.0000       0.044053         1.1987
  37   0.0000       0.057146         1.5550

MULLIKEN ATOMIC CHARGES
-----------------------
   0 C :   -0.436262
   1 S :    2.185696
   2 O :   -0.899868
   3 O :   -0.917663
   4 F :   -0.532442
   5 C :   -0.998572
   6 C :   -0.458100
   7 H :    0.306879
   8 H :    0.242352
   9 H :    0.268444
  10 H :    0.300187
  11 H :    0.343581
  12 H :    0.246817
  13 H :    0.348951
Sum of atomic charges:   -0.0000000

LOEWDIN ATOMIC CHARGES
----------------------
   0 C :    0.202329
   1 S :   -0.088300
   2 O :    0.035507
   3 O :    0.009878
   4 F :    0.273968
   5 C :    0.594104
   6 C :    0.244047
   7 H :   -0.186510
   8 H :   -0.201536
   9 H :   -0.145395
  10 H :   -0.158577
  11 H :   -0.179304
  12 H :   -0.177376
  13 H :   -0.222836

  Mayer bond orders larger than 0.100000
B(  0-C ,  1-S ) :   0.8096 B(  0-C ,  6-C ) :   0.8933 B(  0-C ,  7-H ) :   0.9297
B(  0-C ,  8-H ) :   0.9625 B(  1-S ,  2-O ) :   1.4506 B(  1-S ,  3-O ) :   1.4811
B(  1-S ,  4-F ) :   0.5868 B(  5-C ,  6-C ) :   0.8232 B(  5-C , 11-H ) :   0.8938
B(  5-C , 12-H ) :   1.0450 B(  5-C , 13-H ) :   0.8992 B(  6-C ,  9-H ) :   0.9693
B(  6-C , 10-H ) :   0.9116

E(0)                                       ...   -764.475564701
E(0)                                       ...   -764.475564701
E(CORR)(strong-pairs)                      ...     -1.494712973
E(CORR)(weak-pairs)                        ...     -0.001560961
E(CORR)(corrected)                         ...     -1.496273934
E(TOT)                                     ...   -765.971838635
E(CCSD(T))                                 ...   -766.032699067
FINAL SINGLE POINT ENERGY      -766.032699067179

DIPOLE MOMENT
-------------
                                X             Y             Z
Electronic contribution:    -11.02958       3.95596      -0.58491
Nuclear contribution   :     12.47562      -5.08213       1.41531
                        -----------------------------------------
Total Dipole Moment    :      1.44605      -1.12617       0.83040
                        -----------------------------------------
Magnitude (a.u.)       :      2.01218
Magnitude (Debye)      :      5.11455

Rotational constants in cm-1:     0.128398     0.054249     0.051014
Rotational constants in MHz :  3849.278549  1626.338413  1529.351405

                             ****ORCA TERMINATED NORMALLY****
TOTAL RUN TIME: 0 days 1 hours 20 minutes 3 seconds 137 msec
