                         Program Version 5.0.0 -  RELEASE  -
|  1> !DLPNO-CCSD(T) aug-cc-pVTZ aug-cc-pVTZ/C TightSCF TightPNO RIJCOSX def2/J
|  2>
|  3> *xyzfile 0 1 D1.xyz
|  4>
|  5> %MaxCore 64000
|  6>
|  7> %pal nprocs 18
|  8> end
|  9>
| 10> %scf
| 11>   MaxIter 150
| 12> end
| 13>
| 14>
| 15>                          ****END OF INPUT****

CARTESIAN COORDINATES (ANGSTROEM)
---------------------------------
  C     -4.382623   -1.670889    1.216201
  C     -5.763539   -1.915170    0.705012
  C     -3.281728   -2.191272    0.294361
  C     -5.572364   -5.807798   -0.816445
  S     -6.903179   -4.619033   -0.528458
  H     -5.840812   -2.115205   -0.300646
  H     -6.408823   -1.148656    0.936124
  H     -6.174781   -2.790606    1.051433
  F     -8.114853   -5.250932   -0.957007
  O     -6.532715   -3.426838   -1.314848
  H     -4.328618   -2.139223    2.198103
  H     -4.261583   -0.597399    1.357248
  O     -6.865632   -4.294957    0.914118
  C     -3.474641   -3.605898   -0.259608
  H     -2.354548   -2.127602    0.871433
  H     -3.166611   -1.499693   -0.545037
  C     -3.827078   -4.661097    0.786174
  H     -2.560559   -3.889391   -0.788050
  H     -4.255932   -3.570040   -1.019300
  C     -4.457800   -5.941875    0.229195
  H     -5.177347   -5.542575   -1.797714
  H     -6.074202   -6.768894   -0.921272
  H     -4.530506   -4.253640    1.511979
  H     -2.933400   -4.932302    1.356825
  H     -3.681064   -6.562236   -0.229885
  H     -4.843942   -6.512728    1.075805

 Total Charge           Charge          ....    0
 Multiplicity           Mult            ....    1
 Number of Electrons    NEL             ....   98
 Basis Dimension        Dim             ....  855

ORBITAL ENERGIES
----------------

  NO   OCC          E(Eh)            E(eV)
   0   2.0000     -92.260366     -2510.5322
   1   2.0000     -26.445392      -719.6157
   2   2.0000     -20.564809      -559.5969
   3   2.0000     -20.564015      -559.5753
   4   2.0000     -11.300604      -307.5051
   5   2.0000     -11.256699      -306.3104
   6   2.0000     -11.219396      -305.2953
   7   2.0000     -11.207375      -304.9682
   8   2.0000     -11.198558      -304.7283
   9   2.0000     -11.181513      -304.2644
  10   2.0000     -11.116019      -302.4822
  11   2.0000      -9.223702      -250.9897
  12   2.0000      -6.911067      -188.0597
  13   2.0000      -6.907293      -187.9570
  14   2.0000      -6.906456      -187.9342
  15   2.0000      -1.818026       -49.4710
  16   2.0000      -1.453750       -39.5585
  17   2.0000      -1.345943       -36.6250
  18   2.0000      -1.117296       -30.4032
  19   2.0000      -1.070667       -29.1343
  20   2.0000      -1.018433       -27.7130
  21   2.0000      -0.985317       -26.8118
  22   2.0000      -0.938654       -25.5421
  23   2.0000      -0.881914       -23.9981
  24   2.0000      -0.844896       -22.9908
  25   2.0000      -0.843135       -22.9429
  26   2.0000      -0.813774       -22.1439
  27   2.0000      -0.763715       -20.7817
  28   2.0000      -0.746213       -20.3055
  29   2.0000      -0.678483       -18.4625
  30   2.0000      -0.671358       -18.2686
  31   2.0000      -0.648586       -17.6489
  32   2.0000      -0.645832       -17.5740
  33   2.0000      -0.605973       -16.4894
  34   2.0000      -0.594676       -16.1819
  35   2.0000      -0.582637       -15.8544
  36   2.0000      -0.567527       -15.4432
  37   2.0000      -0.538563       -14.6550
  38   2.0000      -0.533714       -14.5231
  39   2.0000      -0.531104       -14.4521
  40   2.0000      -0.505065       -13.7435
  41   2.0000      -0.498936       -13.5767
  42   2.0000      -0.485057       -13.1991
  43   2.0000      -0.475863       -12.9489
  44   2.0000      -0.469272       -12.7695
  45   2.0000      -0.452069       -12.3014
  46   2.0000      -0.428512       -11.6604
  47   2.0000      -0.423565       -11.5258
  48   2.0000      -0.404279       -11.0010
  49   0.0000       0.019702         0.5361
  50   0.0000       0.032405         0.8818
  51   0.0000       0.034389         0.9358
  52   0.0000       0.041227         1.1218
  53   0.0000       0.049264         1.3405

MULLIKEN ATOMIC CHARGES
-----------------------
   0 C :   -0.304151
   1 C :   -1.148085
   2 C :   -0.587491
   3 C :   -0.516926
   4 S :    2.288167
   5 H :    0.357526
   6 H :    0.229164
   7 H :    0.554531
   8 F :   -0.540775
   9 O :   -0.982006
  10 H :    0.118753
  11 H :    0.278651
  12 O :   -0.958213
  13 C :   -0.335176
  14 H :    0.133516
  15 H :    0.177683
  16 C :   -0.272666
  17 H :    0.362181
  18 H :    0.183901
  19 C :   -0.563673
  20 H :    0.244198
  21 H :    0.280831
  22 H :    0.163437
  23 H :    0.411820
  24 H :    0.229449
  25 H :    0.195356
Sum of atomic charges:    0.0000000

LOEWDIN ATOMIC CHARGES
----------------------
   0 C :    0.295430
   1 C :    0.570716
   2 C :    0.307395
   3 C :    0.223921
   4 S :    0.110896
   5 H :   -0.421368
   6 H :   -0.179747
   7 H :   -0.528381
   8 F :    0.309431
   9 O :    0.184094
  10 H :   -0.149541
  11 H :   -0.144317
  12 O :    0.209502
  13 C :    0.292805
  14 H :   -0.147963
  15 H :   -0.138364
  16 C :    0.292591
  17 H :   -0.135397
  18 H :   -0.228220
  19 C :    0.287095
  20 H :   -0.193047
  21 H :   -0.198733
  22 H :   -0.206380
  23 H :   -0.126712
  24 H :   -0.137554
  25 H :   -0.148152

  Mayer bond orders larger than 0.100000
B(  0-C ,  1-C ) :   0.7697 B(  0-C ,  2-C ) :   0.8024 B(  0-C , 10-H ) :   1.1108
B(  0-C , 11-H ) :   0.9535 B(  1-C ,  5-H ) :   1.0405 B(  1-C ,  6-H ) :   1.0376
B(  1-C ,  7-H ) :   0.6588 B(  2-C , 13-C ) :   0.8302 B(  2-C , 14-H ) :   1.1217
B(  2-C , 15-H ) :   1.0713 B(  3-C ,  4-S ) :   0.8974 B(  3-C , 19-C ) :   0.8603
B(  3-C , 20-H ) :   1.0318 B(  3-C , 21-H ) :   0.8660 B(  4-S ,  8-F ) :   0.1064
B(  4-S ,  9-O ) :   1.5388 B(  4-S , 12-O ) :   1.5080 B(  4-S , 19-C ) :   0.1006
B(  5-H ,  9-O ) :  -0.1015 B(  7-H ,  9-O ) :   0.1255 B(  8-F , 21-H ) :   0.1482
B(  9-O , 18-H ) :  -0.1328 B( 13-C , 16-C ) :   0.7939 B( 13-C , 17-H ) :   0.8607
B( 13-C , 18-H ) :   1.1726 B( 14-H , 15-H ) :   0.1056 B( 16-C , 19-C ) :   0.8705
B( 16-C , 22-H ) :   1.1472 B( 16-C , 23-H ) :   0.8136 B( 19-C , 24-H ) :   1.0057
B( 19-C , 25-H ) :   1.0428 B( 24-H , 25-H ) :   0.1084

E(0)                                       ...   -920.575997555
E(0)                                       ...   -920.575997555
E(CORR)(strong-pairs)                      ...     -2.261117676
E(CORR)(weak-pairs)                        ...     -0.003289459
E(CORR)(corrected)                         ...     -2.264407135
E(TOT)                                     ...   -922.840404690
E(CCSD(T))                                 ...   -922.934226171
FINAL SINGLE POINT ENERGY      -922.934226170655

DIPOLE MOMENT
-------------
                                X             Y             Z
Electronic contribution:    -18.94948      -8.86809      -6.80097
Nuclear contribution   :     19.08524       6.89775       6.14221
                        -----------------------------------------
Total Dipole Moment    :      0.13576      -1.97034      -0.65876
                        -----------------------------------------
Magnitude (a.u.)       :      2.08198
Magnitude (Debye)      :      5.29197

Rotational constants in cm-1:     0.049343     0.024787     0.019726
Rotational constants in MHz :  1479.262779   743.087234   591.370705

                             ****ORCA TERMINATED NORMALLY****
TOTAL RUN TIME: 0 days 2 hours 26 minutes 5 seconds 575 msec
