                         Program Version 5.0.0 -  RELEASE  -
|  1> !M062X D3Zero RIJCOSX def2-SVPD def2/J TightSCF
|  2> *xyz -1 1
|  3> C         -5.57236       -5.80780       -0.81644
|  4> S         -6.90318       -4.61903       -0.52846
|  5> O         -8.11485       -5.25093       -0.95701
|  6> O         -6.53271       -3.42684       -1.31485
|  7> O         -6.86563       -4.29496        0.91412
|  8> C         -4.45780       -5.94187        0.22919
|  9> H         -5.17735       -5.54257       -1.79771
| 10> H         -6.07420       -6.76889       -0.92127
| 11> H         -3.75515       -6.68239       -0.09144
| 12> H         -4.88182       -6.23486        1.16689
| 13> H         -3.95908       -5.00189        0.34143
| 14> *
| 15> %MaxCore 64000
| 16>
| 17> %pal nprocs 4
| 18> end
| 19>
| 20> %scf
| 21>   MaxIter 150
| 22> end
| 23>
| 24>                          ****END OF INPUT****

CARTESIAN COORDINATES (ANGSTROEM)
---------------------------------
  C     -5.572360   -5.807800   -0.816440
  S     -6.903180   -4.619030   -0.528460
  O     -8.114850   -5.250930   -0.957010
  O     -6.532710   -3.426840   -1.314850
  O     -6.865630   -4.294960    0.914120
  C     -4.457800   -5.941870    0.229190
  H     -5.177350   -5.542570   -1.797710
  H     -6.074200   -6.768890   -0.921270
  H     -3.755150   -6.682390   -0.091440
  H     -4.881820   -6.234860    1.166890
  H     -3.959080   -5.001890    0.341430

 Total Charge           Charge          ....   -1
 Multiplicity           Mult            ....    1
 Number of Electrons    NEL             ....   58
 Basis Dimension        Dim             ....  176

ORBITAL ENERGIES
----------------

  NO   OCC          E(Eh)            E(eV)
   0   2.0000     -89.936785     -2447.3043
   1   2.0000     -19.421744      -528.4925
   2   2.0000     -19.407909      -528.1160
   3   2.0000     -19.407036      -528.0923
   4   2.0000     -10.415593      -283.4227
   5   2.0000     -10.413643      -283.3696
   6   2.0000      -8.260085      -224.7683
   7   2.0000      -6.185363      -168.3123
   8   2.0000      -6.185230      -168.3087
   9   2.0000      -6.184927      -168.3004
  10   2.0000      -1.046744       -28.4833
  11   2.0000      -0.902143       -24.5486
  12   2.0000      -0.877162       -23.8688
  13   2.0000      -0.724586       -19.7170
  14   2.0000      -0.595330       -16.1998
  15   2.0000      -0.463790       -12.6204
  16   2.0000      -0.394286       -10.7291
  17   2.0000      -0.392739       -10.6870
  18   2.0000      -0.354247        -9.6396
  19   2.0000      -0.340900        -9.2764
  20   2.0000      -0.335538        -9.1305
  21   2.0000      -0.293929        -7.9982
  22   2.0000      -0.286880        -7.8064
  23   2.0000      -0.223546        -6.0830
  24   2.0000      -0.222683        -6.0595
  25   2.0000      -0.185713        -5.0535
  26   2.0000      -0.171452        -4.6654
  27   2.0000      -0.169144        -4.6026
  28   2.0000      -0.134455        -3.6587
  29   0.0000       0.154218         4.1965
  30   0.0000       0.178322         4.8524
  31   0.0000       0.182304         4.9608
  32   0.0000       0.190502         5.1838
  33   0.0000       0.208612         5.6766

MULLIKEN ATOMIC CHARGES
-----------------------
   0 C :   -0.350773
   1 S :    1.414299
   2 O :   -0.812578
   3 O :   -0.858956
   4 O :   -0.869277
   5 C :    0.723105
   6 H :   -0.035283
   7 H :   -0.017634
   8 H :   -0.103014
   9 H :   -0.034888
  10 H :   -0.055002
Sum of atomic charges:   -1.0000000

LOEWDIN ATOMIC CHARGES
----------------------
   0 C :   -0.122254
   1 S :    0.906454
   2 O :   -0.587900
   3 O :   -0.615031
   4 O :   -0.607871
   5 C :    0.104483
   6 H :   -0.001310
   7 H :   -0.007135
   8 H :   -0.033495
   9 H :   -0.020821
  10 H :   -0.015120

  Mayer bond orders larger than 0.100000
B(  0-C ,  1-S ) :   0.8677 B(  0-C ,  5-C ) :   1.3050 B(  0-C ,  6-H ) :   0.9824
B(  0-C ,  7-H ) :   0.9850 B(  0-C ,  8-H ) :   0.2037 B(  0-C ,  9-H ) :   0.2063
B(  0-C , 10-H ) :   0.1937 B(  1-S ,  2-O ) :   1.3127 B(  1-S ,  3-O ) :   1.2556
B(  1-S ,  4-O ) :   1.2479 B(  5-C ,  8-H ) :   0.7705 B(  5-C ,  9-H ) :   0.8127
B(  5-C , 10-H ) :   0.8224

Dispersion correction           -0.000154335
FINAL SINGLE POINT ENERGY      -702.622193571841

DIPOLE MOMENT
-------------
                                X             Y             Z
Electronic contribution:     -6.61031       4.24847      -0.92462
Nuclear contribution   :      8.13140      -5.68016       0.80206
                        -----------------------------------------
Total Dipole Moment    :      1.52109      -1.43169      -0.12256
                        -----------------------------------------
Magnitude (a.u.)       :      2.09248
Magnitude (Debye)      :      5.31867

Rotational constants in cm-1:     0.162101     0.080498     0.079099
Rotational constants in MHz :  4859.669771  2413.267251  2371.338602

                             ****ORCA TERMINATED NORMALLY****
TOTAL RUN TIME: 0 days 0 hours 0 minutes 24 seconds 677 msec
