                         Program Version 5.0.0 -  RELEASE  -
|  1> !M062X D3Zero RIJCOSX def2-SVPD def2/J TightSCF
|  2> *xyz 1 1
|  3> C         -4.38262       -1.67089        1.21620
|  4> N         -5.76354       -1.91517        0.70501
|  5> C         -3.28173       -2.19127        0.29436
|  6> H         -5.84081       -2.11520       -0.30065
|  7> H         -6.40882       -1.14866        0.93612
|  8> H         -6.17478       -2.79061        1.05143
|  9> H         -4.32862       -2.13922        2.19810
| 10> H         -4.26158       -0.59740        1.35725
| 11> H         -3.36057       -1.71407       -0.66008
| 12> H         -3.38775       -3.24919        0.17403
| 13> H         -2.32559       -1.97514        0.72329
| 14> *
| 15> %MaxCore 64000
| 16>
| 17> %pal nprocs 4
| 18> end
| 19>
| 20> %scf
| 21>   MaxIter 150
| 22> end
| 23>
| 24>                          ****END OF INPUT****

CARTESIAN COORDINATES (ANGSTROEM)
---------------------------------
  C     -4.382620   -1.670890    1.216200
  N     -5.763540   -1.915170    0.705010
  C     -3.281730   -2.191270    0.294360
  H     -5.840810   -2.115200   -0.300650
  H     -6.408820   -1.148660    0.936120
  H     -6.174780   -2.790610    1.051430
  H     -4.328620   -2.139220    2.198100
  H     -4.261580   -0.597400    1.357250
  H     -3.360570   -1.714070   -0.660080
  H     -3.387750   -3.249190    0.174030
  H     -2.325590   -1.975140    0.723290

 Total Charge           Charge          ....    1
 Multiplicity           Mult            ....    1
 Number of Electrons    NEL             ....   26
 Basis Dimension        Dim             ....  124

ORBITAL ENERGIES
----------------

  NO   OCC          E(Eh)            E(eV)
   0   2.0000     -15.097244      -410.8169
   1   2.0000     -10.806555      -294.0613
   2   2.0000     -10.725796      -291.8637
   3   2.0000      -1.312790       -35.7228
   4   2.0000      -1.055223       -28.7141
   5   2.0000      -0.930123       -25.3099
   6   2.0000      -0.872188       -23.7334
   7   2.0000      -0.850649       -23.1473
   8   2.0000      -0.772524       -21.0214
   9   2.0000      -0.709218       -19.2988
  10   2.0000      -0.647420       -17.6172
  11   2.0000      -0.629496       -17.1295
  12   2.0000      -0.611487       -16.6394
  13   0.0000      -0.168346        -4.5809
  14   0.0000      -0.111890        -3.0447
  15   0.0000      -0.108585        -2.9548
  16   0.0000      -0.098744        -2.6870
  17   0.0000      -0.069368        -1.8876

MULLIKEN ATOMIC CHARGES
-----------------------
   0 C :    0.165110
   1 N :   -0.885180
   2 C :    0.496964
   3 H :    0.402937
   4 H :    0.413016
   5 H :    0.393131
   6 H :   -0.028613
   7 H :    0.004214
   8 H :   -0.012009
   9 H :    0.026283
  10 H :    0.024148
Sum of atomic charges:    1.0000000

LOEWDIN ATOMIC CHARGES
----------------------
   0 C :    0.066333
   1 N :    0.319158
   2 C :    0.172295
   3 H :    0.104734
   4 H :    0.111146
   5 H :    0.107585
   6 H :    0.051231
   7 H :    0.050630
   8 H :    0.000869
   9 H :    0.000862
  10 H :    0.015158

  Mayer bond orders larger than 0.100000
B(  0-C ,  1-N ) :   0.6737 B(  0-C ,  2-C ) :   1.3500 B(  0-C ,  6-H ) :   0.9332
B(  0-C ,  7-H ) :   0.9323 B(  0-C ,  8-H ) :   0.1724 B(  0-C ,  9-H ) :   0.1513
B(  0-C , 10-H ) :   0.1695 B(  1-N ,  3-H ) :   0.7135 B(  1-N ,  4-H ) :   0.7071
B(  1-N ,  5-H ) :   0.7615 B(  2-C ,  8-H ) :   0.8491 B(  2-C ,  9-H ) :   0.8364
B(  2-C , 10-H ) :   0.8576

Dispersion correction           -0.000057574
FINAL SINGLE POINT ENERGY      -135.355372803241

DIPOLE MOMENT
-------------
                                X             Y             Z
Electronic contribution:     -1.79550       0.23992       0.30837
Nuclear contribution   :      0.19437      -0.25358      -0.32106
                        -----------------------------------------
Total Dipole Moment    :     -1.60113      -0.01366      -0.01270
                        -----------------------------------------
Magnitude (a.u.)       :      1.60124
Magnitude (Debye)      :      4.07002

Rotational constants in cm-1:     1.030014     0.272489     0.242697
Rotational constants in MHz : 30879.030706  8169.007780  7275.865152

                             ****ORCA TERMINATED NORMALLY****
TOTAL RUN TIME: 0 days 0 hours 0 minutes 12 seconds 586 msec
