                         Program Version 5.0.0 -  RELEASE  -
|  1> !M062X D3Zero RIJCOSX def2-SVPD def2/J TightSCF xyzfile
|  2>
|  3> *xyzfile 0 1 B.xyz
|  4>
|  5> %MaxCore 64000
|  6>
|  7> %pal nprocs 4
|  8> end
|  9>
| 10> %scf
| 11>   MaxIter 150
| 12> end
| 13>
| 14>
| 15>                          ****END OF INPUT****

CARTESIAN COORDINATES (ANGSTROEM)
---------------------------------
  C     -4.382623   -1.670889    1.216201
  N     -5.763539   -1.915170    0.705012
  C     -3.281728   -2.191272    0.294361
  C     -5.572364   -5.807798   -0.816445
  S     -6.903179   -4.619033   -0.528458
  H     -5.840812   -2.115205   -0.300646
  H     -6.408823   -1.148656    0.936124
  H     -6.174781   -2.790606    1.051433
  O     -8.114853   -5.250932   -0.957007
  O     -6.532715   -3.426838   -1.314848
  H     -4.328618   -2.139223    2.198103
  H     -4.261583   -0.597399    1.357248
  O     -6.865632   -4.294957    0.914118
  C     -3.474641   -3.605898   -0.259608
  H     -2.354548   -2.127602    0.871433
  H     -3.166611   -1.499693   -0.545037
  C     -3.827078   -4.661097    0.786174
  H     -2.560559   -3.889391   -0.788050
  H     -4.255932   -3.570040   -1.019300
  C     -4.457800   -5.941875    0.229195
  H     -5.177347   -5.542575   -1.797714
  H     -6.074202   -6.768894   -0.921272
  H     -4.530506   -4.253640    1.511979
  H     -2.933400   -4.932302    1.356825
  H     -3.681064   -6.562236   -0.229885
  H     -4.843942   -6.512728    1.075805

 Total Charge           Charge          ....    0
 Multiplicity           Mult            ....    1
 Number of Electrons    NEL             ....   98
 Basis Dimension        Dim             ....  356

ORBITAL ENERGIES
----------------

  NO   OCC          E(Eh)            E(eV)
   0   2.0000     -90.108482     -2451.9764
   1   2.0000     -19.594895      -533.2042
   2   2.0000     -19.590389      -533.0816
   3   2.0000     -19.577556      -532.7324
   4   2.0000     -14.868351      -404.5884
   5   2.0000     -10.641251      -289.5632
   6   2.0000     -10.586975      -288.0862
   7   2.0000     -10.561861      -287.4028
   8   2.0000     -10.558716      -287.3173
   9   2.0000     -10.557655      -287.2884
  10   2.0000     -10.556041      -287.2445
  11   2.0000      -8.431062      -229.4209
  12   2.0000      -6.357003      -172.9828
  13   2.0000      -6.356302      -172.9638
  14   2.0000      -6.355263      -172.9355
  15   2.0000      -1.222267       -33.2596
  16   2.0000      -1.106470       -30.1086
  17   2.0000      -1.070261       -29.1233
  18   2.0000      -1.066486       -29.0205
  19   2.0000      -0.925496       -25.1840
  20   2.0000      -0.883546       -24.0425
  21   2.0000      -0.830637       -22.6028
  22   2.0000      -0.776340       -21.1253
  23   2.0000      -0.720078       -19.5943
  24   2.0000      -0.678884       -18.4734
  25   2.0000      -0.667023       -18.1506
  26   2.0000      -0.653036       -17.7700
  27   2.0000      -0.619275       -16.8513
  28   2.0000      -0.585342       -15.9280
  29   2.0000      -0.565753       -15.3949
  30   2.0000      -0.559632       -15.2284
  31   2.0000      -0.545825       -14.8526
  32   2.0000      -0.523351       -14.2411
  33   2.0000      -0.520833       -14.1726
  34   2.0000      -0.510018       -13.8783
  35   2.0000      -0.492545       -13.4028
  36   2.0000      -0.488230       -13.2854
  37   2.0000      -0.453805       -12.3487
  38   2.0000      -0.442698       -12.0464
  39   2.0000      -0.438515       -11.9326
  40   2.0000      -0.410131       -11.1602
  41   2.0000      -0.405096       -11.0232
  42   2.0000      -0.399989       -10.8843
  43   2.0000      -0.391808       -10.6616
  44   2.0000      -0.387207       -10.5364
  45   2.0000      -0.354017        -9.6333
  46   2.0000      -0.346593        -9.4313
  47   2.0000      -0.330769        -9.0007
  48   2.0000      -0.316888        -8.6230
  49   0.0000      -0.001975        -0.0537
  50   0.0000       0.031191         0.8488
  51   0.0000       0.036930         1.0049
  52   0.0000       0.041728         1.1355
  53   0.0000       0.058684         1.5969

MULLIKEN ATOMIC CHARGES
-----------------------
   0 C :    0.745590
   1 N :   -0.504626
   2 C :    0.265022
   3 C :    0.221112
   4 S :    1.456842
   5 H :    0.289560
   6 H :    0.314044
   7 H :    0.119027
   8 O :   -0.843456
   9 O :   -0.788812
  10 H :    0.194922
  11 H :   -0.384152
  12 O :   -0.871738
  13 C :    0.262664
  14 H :   -0.028876
  15 H :   -0.010071
  16 C :    0.015423
  17 H :   -0.319437
  18 H :   -0.110747
  19 C :    0.484632
  20 H :    0.127087
  21 H :   -0.314629
  22 H :    0.016053
  23 H :   -0.289053
  24 H :   -0.034255
  25 H :   -0.012125
Sum of atomic charges:    0.0000000

LOEWDIN ATOMIC CHARGES
----------------------
   0 C :    0.098135
   1 N :    0.336101
   2 C :   -0.006548
   3 C :   -0.046279
   4 S :    1.002937
   5 H :   -0.008009
   6 H :    0.102380
   7 H :   -0.059945
   8 O :   -0.513744
   9 O :   -0.558191
  10 H :    0.035160
  11 H :    0.029780
  12 O :   -0.537162
  13 C :   -0.005861
  14 H :    0.031569
  15 H :    0.029908
  16 C :   -0.018720
  17 H :    0.031897
  18 H :   -0.016758
  19 C :   -0.022755
  20 H :    0.014094
  21 H :    0.011794
  22 H :   -0.015182
  23 H :    0.027920
  24 H :    0.026813
  25 H :    0.030664

  Mayer bond orders larger than 0.100000
B(  0-C ,  1-N ) :   0.6733 B(  0-C ,  2-C ) :   1.1872 B(  0-C , 10-H ) :   0.7022
B(  0-C , 11-H ) :   1.0094 B(  0-C , 14-H ) :   0.1264 B(  0-C , 15-H ) :   0.1366
B(  1-N ,  5-H ) :   0.7279 B(  1-N ,  6-H ) :   0.8429 B(  1-N ,  7-H ) :   1.1826
B(  1-N , 18-H ) :   0.1229 B(  1-N , 22-H ) :   0.1189 B(  2-C , 10-H ) :   0.1049
B(  2-C , 11-H ) :   0.1424 B(  2-C , 13-C ) :   1.2595 B(  2-C , 14-H ) :   0.8400
B(  2-C , 15-H ) :   0.7238 B(  3-C ,  4-S ) :   0.8837 B(  3-C ,  8-O ) :   0.1235
B(  3-C , 19-C ) :   1.1957 B(  3-C , 20-H ) :   0.8478 B(  3-C , 21-H ) :   0.9499
B(  3-C , 24-H ) :   0.1217 B(  3-C , 25-H ) :   0.1242 B(  4-S ,  8-O ) :   1.4333
B(  4-S ,  9-O ) :   1.0844 B(  4-S , 12-O ) :   1.0573 B(  5-H ,  9-O ) :   0.1744
B(  6-H ,  7-H ) :  -0.1026 B(  7-H , 12-O ) :   0.1405 B(  9-O , 12-O ) :   0.1328
B( 10-H , 11-H ) :  -0.1704 B( 10-H , 22-H ) :   0.1072 B( 13-C , 14-H ) :   0.1188
B( 13-C , 15-H ) :   0.2187 B( 13-C , 16-C ) :   1.1580 B( 13-C , 17-H ) :   0.8348
B( 13-C , 18-H ) :   0.8664 B( 13-C , 23-H ) :   0.1688 B( 16-C , 17-H ) :   0.1649
B( 16-C , 18-H ) :   0.1778 B( 16-C , 19-C ) :   1.2882 B( 16-C , 22-H ) :   0.8786
B( 16-C , 23-H ) :   0.8910 B( 16-C , 24-H ) :   0.1286 B( 16-C , 25-H ) :   0.2565
B( 19-C , 21-H ) :   0.1781 B( 19-C , 24-H ) :   0.7787 B( 19-C , 25-H ) :   0.6673
B( 24-H , 25-H ) :  -0.1185

Dispersion correction           -0.001249432
FINAL SINGLE POINT ENERGY      -915.514455976116

DIPOLE MOMENT
-------------
                                X             Y             Z
Electronic contribution:    -13.43726      -2.92932      -3.65758
Nuclear contribution   :     16.18863       5.15617       4.97370
                        -----------------------------------------
Total Dipole Moment    :      2.75137       2.22684       1.31612
                        -----------------------------------------
Magnitude (a.u.)       :      3.77638
Magnitude (Debye)      :      9.59880

Rotational constants in cm-1:     0.048546     0.025588     0.020102
Rotational constants in MHz :  1455.374030   767.095631   602.645620

                             ****ORCA TERMINATED NORMALLY****
TOTAL RUN TIME: 0 days 0 hours 1 minutes 54 seconds 116 msec
