                         Program Version 5.0.0 -  RELEASE  -
|  1> !M062X D3Zero RIJCOSX def2-SVPD def2/J TightSCF
|  2> *xyz 0 1
|  3> C         -5.57236       -5.80780       -0.81644
|  4> S         -6.90318       -4.61903       -0.52846
|  5> F         -8.11485       -5.25093       -0.95701
|  6> O         -6.53271       -3.42684       -1.31485
|  7> O         -6.86563       -4.29496        0.91412
|  8> C         -4.45780       -5.94187        0.22919
|  9> H         -5.17735       -5.54257       -1.79771
| 10> H         -6.07420       -6.76889       -0.92127
| 11> H         -3.75515       -6.68239       -0.09144
| 12> H         -4.88182       -6.23486        1.16689
| 13> H         -3.95908       -5.00189        0.34143
| 14> *
| 15> %MaxCore 64000
| 16>
| 17> %pal nprocs 4
| 18> end
| 19>
| 20> %scf
| 21>   MaxIter 150
| 22> end
| 23>
| 24>                          ****END OF INPUT****

CARTESIAN COORDINATES (ANGSTROEM)
---------------------------------
  C     -5.572360   -5.807800   -0.816440
  S     -6.903180   -4.619030   -0.528460
  F     -8.114850   -5.250930   -0.957010
  O     -6.532710   -3.426840   -1.314850
  O     -6.865630   -4.294960    0.914120
  C     -4.457800   -5.941870    0.229190
  H     -5.177350   -5.542570   -1.797710
  H     -6.074200   -6.768890   -0.921270
  H     -3.755150   -6.682390   -0.091440
  H     -4.881820   -6.234860    1.166890
  H     -3.959080   -5.001890    0.341430

 Total Charge           Charge          ....    0
 Multiplicity           Mult            ....    1
 Number of Electrons    NEL             ....   58
 Basis Dimension        Dim             ....  176

ORBITAL ENERGIES
----------------

  NO   OCC          E(Eh)            E(eV)
   0   2.0000     -90.199403     -2454.4505
   1   2.0000     -25.386390      -690.7988
   2   2.0000     -19.644077      -534.5425
   3   2.0000     -19.643738      -534.5333
   4   2.0000     -10.620113      -288.9880
   5   2.0000     -10.576178      -287.7924
   6   2.0000      -8.523834      -231.9453
   7   2.0000      -6.452242      -175.5744
   8   2.0000      -6.446739      -175.4247
   9   2.0000      -6.445884      -175.4014
  10   2.0000      -1.528746       -41.5993
  11   2.0000      -1.215657       -33.0797
  12   2.0000      -1.109314       -30.1860
  13   2.0000      -0.918334       -24.9891
  14   2.0000      -0.841861       -22.9082
  15   2.0000      -0.772496       -21.0207
  16   2.0000      -0.698012       -18.9939
  17   2.0000      -0.690728       -18.7957
  18   2.0000      -0.641784       -17.4638
  19   2.0000      -0.569698       -15.5023
  20   2.0000      -0.562078       -15.2949
  21   2.0000      -0.522881       -14.2283
  22   2.0000      -0.502354       -13.6697
  23   2.0000      -0.475733       -12.9454
  24   2.0000      -0.460069       -12.5191
  25   2.0000      -0.455002       -12.3812
  26   2.0000      -0.399105       -10.8602
  27   2.0000      -0.392048       -10.6682
  28   2.0000      -0.375618       -10.2211
  29   0.0000       0.008684         0.2363
  30   0.0000       0.031384         0.8540
  31   0.0000       0.042060         1.1445
  32   0.0000       0.046717         1.2712
  33   0.0000       0.068443         1.8624

MULLIKEN ATOMIC CHARGES
-----------------------
   0 C :   -0.418124
   1 S :    1.562549
   2 F :   -0.411382
   3 O :   -0.717847
   4 O :   -0.729525
   5 C :    0.689236
   6 H :    0.029814
   7 H :    0.051548
   8 H :   -0.048604
   9 H :    0.005180
  10 H :   -0.012845
Sum of atomic charges:   -0.0000000

LOEWDIN ATOMIC CHARGES
----------------------
   0 C :   -0.085809
   1 S :    1.170436
   2 F :   -0.266144
   3 O :   -0.498666
   4 O :   -0.495873
   5 C :    0.149319
   6 H :    0.021273
   7 H :    0.010797
   8 H :   -0.003229
   9 H :   -0.004375
  10 H :    0.002272

  Mayer bond orders larger than 0.100000
B(  0-C ,  1-S ) :   0.9276 B(  0-C ,  5-C ) :   1.3675 B(  0-C ,  6-H ) :   0.9885
B(  0-C ,  7-H ) :   0.9504 B(  0-C ,  8-H ) :   0.1958 B(  0-C ,  9-H ) :   0.2001
B(  0-C , 10-H ) :   0.1821 B(  1-S ,  2-F ) :   0.6528 B(  1-S ,  3-O ) :   1.4803
B(  1-S ,  4-O ) :   1.4698 B(  5-C ,  8-H ) :   0.7794 B(  5-C ,  9-H ) :   0.8156
B(  5-C , 10-H ) :   0.8313

Dispersion correction           -0.000151289
FINAL SINGLE POINT ENERGY      -727.098446458951

DIPOLE MOMENT
-------------
                                X             Y             Z
Electronic contribution:     -9.33478       3.49936      -1.87043
Nuclear contribution   :      9.80704      -5.24335       1.35017
                        -----------------------------------------
Total Dipole Moment    :      0.47225      -1.74399      -0.52025
                        -----------------------------------------
Magnitude (a.u.)       :      1.88021
Magnitude (Debye)      :      4.77912

Rotational constants in cm-1:     0.156316     0.078308     0.076228
Rotational constants in MHz :  4686.224999  2347.601204  2285.245115

                             ****ORCA TERMINATED NORMALLY****
TOTAL RUN TIME: 0 days 0 hours 0 minutes 24 seconds 334 msec
