                         Program Version 5.0.0 -  RELEASE  -
|  1> !M062X D3Zero RIJCOSX def2-SVPD def2/J TightSCF
|  2> *xyz 0 1
|  3> C         -4.38262       -1.67089        1.21620
|  4> C         -5.76354       -1.91517        0.70501
|  5> C         -3.28173       -2.19127        0.29436
|  6> H         -5.84081       -2.11520       -0.30065
|  7> H         -6.40882       -1.14866        0.93612
|  8> H         -6.17478       -2.79061        1.05143
|  9> H         -4.32862       -2.13922        2.19810
| 10> H         -4.26158       -0.59740        1.35725
| 11> H         -3.36057       -1.71407       -0.66008
| 12> H         -3.38775       -3.24919        0.17403
| 13> H         -2.32559       -1.97514        0.72329
| 14> *
| 15> %MaxCore 64000
| 16>
| 17> %pal nprocs 4
| 18> end
| 19>
| 20> %scf
| 21>   MaxIter 150
| 22> end
| 23>
| 24>                          ****END OF INPUT****

CARTESIAN COORDINATES (ANGSTROEM)
---------------------------------
  C     -4.382620   -1.670890    1.216200
  C     -5.763540   -1.915170    0.705010
  C     -3.281730   -2.191270    0.294360
  H     -5.840810   -2.115200   -0.300650
  H     -6.408820   -1.148660    0.936120
  H     -6.174780   -2.790610    1.051430
  H     -4.328620   -2.139220    2.198100
  H     -4.261580   -0.597400    1.357250
  H     -3.360570   -1.714070   -0.660080
  H     -3.387750   -3.249190    0.174030
  H     -2.325590   -1.975140    0.723290

 Total Charge           Charge          ....    0
 Multiplicity           Mult            ....    1
 Number of Electrons    NEL             ....   26
 Basis Dimension        Dim             ....  124

ORBITAL ENERGIES
----------------

  NO   OCC          E(Eh)            E(eV)
   0   2.0000     -10.537613      -286.7430
   1   2.0000     -10.529411      -286.5198
   2   2.0000     -10.511590      -286.0349
   3   2.0000      -0.879038       -23.9198
   4   2.0000      -0.776352       -21.1256
   5   2.0000      -0.667161       -18.1544
   6   2.0000      -0.533102       -14.5064
   7   2.0000      -0.510530       -13.8922
   8   2.0000      -0.475977       -12.9520
   9   2.0000      -0.450275       -12.2526
  10   2.0000      -0.401316       -10.9204
  11   2.0000      -0.393813       -10.7162
  12   2.0000      -0.381836       -10.3903
  13   0.0000       0.044889         1.2215
  14   0.0000       0.070787         1.9262
  15   0.0000       0.078712         2.1419
  16   0.0000       0.112920         3.0727
  17   0.0000       0.132669         3.6101

MULLIKEN ATOMIC CHARGES
-----------------------
   0 C :   -0.583794
   1 C :    0.871328
   2 C :    0.592212
   3 H :   -0.296933
   4 H :   -0.135613
   5 H :   -0.164661
   6 H :   -0.118250
   7 H :   -0.054575
   8 H :   -0.009668
   9 H :   -0.047878
  10 H :   -0.052167
Sum of atomic charges:   -0.0000000

LOEWDIN ATOMIC CHARGES
----------------------
   0 C :   -0.108099
   1 C :    0.116219
   2 C :    0.115365
   3 H :   -0.037918
   4 H :   -0.032421
   5 H :   -0.035255
   6 H :    0.018624
   7 H :    0.017878
   8 H :   -0.016312
   9 H :   -0.016120
  10 H :   -0.021962

  Mayer bond orders larger than 0.100000
B(  0-C ,  1-C ) :   1.2920 B(  0-C ,  2-C ) :   1.2740 B(  0-C ,  3-H ) :   0.1815
B(  0-C ,  4-H ) :   0.1805 B(  0-C ,  5-H ) :   0.2297 B(  0-C ,  6-H ) :   0.9501
B(  0-C ,  7-H ) :   0.9428 B(  0-C ,  8-H ) :   0.1581 B(  0-C ,  9-H ) :   0.1744
B(  0-C , 10-H ) :   0.2033 B(  1-C ,  3-H ) :   0.6732 B(  1-C ,  4-H ) :   0.7612
B(  1-C ,  5-H ) :   0.6309 B(  1-C ,  6-H ) :   0.1151 B(  2-C ,  8-H ) :   0.8377
B(  2-C ,  9-H ) :   0.8420 B(  2-C , 10-H ) :   0.8131 B(  3-H ,  5-H ) :   0.3136

Dispersion correction           -0.000056055
FINAL SINGLE POINT ENERGY      -118.960324977501

DIPOLE MOMENT
-------------
                                X             Y             Z
Electronic contribution:      0.18589       0.23810       0.33883
Nuclear contribution   :     -0.21528      -0.24783      -0.32864
                        -----------------------------------------
Total Dipole Moment    :     -0.02939      -0.00973       0.01018
                        -----------------------------------------
Magnitude (a.u.)       :      0.03259
Magnitude (Debye)      :      0.08283

Rotational constants in cm-1:     1.037566     0.286459     0.254172
Rotational constants in MHz : 31105.431429  8587.814531  7619.871198

                             ****ORCA TERMINATED NORMALLY****
TOTAL RUN TIME: 0 days 0 hours 0 minutes 11 seconds 924 msec
