                         Program Version 5.0.0 -  RELEASE  -
|  1> !M062X D3Zero RIJCOSX def2-SVPD def2/J TightSCF
|  2> *xyz 0 1
|  3> C         -5.57236       -5.80780       -0.81644
|  4> S         -6.90318       -4.61903       -0.52846
|  5> O         -8.11485       -5.25093       -0.95701
|  6> F         -6.53271       -3.42684       -1.31485
|  7> O         -6.86563       -4.29496        0.91412
|  8> C         -4.45780       -5.94187        0.22919
|  9> H         -5.17735       -5.54257       -1.79771
| 10> H         -6.07420       -6.76889       -0.92127
| 11> H         -3.75515       -6.68239       -0.09144
| 12> H         -4.88182       -6.23486        1.16689
| 13> H         -3.95908       -5.00189        0.34143
| 14> *
| 15> %MaxCore 64000
| 16>
| 17> %pal nprocs 4
| 18> end
| 19>
| 20> %scf
| 21>   MaxIter 150
| 22> end
| 23>
| 24>                          ****END OF INPUT****

CARTESIAN COORDINATES (ANGSTROEM)
---------------------------------
  C     -5.572360   -5.807800   -0.816440
  S     -6.903180   -4.619030   -0.528460
  O     -8.114850   -5.250930   -0.957010
  F     -6.532710   -3.426840   -1.314850
  O     -6.865630   -4.294960    0.914120
  C     -4.457800   -5.941870    0.229190
  H     -5.177350   -5.542570   -1.797710
  H     -6.074200   -6.768890   -0.921270
  H     -3.755150   -6.682390   -0.091440
  H     -4.881820   -6.234860    1.166890
  H     -3.959080   -5.001890    0.341430

 Total Charge           Charge          ....    0
 Multiplicity           Mult            ....    1
 Number of Electrons    NEL             ....   58
 Basis Dimension        Dim             ....  176

ORBITAL ENERGIES
----------------

  NO   OCC          E(Eh)            E(eV)
   0   2.0000     -90.197766     -2454.4060
   1   2.0000     -25.363745      -690.1826
   2   2.0000     -19.658390      -534.9320
   3   2.0000     -19.643674      -534.5315
   4   2.0000     -10.619254      -288.9646
   5   2.0000     -10.575684      -287.7790
   6   2.0000      -8.521976      -231.8947
   7   2.0000      -6.450221      -175.5194
   8   2.0000      -6.445121      -175.3807
   9   2.0000      -6.444240      -175.3567
  10   2.0000      -1.490323       -40.5538
  11   2.0000      -1.233685       -33.5703
  12   2.0000      -1.125844       -30.6358
  13   2.0000      -0.917500       -24.9665
  14   2.0000      -0.825063       -22.4511
  15   2.0000      -0.764488       -20.8028
  16   2.0000      -0.675021       -18.3683
  17   2.0000      -0.669398       -18.2153
  18   2.0000      -0.639283       -17.3958
  19   2.0000      -0.570566       -15.5259
  20   2.0000      -0.561503       -15.2793
  21   2.0000      -0.537327       -14.6214
  22   2.0000      -0.505663       -13.7598
  23   2.0000      -0.474276       -12.9057
  24   2.0000      -0.472108       -12.8467
  25   2.0000      -0.454694       -12.3729
  26   2.0000      -0.410763       -11.1774
  27   2.0000      -0.396700       -10.7948
  28   2.0000      -0.388347       -10.5674
  29   0.0000       0.009690         0.2637
  30   0.0000       0.034661         0.9432
  31   0.0000       0.042562         1.1582
  32   0.0000       0.045508         1.2383
  33   0.0000       0.068112         1.8534

MULLIKEN ATOMIC CHARGES
-----------------------
   0 C :   -0.418626
   1 S :    1.563864
   2 O :   -0.681492
   3 F :   -0.441938
   4 O :   -0.739343
   5 C :    0.714256
   6 H :    0.030906
   7 H :    0.049772
   8 H :   -0.050273
   9 H :    0.006077
  10 H :   -0.033203
Sum of atomic charges:   -0.0000000

LOEWDIN ATOMIC CHARGES
----------------------
   0 C :   -0.080302
   1 S :    1.166628
   2 O :   -0.474057
   3 F :   -0.287062
   4 O :   -0.494973
   5 C :    0.141811
   6 H :    0.016180
   7 H :    0.023329
   8 H :   -0.004694
   9 H :   -0.003059
  10 H :   -0.003803

  Mayer bond orders larger than 0.100000
B(  0-C ,  1-S ) :   0.9382 B(  0-C ,  5-C ) :   1.3554 B(  0-C ,  6-H ) :   0.9593
B(  0-C ,  7-H ) :   0.9888 B(  0-C ,  8-H ) :   0.1988 B(  0-C ,  9-H ) :   0.1986
B(  0-C , 10-H ) :   0.1868 B(  1-S ,  2-O ) :   1.5399 B(  1-S ,  3-F ) :   0.5934
B(  1-S ,  4-O ) :   1.4753 B(  5-C ,  8-H ) :   0.7775 B(  5-C ,  9-H ) :   0.8191
B(  5-C , 10-H ) :   0.8265

Dispersion correction           -0.000156706
FINAL SINGLE POINT ENERGY      -727.118053033419

DIPOLE MOMENT
-------------
                                X             Y             Z
Electronic contribution:     -6.64168       6.62301      -2.50099
Nuclear contribution   :      8.15840      -7.14411       1.72305
                        -----------------------------------------
Total Dipole Moment    :      1.51672      -0.52109      -0.77794
                        -----------------------------------------
Magnitude (a.u.)       :      1.78246
Magnitude (Debye)      :      4.53066

Rotational constants in cm-1:     0.153926     0.078297     0.077402
Rotational constants in MHz :  4614.585804  2347.272644  2320.438903

                             ****ORCA TERMINATED NORMALLY****
TOTAL RUN TIME: 0 days 0 hours 0 minutes 23 seconds 9 msec
