                         Program Version 5.0.0 -  RELEASE  -
|  1> !M062X D3Zero RIJCOSX def2-SVPD def2/J TightSCF
|  2> *xyz 0 1
|  3> C         -5.57236       -5.80780       -0.81644
|  4> S         -6.90318       -4.61903       -0.52846
|  5> O         -8.11485       -5.25093       -0.95701
|  6> O         -6.53271       -3.42684       -1.31485
|  7> F         -6.86563       -4.29496        0.91412
|  8> C         -4.45780       -5.94187        0.22919
|  9> H         -5.17735       -5.54257       -1.79771
| 10> H         -6.07420       -6.76889       -0.92127
| 11> H         -3.75515       -6.68239       -0.09144
| 12> H         -4.88182       -6.23486        1.16689
| 13> H         -3.95908       -5.00189        0.34143
| 14> *
| 15> %MaxCore 64000
| 16>
| 17> %pal nprocs 4
| 18> end
| 19>
| 20> %scf
| 21>   MaxIter 150
| 22> end
| 23>
| 24>                          ****END OF INPUT****

CARTESIAN COORDINATES (ANGSTROEM)
---------------------------------
  C     -5.572360   -5.807800   -0.816440
  S     -6.903180   -4.619030   -0.528460
  O     -8.114850   -5.250930   -0.957010
  O     -6.532710   -3.426840   -1.314850
  F     -6.865630   -4.294960    0.914120
  C     -4.457800   -5.941870    0.229190
  H     -5.177350   -5.542570   -1.797710
  H     -6.074200   -6.768890   -0.921270
  H     -3.755150   -6.682390   -0.091440
  H     -4.881820   -6.234860    1.166890
  H     -3.959080   -5.001890    0.341430

 Total Charge           Charge          ....    0
 Multiplicity           Mult            ....    1
 Number of Electrons    NEL             ....   58
 Basis Dimension        Dim             ....  176

ORBITAL ENERGIES
----------------

  NO   OCC          E(Eh)            E(eV)
   0   2.0000     -90.197269     -2454.3925
   1   2.0000     -25.362814      -690.1573
   2   2.0000     -19.658110      -534.9244
   3   2.0000     -19.642885      -534.5101
   4   2.0000     -10.618573      -288.9461
   5   2.0000     -10.582873      -287.9746
   6   2.0000      -8.521498      -231.8818
   7   2.0000      -6.449797      -175.5079
   8   2.0000      -6.444696      -175.3691
   9   2.0000      -6.443661      -175.3409
  10   2.0000      -1.487345       -40.4727
  11   2.0000      -1.234356       -33.5885
  12   2.0000      -1.126644       -30.6575
  13   2.0000      -0.920325       -25.0433
  14   2.0000      -0.821975       -22.3671
  15   2.0000      -0.768610       -20.9150
  16   2.0000      -0.680298       -18.5118
  17   2.0000      -0.668859       -18.2006
  18   2.0000      -0.631848       -17.1935
  19   2.0000      -0.573647       -15.6097
  20   2.0000      -0.558431       -15.1957
  21   2.0000      -0.530214       -14.4279
  22   2.0000      -0.521508       -14.1910
  23   2.0000      -0.484055       -13.1718
  24   2.0000      -0.466613       -12.6972
  25   2.0000      -0.461179       -12.5493
  26   2.0000      -0.410250       -11.1635
  27   2.0000      -0.396463       -10.7883
  28   2.0000      -0.387653       -10.5486
  29   0.0000       0.007851         0.2136
  30   0.0000       0.038884         1.0581
  31   0.0000       0.042157         1.1472
  32   0.0000       0.044984         1.2241
  33   0.0000       0.072635         1.9765

MULLIKEN ATOMIC CHARGES
-----------------------
   0 C :   -0.399794
   1 S :    1.548464
   2 O :   -0.678464
   3 O :   -0.727111
   4 F :   -0.452469
   5 C :    0.693476
   6 H :    0.035444
   7 H :    0.054309
   8 H :   -0.039383
   9 H :   -0.008822
  10 H :   -0.025650
Sum of atomic charges:    0.0000000

LOEWDIN ATOMIC CHARGES
----------------------
   0 C :   -0.074036
   1 S :    1.165281
   2 O :   -0.473704
   3 O :   -0.499620
   4 F :   -0.285525
   5 C :    0.136074
   6 H :    0.029322
   7 H :    0.018063
   8 H :   -0.003841
   9 H :   -0.008779
  10 H :   -0.003235

  Mayer bond orders larger than 0.100000
B(  0-C ,  1-S ) :   0.9404 B(  0-C ,  5-C ) :   1.3294 B(  0-C ,  6-H ) :   0.9802
B(  0-C ,  7-H ) :   0.9881 B(  0-C ,  8-H ) :   0.2000 B(  0-C ,  9-H ) :   0.1876
B(  0-C , 10-H ) :   0.1755 B(  1-S ,  2-O ) :   1.5362 B(  1-S ,  3-O ) :   1.4801
B(  1-S ,  4-F ) :   0.5959 B(  5-C ,  8-H ) :   0.7788 B(  5-C ,  9-H ) :   0.8214
B(  5-C , 10-H ) :   0.8336

Dispersion correction           -0.000161009
FINAL SINGLE POINT ENERGY      -727.118163212537

DIPOLE MOMENT
-------------
                                X             Y             Z
Electronic contribution:     -7.19153       5.10874       1.31065
Nuclear contribution   :      8.50531      -6.23950      -0.59960
                        -----------------------------------------
Total Dipole Moment    :      1.31378      -1.13076       0.71104
                        -----------------------------------------
Magnitude (a.u.)       :      1.87356
Magnitude (Debye)      :      4.76220

Rotational constants in cm-1:     0.152799     0.080212     0.076962
Rotational constants in MHz :  4580.804531  2404.707790  2307.252710

                             ****ORCA TERMINATED NORMALLY****
TOTAL RUN TIME: 0 days 0 hours 0 minutes 23 seconds 116 msec
