                         Program Version 5.0.0 -  RELEASE  -
|  1> !M062X D3Zero RIJCOSX def2-SVPD def2/J TightSCF xyzfile
|  2>
|  3> *xyzfile 0 1 D1.xyz
|  4>
|  5> %MaxCore 64000
|  6>
|  7> %pal nprocs 4
|  8> end
|  9>
| 10> %scf
| 11>   MaxIter 150
| 12> end
| 13>
| 14>
| 15>                          ****END OF INPUT****

CARTESIAN COORDINATES (ANGSTROEM)
---------------------------------
  C     -4.382623   -1.670889    1.216201
  C     -5.763539   -1.915170    0.705012
  C     -3.281728   -2.191272    0.294361
  C     -5.572364   -5.807798   -0.816445
  S     -6.903179   -4.619033   -0.528458
  H     -5.840812   -2.115205   -0.300646
  H     -6.408823   -1.148656    0.936124
  H     -6.174781   -2.790606    1.051433
  F     -8.114853   -5.250932   -0.957007
  O     -6.532715   -3.426838   -1.314848
  H     -4.328618   -2.139223    2.198103
  H     -4.261583   -0.597399    1.357248
  O     -6.865632   -4.294957    0.914118
  C     -3.474641   -3.605898   -0.259608
  H     -2.354548   -2.127602    0.871433
  H     -3.166611   -1.499693   -0.545037
  C     -3.827078   -4.661097    0.786174
  H     -2.560559   -3.889391   -0.788050
  H     -4.255932   -3.570040   -1.019300
  C     -4.457800   -5.941875    0.229195
  H     -5.177347   -5.542575   -1.797714
  H     -6.074202   -6.768894   -0.921272
  H     -4.530506   -4.253640    1.511979
  H     -2.933400   -4.932302    1.356825
  H     -3.681064   -6.562236   -0.229885
  H     -4.843942   -6.512728    1.075805

 Total Charge           Charge          ....    0
 Multiplicity           Mult            ....    1
 Number of Electrons    NEL             ....   98
 Basis Dimension        Dim             ....  356

ORBITAL ENERGIES
----------------

  NO   OCC          E(Eh)            E(eV)
   0   2.0000     -90.208593     -2454.7006
   1   2.0000     -25.391400      -690.9351
   2   2.0000     -19.652498      -534.7717
   3   2.0000     -19.651231      -534.7372
   4   2.0000     -10.620662      -289.0029
   5   2.0000     -10.582118      -287.9541
   6   2.0000     -10.548293      -287.0336
   7   2.0000     -10.537167      -286.7309
   8   2.0000     -10.527966      -286.4805
   9   2.0000     -10.513276      -286.0808
  10   2.0000     -10.456817      -284.5444
  11   2.0000      -8.531658      -232.1582
  12   2.0000      -6.460122      -175.7889
  13   2.0000      -6.454774      -175.6433
  14   2.0000      -6.453892      -175.6193
  15   2.0000      -1.533017       -41.7155
  16   2.0000      -1.228576       -33.4312
  17   2.0000      -1.122413       -30.5424
  18   2.0000      -0.931807       -25.3558
  19   2.0000      -0.889983       -24.2177
  20   2.0000      -0.850834       -23.1524
  21   2.0000      -0.821310       -22.3490
  22   2.0000      -0.781573       -21.2677
  23   2.0000      -0.733124       -19.9493
  24   2.0000      -0.704333       -19.1659
  25   2.0000      -0.700739       -19.0681
  26   2.0000      -0.676229       -18.4011
  27   2.0000      -0.638513       -17.3748
  28   2.0000      -0.616327       -16.7711
  29   2.0000      -0.575363       -15.6564
  30   2.0000      -0.569767       -15.5041
  31   2.0000      -0.547585       -14.9006
  32   2.0000      -0.545948       -14.8560
  33   2.0000      -0.512527       -13.9466
  34   2.0000      -0.503894       -13.7117
  35   2.0000      -0.488228       -13.2854
  36   2.0000      -0.478955       -13.0330
  37   2.0000      -0.454004       -12.3541
  38   2.0000      -0.445854       -12.1323
  39   2.0000      -0.443049       -12.0560
  40   2.0000      -0.415487       -11.3060
  41   2.0000      -0.409601       -11.1458
  42   2.0000      -0.402411       -10.9501
  43   2.0000      -0.397261       -10.8100
  44   2.0000      -0.388225       -10.5641
  45   2.0000      -0.374381       -10.1874
  46   2.0000      -0.353988        -9.6325
  47   2.0000      -0.349154        -9.5010
  48   2.0000      -0.329043        -8.9537
  49   0.0000       0.006162         0.1677
  50   0.0000       0.027739         0.7548
  51   0.0000       0.035076         0.9545
  52   0.0000       0.044863         1.2208
  53   0.0000       0.058423         1.5898

MULLIKEN ATOMIC CHARGES
-----------------------
   0 C :   -0.086220
   1 C :    2.026803
   2 C :    0.487563
   3 C :    0.195902
   4 S :    1.726442
   5 H :   -0.433906
   6 H :   -0.405347
   7 H :   -0.972124
   8 F :   -0.573024
   9 O :   -0.693320
  10 H :    0.162750
  11 H :   -0.427687
  12 O :   -0.791921
  13 C :    0.170414
  14 H :   -0.059748
  15 H :    0.051901
  16 C :    0.048702
  17 H :   -0.383008
  18 H :   -0.086222
  19 C :    0.475056
  20 H :    0.157281
  21 H :   -0.270770
  22 H :   -0.000975
  23 H :   -0.290997
  24 H :   -0.025227
  25 H :   -0.002317
Sum of atomic charges:    0.0000000

LOEWDIN ATOMIC CHARGES
----------------------
   0 C :   -0.046504
   1 C :    0.142662
   2 C :   -0.024445
   3 C :   -0.031746
   4 S :    1.233652
   5 H :   -0.095614
   6 H :   -0.019286
   7 H :   -0.135484
   8 F :   -0.257275
   9 O :   -0.477946
  10 H :    0.015198
  11 H :    0.015037
  12 O :   -0.467555
  13 C :   -0.009456
  14 H :    0.016016
  15 H :    0.026000
  16 C :   -0.007519
  17 H :    0.023603
  18 H :   -0.017581
  19 C :   -0.012365
  20 H :    0.023630
  21 H :    0.011449
  22 H :   -0.003544
  23 H :    0.031716
  24 H :    0.035636
  25 H :    0.031722

  Mayer bond orders larger than 0.100000
B(  0-C ,  1-C ) :   0.9898 B(  0-C ,  2-C ) :   1.1348 B(  0-C ,  5-H ) :   0.3921
B(  0-C ,  7-H ) :   0.4368 B(  0-C , 10-H ) :   0.6639 B(  0-C , 11-H ) :   1.0853
B(  0-C , 14-H ) :   0.1607 B(  0-C , 15-H ) :   0.1617 B(  0-C , 16-C ) :   0.1044
B(  1-C ,  2-C ) :   0.1697 B(  1-C ,  5-H ) :  -0.1964 B(  1-C ,  6-H ) :   0.5599
B(  1-C ,  7-H ) :  -0.6851 B(  1-C , 10-H ) :   0.2139 B(  1-C , 17-H ) :   0.1559
B(  1-C , 18-H ) :  -0.1025 B(  2-C , 10-H ) :   0.1278 B(  2-C , 13-C ) :   1.2816
B(  2-C , 14-H ) :   0.7753 B(  2-C , 15-H ) :   0.6520 B(  3-C ,  4-S ) :   0.9296
B(  3-C ,  8-F ) :   0.1063 B(  3-C , 19-C ) :   1.2317 B(  3-C , 20-H ) :   0.8603
B(  3-C , 21-H ) :   0.8967 B(  3-C , 24-H ) :   0.1182 B(  3-C , 25-H ) :   0.1170
B(  4-S ,  8-F ) :   0.5272 B(  4-S ,  9-O ) :   1.3307 B(  4-S , 12-O ) :   1.3262
B(  5-H ,  6-H ) :  -0.1438 B(  5-H ,  7-H ) :   1.0682 B(  5-H ,  9-O ) :   0.1751
B(  5-H , 11-H ) :   0.1828 B(  5-H , 17-H ) :  -0.1294 B(  5-H , 18-H ) :   0.2316
B(  6-H , 11-H ) :  -0.1532 B(  6-H , 13-C ) :   0.1192 B(  6-H , 17-H ) :   0.1359
B(  6-H , 18-H ) :  -0.1884 B(  7-H , 10-H ) :  -0.1305 B(  7-H , 11-H ) :   0.1083
B(  7-H , 12-O ) :   0.1018 B(  7-H , 17-H ) :  -0.1526 B(  9-O , 12-O ) :   0.1588
B( 10-H , 11-H ) :  -0.2685 B( 10-H , 22-H ) :   0.1604 B( 11-H , 14-H ) :   0.1187
B( 13-C , 14-H ) :   0.1695 B( 13-C , 15-H ) :   0.2591 B( 13-C , 16-C ) :   1.1745
B( 13-C , 17-H ) :   0.8859 B( 13-C , 18-H ) :   0.8009 B( 13-C , 23-H ) :   0.1825
B( 14-H , 15-H ) :  -0.1383 B( 16-C , 17-H ) :   0.1931 B( 16-C , 18-H ) :   0.1812
B( 16-C , 19-C ) :   1.2644 B( 16-C , 22-H ) :   0.8719 B( 16-C , 23-H ) :   0.8814
B( 16-C , 24-H ) :   0.1257 B( 16-C , 25-H ) :   0.2518 B( 19-C , 21-H ) :   0.2057
B( 19-C , 24-H ) :   0.7782 B( 19-C , 25-H ) :   0.6761 B( 24-H , 25-H ) :  -0.1174

Dispersion correction           -0.001210589
FINAL SINGLE POINT ENERGY      -923.376015121999

DIPOLE MOMENT
-------------
                                X             Y             Z
Electronic contribution:    -18.90217      -8.71753      -6.73454
Nuclear contribution   :     19.08524       6.89775       6.14221
                        -----------------------------------------
Total Dipole Moment    :      0.18307      -1.81978      -0.59233
                        -----------------------------------------
Magnitude (a.u.)       :      1.92249
Magnitude (Debye)      :      4.88658

Rotational constants in cm-1:     0.049343     0.024787     0.019726
Rotational constants in MHz :  1479.262779   743.087234   591.370705

                             ****ORCA TERMINATED NORMALLY****
TOTAL RUN TIME: 0 days 0 hours 2 minutes 0 seconds 482 msec
