                         Program Version 5.0.0 -  RELEASE  -
|  1> !M062X D3Zero RIJCOSX def2-SVPD def2/J TightSCF xyzfile
|  2>
|  3> *xyzfile 0 1 D2.xyz
|  4>
|  5> %MaxCore 64000
|  6>
|  7> %pal nprocs 4
|  8> end
|  9>
| 10> %scf
| 11>   MaxIter 150
| 12> end
| 13>
| 14>
| 15>                          ****END OF INPUT****

CARTESIAN COORDINATES (ANGSTROEM)
---------------------------------
  C     -4.382623   -1.670889    1.216201
  C     -5.763539   -1.915170    0.705012
  C     -3.281728   -2.191272    0.294361
  C     -5.572364   -5.807798   -0.816445
  S     -6.903179   -4.619033   -0.528458
  H     -5.840812   -2.115205   -0.300646
  H     -6.408823   -1.148656    0.936124
  H     -6.174781   -2.790606    1.051433
  O     -8.114853   -5.250932   -0.957007
  F     -6.532715   -3.426838   -1.314848
  H     -4.328618   -2.139223    2.198103
  H     -4.261583   -0.597399    1.357248
  O     -6.865632   -4.294957    0.914118
  C     -3.474641   -3.605898   -0.259608
  H     -2.354548   -2.127602    0.871433
  H     -3.166611   -1.499693   -0.545037
  C     -3.827078   -4.661097    0.786174
  H     -2.560559   -3.889391   -0.788050
  H     -4.255932   -3.570040   -1.019300
  C     -4.457800   -5.941875    0.229195
  H     -5.177347   -5.542575   -1.797714
  H     -6.074202   -6.768894   -0.921272
  H     -4.530506   -4.253640    1.511979
  H     -2.933400   -4.932302    1.356825
  H     -3.681064   -6.562236   -0.229885
  H     -4.843942   -6.512728    1.075805

 Total Charge           Charge          ....    0
 Multiplicity           Mult            ....    1
 Number of Electrons    NEL             ....   98
 Basis Dimension        Dim             ....  356

ORBITAL ENERGIES
----------------

  NO   OCC          E(Eh)            E(eV)
   0   2.0000     -90.204073     -2454.5776
   1   2.0000     -25.367666      -690.2893
   2   2.0000     -19.662229      -535.0364
   3   2.0000     -19.647818      -534.6443
   4   2.0000     -10.618483      -288.9436
   5   2.0000     -10.581759      -287.9443
   6   2.0000     -10.555586      -287.2321
   7   2.0000     -10.553981      -287.1884
   8   2.0000     -10.542258      -286.8694
   9   2.0000     -10.528861      -286.5049
  10   2.0000     -10.480354      -285.1849
  11   2.0000      -8.527018      -232.0320
  12   2.0000      -6.455348      -175.6589
  13   2.0000      -6.450344      -175.5228
  14   2.0000      -6.449296      -175.4943
  15   2.0000      -1.497313       -40.7440
  16   2.0000      -1.239004       -33.7150
  17   2.0000      -1.135291       -30.8928
  18   2.0000      -0.934034       -25.4163
  19   2.0000      -0.898188       -24.4409
  20   2.0000      -0.848901       -23.0998
  21   2.0000      -0.823920       -22.4200
  22   2.0000      -0.785922       -21.3860
  23   2.0000      -0.742017       -20.1913
  24   2.0000      -0.705198       -19.1894
  25   2.0000      -0.680522       -18.5180
  26   2.0000      -0.665383       -18.1060
  27   2.0000      -0.640716       -17.4348
  28   2.0000      -0.632679       -17.2161
  29   2.0000      -0.576881       -15.6977
  30   2.0000      -0.565054       -15.3759
  31   2.0000      -0.549313       -14.9476
  32   2.0000      -0.544886       -14.8271
  33   2.0000      -0.528179       -14.3725
  34   2.0000      -0.510514       -13.8918
  35   2.0000      -0.494292       -13.4504
  36   2.0000      -0.478143       -13.0109
  37   2.0000      -0.466809       -12.7025
  38   2.0000      -0.458641       -12.4803
  39   2.0000      -0.455284       -12.3889
  40   2.0000      -0.426657       -11.6099
  41   2.0000      -0.422198       -11.4886
  42   2.0000      -0.418809       -11.3964
  43   2.0000      -0.406137       -11.0515
  44   2.0000      -0.391056       -10.6412
  45   2.0000      -0.386080       -10.5058
  46   2.0000      -0.372246       -10.1293
  47   2.0000      -0.371162       -10.0998
  48   2.0000      -0.341501        -9.2927
  49   0.0000       0.014633         0.3982
  50   0.0000       0.029694         0.8080
  51   0.0000       0.038655         1.0519
  52   0.0000       0.043201         1.1755
  53   0.0000       0.061152         1.6640

MULLIKEN ATOMIC CHARGES
-----------------------
   0 C :   -0.080369
   1 C :    2.029283
   2 C :    0.468822
   3 C :    0.217735
   4 S :    1.588315
   5 H :   -0.438786
   6 H :   -0.404975
   7 H :   -0.937751
   8 O :   -0.759490
   9 F :   -0.450643
  10 H :    0.173404
  11 H :   -0.419484
  12 O :   -0.787575
  13 C :    0.139328
  14 H :   -0.053214
  15 H :    0.054217
  16 C :    0.066047
  17 H :   -0.369354
  18 H :   -0.097555
  19 C :    0.490474
  20 H :    0.162095
  21 H :   -0.301797
  22 H :   -0.011994
  23 H :   -0.251680
  24 H :   -0.023053
  25 H :   -0.001996
Sum of atomic charges:    0.0000000

LOEWDIN ATOMIC CHARGES
----------------------
   0 C :   -0.042427
   1 C :    0.141888
   2 C :   -0.024783
   3 C :   -0.026897
   4 S :    1.203049
   5 H :   -0.077444
   6 H :   -0.016715
   7 H :   -0.137849
   8 O :   -0.456960
   9 F :   -0.290579
  10 H :    0.019295
  11 H :    0.017398
  12 O :   -0.462243
  13 C :   -0.013294
  14 H :    0.019440
  15 H :    0.025766
  16 C :   -0.009373
  17 H :    0.026531
  18 H :   -0.017759
  19 C :   -0.016248
  20 H :    0.018687
  21 H :    0.023433
  22 H :   -0.003781
  23 H :    0.033155
  24 H :    0.033679
  25 H :    0.034035

  Mayer bond orders larger than 0.100000
B(  0-C ,  1-C ) :   0.9809 B(  0-C ,  2-C ) :   1.1448 B(  0-C ,  5-H ) :   0.4027
B(  0-C ,  7-H ) :   0.4423 B(  0-C , 10-H ) :   0.6601 B(  0-C , 11-H ) :   1.0893
B(  0-C , 14-H ) :   0.1544 B(  0-C , 15-H ) :   0.1591 B(  0-C , 16-C ) :   0.1048
B(  1-C ,  2-C ) :   0.1631 B(  1-C ,  5-H ) :  -0.2679 B(  1-C ,  6-H ) :   0.5967
B(  1-C ,  7-H ) :  -0.6893 B(  1-C , 10-H ) :   0.2144 B(  1-C , 17-H ) :   0.1529
B(  2-C , 10-H ) :   0.1312 B(  2-C , 13-C ) :   1.2733 B(  2-C , 14-H ) :   0.7761
B(  2-C , 15-H ) :   0.6524 B(  3-C ,  4-S ) :   0.9041 B(  3-C , 19-C ) :   1.2117
B(  3-C , 20-H ) :   0.8431 B(  3-C , 21-H ) :   0.9406 B(  3-C , 24-H ) :   0.1156
B(  3-C , 25-H ) :   0.1246 B(  4-S ,  8-O ) :   1.5561 B(  4-S ,  9-F ) :   0.5380
B(  4-S , 12-O ) :   1.3985 B(  5-H ,  6-H ) :  -0.1603 B(  5-H ,  7-H ) :   1.0522
B(  5-H ,  9-F ) :   0.1479 B(  5-H , 11-H ) :   0.1681 B(  5-H , 17-H ) :  -0.1305
B(  5-H , 18-H ) :   0.2141 B(  6-H , 11-H ) :  -0.1521 B(  6-H , 13-C ) :   0.1088
B(  6-H , 17-H ) :   0.1368 B(  6-H , 18-H ) :  -0.1808 B(  7-H ,  9-F ) :   0.1132
B(  7-H , 10-H ) :  -0.1316 B(  7-H , 11-H ) :   0.1002 B(  7-H , 17-H ) :  -0.1619
B( 10-H , 11-H ) :  -0.2650 B( 10-H , 22-H ) :   0.1567 B( 11-H , 14-H ) :   0.1183
B( 13-C , 14-H ) :   0.1695 B( 13-C , 15-H ) :   0.2594 B( 13-C , 16-C ) :   1.1772
B( 13-C , 17-H ) :   0.9255 B( 13-C , 18-H ) :   0.7905 B( 13-C , 22-H ) :   0.1024
B( 13-C , 23-H ) :   0.1778 B( 14-H , 15-H ) :  -0.1382 B( 16-C , 17-H ) :   0.1865
B( 16-C , 18-H ) :   0.1669 B( 16-C , 19-C ) :   1.2692 B( 16-C , 22-H ) :   0.8924
B( 16-C , 23-H ) :   0.8593 B( 16-C , 24-H ) :   0.1249 B( 16-C , 25-H ) :   0.2477
B( 19-C , 21-H ) :   0.1786 B( 19-C , 24-H ) :   0.7798 B( 19-C , 25-H ) :   0.6751
B( 24-H , 25-H ) :  -0.1198

Dispersion correction           -0.001224296
FINAL SINGLE POINT ENERGY      -923.395108914771

DIPOLE MOMENT
-------------
                                X             Y             Z
Electronic contribution:    -15.89932      -5.38986      -7.21974
Nuclear contribution   :     17.25367       4.78608       6.55647
                        -----------------------------------------
Total Dipole Moment    :      1.35435      -0.60378      -0.66328
                        -----------------------------------------
Magnitude (a.u.)       :      1.62442
Magnitude (Debye)      :      4.12895

Rotational constants in cm-1:     0.048508     0.025517     0.020225
Rotational constants in MHz :  1454.219007   764.979652   606.316599

                             ****ORCA TERMINATED NORMALLY****
TOTAL RUN TIME: 0 days 0 hours 1 minutes 54 seconds 291 msec
