                         Program Version 5.0.0 -  RELEASE  -
|  1> !PBE D3BJ RIJCOSX def2-SVPD def2/J TightSCF
|  2> *xyz -1 1
|  3> C         -2.12050        0.88520        1.78951
|  4> C         -0.77894        0.17197        1.80496
|  5> H          0.01569        0.91077        1.93915
|  6> H         -0.74355       -0.50683        2.66542
|  7> C         -0.60249       -0.63071        0.49224
|  8> H          0.31389       -1.24035        0.60350
|  9> H         -0.36383        0.11332       -0.30117
| 10> O         -1.71206       -1.37684        0.20253
| 11> H         -2.16160        1.54956        0.95175
| 12> H         -2.23761        1.44436        2.69423
| 13> H         -2.90702        0.16393        1.71165
| 14> *
| 15> %MaxCore 64000
| 16>
| 17> %pal nprocs 4
| 18> end
| 19> %scf
| 20>   MaxIter 150
| 21> end
| 22>
| 23>                          ****END OF INPUT****

CARTESIAN COORDINATES (ANGSTROEM)
---------------------------------
  C     -2.120500    0.885200    1.789510
  C     -0.778940    0.171970    1.804960
  H      0.015690    0.910770    1.939150
  H     -0.743550   -0.506830    2.665420
  C     -0.602490   -0.630710    0.492240
  H      0.313890   -1.240350    0.603500
  H     -0.363830    0.113320   -0.301170
  O     -1.712060   -1.376840    0.202530
  H     -2.161600    1.549560    0.951750
  H     -2.237610    1.444360    2.694230
  H     -2.907020    0.163930    1.711650

 Total Charge           Charge          ....   -1
 Multiplicity           Mult            ....    1
 Number of Electrons    NEL             ....   34
 Basis Dimension        Dim             ....  139

ORBITAL ENERGIES
----------------

  NO   OCC          E(Eh)            E(eV)
   0   2.0000     -18.448284      -502.0033
   1   2.0000      -9.713330      -264.3132
   2   2.0000      -9.705758      -264.1071
   3   2.0000      -9.703743      -264.0523
   4   2.0000      -0.602122       -16.3846
   5   2.0000      -0.503297       -13.6954
   6   2.0000      -0.393626       -10.7111
   7   2.0000      -0.303298        -8.2532
   8   2.0000      -0.225623        -6.1395
   9   2.0000      -0.216598        -5.8939
  10   2.0000      -0.168293        -4.5795
  11   2.0000      -0.142200        -3.8695
  12   2.0000      -0.115878        -3.1532
  13   2.0000      -0.110740        -3.0134
  14   2.0000      -0.075482        -2.0540
  15   2.0000       0.060301         1.6409
  16   2.0000       0.064403         1.7525
  17   0.0000       0.151568         4.1244
  18   0.0000       0.175285         4.7698
  19   0.0000       0.189774         5.1640
  20   0.0000       0.212460         5.7813
  21   0.0000       0.232631         6.3302

MULLIKEN ATOMIC CHARGES
-----------------------
   0 C :    0.573840
   1 C :   -0.552299
   2 H :   -0.074034
   3 H :   -0.049620
   4 C :    0.431460
   5 H :   -0.191517
   6 H :   -0.089242
   7 O :   -0.845738
   8 H :   -0.065183
   9 H :   -0.127057
  10 H :   -0.010608
Sum of atomic charges:   -1.0000000

LOEWDIN ATOMIC CHARGES
----------------------
   0 C :    0.069567
   1 C :   -0.120235
   2 H :   -0.019128
   3 H :   -0.001852
   4 C :   -0.218927
   5 H :   -0.040280
   6 H :   -0.033020
   7 O :   -0.512760
   8 H :   -0.031577
   9 H :   -0.052607
  10 H :   -0.039180

  Mayer bond orders larger than 0.100000
B(  0-C ,  1-C ) :   1.3186 B(  0-C ,  2-H ) :   0.1140 B(  0-C ,  3-H ) :   0.1025
B(  0-C ,  8-H ) :   0.8173 B(  0-C ,  9-H ) :   0.8147 B(  0-C , 10-H ) :   0.8174
B(  1-C ,  2-H ) :   1.0115 B(  1-C ,  3-H ) :   0.9712 B(  1-C ,  4-C ) :   1.0393
B(  1-C ,  5-H ) :   0.1604 B(  1-C ,  6-H ) :   0.1665 B(  1-C ,  7-O ) :   0.1974
B(  1-C ,  8-H ) :   0.2140 B(  1-C ,  9-H ) :   0.2066 B(  1-C , 10-H ) :   0.2102
B(  3-H ,  4-C ) :   0.1032 B(  4-C ,  5-H ) :   0.9789 B(  4-C ,  6-H ) :   0.9226
B(  4-C ,  7-O ) :   1.1179

Dispersion correction           -0.006696079
FINAL SINGLE POINT ENERGY      -193.369214561830

DIPOLE MOMENT
-------------
                                X             Y             Z
Electronic contribution:     -0.68854      -2.50303      -1.57937
Nuclear contribution   :      1.03476       3.87369       2.65163
                        -----------------------------------------
Total Dipole Moment    :      0.34621       1.37066       1.07226
                        -----------------------------------------
Magnitude (a.u.)       :      1.77435
Magnitude (Debye)      :      4.51004

Rotational constants in cm-1:     0.475803     0.193433     0.155403
Rotational constants in MHz : 14264.216647  5798.988361  4658.874800

                             ****ORCA TERMINATED NORMALLY****
TOTAL RUN TIME: 0 days 0 hours 0 minutes 4 seconds 610 msec
