                         Program Version 5.0.0 -  RELEASE  -
|  1> !PBE D3BJ RIJCOSX def2-SVPD def2/J TightSCF
|  2> *xyz 1 1
|  3> C         -2.12050        0.88520        1.78951
|  4> C         -0.77894        0.17197        1.80496
|  5> H         -2.32419        1.47265        2.68608
|  6> H         -2.18770        1.54127        0.91948
|  7> N         -3.17690       -0.15948        1.61070
|  8> H          0.01569        0.91077        1.93915
|  9> H         -0.74355       -0.50683        2.66542
| 10> C         -0.60249       -0.63071        0.49224
| 11> H         -4.06474        0.23127        1.28675
| 12> H         -3.34407       -0.67151        2.48493
| 13> H         -2.71686       -0.78189        0.93588
| 14> H         -0.63812        0.03805       -0.34226
| 15> H         -1.38918       -1.35085        0.40604
| 16> H          0.34172       -1.13388        0.50602
| 17> *
| 18> %MaxCore 64000
| 19>
| 20> %pal nprocs 4
| 21> end
| 22>
| 23> %scf
| 24>   MaxIter 150
| 25> end
| 26>
| 27>
| 28>                          ****END OF INPUT****

CARTESIAN COORDINATES (ANGSTROEM)
---------------------------------
  C     -2.120500    0.885200    1.789510
  C     -0.778940    0.171970    1.804960
  H     -2.324190    1.472650    2.686080
  H     -2.187700    1.541270    0.919480
  N     -3.176900   -0.159480    1.610700
  H      0.015690    0.910770    1.939150
  H     -0.743550   -0.506830    2.665420
  C     -0.602490   -0.630710    0.492240
  H     -4.064740    0.231270    1.286750
  H     -3.344070   -0.671510    2.484930
  H     -2.716860   -0.781890    0.935880
  H     -0.638120    0.038050   -0.342260
  H     -1.389180   -1.350850    0.406040
  H      0.341720   -1.133880    0.506020

 Total Charge           Charge          ....    1
 Multiplicity           Mult            ....    1
 Number of Electrons    NEL             ....   34
 Basis Dimension        Dim             ....  160

ORBITAL ENERGIES
----------------

  NO   OCC          E(Eh)            E(eV)
   0   2.0000     -14.318010      -389.6129
   1   2.0000     -10.142086      -275.9802
   2   2.0000     -10.084193      -274.4048
   3   2.0000     -10.062820      -273.8233
   4   2.0000      -1.119979       -30.4762
   5   2.0000      -0.902543       -24.5594
   6   2.0000      -0.819726       -22.3059
   7   2.0000      -0.747485       -20.3401
   8   2.0000      -0.745170       -20.2771
   9   2.0000      -0.712498       -19.3880
  10   2.0000      -0.638331       -17.3699
  11   2.0000      -0.593565       -16.1517
  12   2.0000      -0.568161       -15.4604
  13   2.0000      -0.544700       -14.8221
  14   2.0000      -0.501008       -13.6331
  15   2.0000      -0.492992       -13.4150
  16   2.0000      -0.484495       -13.1838
  17   0.0000      -0.204719        -5.5707
  18   0.0000      -0.154425        -4.2021
  19   0.0000      -0.146407        -3.9839
  20   0.0000      -0.138325        -3.7640
  21   0.0000      -0.112371        -3.0578

MULLIKEN ATOMIC CHARGES
-----------------------
   0 C :    0.641349
   1 C :   -0.195209
   2 H :   -0.181127
   3 H :    0.016800
   4 N :   -0.559167
   5 H :   -0.098577
   6 H :    0.029948
   7 C :    0.704989
   8 H :    0.304526
   9 H :    0.388735
  10 H :    0.137196
  11 H :    0.019188
  12 H :   -0.145411
  13 H :   -0.063239
Sum of atomic charges:    1.0000000

LOEWDIN ATOMIC CHARGES
----------------------
   0 C :    0.084704
   1 C :   -0.024791
   2 H :    0.052510
   3 H :    0.056083
   4 N :    0.345708
   5 H :    0.050021
   6 H :    0.040381
   7 C :    0.167318
   8 H :    0.106657
   9 H :    0.110374
  10 H :    0.017878
  11 H :    0.010305
  12 H :   -0.032163
  13 H :    0.015015

  Mayer bond orders larger than 0.100000
B(  0-C ,  1-C ) :   1.1691 B(  0-C ,  2-H ) :   0.9189 B(  0-C ,  3-H ) :   0.8638
B(  0-C ,  4-N ) :   0.8250 B(  0-C ,  5-H ) :   0.1054 B(  1-C ,  5-H ) :   0.9596
B(  1-C ,  6-H ) :   0.9034 B(  1-C ,  7-C ) :   1.2867 B(  1-C , 11-H ) :   0.1735
B(  1-C , 12-H ) :   0.1376 B(  1-C , 13-H ) :   0.1771 B(  2-H ,  4-N ) :   0.1527
B(  4-N ,  8-H ) :   0.7786 B(  4-N ,  9-H ) :   0.7712 B(  4-N , 10-H ) :   0.8746
B(  7-C , 11-H ) :   0.7665 B(  7-C , 12-H ) :   0.8255 B(  7-C , 13-H ) :   0.8131
B( 10-H , 12-H ) :   0.2918 B( 12-H , 13-H ) :   0.1014

Dispersion correction           -0.009680359
FINAL SINGLE POINT ENERGY      -174.490148946335

DIPOLE MOMENT
-------------
                                X             Y             Z
Electronic contribution:     -1.81493       0.50151       0.92608
Nuclear contribution   :      0.18509      -0.64781      -0.64735
                        -----------------------------------------
Total Dipole Moment    :     -1.62983      -0.14630       0.27873
                        -----------------------------------------
Magnitude (a.u.)       :      1.65996
Magnitude (Debye)      :      4.21927

Rotational constants in cm-1:     0.411855     0.178330     0.145265
Rotational constants in MHz : 12347.103052  5346.196801  4354.936890

                             ****ORCA TERMINATED NORMALLY****
TOTAL RUN TIME: 0 days 0 hours 0 minutes 4 seconds 889 msec
