                         Program Version 5.0.0 -  RELEASE  -
|  1> !PBE D3BJ RIJCOSX def2-SVPD def2/J TightSCF xyzfile
|  2>
|  3> *xyzfile 0 1 B.xyz
|  4>
|  5> %MaxCore 64000
|  6>
|  7> %pal nprocs 4
|  8> end
|  9>
| 10> %scf
| 11>   MaxIter 150
| 12> end
| 13>
| 14>
| 15>                          ****END OF INPUT****

CARTESIAN COORDINATES (ANGSTROEM)
---------------------------------
  C     -2.120502    0.885196    1.789506
  C     -0.778939    0.171966    1.804965
  H     -2.324193    1.472649    2.686078
  H     -2.187698    1.541272    0.919482
  N     -3.176900   -0.159484    1.610700
  H      0.015695    0.910767    1.939153
  H     -0.743553   -0.506827    2.665420
  C     -0.602493   -0.630712    0.492240
  H      0.313894   -1.240346    0.603498
  H     -0.363829    0.113322   -0.301169
  O     -1.712061   -1.376836    0.202535
  H     -4.064736    0.231272    1.286754
  H     -3.344073   -0.671511    2.484928
  H     -2.716861   -0.781886    0.935880

 Total Charge           Charge          ....    0
 Multiplicity           Mult            ....    1
 Number of Electrons    NEL             ....   42
 Basis Dimension        Dim             ....  175

ORBITAL ENERGIES
----------------

  NO   OCC          E(Eh)            E(eV)
   0   2.0000     -18.646033      -507.3843
   1   2.0000     -14.079999      -383.1363
   2   2.0000      -9.959458      -271.0106
   3   2.0000      -9.894899      -269.2539
   4   2.0000      -9.892322      -269.1838
   5   2.0000      -0.905360       -24.6361
   6   2.0000      -0.807113       -21.9627
   7   2.0000      -0.697011       -18.9666
   8   2.0000      -0.589142       -16.0314
   9   2.0000      -0.537783       -14.6338
  10   2.0000      -0.520727       -14.1697
  11   2.0000      -0.489151       -13.3105
  12   2.0000      -0.440609       -11.9896
  13   2.0000      -0.391687       -10.6583
  14   2.0000      -0.360872        -9.8198
  15   2.0000      -0.359110        -9.7719
  16   2.0000      -0.318820        -8.6755
  17   2.0000      -0.299157        -8.1405
  18   2.0000      -0.276984        -7.5371
  19   2.0000      -0.147076        -4.0021
  20   2.0000      -0.136746        -3.7210
  21   0.0000      -0.033721        -0.9176
  22   0.0000       0.007326         0.1994
  23   0.0000       0.010279         0.2797
  24   0.0000       0.036292         0.9875
  25   0.0000       0.056050         1.5252

MULLIKEN ATOMIC CHARGES
-----------------------
   0 C :    0.615801
   1 C :   -0.009472
   2 H :   -0.266741
   3 H :   -0.027896
   4 N :   -0.392194
   5 H :   -0.116517
   6 H :    0.012003
   7 C :    0.588720
   8 H :   -0.172396
   9 H :   -0.033930
  10 O :   -0.755358
  11 H :    0.229167
  12 H :    0.353227
  13 H :   -0.024414
Sum of atomic charges:    0.0000000

LOEWDIN ATOMIC CHARGES
----------------------
   0 C :    0.068684
   1 C :   -0.023896
   2 H :    0.022694
   3 H :    0.041814
   4 N :    0.308190
   5 H :    0.022202
   6 H :    0.024157
   7 C :   -0.081473
   8 H :    0.008203
   9 H :    0.008248
  10 O :   -0.364410
  11 H :    0.073292
  12 H :    0.081009
  13 H :   -0.188713

  Mayer bond orders larger than 0.100000
B(  0-C ,  1-C ) :   1.1785 B(  0-C ,  2-H ) :   0.8951 B(  0-C ,  3-H ) :   0.8343
B(  0-C ,  4-N ) :   0.8738 B(  0-C ,  5-H ) :   0.1144 B(  1-C ,  5-H ) :   0.9253
B(  1-C ,  6-H ) :   0.8768 B(  1-C ,  7-C ) :   1.1605 B(  1-C ,  8-H ) :   0.1461
B(  1-C ,  9-H ) :   0.1224 B(  2-H ,  4-N ) :   0.1521 B(  4-N , 11-H ) :   0.8774
B(  4-N , 12-H ) :   0.7915 B(  4-N , 13-H ) :   0.9778 B(  5-H ,  7-C ) :   0.1237
B(  7-C ,  8-H ) :   0.8979 B(  7-C ,  9-H ) :   0.8906 B(  7-C , 10-O ) :   1.0412
B( 10-O , 13-H ) :   0.5208

Dispersion correction           -0.010415622
FINAL SINGLE POINT ENERGY      -249.192435155902

DIPOLE MOMENT
-------------
                                X             Y             Z
Electronic contribution:     -1.48681      -1.50608      -0.84382
Nuclear contribution   :      0.08650       3.01678       2.47433
                        -----------------------------------------
Total Dipole Moment    :     -1.40031       1.51070       1.63051
                        -----------------------------------------
Magnitude (a.u.)       :      2.62710
Magnitude (Debye)      :      6.67755

Rotational constants in cm-1:     0.238796     0.156489     0.106146
Rotational constants in MHz :  7158.916762  4691.413084  3182.185740

                             ****ORCA TERMINATED NORMALLY****
TOTAL RUN TIME: 0 days 0 hours 0 minutes 10 seconds 604 msec
