                         Program Version 5.0.0 -  RELEASE  -
|  1> !PBE D3BJ RIJCOSX def2-SVPD def2/J TightSCF
|  2> *xyz 0 1
|  3> C         -2.12050        0.88520        1.78951
|  4> C         -0.77894        0.17197        1.80496
|  5> H          0.01569        0.91077        1.93915
|  6> H         -0.74355       -0.50683        2.66542
|  7> C         -0.60249       -0.63071        0.49224
|  8> H          0.31389       -1.24035        0.60350
|  9> H         -0.36383        0.11332       -0.30117
| 10> F         -1.71206       -1.37684        0.20253
| 11> H         -2.16160        1.54956        0.95175
| 12> H         -2.23761        1.44436        2.69423
| 13> H         -2.90702        0.16393        1.71165
| 14> *
| 15> %MaxCore 64000
| 16>
| 17> %pal nprocs 4
| 18> end
| 19> %scf
| 20>   MaxIter 150
| 21> end
| 22>
| 23>                          ****END OF INPUT****

CARTESIAN COORDINATES (ANGSTROEM)
---------------------------------
  C     -2.120500    0.885200    1.789510
  C     -0.778940    0.171970    1.804960
  H      0.015690    0.910770    1.939150
  H     -0.743550   -0.506830    2.665420
  C     -0.602490   -0.630710    0.492240
  H      0.313890   -1.240350    0.603500
  H     -0.363830    0.113320   -0.301170
  F     -1.712060   -1.376840    0.202530
  H     -2.161600    1.549560    0.951750
  H     -2.237610    1.444360    2.694230
  H     -2.907020    0.163930    1.711650

 Total Charge           Charge          ....    0
 Multiplicity           Mult            ....    1
 Number of Electrons    NEL             ....   34
 Basis Dimension        Dim             ....  139

ORBITAL ENERGIES
----------------

  NO   OCC          E(Eh)            E(eV)
   0   2.0000     -24.267215      -660.3445
   1   2.0000      -9.972028      -271.3527
   2   2.0000      -9.901836      -269.4427
   3   2.0000      -9.880415      -268.8598
   4   2.0000      -1.088798       -29.6277
   5   2.0000      -0.711668       -19.3655
   6   2.0000      -0.617034       -16.7904
   7   2.0000      -0.531682       -14.4678
   8   2.0000      -0.458940       -12.4884
   9   2.0000      -0.440713       -11.9924
  10   2.0000      -0.423857       -11.5337
  11   2.0000      -0.386795       -10.5252
  12   2.0000      -0.345319        -9.3966
  13   2.0000      -0.329589        -8.9686
  14   2.0000      -0.310385        -8.4460
  15   2.0000      -0.282525        -7.6879
  16   2.0000      -0.280687        -7.6379
  17   0.0000       0.003394         0.0924
  18   0.0000       0.028138         0.7657
  19   0.0000       0.038800         1.0558
  20   0.0000       0.047751         1.2994
  21   0.0000       0.067414         1.8344

MULLIKEN ATOMIC CHARGES
-----------------------
   0 C :    0.606000
   1 C :   -0.450902
   2 H :   -0.082423
   3 H :   -0.067972
   4 C :    0.731633
   5 H :   -0.121608
   6 H :   -0.022414
   7 F :   -0.407909
   8 H :   -0.057159
   9 H :   -0.112066
  10 H :   -0.015178
Sum of atomic charges:    0.0000000

LOEWDIN ATOMIC CHARGES
----------------------
   0 C :    0.111554
   1 C :   -0.068674
   2 H :    0.024929
   3 H :    0.023334
   4 C :    0.086811
   5 H :    0.026309
   6 H :    0.034162
   7 F :   -0.187547
   8 H :   -0.013460
   9 H :   -0.018646
  10 H :   -0.018771

  Mayer bond orders larger than 0.100000
B(  0-C ,  1-C ) :   1.3621 B(  0-C ,  8-H ) :   0.8072 B(  0-C ,  9-H ) :   0.8281
B(  0-C , 10-H ) :   0.8197 B(  1-C ,  2-H ) :   0.9488 B(  1-C ,  3-H ) :   0.9394
B(  1-C ,  4-C ) :   1.1813 B(  1-C ,  5-H ) :   0.1142 B(  1-C ,  6-H ) :   0.1202
B(  1-C ,  8-H ) :   0.1864 B(  1-C ,  9-H ) :   0.1923 B(  1-C , 10-H ) :   0.1786
B(  4-C ,  5-H ) :   0.9241 B(  4-C ,  6-H ) :   0.8758 B(  4-C ,  7-F ) :   0.7634

Dispersion correction           -0.006322559
FINAL SINGLE POINT ENERGY      -217.958412530901

DIPOLE MOMENT
-------------
                                X             Y             Z
Electronic contribution:     -1.04106      -4.85120      -3.46675
Nuclear contribution   :      1.51874       5.24801       3.69322
                        -----------------------------------------
Total Dipole Moment    :      0.47768       0.39681       0.22647
                        -----------------------------------------
Magnitude (a.u.)       :      0.66100
Magnitude (Debye)      :      1.68014

Rotational constants in cm-1:     0.461913     0.182549     0.147043
Rotational constants in MHz : 13847.794369  5472.673442  4408.246847

                             ****ORCA TERMINATED NORMALLY****
TOTAL RUN TIME: 0 days 0 hours 0 minutes 3 seconds 627 msec
