                         Program Version 5.0.0 -  RELEASE  -
|  1> !PBE D3BJ RIJCOSX def2-SVPD def2/J TightSCF
|  2> *xyz 0 1
|  3> C         -2.12050        0.88520        1.78951
|  4> C         -0.77894        0.17197        1.80496
|  5> H         -2.32419        1.47265        2.68608
|  6> H         -2.18770        1.54127        0.91948
|  7> C         -3.17690       -0.15948        1.61070
|  8> H          0.01569        0.91077        1.93915
|  9> H         -0.74355       -0.50683        2.66542
| 10> C         -0.60249       -0.63071        0.49224
| 11> H         -4.06474        0.23127        1.28675
| 12> H         -3.34407       -0.67151        2.48493
| 13> H         -2.71686       -0.78189        0.93588
| 14> H         -0.63812        0.03805       -0.34226
| 15> H         -1.38918       -1.35085        0.40604
| 16> H          0.34172       -1.13388        0.50602
| 17> *
| 18> %MaxCore 64000
| 19>
| 20> %pal nprocs 4
| 21> end
| 22>
| 23> %scf
| 24>   MaxIter 150
| 25> end
| 26>
| 27>
| 28>                          ****END OF INPUT****

CARTESIAN COORDINATES (ANGSTROEM)
---------------------------------
  C     -2.120500    0.885200    1.789510
  C     -0.778940    0.171970    1.804960
  H     -2.324190    1.472650    2.686080
  H     -2.187700    1.541270    0.919480
  C     -3.176900   -0.159480    1.610700
  H      0.015690    0.910770    1.939150
  H     -0.743550   -0.506830    2.665420
  C     -0.602490   -0.630710    0.492240
  H     -4.064740    0.231270    1.286750
  H     -3.344070   -0.671510    2.484930
  H     -2.716860   -0.781890    0.935880
  H     -0.638120    0.038050   -0.342260
  H     -1.389180   -1.350850    0.406040
  H      0.341720   -1.133880    0.506020

 Total Charge           Charge          ....    0
 Multiplicity           Mult            ....    1
 Number of Electrons    NEL             ....   34
 Basis Dimension        Dim             ....  160

ORBITAL ENERGIES
----------------

  NO   OCC          E(Eh)            E(eV)
   0   2.0000      -9.889547      -269.1082
   1   2.0000      -9.881839      -268.8985
   2   2.0000      -9.879011      -268.8216
   3   2.0000      -9.852756      -268.1071
   4   2.0000      -0.730827       -19.8868
   5   2.0000      -0.646196       -17.5839
   6   2.0000      -0.578632       -15.7454
   7   2.0000      -0.503242       -13.6939
   8   2.0000      -0.431611       -11.7447
   9   2.0000      -0.412574       -11.2267
  10   2.0000      -0.376159       -10.2358
  11   2.0000      -0.347863        -9.4658
  12   2.0000      -0.331412        -9.0182
  13   2.0000      -0.317771        -8.6470
  14   2.0000      -0.288320        -7.8456
  15   2.0000      -0.283021        -7.7014
  16   2.0000      -0.273035        -7.4297
  17   0.0000       0.010547         0.2870
  18   0.0000       0.032654         0.8886
  19   0.0000       0.038304         1.0423
  20   0.0000       0.042868         1.1665
  21   0.0000       0.075816         2.0631

MULLIKEN ATOMIC CHARGES
-----------------------
   0 C :   -0.268603
   1 C :   -0.190048
   2 H :   -0.253616
   3 H :    0.034655
   4 C :    1.619256
   5 H :   -0.168144
   6 H :   -0.001316
   7 C :    0.659292
   8 H :   -0.160607
   9 H :   -0.069491
  10 H :   -1.035844
  11 H :    0.008836
  12 H :   -0.091575
  13 H :   -0.082795
Sum of atomic charges:   -0.0000000

LOEWDIN ATOMIC CHARGES
----------------------
   0 C :   -0.079367
   1 C :   -0.065942
   2 H :    0.019523
   3 H :    0.025258
   4 C :    0.136268
   5 H :    0.015546
   6 H :    0.026312
   7 C :    0.130997
   8 H :   -0.028104
   9 H :   -0.020790
  10 H :   -0.091842
  11 H :   -0.007788
  12 H :   -0.042293
  13 H :   -0.017778

  Mayer bond orders larger than 0.100000
B(  0-C ,  1-C ) :   1.1490 B(  0-C ,  2-H ) :   1.0293 B(  0-C ,  3-H ) :   0.8567
B(  0-C ,  4-C ) :   1.1115 B(  0-C ,  6-H ) :   0.1214 B(  0-C ,  8-H ) :   0.1550
B(  0-C ,  9-H ) :   0.2474 B(  0-C , 10-H ) :   0.4223 B(  1-C ,  5-H ) :   0.9865
B(  1-C ,  6-H ) :   0.8870 B(  1-C ,  7-C ) :   1.2722 B(  1-C , 11-H ) :   0.2033
B(  1-C , 12-H ) :   0.1460 B(  1-C , 13-H ) :   0.1764 B(  3-H ,  4-C ) :   0.1048
B(  4-C ,  8-H ) :   0.4814 B(  4-C ,  9-H ) :   0.4623 B(  4-C , 10-H ) :   0.1522
B(  7-C , 10-H ) :   0.1238 B(  7-C , 11-H ) :   0.7611 B(  7-C , 12-H ) :   0.7821
B(  7-C , 13-H ) :   0.7836 B(  8-H ,  9-H ) :  -0.1173 B(  8-H , 10-H ) :   0.2819
B(  9-H , 10-H ) :   0.2698 B( 10-H , 12-H ) :   0.4255

Dispersion correction           -0.009684389
FINAL SINGLE POINT ENERGY      -158.085424916775

DIPOLE MOMENT
-------------
                                X             Y             Z
Electronic contribution:      0.31210       0.71410       0.58760
Nuclear contribution   :     -0.27446      -0.71220      -0.58629
                        -----------------------------------------
Total Dipole Moment    :      0.03764       0.00190       0.00132
                        -----------------------------------------
Magnitude (a.u.)       :      0.03771
Magnitude (Debye)      :      0.09585

Rotational constants in cm-1:     0.419751     0.185753     0.151088
Rotational constants in MHz : 12583.819928  5568.732483  4529.512437

                             ****ORCA TERMINATED NORMALLY****
TOTAL RUN TIME: 0 days 0 hours 0 minutes 5 seconds 165 msec
