                         Program Version 5.0.0 -  RELEASE  -
|  1> !M062X D3Zero RIJCOSX def2-SVPD def2/J TightSCF
|  2> *xyz -1 1
|  3> C         -0.91495        0.61511        2.50554
|  4> C         -0.05915        1.50352        3.41058
|  5> H          0.36536        2.34431        2.86116
|  6> H         -0.69226        1.92021        4.19898
|  7> C          1.08303        0.74964        4.08571
|  8> O          2.22817        1.26348        4.01983
|  9> O          0.81003       -0.34541        4.63627
| 10> C         -0.13074       -0.19398        1.47076
| 11> H         -1.64796        1.24596        1.99108
| 12> H         -1.47818       -0.08105        3.13042
| 13> H         -0.80952       -0.78099        0.88803
| 14> H          0.55985       -0.83974        1.97175
| 15> H          0.40595        0.47288        0.82877
| 16> *
| 17>
| 18> %MaxCore 64000
| 19>
| 20> %pal nprocs 4
| 21> end
| 22>
| 23> %scf
| 24>   MaxIter 150
| 25> end
| 26>
| 27>
| 28>                          ****END OF INPUT****

CARTESIAN COORDINATES (ANGSTROEM)
---------------------------------
  C     -0.914950    0.615110    2.505540
  C     -0.059150    1.503520    3.410580
  H      0.365360    2.344310    2.861160
  H     -0.692260    1.920210    4.198980
  C      1.083030    0.749640    4.085710
  O      2.228170    1.263480    4.019830
  O      0.810030   -0.345410    4.636270
  C     -0.130740   -0.193980    1.470760
  H     -1.647960    1.245960    1.991080
  H     -1.478180   -0.081050    3.130420
  H     -0.809520   -0.780990    0.888030
  H      0.559850   -0.839740    1.971750
  H      0.405950    0.472880    0.828770

 Total Charge           Charge          ....   -1
 Multiplicity           Mult            ....    1
 Number of Electrons    NEL             ....   48
 Basis Dimension        Dim             ....  182

ORBITAL ENERGIES
----------------

  NO   OCC          E(Eh)            E(eV)
   0   2.0000     -19.375130      -527.2241
   1   2.0000     -19.374499      -527.2069
   2   2.0000     -10.440414      -284.0981
   3   2.0000     -10.401875      -283.0494
   4   2.0000     -10.394646      -282.8527
   5   2.0000     -10.376686      -282.3640
   6   2.0000      -0.932176       -25.3658
   7   2.0000      -0.831808       -22.6347
   8   2.0000      -0.727371       -19.7928
   9   2.0000      -0.627439       -17.0735
  10   2.0000      -0.523783       -14.2529
  11   2.0000      -0.400518       -10.8987
  12   2.0000      -0.374338       -10.1863
  13   2.0000      -0.363053        -9.8792
  14   2.0000      -0.325773        -8.8647
  15   2.0000      -0.310075        -8.4376
  16   2.0000      -0.284318        -7.7367
  17   2.0000      -0.275011        -7.4834
  18   2.0000      -0.261498        -7.1157
  19   2.0000      -0.238812        -6.4984
  20   2.0000      -0.229272        -6.2388
  21   2.0000      -0.114502        -3.1158
  22   2.0000      -0.112958        -3.0737
  23   2.0000      -0.105653        -2.8750
  24   0.0000       0.165030         4.4907
  25   0.0000       0.187332         5.0976
  26   0.0000       0.204834         5.5738
  27   0.0000       0.214501         5.8369
  28   0.0000       0.241890         6.5822

MULLIKEN ATOMIC CHARGES
-----------------------
   0 C :   -0.408195
   1 C :    0.183869
   2 H :   -0.044349
   3 H :   -0.051477
   4 C :    0.541612
   5 O :   -0.743376
   6 O :   -0.797257
   7 C :    0.644060
   8 H :   -0.205196
   9 H :   -0.001462
  10 H :   -0.064920
  11 H :   -0.049758
  12 H :   -0.003550
Sum of atomic charges:   -1.0000000

LOEWDIN ATOMIC CHARGES
----------------------
   0 C :   -0.093247
   1 C :   -0.002828
   2 H :    0.004119
   3 H :    0.012740
   4 C :   -0.297659
   5 O :   -0.337306
   6 O :   -0.330386
   7 C :    0.115684
   8 H :   -0.002068
   9 H :    0.011408
  10 H :   -0.036273
  11 H :   -0.020693
  12 H :   -0.023491

  Mayer bond orders larger than 0.100000
B(  0-C ,  1-C ) :   1.1852 B(  0-C ,  2-H ) :   0.1406 B(  0-C ,  3-H ) :   0.1159
B(  0-C ,  7-C ) :   1.3313 B(  0-C ,  8-H ) :   1.0061 B(  0-C ,  9-H ) :   0.8992
B(  0-C , 10-H ) :   0.2135 B(  0-C , 11-H ) :   0.2229 B(  0-C , 12-H ) :   0.2061
B(  1-C ,  2-H ) :   0.8785 B(  1-C ,  3-H ) :   0.8471 B(  1-C ,  4-C ) :   0.9898
B(  1-C ,  9-H ) :   0.1201 B(  2-H ,  4-C ) :   0.2197 B(  4-C ,  5-O ) :   1.3562
B(  4-C ,  6-O ) :   1.3905 B(  7-C , 10-H ) :   0.7597 B(  7-C , 11-H ) :   0.8478
B(  7-C , 12-H ) :   0.7869

Dispersion correction           -0.000197183
FINAL SINGLE POINT ENERGY      -306.800635344876

DIPOLE MOMENT
-------------
                                X             Y             Z
Electronic contribution:      4.59645       0.20807       5.50968
Nuclear contribution   :     -6.45806       0.15825      -7.12052
                        -----------------------------------------
Total Dipole Moment    :     -1.86162       0.36631      -1.61085
                        -----------------------------------------
Magnitude (a.u.)       :      2.48890
Magnitude (Debye)      :      6.32628

Rotational constants in cm-1:     0.199323     0.080770     0.077827
Rotational constants in MHz :  5975.562678  2421.415024  2333.195390

                             ****ORCA TERMINATED NORMALLY****
TOTAL RUN TIME: 0 days 0 hours 0 minutes 19 seconds 537 msec
