                         Program Version 5.0.0 -  RELEASE  -
|  1> !M062X D3Zero RIJCOSX def2-SVPD def2/J TightSCF
|  2> *xyz 1 1
|  3> C          4.60295       -2.44010        2.63478
|  4> C          3.86085       -1.59157        3.62289
|  5> N          2.75650       -2.04616        4.16633
|  6> N          4.25433       -0.36291        3.86046
|  7> H          3.56526        0.31099        4.16898
|  8> H          5.05429       -0.01606        3.33784
|  9> H          2.43970       -2.97389        3.89740
| 10> H          2.06687       -1.41253        4.54981
| 11> C          3.74469       -2.58056        1.36188
| 12> C          3.20372       -1.25600        0.82621
| 13> H          2.89894       -3.23929        1.58307
| 14> H          4.33496       -3.09552        0.60019
| 15> H          5.56156       -1.97135        2.40708
| 16> H          4.81050       -3.42255        3.06310
| 17> H          2.62184       -1.43789       -0.05313
| 18> H          4.02069       -0.60826        0.58562
| 19> H          2.58975       -0.79418        1.57097
| 20> *
| 21>
| 22> %MaxCore 64000
| 23>
| 24> %pal nprocs 4
| 25> end
| 26>
| 27> %scf
| 28>   MaxIter 150
| 29> end
| 30>
| 31>
| 32>                          ****END OF INPUT****

CARTESIAN COORDINATES (ANGSTROEM)
---------------------------------
  C      4.602950   -2.440100    2.634780
  C      3.860850   -1.591570    3.622890
  N      2.756500   -2.046160    4.166330
  N      4.254330   -0.362910    3.860460
  H      3.565260    0.310990    4.168980
  H      5.054290   -0.016060    3.337840
  H      2.439700   -2.973890    3.897400
  H      2.066870   -1.412530    4.549810
  C      3.744690   -2.580560    1.361880
  C      3.203720   -1.256000    0.826210
  H      2.898940   -3.239290    1.583070
  H      4.334960   -3.095520    0.600190
  H      5.561560   -1.971350    2.407080
  H      4.810500   -3.422550    3.063100
  H      2.621840   -1.437890   -0.053130
  H      4.020690   -0.608260    0.585620
  H      2.589750   -0.794180    1.570970

 Total Charge           Charge          ....    1
 Multiplicity           Mult            ....    1
 Number of Electrons    NEL             ....   48
 Basis Dimension        Dim             ....  208

ORBITAL ENERGIES
----------------

  NO   OCC          E(Eh)            E(eV)
   0   2.0000     -15.006788      -408.3555
   1   2.0000     -15.006459      -408.3465
   2   2.0000     -10.875748      -295.9441
   3   2.0000     -10.748252      -292.4748
   4   2.0000     -10.719029      -291.6796
   5   2.0000     -10.686491      -290.7942
   6   2.0000      -1.308096       -35.5951
   7   2.0000      -1.202120       -32.7113
   8   2.0000      -1.068602       -29.0781
   9   2.0000      -0.976270       -26.5657
  10   2.0000      -0.915302       -24.9066
  11   2.0000      -0.863075       -23.4855
  12   2.0000      -0.846850       -23.0439
  13   2.0000      -0.810738       -22.0613
  14   2.0000      -0.765924       -20.8418
  15   2.0000      -0.740328       -20.1454
  16   2.0000      -0.699101       -19.0235
  17   2.0000      -0.660144       -17.9634
  18   2.0000      -0.642781       -17.4910
  19   2.0000      -0.633830       -17.2474
  20   2.0000      -0.572650       -15.5826
  21   2.0000      -0.570124       -15.5139
  22   2.0000      -0.559743       -15.2314
  23   2.0000      -0.554864       -15.0986
  24   0.0000      -0.175791        -4.7835
  25   0.0000      -0.133647        -3.6367
  26   0.0000      -0.096449        -2.6245
  27   0.0000      -0.092035        -2.5044
  28   0.0000      -0.068756        -1.8709

MULLIKEN ATOMIC CHARGES
-----------------------
   0 C :    0.292211
   1 C :    0.433880
   2 N :    0.006695
   3 N :   -0.040891
   4 H :   -0.046522
   5 H :    0.115719
   6 H :    0.099681
   7 H :   -0.096350
   8 C :   -0.354932
   9 C :    0.760944
  10 H :    0.023814
  11 H :   -0.146484
  12 H :    0.052239
  13 H :    0.004851
  14 H :   -0.084780
  15 H :    0.004719
  16 H :   -0.024793
Sum of atomic charges:    1.0000000

LOEWDIN ATOMIC CHARGES
----------------------
   0 C :    0.054016
   1 C :   -0.066648
   2 N :    0.285054
   3 N :    0.284247
   4 H :    0.052256
   5 H :    0.054198
   6 H :    0.054749
   7 H :    0.053226
   8 C :   -0.039549
   9 C :    0.143866
  10 H :    0.024251
  11 H :    0.041845
  12 H :    0.040034
  13 H :    0.049634
  14 H :    0.002796
  15 H :   -0.004697
  16 H :   -0.029277

  Mayer bond orders larger than 0.100000
B(  0-C ,  1-C ) :   1.2079 B(  0-C ,  8-C ) :   1.1212 B(  0-C , 12-H ) :   0.7777
B(  0-C , 13-H ) :   0.8346 B(  1-C ,  2-N ) :   1.1180 B(  1-C ,  3-N ) :   1.0734
B(  1-C ,  4-H ) :  -0.1243 B(  1-C ,  7-H ) :  -0.1167 B(  1-C , 12-H ) :   0.1996
B(  1-C , 13-H ) :   0.2054 B(  2-N ,  3-N ) :   0.1585 B(  2-N ,  6-H ) :   1.0124
B(  2-N ,  7-H ) :   1.2300 B(  3-N ,  4-H ) :   1.1964 B(  3-N ,  5-H ) :   0.9877
B(  4-H ,  5-H ) :  -0.1502 B(  6-H ,  7-H ) :  -0.1691 B(  8-C ,  9-C ) :   1.3398
B(  8-C , 10-H ) :   0.8991 B(  8-C , 11-H ) :   1.0367 B(  8-C , 12-H ) :   0.1301
B(  8-C , 14-H ) :   0.2138 B(  8-C , 15-H ) :   0.1998 B(  8-C , 16-H ) :   0.2330
B(  9-C , 14-H ) :   0.7914 B(  9-C , 15-H ) :   0.7625 B(  9-C , 16-H ) :   0.7970
B( 15-H , 16-H ) :   0.1036

Dispersion correction           -0.000325423
FINAL SINGLE POINT ENERGY      -268.020982903317

DIPOLE MOMENT
-------------
                                X             Y             Z
Electronic contribution:      0.49676       0.56691       5.18868
Nuclear contribution   :     -0.82989      -0.08664      -4.26094
                        -----------------------------------------
Total Dipole Moment    :     -0.33313       0.48027       0.92774
                        -----------------------------------------
Magnitude (a.u.)       :      1.09651
Magnitude (Debye)      :      2.78711

Rotational constants in cm-1:     0.166042     0.084809     0.078793
Rotational constants in MHz :  4977.819890  2542.513379  2362.161076

                             ****ORCA TERMINATED NORMALLY****
TOTAL RUN TIME: 0 days 0 hours 0 minutes 24 seconds 513 msec
