                         Program Version 5.0.0 -  RELEASE  -
|  1> !M062X D3Zero RIJCOSX def2-SVPD def2/J TightSCF xyzfile
|  2>
|  3> *xyzfile 0 1 B.xyz
|  4>
|  5> %MaxCore 64000
|  6>
|  7> %pal nprocs 4
|  8> end
|  9>
| 10> %scf
| 11>   MaxIter 150
| 12> end
| 13>
| 14>
| 15>                          ****END OF INPUT****

CARTESIAN COORDINATES (ANGSTROEM)
---------------------------------
  C      4.602954   -2.440100    2.634780
  C     -0.914947    0.615112    2.505538
  C     -0.059146    1.503524    3.410578
  H      0.365364    2.344315    2.861161
  H     -0.692261    1.920207    4.198985
  C      1.083027    0.749640    4.085705
  C      3.860851   -1.591565    3.622893
  N      2.756502   -2.046159    4.166333
  N      4.254325   -0.362905    3.860455
  H      3.565256    0.310994    4.168983
  H      5.054292   -0.016059    3.337838
  H      2.439696   -2.973894    3.897395
  H      2.066869   -1.412532    4.549813
  O      2.228167    1.263475    4.019826
  O      0.810034   -0.345411    4.636269
  C      3.744685   -2.580557    1.361882
  C      0.772139    0.636882    0.562129
  C     -0.130740   -0.193985    1.470763
  H     -0.840563   -0.760165    0.856377
  H      0.466691   -0.938942    2.006959
  H     -1.647961    1.245963    1.991076
  H     -1.478180   -0.081046    3.130424
  C      3.203721   -1.256004    0.826211
  H      2.898939   -3.239289    1.583074
  H      4.334962   -3.095523    0.600188
  C      2.107815   -1.442385   -0.216865
  H      2.786775   -0.672760    1.650711
  H      4.021008   -0.652993    0.414046
  C      1.390662   -0.145912   -0.602422
  H      1.372179   -2.152184    0.176151
  H      2.523302   -1.906787   -1.117115
  H      1.561361    1.100094    1.161831
  H      0.195516    1.468325    0.142758
  H      0.602893   -0.398214   -1.319716
  H      2.087247    0.508272   -1.137335
  H      5.561557   -1.971347    2.407084
  H      4.810498   -3.422552    3.063099

 Total Charge           Charge          ....    0
 Multiplicity           Mult            ....    1
 Number of Electrons    NEL             ....  118
 Basis Dimension        Dim             ....  482

ORBITAL ENERGIES
----------------

  NO   OCC          E(Eh)            E(eV)
   0   2.0000     -19.563291      -532.3442
   1   2.0000     -19.561036      -532.2828
   2   2.0000     -14.805905      -402.8892
   3   2.0000     -14.805580      -402.8803
   4   2.0000     -10.693892      -290.9956
   5   2.0000     -10.620613      -289.0016
   6   2.0000     -10.603505      -288.5360
   7   2.0000     -10.584996      -288.0324
   8   2.0000     -10.560624      -287.3692
   9   2.0000     -10.551506      -287.1211
  10   2.0000     -10.543333      -286.8987
  11   2.0000     -10.532773      -286.6113
  12   2.0000     -10.529756      -286.5292
  13   2.0000     -10.525501      -286.4135
  14   2.0000     -10.515824      -286.1501
  15   2.0000      -1.128921       -30.7195
  16   2.0000      -1.113697       -30.3052
  17   2.0000      -1.027785       -27.9674
  18   2.0000      -1.006875       -27.3985
  19   2.0000      -0.931306       -25.3421
  20   2.0000      -0.896066       -24.3832
  21   2.0000      -0.864534       -23.5252
  22   2.0000      -0.821486       -22.3538
  23   2.0000      -0.781351       -21.2616
  24   2.0000      -0.740866       -20.1600
  25   2.0000      -0.723620       -19.6907
  26   2.0000      -0.699534       -19.0353
  27   2.0000      -0.664760       -18.0890
  28   2.0000      -0.658068       -17.9069
  29   2.0000      -0.648287       -17.6408
  30   2.0000      -0.622036       -16.9265
  31   2.0000      -0.586947       -15.9716
  32   2.0000      -0.579757       -15.7760
  33   2.0000      -0.557426       -15.1683
  34   2.0000      -0.549454       -14.9514
  35   2.0000      -0.535941       -14.5837
  36   2.0000      -0.528113       -14.3707
  37   2.0000      -0.513471       -13.9723
  38   2.0000      -0.502569       -13.6756
  39   2.0000      -0.491695       -13.3797
  40   2.0000      -0.485141       -13.2014
  41   2.0000      -0.475946       -12.9512
  42   2.0000      -0.473471       -12.8838
  43   2.0000      -0.466110       -12.6835
  44   2.0000      -0.444037       -12.0829
  45   2.0000      -0.438617       -11.9354
  46   2.0000      -0.430866       -11.7245
  47   2.0000      -0.427050       -11.6206
  48   2.0000      -0.414877       -11.2894
  49   2.0000      -0.396689       -10.7945
  50   2.0000      -0.393047       -10.6954
  51   2.0000      -0.385001       -10.4764
  52   2.0000      -0.369748       -10.0613
  53   2.0000      -0.364486        -9.9182
  54   2.0000      -0.361573        -9.8389
  55   2.0000      -0.354295        -9.6409
  56   2.0000      -0.302670        -8.2361
  57   2.0000      -0.297205        -8.0874
  58   2.0000      -0.293862        -7.9964
  59   0.0000      -0.000522        -0.0142
  60   0.0000       0.015118         0.4114
  61   0.0000       0.032772         0.8918
  62   0.0000       0.043655         1.1879
  63   0.0000       0.050154         1.3648

MULLIKEN ATOMIC CHARGES
-----------------------
   0 C :    0.583505
   1 C :    0.537464
   2 C :    0.228920
   3 H :    0.169864
   4 H :   -0.206745
   5 C :    0.590009
   6 C :    0.289819
   7 N :    0.366507
   8 N :    0.321197
   9 H :   -0.420323
  10 H :    0.119880
  11 H :    0.099091
  12 H :   -0.534903
  13 O :   -0.726015
  14 O :   -0.805394
  15 C :    0.241484
  16 C :   -0.186964
  17 C :   -0.145296
  18 H :   -0.213014
  19 H :   -0.052140
  20 H :   -0.102708
  21 H :    0.035000
  22 C :    0.201647
  23 H :    0.024849
  24 H :   -0.295810
  25 C :   -0.016063
  26 H :   -0.403852
  27 H :   -0.010886
  28 C :    0.868435
  29 H :    0.185647
  30 H :   -0.392414
  31 H :    0.204074
  32 H :   -0.581483
  33 H :    0.082293
  34 H :   -0.028614
  35 H :    0.022790
  36 H :   -0.049848
Sum of atomic charges:   -0.0000000

LOEWDIN ATOMIC CHARGES
----------------------
   0 C :    0.042115
   1 C :   -0.024478
   2 C :    0.035933
   3 H :    0.016951
   4 H :    0.032157
   5 C :   -0.181957
   6 C :   -0.070397
   7 N :    0.306239
   8 N :    0.294130
   9 H :   -0.089154
  10 H :    0.038710
  11 H :    0.040193
  12 H :   -0.091158
  13 O :   -0.257979
  14 O :   -0.255694
  15 C :   -0.012174
  16 C :   -0.032137
  17 C :   -0.034317
  18 H :    0.025732
  19 H :    0.004465
  20 H :    0.019955
  21 H :    0.023207
  22 C :   -0.027208
  23 H :    0.019508
  24 H :    0.030740
  25 C :   -0.036767
  26 H :   -0.011232
  27 H :    0.038566
  28 C :   -0.029616
  29 H :    0.017271
  30 H :    0.024212
  31 H :    0.011599
  32 H :    0.025494
  33 H :    0.022611
  34 H :    0.022344
  35 H :    0.027550
  36 H :    0.034587

  Mayer bond orders larger than 0.100000
B(  0-C ,  6-C ) :   1.1742 B(  0-C , 15-C ) :   1.1127 B(  0-C , 35-H ) :   0.7101
B(  0-C , 36-H ) :   0.6620 B(  1-C ,  2-C ) :   1.1805 B(  1-C ,  4-H ) :   0.1405
B(  1-C , 17-C ) :   1.2325 B(  1-C , 20-H ) :   0.7660 B(  1-C , 21-H ) :   0.6282
B(  1-C , 28-C ) :   0.1359 B(  2-C ,  3-H ) :   0.8112 B(  2-C ,  4-H ) :   0.7296
B(  2-C ,  5-C ) :   1.1073 B(  2-C , 17-C ) :   0.1237 B(  2-C , 20-H ) :   0.1474
B(  2-C , 21-H ) :   0.1089 B(  3-H ,  4-H ) :  -0.1189 B(  3-H ,  5-C ) :   0.2002
B(  4-H ,  5-C ) :   0.2314 B(  5-C , 13-O ) :   1.2359 B(  5-C , 14-O ) :   1.1360
B(  6-C ,  7-N ) :   1.0366 B(  6-C ,  8-N ) :   1.0646 B(  6-C , 35-H ) :   0.2531
B(  6-C , 36-H ) :   0.2444 B(  7-N ,  8-N ) :   0.1675 B(  7-N , 11-H ) :   0.9962
B(  7-N , 12-H ) :   1.2029 B(  8-N ,  9-H ) :   1.1465 B(  8-N , 10-H ) :   0.9902
B(  9-H , 10-H ) :  -0.2633 B(  9-H , 13-O ) :   0.1441 B( 11-H , 12-H ) :  -0.2931
B( 12-H , 14-O ) :   0.2194 B( 13-O , 14-O ) :   0.1345 B( 15-C , 22-C ) :   1.1490
B( 15-C , 23-H ) :   0.8563 B( 15-C , 24-H ) :   0.9358 B( 15-C , 26-H ) :   0.1028
B( 15-C , 27-H ) :   0.1081 B( 15-C , 35-H ) :   0.1301 B( 15-C , 36-H ) :   0.1553
B( 16-C , 17-C ) :   1.2698 B( 16-C , 18-H ) :   0.1812 B( 16-C , 19-H ) :   0.1352
B( 16-C , 25-C ) :   0.1772 B( 16-C , 28-C ) :   1.0603 B( 16-C , 31-H ) :   0.8028
B( 16-C , 32-H ) :   1.2182 B( 16-C , 33-H ) :   0.1367 B( 16-C , 34-H ) :   0.2860
B( 17-C , 18-H ) :   0.8904 B( 17-C , 19-H ) :   0.9504 B( 17-C , 20-H ) :   0.2017
B( 17-C , 21-H ) :   0.2516 B( 17-C , 25-C ) :   0.1079 B( 17-C , 31-H ) :   0.1007
B( 17-C , 32-H ) :   0.1039 B( 20-H , 21-H ) :  -0.1647 B( 22-C , 23-H ) :   0.1267
B( 22-C , 24-H ) :   0.2508 B( 22-C , 25-C ) :   1.1836 B( 22-C , 26-H ) :   0.9670
B( 22-C , 27-H ) :   0.7023 B( 22-C , 29-H ) :   0.1340 B( 22-C , 30-H ) :   0.2288
B( 22-C , 31-H ) :  -0.1078 B( 25-C , 27-H ) :   0.1051 B( 25-C , 28-C ) :   1.1362
B( 25-C , 29-H ) :   0.7889 B( 25-C , 30-H ) :   1.0318 B( 25-C , 33-H ) :   0.2283
B( 25-C , 34-H ) :   0.1409 B( 26-H , 27-H ) :   0.1957 B( 26-H , 31-H ) :   0.2468
B( 26-H , 32-H ) :  -0.1633 B( 28-C , 32-H ) :  -0.1661 B( 28-C , 33-H ) :   0.6407
B( 28-C , 34-H ) :   0.6177 B( 33-H , 34-H ) :  -0.1524

Dispersion correction           -0.002562175
FINAL SINGLE POINT ENERGY      -691.635757526441

DIPOLE MOMENT
-------------
                                X             Y             Z
Electronic contribution:      3.44863       1.59164      12.96640
Nuclear contribution   :     -1.50655      -3.48027     -14.35034
                        -----------------------------------------
Total Dipole Moment    :      1.94207      -1.88864      -1.38394
                        -----------------------------------------
Magnitude (a.u.)       :      3.04202
Magnitude (Debye)      :      7.73221

Rotational constants in cm-1:     0.021781     0.017296     0.011403
Rotational constants in MHz :   652.971749   518.510612   341.853154

                             ****ORCA TERMINATED NORMALLY****
TOTAL RUN TIME: 0 days 0 hours 4 minutes 32 seconds 914 msec
