                         Program Version 5.0.0 -  RELEASE  -
|  1> !M062X D3Zero RIJCOSX def2-SVPD def2/J TightSCF
|  2> *xyz 0 1
|  3> C         -0.91495        0.61511        2.50554
|  4> C         -0.05915        1.50352        3.41058
|  5> H          0.36536        2.34431        2.86116
|  6> H         -0.69226        1.92021        4.19898
|  7> C          1.08303        0.74964        4.08571
|  8> F          2.22817        1.26348        4.01983
|  9> O          0.81003       -0.34541        4.63627
| 10> C         -0.13074       -0.19398        1.47076
| 11> H         -1.64796        1.24596        1.99108
| 12> H         -1.47818       -0.08105        3.13042
| 13> H         -0.80952       -0.78099        0.88803
| 14> H          0.55985       -0.83974        1.97175
| 15> H          0.40595        0.47288        0.82877
| 16> *
| 17>
| 18> %MaxCore 64000
| 19>
| 20> %pal nprocs 4
| 21> end
| 22>
| 23> %scf
| 24>   MaxIter 150
| 25> end
| 26>
| 27>
| 28>                          ****END OF INPUT****

CARTESIAN COORDINATES (ANGSTROEM)
---------------------------------
  C     -0.914950    0.615110    2.505540
  C     -0.059150    1.503520    3.410580
  H      0.365360    2.344310    2.861160
  H     -0.692260    1.920210    4.198980
  C      1.083030    0.749640    4.085710
  F      2.228170    1.263480    4.019830
  O      0.810030   -0.345410    4.636270
  C     -0.130740   -0.193980    1.470760
  H     -1.647960    1.245960    1.991080
  H     -1.478180   -0.081050    3.130420
  H     -0.809520   -0.780990    0.888030
  H      0.559850   -0.839740    1.971750
  H      0.405950    0.472880    0.828770

 Total Charge           Charge          ....    0
 Multiplicity           Mult            ....    1
 Number of Electrons    NEL             ....   48
 Basis Dimension        Dim             ....  182

ORBITAL ENERGIES
----------------

  NO   OCC          E(Eh)            E(eV)
   0   2.0000     -25.328931      -689.2353
   1   2.0000     -19.649691      -534.6953
   2   2.0000     -10.739448      -292.2352
   3   2.0000     -10.582584      -287.9667
   4   2.0000     -10.565428      -287.4999
   5   2.0000     -10.542965      -286.8887
   6   2.0000      -1.445058       -39.3220
   7   2.0000      -1.144976       -31.1564
   8   2.0000      -0.906241       -24.6601
   9   2.0000      -0.819904       -22.3107
  10   2.0000      -0.757143       -20.6029
  11   2.0000      -0.694804       -18.9066
  12   2.0000      -0.644444       -17.5362
  13   2.0000      -0.625278       -17.0147
  14   2.0000      -0.593427       -16.1480
  15   2.0000      -0.539120       -14.6702
  16   2.0000      -0.529739       -14.4149
  17   2.0000      -0.487700       -13.2710
  18   2.0000      -0.479228       -13.0405
  19   2.0000      -0.438719       -11.9382
  20   2.0000      -0.420848       -11.4519
  21   2.0000      -0.412952       -11.2370
  22   2.0000      -0.407389       -11.0856
  23   2.0000      -0.372105       -10.1255
  24   0.0000       0.008711         0.2371
  25   0.0000       0.030948         0.8421
  26   0.0000       0.055493         1.5100
  27   0.0000       0.061532         1.6744
  28   0.0000       0.075917         2.0658

MULLIKEN ATOMIC CHARGES
-----------------------
   0 C :   -0.389237
   1 C :    0.046823
   2 H :    0.029112
   3 H :    0.036377
   4 C :    0.827121
   5 F :   -0.401322
   6 O :   -0.581127
   7 C :    0.634283
   8 H :   -0.148473
   9 H :    0.025968
  10 H :   -0.028743
  11 H :   -0.062206
  12 H :    0.011425
Sum of atomic charges:   -0.0000000

LOEWDIN ATOMIC CHARGES
----------------------
   0 C :   -0.063874
   1 C :    0.040133
   2 H :    0.026365
   3 H :    0.042482
   4 C :    0.007676
   5 F :   -0.048823
   6 O :   -0.141672
   7 C :    0.133795
   8 H :    0.024729
   9 H :    0.027507
  10 H :   -0.013598
  11 H :   -0.020744
  12 H :   -0.013976

  Mayer bond orders larger than 0.100000
B(  0-C ,  1-C ) :   1.2228 B(  0-C ,  2-H ) :   0.1351 B(  0-C ,  3-H ) :   0.1127
B(  0-C ,  7-C ) :   1.3573 B(  0-C ,  8-H ) :   0.9984 B(  0-C ,  9-H ) :   0.9021
B(  0-C , 10-H ) :   0.1995 B(  0-C , 11-H ) :   0.2049 B(  0-C , 12-H ) :   0.1945
B(  1-C ,  2-H ) :   0.8901 B(  1-C ,  3-H ) :   0.8520 B(  1-C ,  4-C ) :   1.0797
B(  1-C ,  9-H ) :   0.1103 B(  2-H ,  4-C ) :   0.1110 B(  4-C ,  5-F ) :   0.6602
B(  4-C ,  6-O ) :   1.7584 B(  7-C , 10-H ) :   0.7757 B(  7-C , 11-H ) :   0.8530
B(  7-C , 12-H ) :   0.7927

Dispersion correction           -0.000198211
FINAL SINGLE POINT ENERGY      -331.331381421318

DIPOLE MOMENT
-------------
                                X             Y             Z
Electronic contribution:      7.94965       1.46424       7.20440
Nuclear contribution   :     -8.39104      -0.60591      -7.87060
                        -----------------------------------------
Total Dipole Moment    :     -0.44139       0.85833      -0.66620
                        -----------------------------------------
Magnitude (a.u.)       :      1.17277
Magnitude (Debye)      :      2.98094

Rotational constants in cm-1:     0.194210     0.077092     0.074391
Rotational constants in MHz :  5822.269139  2311.145895  2230.180895

                             ****ORCA TERMINATED NORMALLY****
TOTAL RUN TIME: 0 days 0 hours 0 minutes 20 seconds 647 msec
