                         Program Version 5.0.0 -  RELEASE  -
|  1> !M062X D3Zero RIJCOSX def2-SVPD def2/J TightSCF
|  2> *xyz 0 1
|  3> C          4.60295       -2.44010        2.63478
|  4> C          3.86085       -1.59157        3.62289
|  5> C          2.75650       -2.04616        4.16633
|  6> N          4.25433       -0.36291        3.86046
|  7> H          3.56526        0.31099        4.16898
|  8> H          5.05429       -0.01606        3.33784
|  9> H          2.43970       -2.97389        3.89740
| 10> H          2.06687       -1.41253        4.54981
| 11> C          3.74469       -2.58056        1.36188
| 12> C          3.20372       -1.25600        0.82621
| 13> H          2.89894       -3.23929        1.58307
| 14> H          4.33496       -3.09552        0.60019
| 15> H          5.56156       -1.97135        2.40708
| 16> H          4.81050       -3.42255        3.06310
| 17> H          2.62184       -1.43789       -0.05313
| 18> H          4.02069       -0.60826        0.58562
| 19> H          2.58975       -0.79418        1.57097
| 20> *
| 21>
| 22> %MaxCore 64000
| 23>
| 24> %pal nprocs 4
| 25> end
| 26>
| 27> %scf
| 28>   MaxIter 150
| 29> end
| 30>
| 31>
| 32>                          ****END OF INPUT****

CARTESIAN COORDINATES (ANGSTROEM)
---------------------------------
  C      4.602950   -2.440100    2.634780
  C      3.860850   -1.591570    3.622890
  C      2.756500   -2.046160    4.166330
  N      4.254330   -0.362910    3.860460
  H      3.565260    0.310990    4.168980
  H      5.054290   -0.016060    3.337840
  H      2.439700   -2.973890    3.897400
  H      2.066870   -1.412530    4.549810
  C      3.744690   -2.580560    1.361880
  C      3.203720   -1.256000    0.826210
  H      2.898940   -3.239290    1.583070
  H      4.334960   -3.095520    0.600190
  H      5.561560   -1.971350    2.407080
  H      4.810500   -3.422550    3.063100
  H      2.621840   -1.437890   -0.053130
  H      4.020690   -0.608260    0.585620
  H      2.589750   -0.794180    1.570970

 Total Charge           Charge          ....    0
 Multiplicity           Mult            ....    1
 Number of Electrons    NEL             ....   48
 Basis Dimension        Dim             ....  208

ORBITAL ENERGIES
----------------

  NO   OCC          E(Eh)            E(eV)
   0   2.0000     -14.764115      -401.7520
   1   2.0000     -10.570517      -287.6384
   2   2.0000     -10.551415      -287.1186
   3   2.0000     -10.547813      -287.0206
   4   2.0000     -10.530992      -286.5628
   5   2.0000     -10.481717      -285.2220
   6   2.0000      -1.032806       -28.1041
   7   2.0000      -0.886928       -24.1345
   8   2.0000      -0.818123       -22.2622
   9   2.0000      -0.769148       -20.9296
  10   2.0000      -0.684965       -18.6388
  11   2.0000      -0.632446       -17.2097
  12   2.0000      -0.596011       -16.2183
  13   2.0000      -0.559027       -15.2119
  14   2.0000      -0.526539       -14.3279
  15   2.0000      -0.504801       -13.7363
  16   2.0000      -0.467689       -12.7265
  17   2.0000      -0.454525       -12.3682
  18   2.0000      -0.432551       -11.7703
  19   2.0000      -0.426020       -11.5926
  20   2.0000      -0.397704       -10.8221
  21   2.0000      -0.390752       -10.6329
  22   2.0000      -0.384463       -10.4618
  23   2.0000      -0.245067        -6.6686
  24   0.0000       0.035871         0.9761
  25   0.0000       0.054736         1.4894
  26   0.0000       0.064773         1.7626
  27   0.0000       0.072340         1.9685
  28   0.0000       0.083555         2.2737

MULLIKEN ATOMIC CHARGES
-----------------------
   0 C :    0.499060
   1 C :   -0.365856
   2 C :    0.338306
   3 N :    0.057862
   4 H :   -0.049613
   5 H :    0.033888
   6 H :   -0.111194
   7 H :   -0.413360
   8 C :   -0.386178
   9 C :    0.755119
  10 H :   -0.008299
  11 H :   -0.158820
  12 H :   -0.044847
  13 H :    0.004549
  14 H :   -0.174362
  15 H :   -0.000354
  16 H :    0.024098
Sum of atomic charges:    0.0000000

LOEWDIN ATOMIC CHARGES
----------------------
   0 C :    0.012934
   1 C :   -0.282187
   2 C :    0.174602
   3 N :    0.167750
   4 H :    0.013335
   5 H :    0.002676
   6 H :   -0.077716
   7 H :   -0.081002
   8 C :   -0.063422
   9 C :    0.125033
  10 H :    0.016696
  11 H :    0.015967
  12 H :    0.013531
  13 H :    0.027647
  14 H :   -0.019343
  15 H :   -0.018765
  16 H :   -0.027735

  Mayer bond orders larger than 0.100000
B(  0-C ,  1-C ) :   1.2040 B(  0-C ,  8-C ) :   1.1281 B(  0-C , 10-H ) :   0.1208
B(  0-C , 11-H ) :   0.1644 B(  0-C , 12-H ) :   0.6143 B(  0-C , 13-H ) :   0.7969
B(  1-C ,  2-C ) :   1.9854 B(  1-C ,  3-N ) :   0.9354 B(  1-C ,  5-H ) :   0.1147
B(  1-C ,  7-H ) :   0.2203 B(  1-C , 12-H ) :   0.3140 B(  1-C , 13-H ) :   0.2141
B(  2-C ,  3-N ) :   0.3044 B(  2-C ,  6-H ) :   0.7696 B(  2-C ,  7-H ) :   0.7950
B(  3-N ,  4-H ) :   1.0609 B(  3-N ,  5-H ) :   0.9393 B(  3-N ,  6-H ) :   0.1181
B(  4-H ,  5-H ) :  -0.1397 B(  8-C ,  9-C ) :   1.3092 B(  8-C , 10-H ) :   0.9144
B(  8-C , 11-H ) :   0.9656 B(  8-C , 12-H ) :   0.1739 B(  8-C , 14-H ) :   0.2310
B(  8-C , 15-H ) :   0.2133 B(  8-C , 16-H ) :   0.2497 B(  9-C , 14-H ) :   0.7920
B(  9-C , 15-H ) :   0.7555 B(  9-C , 16-H ) :   0.8029

Dispersion correction           -0.000320547
FINAL SINGLE POINT ENERGY      -251.564778352460

DIPOLE MOMENT
-------------
                                X             Y             Z
Electronic contribution:      1.35189       0.69041       3.41398
Nuclear contribution   :     -1.05621      -0.17147      -3.92631
                        -----------------------------------------
Total Dipole Moment    :      0.29568       0.51893      -0.51233
                        -----------------------------------------
Magnitude (a.u.)       :      0.78689
Magnitude (Debye)      :      2.00011

Rotational constants in cm-1:     0.171127     0.086782     0.080643
Rotational constants in MHz :  5130.249275  2601.647634  2417.629092

                             ****ORCA TERMINATED NORMALLY****
TOTAL RUN TIME: 0 days 0 hours 0 minutes 27 seconds 44 msec
