                         Program Version 5.0.0 -  RELEASE  -
|  1> !M062X D3Zero RIJCOSX def2-SVPD def2/J TightSCF
|  2> *xyz 0 1
|  3> C         -0.91495        0.61511        2.50554
|  4> C         -0.05915        1.50352        3.41058
|  5> H          0.36536        2.34431        2.86116
|  6> H         -0.69226        1.92021        4.19898
|  7> C          1.08303        0.74964        4.08571
|  8> O          2.22817        1.26348        4.01983
|  9> F          0.81003       -0.34541        4.63627
| 10> C         -0.13074       -0.19398        1.47076
| 11> H         -1.64796        1.24596        1.99108
| 12> H         -1.47818       -0.08105        3.13042
| 13> H         -0.80952       -0.78099        0.88803
| 14> H          0.55985       -0.83974        1.97175
| 15> H          0.40595        0.47288        0.82877
| 16> *
| 17>
| 18> %MaxCore 64000
| 19>
| 20> %pal nprocs 4
| 21> end
| 22>
| 23> %scf
| 24>   MaxIter 150
| 25> end
| 26>
| 27>
| 28>                          ****END OF INPUT****

CARTESIAN COORDINATES (ANGSTROEM)
---------------------------------
  C     -0.914950    0.615110    2.505540
  C     -0.059150    1.503520    3.410580
  H      0.365360    2.344310    2.861160
  H     -0.692260    1.920210    4.198980
  C      1.083030    0.749640    4.085710
  O      2.228170    1.263480    4.019830
  F      0.810030   -0.345410    4.636270
  C     -0.130740   -0.193980    1.470760
  H     -1.647960    1.245960    1.991080
  H     -1.478180   -0.081050    3.130420
  H     -0.809520   -0.780990    0.888030
  H      0.559850   -0.839740    1.971750
  H      0.405950    0.472880    0.828770

 Total Charge           Charge          ....    0
 Multiplicity           Mult            ....    1
 Number of Electrons    NEL             ....   48
 Basis Dimension        Dim             ....  182

ORBITAL ENERGIES
----------------

  NO   OCC          E(Eh)            E(eV)
   0   2.0000     -25.330259      -689.2714
   1   2.0000     -19.648328      -534.6582
   2   2.0000     -10.738383      -292.2062
   3   2.0000     -10.581706      -287.9428
   4   2.0000     -10.570182      -287.6293
   5   2.0000     -10.548677      -287.0441
   6   2.0000      -1.446548       -39.3626
   7   2.0000      -1.142665       -31.0935
   8   2.0000      -0.911303       -24.7978
   9   2.0000      -0.819743       -22.3063
  10   2.0000      -0.757780       -20.6202
  11   2.0000      -0.699011       -19.0211
  12   2.0000      -0.647157       -17.6100
  13   2.0000      -0.637209       -17.3394
  14   2.0000      -0.576908       -15.6985
  15   2.0000      -0.545871       -14.8539
  16   2.0000      -0.530800       -14.4438
  17   2.0000      -0.492365       -13.3979
  18   2.0000      -0.475675       -12.9438
  19   2.0000      -0.444426       -12.0935
  20   2.0000      -0.432595       -11.7715
  21   2.0000      -0.415630       -11.3099
  22   2.0000      -0.410314       -11.1652
  23   2.0000      -0.365343        -9.9415
  24   0.0000       0.012865         0.3501
  25   0.0000       0.028838         0.7847
  26   0.0000       0.057126         1.5545
  27   0.0000       0.061370         1.6700
  28   0.0000       0.070690         1.9236

MULLIKEN ATOMIC CHARGES
-----------------------
   0 C :   -0.404427
   1 C :    0.074715
   2 H :    0.004530
   3 H :    0.027816
   4 C :    0.840412
   5 O :   -0.532650
   6 F :   -0.440472
   7 C :    0.637446
   8 H :   -0.155413
   9 H :    0.009938
  10 H :   -0.028545
  11 H :   -0.057363
  12 H :    0.024012
Sum of atomic charges:   -0.0000000

LOEWDIN ATOMIC CHARGES
----------------------
   0 C :   -0.072703
   1 C :    0.044896
   2 H :    0.037526
   3 H :    0.039567
   4 C :    0.000926
   5 O :   -0.144047
   6 F :   -0.045322
   7 C :    0.134315
   8 H :    0.024833
   9 H :    0.022488
  10 H :   -0.013698
  11 H :   -0.019956
  12 H :   -0.008825

  Mayer bond orders larger than 0.100000
B(  0-C ,  1-C ) :   1.1919 B(  0-C ,  2-H ) :   0.1268 B(  0-C ,  3-H ) :   0.1045
B(  0-C ,  7-C ) :   1.3576 B(  0-C ,  8-H ) :   1.0062 B(  0-C ,  9-H ) :   0.9030
B(  0-C , 10-H ) :   0.2042 B(  0-C , 11-H ) :   0.2046 B(  0-C , 12-H ) :   0.1999
B(  1-C ,  2-H ) :   0.9234 B(  1-C ,  3-H ) :   0.8593 B(  1-C ,  4-C ) :   1.0383
B(  1-C ,  9-H ) :   0.1004 B(  2-H ,  4-C ) :   0.1432 B(  4-C ,  5-O ) :   1.7517
B(  4-C ,  6-F ) :   0.6320 B(  7-C , 10-H ) :   0.7730 B(  7-C , 11-H ) :   0.8486
B(  7-C , 12-H ) :   0.7950

Dispersion correction           -0.000200847
FINAL SINGLE POINT ENERGY      -331.330337999707

DIPOLE MOMENT
-------------
                                X             Y             Z
Electronic contribution:      5.52804      -1.24582       8.20690
Nuclear contribution   :     -6.78915       1.21145      -8.56691
                        -----------------------------------------
Total Dipole Moment    :     -1.26111      -0.03437      -0.36001
                        -----------------------------------------
Magnitude (a.u.)       :      1.31194
Magnitude (Debye)      :      3.33468

Rotational constants in cm-1:     0.188995     0.079574     0.075294
Rotational constants in MHz :  5665.932233  2385.568994  2257.246443

                             ****ORCA TERMINATED NORMALLY****
TOTAL RUN TIME: 0 days 0 hours 0 minutes 20 seconds 440 msec
