                         Program Version 5.0.0 -  RELEASE  -
|  1> !M062X D3Zero RIJCOSX def2-SVPD def2/J TightSCF
|  2> *xyz 0 1
|  3> C          4.60295       -2.44010        2.63478
|  4> C          3.86085       -1.59157        3.62289
|  5> N          2.75650       -2.04616        4.16633
|  6> C          4.25433       -0.36291        3.86046
|  7> H          3.56526        0.31099        4.16898
|  8> H          5.05429       -0.01606        3.33784
|  9> H          2.43970       -2.97389        3.89740
| 10> H          2.06687       -1.41253        4.54981
| 11> C          3.74469       -2.58056        1.36188
| 12> C          3.20372       -1.25600        0.82621
| 13> H          2.89894       -3.23929        1.58307
| 14> H          4.33496       -3.09552        0.60019
| 15> H          5.56156       -1.97135        2.40708
| 16> H          4.81050       -3.42255        3.06310
| 17> H          2.62184       -1.43789       -0.05313
| 18> H          4.02069       -0.60826        0.58562
| 19> H          2.58975       -0.79418        1.57097
| 20> *
| 21>
| 22> %MaxCore 64000
| 23>
| 24> %pal nprocs 4
| 25> end
| 26>
| 27> %scf
| 28>   MaxIter 150
| 29> end
| 30>
| 31>
| 32>                          ****END OF INPUT****

CARTESIAN COORDINATES (ANGSTROEM)
---------------------------------
  C      4.602950   -2.440100    2.634780
  C      3.860850   -1.591570    3.622890
  N      2.756500   -2.046160    4.166330
  C      4.254330   -0.362910    3.860460
  H      3.565260    0.310990    4.168980
  H      5.054290   -0.016060    3.337840
  H      2.439700   -2.973890    3.897400
  H      2.066870   -1.412530    4.549810
  C      3.744690   -2.580560    1.361880
  C      3.203720   -1.256000    0.826210
  H      2.898940   -3.239290    1.583070
  H      4.334960   -3.095520    0.600190
  H      5.561560   -1.971350    2.407080
  H      4.810500   -3.422550    3.063100
  H      2.621840   -1.437890   -0.053130
  H      4.020690   -0.608260    0.585620
  H      2.589750   -0.794180    1.570970

 Total Charge           Charge          ....    0
 Multiplicity           Mult            ....    1
 Number of Electrons    NEL             ....   48
 Basis Dimension        Dim             ....  208

ORBITAL ENERGIES
----------------

  NO   OCC          E(Eh)            E(eV)
   0   2.0000     -14.764631      -401.7660
   1   2.0000     -10.570753      -287.6448
   2   2.0000     -10.551147      -287.1113
   3   2.0000     -10.550555      -287.0952
   4   2.0000     -10.529797      -286.5304
   5   2.0000     -10.482690      -285.2485
   6   2.0000      -1.032569       -28.0976
   7   2.0000      -0.885562       -24.0974
   8   2.0000      -0.821362       -22.3504
   9   2.0000      -0.770545       -20.9676
  10   2.0000      -0.677492       -18.4355
  11   2.0000      -0.643089       -17.4993
  12   2.0000      -0.599960       -16.3257
  13   2.0000      -0.542923       -14.7737
  14   2.0000      -0.528080       -14.3698
  15   2.0000      -0.516461       -14.0536
  16   2.0000      -0.456615       -12.4251
  17   2.0000      -0.455161       -12.3856
  18   2.0000      -0.441484       -12.0134
  19   2.0000      -0.427981       -11.6459
  20   2.0000      -0.394168       -10.7259
  21   2.0000      -0.391953       -10.6656
  22   2.0000      -0.381702       -10.3866
  23   2.0000      -0.247124        -6.7246
  24   0.0000       0.033905         0.9226
  25   0.0000       0.055430         1.5083
  26   0.0000       0.066345         1.8053
  27   0.0000       0.071527         1.9463
  28   0.0000       0.085467         2.3257

MULLIKEN ATOMIC CHARGES
-----------------------
   0 C :    0.312821
   1 C :   -0.392171
   2 N :    0.134415
   3 C :    0.404909
   4 H :   -0.367314
   5 H :   -0.044969
   6 H :   -0.012193
   7 H :   -0.129033
   8 C :   -0.348471
   9 C :    0.775869
  10 H :    0.017272
  11 H :   -0.230261
  12 H :    0.106481
  13 H :   -0.074132
  14 H :   -0.087211
  15 H :   -0.019307
  16 H :   -0.046705
Sum of atomic charges:   -0.0000000

LOEWDIN ATOMIC CHARGES
----------------------
   0 C :    0.011496
   1 C :   -0.286389
   2 N :    0.171478
   3 C :    0.174180
   4 H :   -0.080043
   5 H :   -0.080065
   6 H :    0.004502
   7 H :    0.013590
   8 C :   -0.066737
   9 C :    0.126974
  10 H :    0.009031
  11 H :    0.016897
  12 H :    0.024868
  13 H :    0.020145
  14 H :   -0.019874
  15 H :   -0.012258
  16 H :   -0.027795

  Mayer bond orders larger than 0.100000
B(  0-C ,  1-C ) :   1.2841 B(  0-C ,  8-C ) :   1.1347 B(  0-C , 10-H ) :   0.1262
B(  0-C , 11-H ) :   0.1783 B(  0-C , 12-H ) :   0.7745 B(  0-C , 13-H ) :   0.8008
B(  1-C ,  2-N ) :   1.0219 B(  1-C ,  3-C ) :   2.1084 B(  1-C ,  4-H ) :   0.2878
B(  1-C ,  5-H ) :   0.1511 B(  1-C , 12-H ) :   0.1864 B(  1-C , 13-H ) :   0.2518
B(  2-N ,  3-C ) :   0.2647 B(  2-N ,  6-H ) :   1.0374 B(  2-N ,  7-H ) :   1.1107
B(  3-C ,  4-H ) :   0.7239 B(  3-C ,  5-H ) :   0.8334 B(  6-H ,  7-H ) :  -0.1505
B(  8-C ,  9-C ) :   1.3156 B(  8-C , 10-H ) :   0.8743 B(  8-C , 11-H ) :   1.0219
B(  8-C , 12-H ) :   0.1521 B(  8-C , 14-H ) :   0.2234 B(  8-C , 15-H ) :   0.2048
B(  8-C , 16-H ) :   0.2629 B(  9-C , 14-H ) :   0.7675 B(  9-C , 15-H ) :   0.7742
B(  9-C , 16-H ) :   0.8104 B( 15-H , 16-H ) :   0.1198

Dispersion correction           -0.000321058
FINAL SINGLE POINT ENERGY      -251.564962657290

DIPOLE MOMENT
-------------
                                X             Y             Z
Electronic contribution:      0.08831      -0.72099       3.68645
Nuclear contribution   :     -0.70193       0.22667      -3.99866
                        -----------------------------------------
Total Dipole Moment    :     -0.61362      -0.49432      -0.31221
                        -----------------------------------------
Magnitude (a.u.)       :      0.84756
Magnitude (Debye)      :      2.15432

Rotational constants in cm-1:     0.170665     0.086587     0.081284
Rotational constants in MHz :  5116.404877  2595.819690  2436.831753

                             ****ORCA TERMINATED NORMALLY****
TOTAL RUN TIME: 0 days 0 hours 0 minutes 28 seconds 455 msec
