                         Program Version 5.0.0 -  RELEASE  -
|  1> !LC-BLYP RIJCOSX def2-SVPD def2/J TightSCF
|  2> *xyz -1 1
|  3> C         -0.98480        1.28474       -2.92869
|  4> C         -0.10608        1.76991       -4.08984
|  5> H         -0.34774        2.82220       -4.26294
|  6> H          0.94968        1.74588       -3.80878
|  7> C         -0.25875        1.00432       -5.40983
|  8> C          0.39596       -0.37070       -5.33994
|  9> H          0.23915        1.56939       -6.20125
| 10> H         -1.30936        0.88869       -5.68245
| 11> O         -0.32633       -1.39040       -5.49128
| 12> O          1.61941       -0.40073       -5.03683
| 13> H         -2.01317        1.31546       -3.22263
| 14> H         -0.83724        1.91975       -2.08023
| 15> H         -0.71656        0.28077       -2.67373
| 16> *
| 17> %MaxCore 64000
| 18>
| 19> %pal nprocs 4
| 20> end
| 21>
| 22> %scf
| 23>   MaxIter 150
| 24> end
| 25>
| 26>
| 27>                          ****END OF INPUT****

CARTESIAN COORDINATES (ANGSTROEM)
---------------------------------
  C     -0.984800    1.284740   -2.928690
  C     -0.106080    1.769910   -4.089840
  H     -0.347740    2.822200   -4.262940
  H      0.949680    1.745880   -3.808780
  C     -0.258750    1.004320   -5.409830
  C      0.395960   -0.370700   -5.339940
  H      0.239150    1.569390   -6.201250
  H     -1.309360    0.888690   -5.682450
  O     -0.326330   -1.390400   -5.491280
  O      1.619410   -0.400730   -5.036830
  H     -2.013170    1.315460   -3.222630
  H     -0.837240    1.919750   -2.080230
  H     -0.716560    0.280770   -2.673730

 Total Charge           Charge          ....   -1
 Multiplicity           Mult            ....    1
 Number of Electrons    NEL             ....   48
 Basis Dimension        Dim             ....  182

ORBITAL ENERGIES
----------------

  NO   OCC          E(Eh)            E(eV)
   0   2.0000     -18.699596      -508.8419
   1   2.0000     -18.698553      -508.8135
   2   2.0000      -9.977837      -271.5108
   3   2.0000      -9.938267      -270.4340
   4   2.0000      -9.937483      -270.4127
   5   2.0000      -9.915593      -269.8170
   6   2.0000      -0.909353       -24.7448
   7   2.0000      -0.812911       -22.1204
   8   2.0000      -0.744674       -20.2636
   9   2.0000      -0.651681       -17.7331
  10   2.0000      -0.551789       -15.0149
  11   2.0000      -0.440018       -11.9735
  12   2.0000      -0.414319       -11.2742
  13   2.0000      -0.392000       -10.6669
  14   2.0000      -0.364838        -9.9277
  15   2.0000      -0.340055        -9.2534
  16   2.0000      -0.326147        -8.8749
  17   2.0000      -0.311266        -8.4700
  18   2.0000      -0.293306        -7.9813
  19   2.0000      -0.276823        -7.5327
  20   2.0000      -0.268533        -7.3072
  21   2.0000      -0.152913        -4.1610
  22   2.0000      -0.147498        -4.0136
  23   2.0000      -0.131505        -3.5784
  24   0.0000       0.195661         5.3242
  25   0.0000       0.220315         5.9951
  26   0.0000       0.234426         6.3791
  27   0.0000       0.246681         6.7125
  28   0.0000       0.277126         7.5410

MULLIKEN ATOMIC CHARGES
-----------------------
   0 C :    0.902862
   1 C :   -0.311434
   2 H :   -0.208868
   3 H :   -0.093548
   4 C :    0.283127
   5 C :    0.128424
   6 H :   -0.088474
   7 H :   -0.089578
   8 O :   -0.546372
   9 O :   -0.594750
  10 H :   -0.087801
  11 H :   -0.156206
  12 H :   -0.137382
Sum of atomic charges:   -1.0000000

LOEWDIN ATOMIC CHARGES
----------------------
   0 C :    0.104620
   1 C :   -0.096876
   2 H :    0.001484
   3 H :    0.013718
   4 C :   -0.011528
   5 C :   -0.344006
   6 H :    0.015944
   7 H :    0.009299
   8 O :   -0.313214
   9 O :   -0.310334
  10 H :   -0.024094
  11 H :   -0.032527
  12 H :   -0.012485

  Mayer bond orders larger than 0.100000
B(  0-C ,  1-C ) :   1.2926 B(  0-C ,  2-H ) :   0.1048 B(  0-C , 10-H ) :   0.7344
B(  0-C , 11-H ) :   0.6975 B(  0-C , 12-H ) :   0.7758 B(  1-C ,  2-H ) :   0.9178
B(  1-C ,  3-H ) :   0.9062 B(  1-C ,  4-C ) :   1.2658 B(  1-C ,  6-H ) :   0.1560
B(  1-C ,  7-H ) :   0.1465 B(  1-C , 10-H ) :   0.2340 B(  1-C , 11-H ) :   0.2551
B(  1-C , 12-H ) :   0.2424 B(  2-H ,  4-C ) :   0.1094 B(  3-H ,  4-C ) :   0.1467
B(  4-C ,  5-C ) :   0.9939 B(  4-C ,  6-H ) :   0.7934 B(  4-C ,  7-H ) :   0.8544
B(  5-C ,  6-H ) :   0.1084 B(  5-C ,  7-H ) :   0.2234 B(  5-C ,  8-O ) :   1.6243
B(  5-C ,  9-O ) :   1.6396

FINAL SINGLE POINT ENERGY      -306.229718052186

DIPOLE MOMENT
-------------
                                X             Y             Z
Electronic contribution:      3.10335      -5.59695      -3.87378
Nuclear contribution   :     -4.15791       7.87420       4.69333
                        -----------------------------------------
Total Dipole Moment    :     -1.05456       2.27726       0.81955
                        -----------------------------------------
Magnitude (a.u.)       :      2.64001
Magnitude (Debye)      :      6.71038

Rotational constants in cm-1:     0.200385     0.078723     0.072676
Rotational constants in MHz :  6007.394681  2360.059351  2178.761275

                             ****ORCA TERMINATED NORMALLY****
TOTAL RUN TIME: 0 days 0 hours 0 minutes 19 seconds 905 msec
