                         Program Version 5.0.0 -  RELEASE  -
|  1> !LC-BLYP RIJCOSX def2-SVPD def2/J TightSCF
|  2> *xyz 1 1
|  3> C          0.81607       -2.10149       -2.18655
|  4> H          1.69623       -2.36869       -1.60046
|  5> N          1.10055       -2.46749       -3.59927
|  6> C          0.51624       -0.61363       -2.03937
|  7> H         -0.02007       -2.71285       -1.84084
|  8> C         -0.86862       -0.19392       -2.54630
|  9> H          1.70061       -1.75723       -4.07838
| 10> H          0.29386       -2.35977       -4.25632
| 11> H          1.50132       -3.42848       -3.69491
| 12> H          1.29904       -0.05680       -2.55898
| 13> H          0.61239       -0.36558       -0.97917
| 14> H         -0.95781       -0.43872       -3.58410
| 15> H         -0.99113        0.86113       -2.41690
| 16> H         -1.62334       -0.71130       -1.99167
| 17> *
| 18> %MaxCore 64000
| 19>
| 20> %pal nprocs 4
| 21> end
| 22>
| 23> %scf
| 24>   MaxIter 150
| 25> end
| 26>
| 27>
| 28>                          ****END OF INPUT****

CARTESIAN COORDINATES (ANGSTROEM)
---------------------------------
  C      0.816070   -2.101490   -2.186550
  H      1.696230   -2.368690   -1.600460
  N      1.100550   -2.467490   -3.599270
  C      0.516240   -0.613630   -2.039370
  H     -0.020070   -2.712850   -1.840840
  C     -0.868620   -0.193920   -2.546300
  H      1.700610   -1.757230   -4.078380
  H      0.293860   -2.359770   -4.256320
  H      1.501320   -3.428480   -3.694910
  H      1.299040   -0.056800   -2.558980
  H      0.612390   -0.365580   -0.979170
  H     -0.957810   -0.438720   -3.584100
  H     -0.991130    0.861130   -2.416900
  H     -1.623340   -0.711300   -1.991670

 Total Charge           Charge          ....    1
 Multiplicity           Mult            ....    1
 Number of Electrons    NEL             ....   34
 Basis Dimension        Dim             ....  160

ORBITAL ENERGIES
----------------

  NO   OCC          E(Eh)            E(eV)
   0   2.0000     -14.519252      -395.0889
   1   2.0000     -10.331486      -281.1340
   2   2.0000     -10.264377      -279.3079
   3   2.0000     -10.229132      -278.3488
   4   2.0000      -1.298975       -35.3469
   5   2.0000      -1.076753       -29.2999
   6   2.0000      -0.988715       -26.9043
   7   2.0000      -0.910806       -24.7843
   8   2.0000      -0.882324       -24.0093
   9   2.0000      -0.863069       -23.4853
  10   2.0000      -0.797924       -21.7126
  11   2.0000      -0.729778       -19.8583
  12   2.0000      -0.712297       -19.3826
  13   2.0000      -0.686584       -18.6829
  14   2.0000      -0.623675       -16.9711
  15   2.0000      -0.617574       -16.8050
  16   2.0000      -0.611943       -16.6518
  17   0.0000      -0.130357        -3.5472
  18   0.0000      -0.073753        -2.0069
  19   0.0000      -0.071324        -1.9408
  20   0.0000      -0.058356        -1.5879
  21   0.0000      -0.030377        -0.8266

MULLIKEN ATOMIC CHARGES
-----------------------
   0 C :    0.778678
   1 H :   -0.147452
   2 N :   -0.850200
   3 C :   -0.109537
   4 H :   -0.145075
   5 C :    1.011852
   6 H :    0.459952
   7 H :    0.327887
   8 H :    0.375202
   9 H :   -0.147844
  10 H :   -0.159407
  11 H :   -0.233297
  12 H :   -0.111752
  13 H :   -0.049007
Sum of atomic charges:    1.0000000

LOEWDIN ATOMIC CHARGES
----------------------
   0 C :    0.065807
   1 H :    0.057125
   2 N :    0.311040
   3 C :   -0.056862
   4 H :    0.059823
   5 C :    0.141363
   6 H :    0.114027
   7 H :    0.108612
   8 H :    0.124826
   9 H :    0.033630
  10 H :    0.050298
  11 H :   -0.021493
  12 H :    0.008943
  13 H :    0.002861

  Mayer bond orders larger than 0.100000
B(  0-C ,  1-H ) :   0.8437 B(  0-C ,  2-N ) :   0.7207 B(  0-C ,  3-C ) :   1.1599
B(  0-C ,  4-H ) :   0.8441 B(  0-C , 10-H ) :   0.1341 B(  1-H ,  2-N ) :   0.1236
B(  2-N ,  4-H ) :   0.1561 B(  2-N ,  6-H ) :   0.6217 B(  2-N ,  7-H ) :   0.8118
B(  2-N ,  8-H ) :   0.6910 B(  3-C ,  5-C ) :   1.2566 B(  3-C ,  9-H ) :   0.9034
B(  3-C , 10-H ) :   0.9295 B(  3-C , 11-H ) :   0.2091 B(  3-C , 12-H ) :   0.2450
B(  3-C , 13-H ) :   0.2085 B(  5-C , 11-H ) :   0.7419 B(  5-C , 12-H ) :   0.7255
B(  5-C , 13-H ) :   0.7366

FINAL SINGLE POINT ENERGY      -174.211102050210

DIPOLE MOMENT
-------------
                                X             Y             Z
Electronic contribution:      1.49323      -1.84612      -0.70938
Nuclear contribution   :     -0.52914       0.42437      -0.52967
                        -----------------------------------------
Total Dipole Moment    :      0.96409      -1.42175      -1.23906
                        -----------------------------------------
Magnitude (a.u.)       :      2.11804
Magnitude (Debye)      :      5.38364

Rotational constants in cm-1:     0.462856     0.150885     0.132529
Rotational constants in MHz : 13876.083919  4523.416930  3973.119974

                             ****ORCA TERMINATED NORMALLY****
TOTAL RUN TIME: 0 days 0 hours 0 minutes 13 seconds 985 msec
