                         Program Version 5.0.0 -  RELEASE  -
|  1> !LC-BLYP RIJCOSX def2-SVPD def2/J TightSCF
|  2> *xyz 0 1
|  3> C         -0.98480        1.28474       -2.92869
|  4> C         -0.10608        1.76991       -4.08984
|  5> H         -0.34774        2.82220       -4.26294
|  6> H          0.94968        1.74588       -3.80878
|  7> C         -0.25875        1.00432       -5.40983
|  8> C          0.39596       -0.37070       -5.33994
|  9> H          0.23915        1.56939       -6.20125
| 10> H         -1.30936        0.88869       -5.68245
| 11> F         -0.32633       -1.39040       -5.49128
| 12> O          1.61941       -0.40073       -5.03683
| 13> H         -2.01317        1.31546       -3.22263
| 14> H         -0.83724        1.91975       -2.08023
| 15> H         -0.71656        0.28077       -2.67373
| 16> *
| 17> %MaxCore 64000
| 18>
| 19> %pal nprocs 4
| 20> end
| 21>
| 22> %scf
| 23>   MaxIter 150
| 24> end
| 25>
| 26>
| 27>                          ****END OF INPUT****

CARTESIAN COORDINATES (ANGSTROEM)
---------------------------------
  C     -0.984800    1.284740   -2.928690
  C     -0.106080    1.769910   -4.089840
  H     -0.347740    2.822200   -4.262940
  H      0.949680    1.745880   -3.808780
  C     -0.258750    1.004320   -5.409830
  C      0.395960   -0.370700   -5.339940
  H      0.239150    1.569390   -6.201250
  H     -1.309360    0.888690   -5.682450
  F     -0.326330   -1.390400   -5.491280
  O      1.619410   -0.400730   -5.036830
  H     -2.013170    1.315460   -3.222630
  H     -0.837240    1.919750   -2.080230
  H     -0.716560    0.280770   -2.673730

 Total Charge           Charge          ....    0
 Multiplicity           Mult            ....    1
 Number of Electrons    NEL             ....   48
 Basis Dimension        Dim             ....  182

ORBITAL ENERGIES
----------------

  NO   OCC          E(Eh)            E(eV)
   0   2.0000     -24.548335      -667.9942
   1   2.0000     -18.968575      -516.1612
   2   2.0000     -10.271942      -279.5137
   3   2.0000     -10.118881      -275.3488
   4   2.0000     -10.101127      -274.8657
   5   2.0000     -10.081744      -274.3382
   6   2.0000      -1.387151       -37.7463
   7   2.0000      -1.119019       -30.4500
   8   2.0000      -0.920120       -25.0377
   9   2.0000      -0.836632       -22.7659
  10   2.0000      -0.766700       -20.8630
  11   2.0000      -0.717245       -19.5172
  12   2.0000      -0.660977       -17.9861
  13   2.0000      -0.640974       -17.4418
  14   2.0000      -0.615235       -16.7414
  15   2.0000      -0.570555       -15.5256
  16   2.0000      -0.561151       -15.2697
  17   2.0000      -0.526729       -14.3330
  18   2.0000      -0.506737       -13.7890
  19   2.0000      -0.483122       -13.1464
  20   2.0000      -0.454536       -12.3686
  21   2.0000      -0.448132       -12.1943
  22   2.0000      -0.445282       -12.1167
  23   2.0000      -0.398327       -10.8390
  24   0.0000       0.043387         1.1806
  25   0.0000       0.065261         1.7759
  26   0.0000       0.090901         2.4735
  27   0.0000       0.099833         2.7166
  28   0.0000       0.107671         2.9299

MULLIKEN ATOMIC CHARGES
-----------------------
   0 C :    0.932709
   1 C :   -0.240560
   2 H :   -0.185970
   3 H :   -0.095095
   4 C :    0.233038
   5 C :    0.477037
   6 H :   -0.043747
   7 H :   -0.067087
   8 F :   -0.272366
   9 O :   -0.369486
  10 H :   -0.073086
  11 H :   -0.137896
  12 H :   -0.157489
Sum of atomic charges:    0.0000000

LOEWDIN ATOMIC CHARGES
----------------------
   0 C :    0.122854
   1 C :   -0.072651
   2 H :    0.027618
   3 H :    0.028457
   4 C :    0.031670
   5 C :   -0.048740
   6 H :    0.046108
   7 H :    0.031146
   8 F :   -0.013105
   9 O :   -0.117079
  10 H :   -0.012779
  11 H :   -0.010607
  12 H :   -0.012892

  Mayer bond orders larger than 0.100000
B(  0-C ,  1-C ) :   1.3191 B(  0-C , 10-H ) :   0.7248 B(  0-C , 11-H ) :   0.7024
B(  0-C , 12-H ) :   0.7683 B(  1-C ,  2-H ) :   0.9102 B(  1-C ,  3-H ) :   0.8974
B(  1-C ,  4-C ) :   1.2675 B(  1-C ,  6-H ) :   0.1467 B(  1-C ,  7-H ) :   0.1458
B(  1-C , 10-H ) :   0.2299 B(  1-C , 11-H ) :   0.2480 B(  1-C , 12-H ) :   0.2307
B(  2-H ,  4-C ) :   0.1114 B(  3-H ,  4-C ) :   0.1262 B(  4-C ,  5-C ) :   1.0557
B(  4-C ,  6-H ) :   0.8059 B(  4-C ,  7-H ) :   0.8647 B(  5-C ,  7-H ) :   0.1251
B(  5-C ,  8-F ) :   0.8696 B(  5-C ,  9-O ) :   1.9557 B(  8-F ,  9-O ) :   0.1154

FINAL SINGLE POINT ENERGY      -330.745863080265

DIPOLE MOMENT
-------------
                                X             Y             Z
Electronic contribution:      2.74956      -9.06478      -5.68180
Nuclear contribution   :     -3.72230       9.78546       5.57872
                        -----------------------------------------
Total Dipole Moment    :     -0.97274       0.72067      -0.10307
                        -----------------------------------------
Magnitude (a.u.)       :      1.21500
Magnitude (Debye)      :      3.08828

Rotational constants in cm-1:     0.192703     0.076176     0.069525
Rotational constants in MHz :  5777.081080  2283.698999  2084.312921

                             ****ORCA TERMINATED NORMALLY****
TOTAL RUN TIME: 0 days 0 hours 0 minutes 20 seconds 475 msec
