                         Program Version 5.0.0 -  RELEASE  -
|  1> !LC-BLYP RIJCOSX def2-SVPD def2/J TightSCF
|  2> *xyz 0 1
|  3> C          0.81607       -2.10149       -2.18655
|  4> H          1.69623       -2.36869       -1.60046
|  5> C          1.10055       -2.46749       -3.59927
|  6> C          0.51624       -0.61363       -2.03937
|  7> H         -0.02007       -2.71285       -1.84084
|  8> C         -0.86862       -0.19392       -2.54630
|  9> H          1.70061       -1.75723       -4.07838
| 10> H          0.29386       -2.35977       -4.25632
| 11> H          1.50132       -3.42848       -3.69491
| 12> H          1.29904       -0.05680       -2.55898
| 13> H          0.61239       -0.36558       -0.97917
| 14> H         -0.95781       -0.43872       -3.58410
| 15> H         -0.99113        0.86113       -2.41690
| 16> H         -1.62334       -0.71130       -1.99167
| 17> *
| 18> %MaxCore 64000
| 19>
| 20> %pal nprocs 4
| 21> end
| 22>
| 23> %scf
| 24>   MaxIter 150
| 25> end
| 26>
| 27>
| 28>                          ****END OF INPUT****

CARTESIAN COORDINATES (ANGSTROEM)
---------------------------------
  C      0.816070   -2.101490   -2.186550
  H      1.696230   -2.368690   -1.600460
  C      1.100550   -2.467490   -3.599270
  C      0.516240   -0.613630   -2.039370
  H     -0.020070   -2.712850   -1.840840
  C     -0.868620   -0.193920   -2.546300
  H      1.700610   -1.757230   -4.078380
  H      0.293860   -2.359770   -4.256320
  H      1.501320   -3.428480   -3.694910
  H      1.299040   -0.056800   -2.558980
  H      0.612390   -0.365580   -0.979170
  H     -0.957810   -0.438720   -3.584100
  H     -0.991130    0.861130   -2.416900
  H     -1.623340   -0.711300   -1.991670

 Total Charge           Charge          ....    0
 Multiplicity           Mult            ....    1
 Number of Electrons    NEL             ....   34
 Basis Dimension        Dim             ....  160

ORBITAL ENERGIES
----------------

  NO   OCC          E(Eh)            E(eV)
   0   2.0000     -10.074762      -274.1482
   1   2.0000     -10.071941      -274.0715
   2   2.0000     -10.065683      -273.9012
   3   2.0000     -10.052712      -273.5482
   4   2.0000      -0.905914       -24.6512
   5   2.0000      -0.830790       -22.6069
   6   2.0000      -0.747165       -20.3314
   7   2.0000      -0.675107       -18.3706
   8   2.0000      -0.571050       -15.5391
   9   2.0000      -0.564629       -15.3643
  10   2.0000      -0.526802       -14.3350
  11   2.0000      -0.495527       -13.4840
  12   2.0000      -0.487130       -13.2555
  13   2.0000      -0.455282       -12.3889
  14   2.0000      -0.424788       -11.5591
  15   2.0000      -0.419644       -11.4191
  16   2.0000      -0.411280       -11.1915
  17   0.0000       0.077966         2.1216
  18   0.0000       0.102084         2.7779
  19   0.0000       0.104109         2.8330
  20   0.0000       0.111714         3.0399
  21   0.0000       0.157803         4.2940

MULLIKEN ATOMIC CHARGES
-----------------------
   0 C :    0.011696
   1 H :   -0.180167
   2 C :    1.122446
   3 C :   -0.170185
   4 H :   -0.151557
   5 C :    0.996742
   6 H :   -0.202584
   7 H :   -0.368142
   8 H :   -0.274808
   9 H :   -0.101828
  10 H :   -0.225655
  11 H :   -0.244783
  12 H :   -0.133896
  13 H :   -0.077279
Sum of atomic charges:    0.0000000

LOEWDIN ATOMIC CHARGES
----------------------
   0 C :   -0.090978
   1 H :    0.026205
   2 C :    0.097217
   3 C :   -0.092117
   4 H :    0.028956
   5 C :    0.117484
   6 H :   -0.025182
   7 H :   -0.031994
   8 H :   -0.018466
   9 H :    0.022541
  10 H :    0.019392
  11 H :   -0.023371
  12 H :   -0.016257
  13 H :   -0.013428

  Mayer bond orders larger than 0.100000
B(  0-C ,  1-H ) :   0.8793 B(  0-C ,  2-C ) :   1.2383 B(  0-C ,  3-C ) :   1.2075
B(  0-C ,  4-H ) :   0.8692 B(  0-C ,  6-H ) :   0.2070 B(  0-C ,  7-H ) :   0.2222
B(  0-C ,  8-H ) :   0.2532 B(  0-C ,  9-H ) :   0.1091 B(  0-C , 10-H ) :   0.1518
B(  2-C ,  4-H ) :   0.1401 B(  2-C ,  6-H ) :   0.5936 B(  2-C ,  7-H ) :   0.5737
B(  2-C ,  8-H ) :   0.6644 B(  3-C ,  4-H ) :   0.1090 B(  3-C ,  5-C ) :   1.2475
B(  3-C ,  9-H ) :   0.8781 B(  3-C , 10-H ) :   0.9335 B(  3-C , 11-H ) :   0.2284
B(  3-C , 12-H ) :   0.2435 B(  3-C , 13-H ) :   0.2228 B(  5-C , 11-H ) :   0.7538
B(  5-C , 12-H ) :   0.6968 B(  5-C , 13-H ) :   0.7347 B(  6-H ,  7-H ) :   0.3642

FINAL SINGLE POINT ENERGY      -157.821438143830

DIPOLE MOMENT
-------------
                                X             Y             Z
Electronic contribution:      0.32388      -0.06693       0.82971
Nuclear contribution   :     -0.30980       0.07990      -0.83209
                        -----------------------------------------
Total Dipole Moment    :      0.01408       0.01298      -0.00238
                        -----------------------------------------
Magnitude (a.u.)       :      0.01929
Magnitude (Debye)      :      0.04904

Rotational constants in cm-1:     0.470198     0.157622     0.138278
Rotational constants in MHz : 14096.185772  4725.380109  4145.481686

                             ****ORCA TERMINATED NORMALLY****
TOTAL RUN TIME: 0 days 0 hours 0 minutes 12 seconds 130 msec
