                         Program Version 5.0.0 -  RELEASE  -
|  1> !LC-BLYP RIJCOSX def2-SVPD def2/J TightSCF
|  2> *xyz 0 1
|  3> C         -0.98480        1.28474       -2.92869
|  4> C         -0.10608        1.76991       -4.08984
|  5> H         -0.34774        2.82220       -4.26294
|  6> H          0.94968        1.74588       -3.80878
|  7> C         -0.25875        1.00432       -5.40983
|  8> C          0.39596       -0.37070       -5.33994
|  9> H          0.23915        1.56939       -6.20125
| 10> H         -1.30936        0.88869       -5.68245
| 11> O         -0.32633       -1.39040       -5.49128
| 12> F          1.61941       -0.40073       -5.03683
| 13> H         -2.01317        1.31546       -3.22263
| 14> H         -0.83724        1.91975       -2.08023
| 15> H         -0.71656        0.28077       -2.67373
| 16> *
| 17> %MaxCore 64000
| 18>
| 19> %pal nprocs 4
| 20> end
| 21>
| 22> %scf
| 23>   MaxIter 150
| 24> end
| 25>
| 26>
| 27>                          ****END OF INPUT****

CARTESIAN COORDINATES (ANGSTROEM)
---------------------------------
  C     -0.984800    1.284740   -2.928690
  C     -0.106080    1.769910   -4.089840
  H     -0.347740    2.822200   -4.262940
  H      0.949680    1.745880   -3.808780
  C     -0.258750    1.004320   -5.409830
  C      0.395960   -0.370700   -5.339940
  H      0.239150    1.569390   -6.201250
  H     -1.309360    0.888690   -5.682450
  O     -0.326330   -1.390400   -5.491280
  F      1.619410   -0.400730   -5.036830
  H     -2.013170    1.315460   -3.222630
  H     -0.837240    1.919750   -2.080230
  H     -0.716560    0.280770   -2.673730

 Total Charge           Charge          ....    0
 Multiplicity           Mult            ....    1
 Number of Electrons    NEL             ....   48
 Basis Dimension        Dim             ....  182

ORBITAL ENERGIES
----------------

  NO   OCC          E(Eh)            E(eV)
   0   2.0000     -24.547467      -667.9705
   1   2.0000     -18.968911      -516.1703
   2   2.0000     -10.271002      -279.4882
   3   2.0000     -10.118539      -275.3394
   4   2.0000     -10.106430      -275.0099
   5   2.0000     -10.082530      -274.3596
   6   2.0000      -1.386036       -37.7160
   7   2.0000      -1.118553       -30.4374
   8   2.0000      -0.924421       -25.1548
   9   2.0000      -0.837050       -22.7773
  10   2.0000      -0.763117       -20.7655
  11   2.0000      -0.721651       -19.6371
  12   2.0000      -0.663228       -18.0474
  13   2.0000      -0.648425       -17.6445
  14   2.0000      -0.600240       -16.3334
  15   2.0000      -0.572726       -15.5847
  16   2.0000      -0.565875       -15.3982
  17   2.0000      -0.527247       -14.3471
  18   2.0000      -0.503333       -13.6964
  19   2.0000      -0.482471       -13.1287
  20   2.0000      -0.463883       -12.6229
  21   2.0000      -0.457011       -12.4359
  22   2.0000      -0.448169       -12.1953
  23   2.0000      -0.392336       -10.6760
  24   0.0000       0.046975         1.2783
  25   0.0000       0.063979         1.7410
  26   0.0000       0.091344         2.4856
  27   0.0000       0.101873         2.7721
  28   0.0000       0.102375         2.7858

MULLIKEN ATOMIC CHARGES
-----------------------
   0 C :    0.931748
   1 C :   -0.257107
   2 H :   -0.192100
   3 H :   -0.110654
   4 C :    0.259387
   5 C :    0.487687
   6 H :   -0.051658
   7 H :   -0.080031
   8 O :   -0.326486
   9 F :   -0.304820
  10 H :   -0.071840
  11 H :   -0.131093
  12 H :   -0.153033
Sum of atomic charges:   -0.0000000

LOEWDIN ATOMIC CHARGES
----------------------
   0 C :    0.125560
   1 C :   -0.079184
   2 H :    0.026948
   3 H :    0.024457
   4 C :    0.034789
   5 C :   -0.054381
   6 H :    0.041321
   7 H :    0.042253
   8 O :   -0.115243
   9 F :   -0.014645
  10 H :   -0.008835
  11 H :   -0.011261
  12 H :   -0.011779

  Mayer bond orders larger than 0.100000
B(  0-C ,  1-C ) :   1.3232 B(  0-C , 10-H ) :   0.7294 B(  0-C , 11-H ) :   0.7048
B(  0-C , 12-H ) :   0.7691 B(  1-C ,  2-H ) :   0.9291 B(  1-C ,  3-H ) :   0.8791
B(  1-C ,  4-C ) :   1.2484 B(  1-C ,  6-H ) :   0.1454 B(  1-C ,  7-H ) :   0.1290
B(  1-C , 10-H ) :   0.2327 B(  1-C , 11-H ) :   0.2475 B(  1-C , 12-H ) :   0.2327
B(  2-H ,  4-C ) :   0.1070 B(  3-H ,  4-C ) :   0.1176 B(  4-C ,  5-C ) :   1.0187
B(  4-C ,  6-H ) :   0.8051 B(  4-C ,  7-H ) :   0.8899 B(  5-C ,  7-H ) :   0.1558
B(  5-C ,  8-O ) :   1.9593 B(  5-C ,  9-F ) :   0.8450 B(  8-O ,  9-F ) :   0.1183

FINAL SINGLE POINT ENERGY      -330.746865854904

DIPOLE MOMENT
-------------
                                X             Y             Z
Electronic contribution:      6.04003      -7.36017      -4.89853
Nuclear contribution   :     -5.92016       8.66755       5.06539
                        -----------------------------------------
Total Dipole Moment    :      0.11987       1.30739       0.16686
                        -----------------------------------------
Magnitude (a.u.)       :      1.32343
Magnitude (Debye)      :      3.36389

Rotational constants in cm-1:     0.191324     0.076691     0.070269
Rotational constants in MHz :  5735.753800  2299.148675  2106.608556

                             ****ORCA TERMINATED NORMALLY****
TOTAL RUN TIME: 0 days 0 hours 0 minutes 21 seconds 86 msec
