                         Program Version 5.0.0 -  RELEASE  -
|  1> !LC-BLYP RIJCOSX def2-SVPD def2/J TightSCF xyzfile
|  2>
|  3> *xyzfile 0 1 D1.xyz
|  4>
|  5> %MaxCore 64000
|  6>
|  7> %pal nprocs 4
|  8> end
|  9>
| 10> %scf
| 11>   MaxIter 150
| 12> end
| 13>
| 14>
| 15>                          ****END OF INPUT****

CARTESIAN COORDINATES (ANGSTROEM)
---------------------------------
  C      0.816067   -2.101491   -2.186546
  H      1.696232   -2.368691   -1.600457
  C      1.100552   -2.467492   -3.599269
  C      0.516243   -0.613634   -2.039373
  H     -0.020066   -2.712849   -1.840844
  C     -0.868621   -0.193925   -2.546303
  C     -0.984801    1.284739   -2.928686
  H     -0.764939    1.904116   -2.051568
  H     -2.032613    1.478953   -3.178952
  C     -0.106085    1.769914   -4.089836
  H     -0.347744    2.822196   -4.262942
  H      0.949683    1.745875   -3.808781
  C     -0.258747    1.004323   -5.409829
  C      0.395958   -0.370696   -5.339939
  H      0.239150    1.569393   -6.201253
  H     -1.309360    0.888694   -5.682455
  H      1.700606   -1.757225   -4.078378
  H      0.293855   -2.359766   -4.256324
  H      1.501324   -3.428479   -3.694915
  F     -0.326329   -1.390398   -5.491279
  O      1.619412   -0.400726   -5.036827
  H     -1.607271   -0.412651   -1.768955
  H     -1.157234   -0.796164   -3.409254
  H      1.299044   -0.056805   -2.558982
  H      0.612393   -0.365579   -0.979171

 Total Charge           Charge          ....    0
 Multiplicity           Mult            ....    1
 Number of Electrons    NEL             ....   80
 Basis Dimension        Dim             ....  326

ORBITAL ENERGIES
----------------

  NO   OCC          E(Eh)            E(eV)
   0   2.0000     -24.557178      -668.2348
   1   2.0000     -18.974759      -516.3294
   2   2.0000     -10.279809      -279.7278
   3   2.0000     -10.121198      -275.4118
   4   2.0000     -10.100179      -274.8398
   5   2.0000     -10.088332      -274.5175
   6   2.0000     -10.080884      -274.3148
   7   2.0000     -10.067017      -273.9375
   8   2.0000     -10.057979      -273.6915
   9   2.0000     -10.010673      -272.4043
  10   2.0000      -1.400693       -38.1148
  11   2.0000      -1.133422       -30.8420
  12   2.0000      -0.932669       -25.3792
  13   2.0000      -0.899494       -24.4765
  14   2.0000      -0.850087       -23.1321
  15   2.0000      -0.812045       -22.0969
  16   2.0000      -0.769943       -20.9512
  17   2.0000      -0.744673       -20.2636
  18   2.0000      -0.707997       -19.2656
  19   2.0000      -0.671273       -18.2663
  20   2.0000      -0.661279       -17.9943
  21   2.0000      -0.647369       -17.6158
  22   2.0000      -0.631809       -17.1924
  23   2.0000      -0.587260       -15.9802
  24   2.0000      -0.565570       -15.3899
  25   2.0000      -0.551068       -14.9953
  26   2.0000      -0.544632       -14.8202
  27   2.0000      -0.531181       -14.4542
  28   2.0000      -0.516411       -14.0523
  29   2.0000      -0.504738       -13.7346
  30   2.0000      -0.485113       -13.2006
  31   2.0000      -0.469807       -12.7841
  32   2.0000      -0.466924       -12.7056
  33   2.0000      -0.450334       -12.2542
  34   2.0000      -0.436741       -11.8843
  35   2.0000      -0.425335       -11.5739
  36   2.0000      -0.416417       -11.3313
  37   2.0000      -0.404420       -11.0048
  38   2.0000      -0.394758       -10.7419
  39   2.0000      -0.362937        -9.8760
  40   0.0000       0.033663         0.9160
  41   0.0000       0.065613         1.7854
  42   0.0000       0.086329         2.3491
  43   0.0000       0.090865         2.4726
  44   0.0000       0.093262         2.5378

MULLIKEN ATOMIC CHARGES
-----------------------
   0 C :    0.330807
   1 H :   -0.187499
   2 C :    1.798125
   3 C :    0.409266
   4 H :   -0.258232
   5 C :    0.406199
   6 C :    0.504344
   7 H :   -0.143986
   8 H :   -0.029739
   9 C :    0.248934
  10 H :   -0.299518
  11 H :    0.015883
  12 C :    0.458908
  13 C :    0.219313
  14 H :   -0.066252
  15 H :   -0.119459
  16 H :   -0.471160
  17 H :   -0.527456
  18 H :   -0.363904
  19 F :   -0.369462
  20 O :   -0.403150
  21 H :   -0.208171
  22 H :   -0.443396
  23 H :   -0.128686
  24 H :   -0.371710
Sum of atomic charges:   -0.0000000

LOEWDIN ATOMIC CHARGES
----------------------
   0 C :   -0.057387
   1 H :    0.027027
   2 C :    0.116387
   3 C :   -0.030438
   4 H :    0.027166
   5 C :   -0.024965
   6 C :   -0.034579
   7 H :    0.032554
   8 H :    0.026596
   9 C :   -0.024441
  10 H :    0.030512
  11 H :    0.022771
  12 C :    0.055365
  13 C :   -0.007194
  14 H :    0.048542
  15 H :    0.036787
  16 H :   -0.101608
  17 H :   -0.076959
  18 H :   -0.008390
  19 F :   -0.024251
  20 O :   -0.102438
  21 H :    0.032916
  22 H :    0.001644
  23 H :    0.009820
  24 H :    0.024565

  Mayer bond orders larger than 0.100000
B(  0-C ,  1-H ) :   0.7178 B(  0-C ,  2-C ) :   0.9449 B(  0-C ,  3-C ) :   1.1689
B(  0-C ,  4-H ) :   0.7388 B(  0-C , 16-H ) :   0.3793 B(  0-C , 17-H ) :   0.2958
B(  0-C , 18-H ) :   0.1990 B(  0-C , 23-H ) :   0.1945 B(  1-H ,  3-C ) :   0.2101
B(  1-H ,  4-H ) :  -0.1626 B(  2-C ,  3-C ) :   0.2218 B(  2-C ,  4-H ) :   0.1609
B(  2-C , 16-H ) :   0.1799 B(  2-C , 18-H ) :   0.4915 B(  2-C , 23-H ) :  -0.2082
B(  2-C , 24-H ) :   0.1405 B(  3-C ,  5-C ) :   1.1189 B(  3-C , 21-H ) :   0.2766
B(  3-C , 22-H ) :   0.1235 B(  3-C , 23-H ) :   0.7670 B(  3-C , 24-H ) :   0.8076
B(  5-C ,  6-C ) :   1.2076 B(  5-C ,  7-H ) :   0.1708 B(  5-C ,  8-H ) :   0.2527
B(  5-C ,  9-C ) :   0.1485 B(  5-C , 21-H ) :   0.7142 B(  5-C , 22-H ) :   0.7164
B(  5-C , 23-H ) :   0.1266 B(  5-C , 24-H ) :   0.2250 B(  6-C ,  7-H ) :   0.7569
B(  6-C ,  8-H ) :   0.5990 B(  6-C ,  9-C ) :   1.2199 B(  6-C , 10-H ) :   0.1682
B(  6-C , 11-H ) :   0.1165 B(  6-C , 21-H ) :   0.1294 B(  6-C , 22-H ) :   0.1083
B(  7-H ,  8-H ) :  -0.1109 B(  7-H ,  9-C ) :   0.1709 B(  8-H ,  9-C ) :   0.1621
B(  9-C , 10-H ) :   0.8088 B(  9-C , 11-H ) :   0.7895 B(  9-C , 12-C ) :   1.2051
B(  9-C , 13-C ) :   0.1180 B(  9-C , 14-H ) :   0.1902 B(  9-C , 15-H ) :   0.1229
B( 10-H , 11-H ) :  -0.1459 B( 10-H , 12-C ) :   0.1446 B( 11-H , 12-C ) :   0.1076
B( 12-C , 13-C ) :   1.2358 B( 12-C , 14-H ) :   0.6452 B( 12-C , 15-H ) :   0.8229
B( 13-C , 14-H ) :   0.2164 B( 13-C , 15-H ) :   0.2003 B( 13-C , 16-H ) :   0.1167
B( 13-C , 17-H ) :   0.1417 B( 13-C , 19-F ) :   0.8521 B( 13-C , 20-O ) :   1.8966
B( 16-H , 17-H ) :   0.4956 B( 16-H , 20-O ) :   0.2337 B( 16-H , 23-H ) :   0.2611
B( 16-H , 24-H ) :  -0.2036 B( 17-H , 19-F ) :   0.2361 B( 18-H , 23-H ) :  -0.1629
B( 19-F , 20-O ) :   0.1100 B( 23-H , 24-H ) :  -0.1083

FINAL SINGLE POINT ENERGY      -487.368045992385

DIPOLE MOMENT
-------------
                                X             Y             Z
Electronic contribution:      0.32788      -1.96384     -10.57291
Nuclear contribution   :     -1.21560       2.80077      10.24180
                        -----------------------------------------
Total Dipole Moment    :     -0.88773       0.83693      -0.33111
                        -----------------------------------------
Magnitude (a.u.)       :      1.26418
Magnitude (Debye)      :      3.21328

Rotational constants in cm-1:     0.051255     0.042531     0.028894
Rotational constants in MHz :  1536.587743  1275.050721   866.218876

                             ****ORCA TERMINATED NORMALLY****
TOTAL RUN TIME: 0 days 0 hours 1 minutes 48 seconds 934 msec
