                         Program Version 5.0.0 -  RELEASE  -
|  1> !BLYP D3BJ RIJCOSX def2-TZVPD def2/J TightSCF
|  2> *xyz -1 1
|  3> C         -0.77455        2.78833       -0.54394
|  4> C          0.69721        3.22791       -0.52513
|  5> O          1.48929        2.37470        0.19919
|  6> H          0.71600        4.26403       -0.13077
|  7> H          1.03615        3.33092       -1.58367
|  8> H         -1.34746        3.48478       -1.11982
|  9> H         -1.15078        2.75876        0.45729
| 10> H         -0.85058        1.81526       -0.98241
| 11> *
| 12>
| 13> %MaxCore 64000
| 14> %pal nprocs 4
| 15> end
| 16>
| 17> %scf
| 18>   MaxIter 150
| 19> end
| 20>
| 21>
| 22>                          ****END OF INPUT****

CARTESIAN COORDINATES (ANGSTROEM)
---------------------------------
  C     -0.774550    2.788330   -0.543940
  C      0.697210    3.227910   -0.525130
  O      1.489290    2.374700    0.199190
  H      0.716000    4.264030   -0.130770
  H      1.036150    3.330920   -1.583670
  H     -1.347460    3.484780   -1.119820
  H     -1.150780    2.758760    0.457290
  H     -0.850580    1.815260   -0.982410

 Total Charge           Charge          ....   -1
 Multiplicity           Mult            ....    1
 Number of Electrons    NEL             ....   26
 Basis Dimension        Dim             ....  159

ORBITAL ENERGIES
----------------

  NO   OCC          E(Eh)            E(eV)
   0   2.0000     -18.457927      -502.2657
   1   2.0000      -9.723506      -264.5901
   2   2.0000      -9.697437      -263.8807
   3   2.0000      -0.601033       -16.3549
   4   2.0000      -0.454125       -12.3574
   5   2.0000      -0.313224        -8.5233
   6   2.0000      -0.201454        -5.4818
   7   2.0000      -0.180533        -4.9126
   8   2.0000      -0.131028        -3.5654
   9   2.0000      -0.114143        -3.1060
  10   2.0000      -0.074429        -2.0253
  11   2.0000       0.062057         1.6886
  12   2.0000       0.065695         1.7876
  13   0.0000       0.140729         3.8294
  14   0.0000       0.163906         4.4601
  15   0.0000       0.188611         5.1324
  16   0.0000       0.193678         5.2702
  17   0.0000       0.214025         5.8239

MULLIKEN ATOMIC CHARGES
-----------------------
   0 C :   -1.212074
   1 C :   -0.246574
   2 O :   -0.920020
   3 H :    0.207961
   4 H :    0.211939
   5 H :    0.411687
   6 H :    0.271861
   7 H :    0.275220
Sum of atomic charges:   -1.0000000

LOEWDIN ATOMIC CHARGES
----------------------
   0 C :   -0.176992
   1 C :   -0.621068
   2 O :   -0.378136
   3 H :    0.045401
   4 H :    0.048337
   5 H :    0.016570
   6 H :    0.033160
   7 H :    0.032727

  Mayer bond orders larger than 0.100000
B(  0-C ,  1-C ) :   0.7267 B(  0-C ,  2-O ) :   0.6260 B(  0-C ,  5-H ) :   0.9043
B(  0-C ,  6-H ) :   0.9844 B(  0-C ,  7-H ) :   0.9822 B(  1-C ,  2-O ) :   0.7995
B(  1-C ,  3-H ) :   1.0558 B(  1-C ,  4-H ) :   1.0480 B(  2-O ,  5-H ) :  -0.1266
B(  3-H ,  4-H ) :   0.1168

Dispersion correction           -0.007745486
FINAL SINGLE POINT ENERGY      -154.441504731850

DIPOLE MOMENT
-------------
                                X             Y             Z
Electronic contribution:      2.62793      -1.09922       1.26959
Nuclear contribution   :     -3.69910       1.55962      -1.78699
                        -----------------------------------------
Total Dipole Moment    :     -1.07117       0.46040      -0.51740
                        -----------------------------------------
Magnitude (a.u.)       :      1.27557
Magnitude (Debye)      :      3.24224

Rotational constants in cm-1:     1.268893     0.327436     0.287754
Rotational constants in MHz : 38040.440181  9816.269339  8626.646564

                             ****ORCA TERMINATED NORMALLY****
TOTAL RUN TIME: 0 days 0 hours 0 minutes 9 seconds 292 msec
