                         Program Version 5.0.0 -  RELEASE  -
|  1> !BLYP D3BJ RIJCOSX def2-TZVPD def2/J TightSCF
|  2> *xyz 1 1
|  3> C          3.95643        0.50147       -0.37910
|  4> H          3.16840        0.02920        0.20738
|  5> N          3.80389        1.96157       -0.15675
|  6> C          3.84232        0.14849       -1.85406
|  7> H          4.92323        0.17798        0.00937
|  8> H          4.20643        2.24441        0.74536
|  9> H          2.80827        2.21132       -0.09610
| 10> H          4.28076        2.50155       -0.89104
| 11> H          4.62951        0.62800       -2.39748
| 12> H          2.89665        0.48102       -2.22825
| 13> H          3.92053       -0.91187       -1.97413
| 14> *
| 15>
| 16> %MaxCore 64000
| 17> %pal nprocs 4
| 18> end
| 19>
| 20> %scf
| 21>   MaxIter 150
| 22> end
| 23>
| 24>
| 25>                          ****END OF INPUT****

CARTESIAN COORDINATES (ANGSTROEM)
---------------------------------
  C      3.956430    0.501470   -0.379100
  H      3.168400    0.029200    0.207380
  N      3.803890    1.961570   -0.156750
  C      3.842320    0.148490   -1.854060
  H      4.923230    0.177980    0.009370
  H      4.206430    2.244410    0.745360
  H      2.808270    2.211320   -0.096100
  H      4.280760    2.501550   -0.891040
  H      4.629510    0.628000   -2.397480
  H      2.896650    0.481020   -2.228250
  H      3.920530   -0.911870   -1.974130

 Total Charge           Charge          ....    1
 Multiplicity           Mult            ....    1
 Number of Electrons    NEL             ....   26
 Basis Dimension        Dim             ....  183

ORBITAL ENERGIES
----------------

  NO   OCC          E(Eh)            E(eV)
   0   2.0000     -14.338958      -390.1829
   1   2.0000     -10.157282      -276.3937
   2   2.0000     -10.079586      -274.2795
   3   2.0000      -1.130508       -30.7627
   4   2.0000      -0.891006       -24.2455
   5   2.0000      -0.779852       -21.2208
   6   2.0000      -0.747689       -20.3456
   7   2.0000      -0.730125       -19.8677
   8   2.0000      -0.646173       -17.5833
   9   2.0000      -0.593016       -16.1368
  10   2.0000      -0.536906       -14.6099
  11   2.0000      -0.523638       -14.2489
  12   2.0000      -0.507043       -13.7973
  13   0.0000      -0.226185        -6.1548
  14   0.0000      -0.169998        -4.6259
  15   0.0000      -0.164563        -4.4780
  16   0.0000      -0.154268        -4.1978
  17   0.0000      -0.123298        -3.3551

MULLIKEN ATOMIC CHARGES
-----------------------
   0 C :   -0.269559
   1 H :    0.307050
   2 N :   -0.220812
   3 C :   -1.152513
   4 H :    0.300121
   5 H :    0.323611
   6 H :    0.326733
   7 H :    0.297264
   8 H :    0.384057
   9 H :    0.367968
  10 H :    0.336080
Sum of atomic charges:    1.0000000

LOEWDIN ATOMIC CHARGES
----------------------
   0 C :   -0.198134
   1 H :    0.133804
   2 N :    0.189112
   3 C :   -0.045710
   4 H :    0.134159
   5 H :    0.177193
   6 H :    0.179921
   7 H :    0.176585
   8 H :    0.080911
   9 H :    0.080938
  10 H :    0.091222

  Mayer bond orders larger than 0.100000
B(  0-C ,  1-H ) :   0.9175 B(  0-C ,  2-N ) :   0.9438 B(  0-C ,  3-C ) :   0.6062
B(  0-C ,  4-H ) :   0.9140 B(  2-N ,  5-H ) :   0.8815 B(  2-N ,  6-H ) :   0.8741
B(  2-N ,  7-H ) :   0.8860 B(  3-C ,  8-H ) :   0.8935 B(  3-C ,  9-H ) :   0.9346
B(  3-C , 10-H ) :   0.9611

Dispersion correction           -0.012450835
FINAL SINGLE POINT ENERGY      -135.519142996650

DIPOLE MOMENT
-------------
                                X             Y             Z
Electronic contribution:     -0.01132       1.30611       1.23113
Nuclear contribution   :     -0.06214      -0.04120      -0.39947
                        -----------------------------------------
Total Dipole Moment    :     -0.07346       1.26491       0.83165
                        -----------------------------------------
Magnitude (a.u.)       :      1.51560
Magnitude (Debye)      :      3.85235

Rotational constants in cm-1:     1.011771     0.281435     0.249812
Rotational constants in MHz : 30332.138762  8437.210602  7489.166323

                             ****ORCA TERMINATED NORMALLY****
TOTAL RUN TIME: 0 days 0 hours 0 minutes 9 seconds 474 msec
