                         Program Version 5.0.0 -  RELEASE  -
|  1> !BLYP D3BJ RIJCOSX def2-TZVPD def2/J TightSCF xyzfile
|  2>
|  3> *xyzfile 0 1 B.xyz
|  4>
|  5> %MaxCore 64000
|  6>
|  7> %pal nprocs 4
|  8> end
|  9>
| 10> %scf
| 11>   MaxIter 150
| 12> end
| 13>
| 14>
| 15>                          ****END OF INPUT****

CARTESIAN COORDINATES (ANGSTROEM)
---------------------------------
  C      3.956426    0.501466   -0.379100
  H      3.168398    0.029201    0.207383
  N      3.803893    1.961572   -0.156747
  C      3.842322    0.148490   -1.854058
  H      4.923231    0.177982    0.009371
  H      4.620021    0.694502   -2.402150
  H      4.096015   -0.910930   -1.955103
  C      2.475619    0.412708   -2.485377
  H      2.174689    1.445076   -2.287971
  C      1.383931   -0.532740   -1.995203
  H      2.575613    0.318574   -3.571460
  H      1.264698   -0.412309   -0.915491
  H      1.705223   -1.566885   -2.164984
  C      0.031398   -0.317260   -2.677791
  C     -0.587292    1.060853   -2.436460
  H     -0.662815   -1.089530   -2.329985
  H      0.149465   -0.478040   -3.755648
  H      0.104376    1.828590   -2.793130
  C     -0.951213    1.334978   -0.972500
  H     -1.478832    1.161355   -3.062484
  H     -0.317007    0.741648   -0.311389
  H     -1.980916    1.012842   -0.788958
  C     -0.774550    2.788332   -0.543943
  H     -1.352609    3.459372   -1.192585
  H     -1.171014    2.902331    0.469968
  C      0.697208    3.227911   -0.525126
  O      1.489294    2.374703    0.199189
  H      0.715998    4.264030   -0.130774
  H      1.036148    3.330920   -1.583669
  H      4.206425    2.244406    0.745359
  H      2.808269    2.211323   -0.096097
  H      4.280757    2.501552   -0.891037

 Total Charge           Charge          ....    0
 Multiplicity           Mult            ....    1
 Number of Electrons    NEL             ....   90
 Basis Dimension        Dim             ....  599

ORBITAL ENERGIES
----------------

  NO   OCC          E(Eh)            E(eV)
   0   2.0000     -18.648612      -507.4545
   1   2.0000     -14.085241      -383.2789
   2   2.0000      -9.970616      -271.3143
   3   2.0000      -9.927373      -270.1376
   4   2.0000      -9.901849      -269.4430
   5   2.0000      -9.889633      -269.1106
   6   2.0000      -9.887949      -269.0648
   7   2.0000      -9.883957      -268.9562
   8   2.0000      -9.871558      -268.6187
   9   2.0000      -9.859163      -268.2815
  10   2.0000      -9.852568      -268.1020
  11   2.0000      -0.902753       -24.5652
  12   2.0000      -0.802632       -21.8407
  13   2.0000      -0.737002       -20.0548
  14   2.0000      -0.699488       -19.0340
  15   2.0000      -0.663923       -18.0663
  16   2.0000      -0.625563       -17.0224
  17   2.0000      -0.590318       -16.0634
  18   2.0000      -0.555637       -15.1196
  19   2.0000      -0.529155       -14.3990
  20   2.0000      -0.515482       -14.0270
  21   2.0000      -0.508408       -13.8345
  22   2.0000      -0.485398       -13.2084
  23   2.0000      -0.451075       -12.2744
  24   2.0000      -0.440353       -11.9826
  25   2.0000      -0.414450       -11.2778
  26   2.0000      -0.413872       -11.2620
  27   2.0000      -0.385149       -10.4804
  28   2.0000      -0.373102       -10.1526
  29   2.0000      -0.367542       -10.0013
  30   2.0000      -0.353152        -9.6097
  31   2.0000      -0.342651        -9.3240
  32   2.0000      -0.334312        -9.0971
  33   2.0000      -0.318326        -8.6621
  34   2.0000      -0.309684        -8.4269
  35   2.0000      -0.298698        -8.1280
  36   2.0000      -0.290046        -7.8926
  37   2.0000      -0.282150        -7.6777
  38   2.0000      -0.271985        -7.4011
  39   2.0000      -0.266529        -7.2526
  40   2.0000      -0.247617        -6.7380
  41   2.0000      -0.242161        -6.5895
  42   2.0000      -0.239249        -6.5103
  43   2.0000      -0.140635        -3.8269
  44   2.0000      -0.131372        -3.5748
  45   0.0000      -0.044728        -1.2171
  46   0.0000      -0.011370        -0.3094
  47   0.0000      -0.007264        -0.1977
  48   0.0000       0.006649         0.1809
  49   0.0000       0.019050         0.5184

MULLIKEN ATOMIC CHARGES
-----------------------
   0 C :   -0.573242
   1 H :    0.308151
   2 N :   -0.076583
   3 C :   -0.502967
   4 H :    0.269584
   5 H :    0.214145
   6 H :    0.251898
   7 C :   -0.099738
   8 H :    0.058128
   9 C :   -0.327429
  10 H :    0.257755
  11 H :    0.146259
  12 H :    0.268988
  13 C :   -0.694829
  14 C :   -0.572966
  15 H :    0.247511
  16 H :    0.274891
  17 H :    0.265681
  18 C :   -0.251552
  19 H :    0.305519
  20 H :    0.050953
  21 H :    0.312637
  22 C :   -0.634487
  23 H :    0.233784
  24 H :    0.283722
  25 C :   -0.345223
  26 O :   -0.923812
  27 H :    0.221479
  28 H :    0.218416
  29 H :    0.306535
  30 H :    0.213619
  31 H :    0.293174
Sum of atomic charges:    0.0000000

LOEWDIN ATOMIC CHARGES
----------------------
   0 C :   -0.170871
   1 H :    0.123700
   2 N :    0.145157
   3 C :   -0.187691
   4 H :    0.114507
   5 H :    0.107722
   6 H :    0.113219
   7 C :   -0.199581
   8 H :    0.089385
   9 C :   -0.206808
  10 H :    0.116270
  11 H :    0.094029
  12 H :    0.110257
  13 C :   -0.204070
  14 C :   -0.204931
  15 H :    0.107328
  16 H :    0.103197
  17 H :    0.087685
  18 C :   -0.211481
  19 H :    0.105485
  20 H :    0.086905
  21 H :    0.103442
  22 C :   -0.199302
  23 H :    0.103095
  24 H :    0.100686
  25 C :   -0.420128
  26 O :   -0.244723
  27 H :    0.090632
  28 H :    0.081681
  29 H :    0.155377
  30 H :   -0.045648
  31 H :    0.155476

  Mayer bond orders larger than 0.100000
B(  0-C ,  1-H ) :   0.9028 B(  0-C ,  2-N ) :   0.9471 B(  0-C ,  3-C ) :   0.7411
B(  0-C ,  4-H ) :   0.9278 B(  0-C ,  9-C ) :   0.1170 B(  2-N , 29-H ) :   0.8783
B(  2-N , 30-H ) :   0.8281 B(  2-N , 31-H ) :   0.8595 B(  3-C ,  5-H ) :   0.9707
B(  3-C ,  6-H ) :   0.9688 B(  3-C ,  7-C ) :   0.7899 B(  3-C ,  9-C ) :   0.1218
B(  7-C ,  8-H ) :   1.2371 B(  7-C ,  9-C ) :   0.3917 B(  7-C , 10-H ) :   0.9060
B(  7-C , 11-H ) :  -0.1020 B(  7-C , 12-H ) :  -0.1326 B(  7-C , 13-C ) :   0.1377
B(  7-C , 14-C ) :   0.1505 B(  9-C , 10-H ) :  -0.1004 B(  9-C , 11-H ) :   1.0521
B(  9-C , 12-H ) :   0.9437 B(  9-C , 13-C ) :   0.8097 B( 13-C , 14-C ) :   0.8233
B( 13-C , 15-H ) :   0.9703 B( 13-C , 16-H ) :   0.9411 B( 13-C , 18-C ) :   0.1954
B( 14-C , 17-H ) :   0.9687 B( 14-C , 18-C ) :   0.4909 B( 14-C , 19-H ) :   0.9220
B( 14-C , 22-C ) :   0.2324 B( 18-C , 20-H ) :   1.0354 B( 18-C , 21-H ) :   0.8931
B( 18-C , 22-C ) :   0.8926 B( 20-H , 26-O ) :   0.1252 B( 22-C , 23-H ) :   1.0093
B( 22-C , 24-H ) :   0.9028 B( 22-C , 25-C ) :   0.9061 B( 25-C , 26-O ) :   0.7925
B( 25-C , 27-H ) :   0.9739 B( 25-C , 28-H ) :   0.9537 B( 26-O , 30-H ) :   0.2146

Dispersion correction           -0.065636211
FINAL SINGLE POINT ENERGY      -485.516737891615

DIPOLE MOMENT
-------------
                                X             Y             Z
Electronic contribution:      2.06515       0.87571       2.58388
Nuclear contribution   :      0.61785      -1.47632      -2.91844
                        -----------------------------------------
Total Dipole Moment    :      2.68299      -0.60062      -0.33456
                        -----------------------------------------
Magnitude (a.u.)       :      2.76968
Magnitude (Debye)      :      7.03997

Rotational constants in cm-1:     0.040993     0.027400     0.018162
Rotational constants in MHz :  1228.944366   821.418004   544.476857

                             ****ORCA TERMINATED NORMALLY****
TOTAL RUN TIME: 0 days 0 hours 1 minutes 8 seconds 707 msec
