                         Program Version 5.0.0 -  RELEASE  -
|  1> !BLYP D3BJ RIJCOSX def2-TZVPD def2/J TightSCF
|  2> *xyz 0 1
|  3> C         -0.77455        2.78833       -0.54394
|  4> C          0.69721        3.22791       -0.52513
|  5> F          1.48929        2.37470        0.19919
|  6> H          0.71600        4.26403       -0.13077
|  7> H          1.03615        3.33092       -1.58367
|  8> H         -1.34746        3.48478       -1.11982
|  9> H         -1.15078        2.75876        0.45729
| 10> H         -0.85058        1.81526       -0.98241
| 11> *
| 12>
| 13> %MaxCore 64000
| 14> %pal nprocs 4
| 15> end
| 16>
| 17> %scf
| 18>   MaxIter 150
| 19> end
| 20>
| 21>
| 22>                          ****END OF INPUT****

CARTESIAN COORDINATES (ANGSTROEM)
---------------------------------
  C     -0.774550    2.788330   -0.543940
  C      0.697210    3.227910   -0.525130
  F      1.489290    2.374700    0.199190
  H      0.716000    4.264030   -0.130770
  H      1.036150    3.330920   -1.583670
  H     -1.347460    3.484780   -1.119820
  H     -1.150780    2.758760    0.457290
  H     -0.850580    1.815260   -0.982410

 Total Charge           Charge          ....    0
 Multiplicity           Mult            ....    1
 Number of Electrons    NEL             ....   26
 Basis Dimension        Dim             ....  159

ORBITAL ENERGIES
----------------

  NO   OCC          E(Eh)            E(eV)
   0   2.0000     -24.274141      -660.5330
   1   2.0000      -9.982043      -271.6252
   2   2.0000      -9.899328      -269.3744
   3   2.0000      -1.092467       -29.7275
   4   2.0000      -0.687410       -18.7054
   5   2.0000      -0.564057       -15.3488
   6   2.0000      -0.452318       -12.3082
   7   2.0000      -0.435959       -11.8630
   8   2.0000      -0.399668       -10.8755
   9   2.0000      -0.353531        -9.6201
  10   2.0000      -0.351939        -9.5767
  11   2.0000      -0.286440        -7.7944
  12   2.0000      -0.281927        -7.6716
  13   0.0000      -0.006834        -0.1860
  14   0.0000       0.020596         0.5605
  15   0.0000       0.033267         0.9052
  16   0.0000       0.039280         1.0689
  17   0.0000       0.063852         1.7375

MULLIKEN ATOMIC CHARGES
-----------------------
   0 C :   -0.948567
   1 C :   -0.081920
   2 F :   -0.300220
   3 H :    0.220557
   4 H :    0.221554
   5 H :    0.322248
   6 H :    0.283974
   7 H :    0.282374
Sum of atomic charges:   -0.0000000

LOEWDIN ATOMIC CHARGES
----------------------
   0 C :   -0.077586
   1 C :   -0.298990
   2 F :   -0.026752
   3 H :    0.106472
   4 H :    0.110410
   5 H :    0.063797
   6 H :    0.061510
   7 H :    0.061139

  Mayer bond orders larger than 0.100000
B(  0-C ,  1-C ) :   0.7346 B(  0-C ,  5-H ) :   0.9257 B(  0-C ,  6-H ) :   0.9565
B(  0-C ,  7-H ) :   0.9563 B(  1-C ,  2-F ) :   0.8232 B(  1-C ,  3-H ) :   0.9683
B(  1-C ,  4-H ) :   0.9632

Dispersion correction           -0.007136014
FINAL SINGLE POINT ENERGY      -179.083810338330

DIPOLE MOMENT
-------------
                                X             Y             Z
Electronic contribution:      4.43145      -1.67241       2.01706
Nuclear contribution   :     -4.89513       2.05627      -2.36166
                        -----------------------------------------
Total Dipole Moment    :     -0.46368       0.38387      -0.34460
                        -----------------------------------------
Magnitude (a.u.)       :      0.69362
Magnitude (Debye)      :      1.76303

Rotational constants in cm-1:     1.247826     0.304622     0.269019
Rotational constants in MHz : 37408.889506  9132.346906  8064.979146

                             ****ORCA TERMINATED NORMALLY****
TOTAL RUN TIME: 0 days 0 hours 0 minutes 7 seconds 660 msec
