                         Program Version 5.0.0 -  RELEASE  -
|  1> !BLYP D3BJ RIJCOSX def2-TZVPD def2/J TightSCF
|  2> *xyz 0 1
|  3> C          3.95643        0.50147       -0.37910
|  4> H          3.16840        0.02920        0.20738
|  5> C          3.80389        1.96157       -0.15675
|  6> C          3.84232        0.14849       -1.85406
|  7> H          4.92323        0.17798        0.00937
|  8> H          4.20643        2.24441        0.74536
|  9> H          2.80827        2.21132       -0.09610
| 10> H          4.28076        2.50155       -0.89104
| 11> H          4.62951        0.62800       -2.39748
| 12> H          2.89665        0.48102       -2.22825
| 13> H          3.92053       -0.91187       -1.97413
| 14> *
| 15>
| 16> %MaxCore 64000
| 17> %pal nprocs 4
| 18> end
| 19>
| 20> %scf
| 21>   MaxIter 150
| 22> end
| 23>
| 24>
| 25>                          ****END OF INPUT****

CARTESIAN COORDINATES (ANGSTROEM)
---------------------------------
  C      3.956430    0.501470   -0.379100
  H      3.168400    0.029200    0.207380
  C      3.803890    1.961570   -0.156750
  C      3.842320    0.148490   -1.854060
  H      4.923230    0.177980    0.009370
  H      4.206430    2.244410    0.745360
  H      2.808270    2.211320   -0.096100
  H      4.280760    2.501550   -0.891040
  H      4.629510    0.628000   -2.397480
  H      2.896650    0.481020   -2.228250
  H      3.920530   -0.911870   -1.974130

 Total Charge           Charge          ....    0
 Multiplicity           Mult            ....    1
 Number of Electrons    NEL             ....   26
 Basis Dimension        Dim             ....  183

ORBITAL ENERGIES
----------------

  NO   OCC          E(Eh)            E(eV)
   0   2.0000      -9.889480      -269.1064
   1   2.0000      -9.881171      -268.8803
   2   2.0000      -9.863705      -268.4051
   3   2.0000      -0.711424       -19.3588
   4   2.0000      -0.616944       -16.7879
   5   2.0000      -0.520170       -14.1545
   6   2.0000      -0.415453       -11.3050
   7   2.0000      -0.393329       -10.7030
   8   2.0000      -0.352779        -9.5996
   9   2.0000      -0.342459        -9.3188
  10   2.0000      -0.292543        -7.9605
  11   2.0000      -0.290820        -7.9136
  12   2.0000      -0.281861        -7.6698
  13   0.0000      -0.002546        -0.0693
  14   0.0000       0.022558         0.6138
  15   0.0000       0.026009         0.7077
  16   0.0000       0.041635         1.1330
  17   0.0000       0.064486         1.7548

MULLIKEN ATOMIC CHARGES
-----------------------
   0 C :    0.052498
   1 H :    0.203570
   2 C :   -1.334885
   3 C :   -1.155896
   4 H :    0.226448
   5 H :    0.372967
   6 H :    0.360532
   7 H :    0.341579
   8 H :    0.312257
   9 H :    0.311952
  10 H :    0.308978
Sum of atomic charges:   -0.0000000

LOEWDIN ATOMIC CHARGES
----------------------
   0 C :   -0.311310
   1 H :    0.100673
   2 C :   -0.120922
   3 C :   -0.109118
   4 H :    0.100259
   5 H :    0.049012
   6 H :    0.053831
   7 H :    0.052271
   8 H :    0.063072
   9 H :    0.064487
  10 H :    0.057744

  Mayer bond orders larger than 0.100000
B(  0-C ,  1-H ) :   0.9829 B(  0-C ,  2-C ) :   0.5733 B(  0-C ,  3-C ) :   0.5814
B(  0-C ,  4-H ) :   0.9780 B(  2-C ,  3-C ) :   0.1130 B(  2-C ,  5-H ) :   0.9181
B(  2-C ,  6-H ) :   0.9345 B(  2-C ,  7-H ) :   0.9281 B(  3-C ,  8-H ) :   0.9669
B(  3-C ,  9-H ) :   0.9726 B(  3-C , 10-H ) :   0.9667

Dispersion correction           -0.012534118
FINAL SINGLE POINT ENERGY      -119.096843122691

DIPOLE MOMENT
-------------
                                X             Y             Z
Electronic contribution:      0.08146      -0.29745       0.23512
Nuclear contribution   :     -0.08172       0.30475      -0.19303
                        -----------------------------------------
Total Dipole Moment    :     -0.00026       0.00730       0.04209
                        -----------------------------------------
Magnitude (a.u.)       :      0.04271
Magnitude (Debye)      :      0.10857

Rotational constants in cm-1:     1.020248     0.295755     0.261591
Rotational constants in MHz : 30586.266829  8866.511639  7842.297953

                             ****ORCA TERMINATED NORMALLY****
TOTAL RUN TIME: 0 days 0 hours 0 minutes 9 seconds 435 msec
