                         Program Version 5.0.0 -  RELEASE  -
|  1> !BLYP D3BJ RIJCOSX def2-TZVPD def2/J TightSCF xyzfile
|  2>
|  3> *xyzfile 0 1 D.xyz
|  4>
|  5> %MaxCore 64000
|  6>
|  7> %pal nprocs 4
|  8> end
|  9>
| 10> %scf
| 11>   MaxIter 150
| 12> end
| 13>
| 14>
| 15>                          ****END OF INPUT****

CARTESIAN COORDINATES (ANGSTROEM)
---------------------------------
  C      3.956426    0.501466   -0.379100
  H      3.168398    0.029201    0.207383
  C      3.803893    1.961572   -0.156747
  C      3.842322    0.148490   -1.854058
  H      4.923231    0.177982    0.009371
  H      4.620021    0.694502   -2.402150
  H      4.096015   -0.910930   -1.955103
  C      2.475619    0.412708   -2.485377
  H      2.174689    1.445076   -2.287971
  C      1.383931   -0.532740   -1.995203
  H      2.575613    0.318574   -3.571460
  H      1.264698   -0.412309   -0.915491
  H      1.705223   -1.566885   -2.164984
  C      0.031398   -0.317260   -2.677791
  C     -0.587292    1.060853   -2.436460
  H     -0.662815   -1.089530   -2.329985
  H      0.149465   -0.478040   -3.755648
  H      0.104376    1.828590   -2.793130
  C     -0.951213    1.334978   -0.972500
  H     -1.478832    1.161355   -3.062484
  H     -0.317007    0.741648   -0.311389
  H     -1.980916    1.012842   -0.788958
  C     -0.774550    2.788332   -0.543943
  H     -1.352609    3.459372   -1.192585
  H     -1.171014    2.902331    0.469968
  C      0.697208    3.227911   -0.525126
  F      1.489294    2.374703    0.199189
  H      0.715998    4.264030   -0.130774
  H      1.036148    3.330920   -1.583669
  H      4.206425    2.244406    0.745359
  H      2.808269    2.211323   -0.096097
  H      4.280757    2.501552   -0.891037

 Total Charge           Charge          ....    0
 Multiplicity           Mult            ....    1
 Number of Electrons    NEL             ....   90
 Basis Dimension        Dim             ....  599

ORBITAL ENERGIES
----------------

  NO   OCC          E(Eh)            E(eV)
   0   2.0000     -24.293582      -661.0620
   1   2.0000      -9.989522      -271.8287
   2   2.0000      -9.914402      -269.7846
   3   2.0000      -9.901315      -269.4285
   4   2.0000      -9.897857      -269.3344
   5   2.0000      -9.894917      -269.2544
   6   2.0000      -9.889225      -269.0995
   7   2.0000      -9.887148      -269.0430
   8   2.0000      -9.881378      -268.8860
   9   2.0000      -9.871008      -268.6038
  10   2.0000      -9.819738      -267.2086
  11   2.0000      -1.125226       -30.6190
  12   2.0000      -0.738101       -20.0848
  13   2.0000      -0.719614       -19.5817
  14   2.0000      -0.688993       -18.7485
  15   2.0000      -0.660828       -17.9820
  16   2.0000      -0.616843       -16.7852
  17   2.0000      -0.593810       -16.1584
  18   2.0000      -0.554770       -15.0961
  19   2.0000      -0.535353       -14.5677
  20   2.0000      -0.501343       -13.6422
  21   2.0000      -0.490399       -13.3444
  22   2.0000      -0.468844       -12.7579
  23   2.0000      -0.453711       -12.3461
  24   2.0000      -0.436589       -11.8802
  25   2.0000      -0.414266       -11.2728
  26   2.0000      -0.402964       -10.9652
  27   2.0000      -0.395823       -10.7709
  28   2.0000      -0.378183       -10.2909
  29   2.0000      -0.373117       -10.1530
  30   2.0000      -0.360011        -9.7964
  31   2.0000      -0.344288        -9.3686
  32   2.0000      -0.336742        -9.1632
  33   2.0000      -0.327590        -8.9142
  34   2.0000      -0.318868        -8.6768
  35   2.0000      -0.308093        -8.3836
  36   2.0000      -0.303468        -8.2578
  37   2.0000      -0.296778        -8.0757
  38   2.0000      -0.280918        -7.6442
  39   2.0000      -0.277082        -7.5398
  40   2.0000      -0.270715        -7.3665
  41   2.0000      -0.269993        -7.3469
  42   2.0000      -0.256240        -6.9726
  43   2.0000      -0.255186        -6.9440
  44   2.0000      -0.229516        -6.2454
  45   0.0000      -0.011011        -0.2996
  46   0.0000      -0.002817        -0.0766
  47   0.0000       0.002996         0.0815
  48   0.0000       0.009059         0.2465
  49   0.0000       0.020947         0.5700

MULLIKEN ATOMIC CHARGES
-----------------------
   0 C :   -0.197239
   1 H :    0.268572
   2 C :   -1.024658
   3 C :   -0.559103
   4 H :    0.186267
   5 H :    0.259105
   6 H :    0.224903
   7 C :   -0.239777
   8 H :    0.061195
   9 C :   -0.274538
  10 H :    0.247854
  11 H :    0.112342
  12 H :    0.275786
  13 C :   -0.693375
  14 C :   -0.577828
  15 H :    0.246533
  16 H :    0.290531
  17 H :    0.302260
  18 C :   -0.326814
  19 H :    0.301985
  20 H :    0.139876
  21 H :    0.320037
  22 C :   -0.588902
  23 H :    0.233074
  24 H :    0.288280
  25 C :   -0.301430
  26 F :   -0.421977
  27 H :    0.261083
  28 H :    0.267334
  29 H :    0.416755
  30 H :    0.127811
  31 H :    0.374055
Sum of atomic charges:    0.0000000

LOEWDIN ATOMIC CHARGES
----------------------
   0 C :   -0.246808
   1 H :    0.100858
   2 C :   -0.104784
   3 C :   -0.210223
   4 H :    0.102379
   5 H :    0.107673
   6 H :    0.102291
   7 C :   -0.201112
   8 H :    0.086121
   9 C :   -0.205781
  10 H :    0.113584
  11 H :    0.092091
  12 H :    0.113701
  13 C :   -0.203446
  14 C :   -0.203204
  15 H :    0.107563
  16 H :    0.106444
  17 H :    0.089439
  18 C :   -0.201432
  19 H :    0.108262
  20 H :    0.094504
  21 H :    0.111441
  22 C :   -0.174536
  23 H :    0.117471
  24 H :    0.107407
  25 C :   -0.210402
  26 F :   -0.014894
  27 H :    0.122099
  28 H :    0.115459
  29 H :    0.057209
  30 H :   -0.039972
  31 H :    0.060598

  Mayer bond orders larger than 0.100000
B(  0-C ,  1-H ) :   0.9149 B(  0-C ,  2-C ) :   0.4118 B(  0-C ,  3-C ) :   0.7857
B(  0-C ,  4-H ) :   1.0100 B(  0-C ,  9-C ) :   0.1503 B(  0-C , 30-H ) :  -0.1096
B(  2-C , 26-F ) :   0.2169 B(  2-C , 29-H ) :   0.9501 B(  2-C , 30-H ) :   0.9450
B(  2-C , 31-H ) :   1.0478 B(  3-C ,  5-H ) :   0.9353 B(  3-C ,  6-H ) :   0.9494
B(  3-C ,  7-C ) :   0.9567 B(  7-C ,  8-H ) :   1.2769 B(  7-C ,  9-C ) :   0.3439
B(  7-C , 10-H ) :   0.8906 B(  7-C , 11-H ) :  -0.1186 B(  7-C , 12-H ) :  -0.1053
B(  7-C , 13-C ) :   0.1247 B(  7-C , 14-C ) :   0.1375 B(  8-H ,  9-C ) :  -0.1505
B(  9-C , 10-H ) :  -0.1075 B(  9-C , 11-H ) :   1.0755 B(  9-C , 12-H ) :   0.9207
B(  9-C , 13-C ) :   0.7914 B( 13-C , 14-C ) :   0.8444 B( 13-C , 15-H ) :   0.9756
B( 13-C , 16-H ) :   0.9321 B( 13-C , 18-C ) :   0.2027 B( 14-C , 17-H ) :   0.9465
B( 14-C , 18-C ) :   0.5048 B( 14-C , 19-H ) :   0.9257 B( 14-C , 22-C ) :   0.2172
B( 18-C , 20-H ) :   1.0310 B( 18-C , 21-H ) :   0.9017 B( 18-C , 22-C ) :   0.8636
B( 22-C , 23-H ) :   0.9755 B( 22-C , 24-H ) :   0.9286 B( 22-C , 25-C ) :   0.8616
B( 22-C , 26-F ) :   0.1177 B( 25-C , 26-F ) :   0.6629 B( 25-C , 27-H ) :   0.8983
B( 25-C , 28-H ) :   0.9700 B( 26-F , 30-H ) :  -0.1486

Dispersion correction           -0.064249733
FINAL SINGLE POINT ENERGY      -493.474543768933

DIPOLE MOMENT
-------------
                                X             Y             Z
Electronic contribution:     -1.93666       3.26435       4.29700
Nuclear contribution   :      1.09293      -2.80761      -4.51228
                        -----------------------------------------
Total Dipole Moment    :     -0.84373       0.45674      -0.21528
                        -----------------------------------------
Magnitude (a.u.)       :      0.98328
Magnitude (Debye)      :      2.49929

Rotational constants in cm-1:     0.040502     0.027818     0.018259
Rotational constants in MHz :  1214.218058   833.972871   547.398614

                             ****ORCA TERMINATED NORMALLY****
TOTAL RUN TIME: 0 days 0 hours 1 minutes 0 seconds 670 msec
