                         Program Version 5.0.0 -  RELEASE  -
|  1> !wB97X-D3 RIJCOSX def2-SVPD def2/J TightSCF
|  2> *xyz -1 1
|  3> C         -1.36646        2.47911       -4.31393
|  4> C         -2.35773        2.30686       -3.13675
|  5> O         -3.44376        2.84652       -3.25274
|  6> O         -1.97092        1.58304       -2.15123
|  7> H         -1.80853        3.10058       -5.06443
|  8> H         -1.13980        1.52081       -4.73248
|  9> H         -0.46612        2.93495       -3.95827
| 10> *
| 11> %MaxCore 64000
| 12>
| 13> %pal nprocs 18
| 14> end
| 15>
| 16> %scf
| 17>   MaxIter 150
| 18> end
| 19>
| 20>
| 21>                          ****END OF INPUT****

CARTESIAN COORDINATES (ANGSTROEM)
---------------------------------
  C     -1.366460    2.479110   -4.313930
  C     -2.357730    2.306860   -3.136750
  O     -3.443760    2.846520   -3.252740
  O     -1.970920    1.583040   -2.151230
  H     -1.808530    3.100580   -5.064430
  H     -1.139800    1.520810   -4.732480
  H     -0.466120    2.934950   -3.958270

 Total Charge           Charge          ....   -1
 Multiplicity           Mult            ....    1
 Number of Electrons    NEL             ....   32
 Basis Dimension        Dim             ....  110

ORBITAL ENERGIES
----------------

  NO   OCC          E(Eh)            E(eV)
   0   2.0000     -18.984860      -516.6043
   1   2.0000     -18.972856      -516.2777
   2   2.0000     -10.176314      -276.9116
   3   2.0000     -10.100878      -274.8589
   4   2.0000      -0.932327       -25.3699
   5   2.0000      -0.828074       -22.5330
   6   2.0000      -0.649227       -17.6664
   7   2.0000      -0.403676       -10.9846
   8   2.0000      -0.359362        -9.7787
   9   2.0000      -0.344569        -9.3762
  10   2.0000      -0.329189        -8.9577
  11   2.0000      -0.284987        -7.7549
  12   2.0000      -0.268741        -7.3128
  13   2.0000      -0.140802        -3.8314
  14   2.0000      -0.135204        -3.6791
  15   2.0000      -0.122168        -3.3244
  16   0.0000       0.239668         6.5217
  17   0.0000       0.273602         7.4451
  18   0.0000       0.299463         8.1488
  19   0.0000       0.309459         8.4208
  20   0.0000       0.334190         9.0938

MULLIKEN ATOMIC CHARGES
-----------------------
   0 C :    0.416310
   1 C :    0.030575
   2 O :   -0.577048
   3 O :   -0.717142
   4 H :   -0.064444
   5 H :   -0.043845
   6 H :   -0.044405
Sum of atomic charges:   -1.0000000

LOEWDIN ATOMIC CHARGES
----------------------
   0 C :    0.139143
   1 C :   -0.332953
   2 O :   -0.316057
   3 O :   -0.370567
   4 H :   -0.044333
   5 H :   -0.037066
   6 H :   -0.038167

  Mayer bond orders larger than 0.100000
B(  0-C ,  1-C ) :   1.2048 B(  0-C ,  4-H ) :   0.8864 B(  0-C ,  5-H ) :   0.8391
B(  0-C ,  6-H ) :   0.8343 B(  1-C ,  2-O ) :   1.5890 B(  1-C ,  3-O ) :   1.4745
B(  1-C ,  4-H ) :   0.2234 B(  1-C ,  5-H ) :   0.1475 B(  1-C ,  6-H ) :   0.1512

Dispersion correction           -0.000909507
FINAL SINGLE POINT ENERGY      -228.303914790517

DIPOLE MOMENT
-------------
                                X             Y             Z
Electronic contribution:     -2.41476      -0.32586       2.67323
Nuclear contribution   :      3.20990       0.60513      -3.84153
                        -----------------------------------------
Total Dipole Moment    :      0.79515       0.27927      -1.16830
                        -----------------------------------------
Magnitude (a.u.)       :      1.44054
Magnitude (Debye)      :      3.66157

Rotational constants in cm-1:     0.394521     0.330294     0.185888
Rotational constants in MHz : 11827.441786  9901.964904  5572.768963

                             ****ORCA TERMINATED NORMALLY****
TOTAL RUN TIME: 0 days 0 hours 0 minutes 6 seconds 17 msec
