                         Program Version 5.0.0 -  RELEASE  -
|  1> !wB97X-D3 RIJCOSX def2-SVPD def2/J TightSCF
|  2> *xyz 1 1
|  3> C          0.64866        1.00359       -3.64560
|  4> N          0.28128        0.67645       -2.24018
|  5> H          0.39079       -0.31925       -2.02649
|  6> H         -0.69269        0.99010       -2.13812
|  7> H          0.85421        1.21221       -1.57528
|  8> H          0.03905        0.43387       -4.31545
|  9> H          1.67860        0.76457       -3.80989
| 10> H          0.49232        2.04741       -3.82138
| 11> *
| 12> %MaxCore 64000
| 13>
| 14> %pal nprocs 18
| 15> end
| 16>
| 17> %scf
| 18>   MaxIter 150
| 19> end
| 20>
| 21>
| 22>                          ****END OF INPUT****

CARTESIAN COORDINATES (ANGSTROEM)
---------------------------------
  C      0.648660    1.003590   -3.645600
  N      0.281280    0.676450   -2.240180
  H      0.390790   -0.319250   -2.026490
  H     -0.692690    0.990100   -2.138120
  H      0.854210    1.212210   -1.575280
  H      0.039050    0.433870   -4.315450
  H      1.678600    0.764570   -3.809890
  H      0.492320    2.047410   -3.821380

 Total Charge           Charge          ....    1
 Multiplicity           Mult            ....    1
 Number of Electrons    NEL             ....   18
 Basis Dimension        Dim             ....   88

ORBITAL ENERGIES
----------------

  NO   OCC          E(Eh)            E(eV)
   0   2.0000     -14.788462      -402.4145
   1   2.0000     -10.548204      -287.0312
   2   2.0000      -1.336324       -36.3632
   3   2.0000      -1.046076       -28.4652
   4   2.0000      -0.920983       -25.0612
   5   2.0000      -0.911487       -24.8028
   6   2.0000      -0.812712       -22.1150
   7   2.0000      -0.726194       -19.7608
   8   2.0000      -0.723970       -19.7002
   9   0.0000      -0.122016        -3.3202
  10   0.0000      -0.055404        -1.5076
  11   0.0000      -0.049826        -1.3558
  12   0.0000      -0.047561        -1.2942
  13   0.0000      -0.003714        -0.1011

MULLIKEN ATOMIC CHARGES
-----------------------
   0 C :    0.737506
   1 N :   -0.858542
   2 H :    0.376934
   3 H :    0.414504
   4 H :    0.388475
   5 H :   -0.017112
   6 H :   -0.030199
   7 H :   -0.011566
Sum of atomic charges:    1.0000000

LOEWDIN ATOMIC CHARGES
----------------------
   0 C :    0.278341
   1 N :    0.310297
   2 H :    0.110892
   3 H :    0.109543
   4 H :    0.111762
   5 H :    0.026919
   6 H :    0.024930
   7 H :    0.027315

  Mayer bond orders larger than 0.100000
B(  0-C ,  1-N ) :   0.8074 B(  0-C ,  5-H ) :   0.9217 B(  0-C ,  6-H ) :   0.9416
B(  0-C ,  7-H ) :   0.9140 B(  1-N ,  2-H ) :   0.7795 B(  1-N ,  3-H ) :   0.7326
B(  1-N ,  4-H ) :   0.7683

Dispersion correction           -0.000495160
FINAL SINGLE POINT ENERGY       -96.123570072094

DIPOLE MOMENT
-------------
                                X             Y             Z
Electronic contribution:     -0.26148      -0.27652       1.05757
Nuclear contribution   :      0.04246       0.12404      -0.26487
                        -----------------------------------------
Total Dipole Moment    :     -0.21903      -0.15248       0.79270
                        -----------------------------------------
Magnitude (a.u.)       :      0.83642
Magnitude (Debye)      :      2.12600

Rotational constants in cm-1:     2.856727     0.687609     0.685111
Rotational constants in MHz : 85642.512409 20614.005719 20539.101620

                             ****ORCA TERMINATED NORMALLY****
TOTAL RUN TIME: 0 days 0 hours 0 minutes 4 seconds 73 msec
