                         Program Version 5.0.0 -  RELEASE  -
|  1> !wB97X-D3 RIJCOSX def2-SVPD def2/J TightSCF xyzfile
|  2>
|  3> *xyzfile 0 1 B.xyz
|  4>
|  5> %MaxCore 64000
|  6>
|  7> %pal nprocs 18
|  8> end
|  9>
| 10> %scf
| 11>   MaxIter 150
| 12> end
| 13>
| 14>
| 15>                          ****END OF INPUT****

CARTESIAN COORDINATES (ANGSTROEM)
---------------------------------
  C      0.648656    1.003595   -3.645601
  N      0.281280    0.676454   -2.240179
  C      0.132968    2.385869   -4.024618
  C     -1.366462    2.479106   -4.313932
  C     -2.357732    2.306858   -3.136753
  H     -1.636802    1.727095   -5.063993
  H     -1.582347    3.445605   -4.768687
  H      0.390790   -0.319253   -2.026495
  H     -0.692686    0.990104   -2.138123
  H      0.854206    1.212214   -1.575279
  O     -3.443763    2.846518   -3.252744
  O     -1.970922    1.583042   -2.151229
  H      0.190993    0.239655   -4.275752
  H      1.731572    0.931729   -3.750751
  H      0.414839    3.102847   -3.245165
  H      0.683167    2.687560   -4.919721

 Total Charge           Charge          ....    0
 Multiplicity           Mult            ....    1
 Number of Electrons    NEL             ....   56
 Basis Dimension        Dim             ....  218

ORBITAL ENERGIES
----------------

  NO   OCC          E(Eh)            E(eV)
   0   2.0000     -19.172405      -521.7077
   1   2.0000     -19.153500      -521.1932
   2   2.0000     -14.550463      -395.9382
   3   2.0000     -10.381144      -282.4853
   4   2.0000     -10.356105      -281.8039
   5   2.0000     -10.320817      -280.8437
   6   2.0000     -10.282172      -279.7921
   7   2.0000      -1.132877       -30.8271
   8   2.0000      -1.109115       -30.1806
   9   2.0000      -1.024255       -27.8714
  10   2.0000      -0.924857       -25.1667
  11   2.0000      -0.827313       -22.5123
  12   2.0000      -0.746420       -20.3111
  13   2.0000      -0.712268       -19.3818
  14   2.0000      -0.700272       -19.0554
  15   2.0000      -0.627831       -17.0842
  16   2.0000      -0.585447       -15.9308
  17   2.0000      -0.583539       -15.8789
  18   2.0000      -0.538790       -14.6612
  19   2.0000      -0.523429       -14.2432
  20   2.0000      -0.489512       -13.3203
  21   2.0000      -0.486672       -13.2430
  22   2.0000      -0.477715       -12.9993
  23   2.0000      -0.457154       -12.4398
  24   2.0000      -0.433937       -11.8080
  25   2.0000      -0.330288        -8.9876
  26   2.0000      -0.329608        -8.9691
  27   2.0000      -0.300244        -8.1701
  28   0.0000       0.045117         1.2277
  29   0.0000       0.083585         2.2745
  30   0.0000       0.088107         2.3975
  31   0.0000       0.110146         2.9972
  32   0.0000       0.127857         3.4792

MULLIKEN ATOMIC CHARGES
-----------------------
   0 C :    0.631816
   1 N :   -0.384554
   2 C :    0.021298
   3 C :   -0.023002
   4 C :    0.462453
   5 H :    0.121641
   6 H :    0.027478
   7 H :    0.297567
   8 H :   -0.153482
   9 H :    0.424010
  10 O :   -0.541541
  11 O :   -0.654124
  12 H :    0.001277
  13 H :   -0.176168
  14 H :   -0.042646
  15 H :   -0.012022
Sum of atomic charges:    0.0000000

LOEWDIN ATOMIC CHARGES
----------------------
   0 C :    0.085906
   1 N :    0.314910
   2 C :   -0.019348
   3 C :    0.039172
   4 C :   -0.196293
   5 H :    0.033479
   6 H :    0.025794
   7 H :    0.090071
   8 H :   -0.155495
   9 H :    0.095662
  10 O :   -0.212425
  11 O :   -0.236753
  12 H :    0.044337
  13 H :    0.029735
  14 H :    0.034260
  15 H :    0.026988

  Mayer bond orders larger than 0.100000
B(  0-C ,  1-N ) :   0.7960 B(  0-C ,  2-C ) :   1.1620 B(  0-C , 12-H ) :   0.8760
B(  0-C , 13-H ) :   0.8890 B(  1-N ,  7-H ) :   0.8396 B(  1-N ,  8-H ) :   1.1709
B(  1-N ,  9-H ) :   0.7717 B(  1-N , 13-H ) :   0.1417 B(  2-C ,  3-C ) :   1.1732
B(  2-C ,  5-H ) :   0.1045 B(  2-C ,  6-H ) :   0.1210 B(  2-C , 13-H ) :   0.1175
B(  2-C , 14-H ) :   0.9177 B(  2-C , 15-H ) :   0.8570 B(  3-C ,  4-C ) :   1.0351
B(  3-C ,  5-H ) :   0.8151 B(  3-C ,  6-H ) :   0.9200 B(  3-C , 14-H ) :   0.1028
B(  3-C , 15-H ) :   0.1001 B(  4-C ,  6-H ) :   0.1322 B(  4-C , 10-O ) :   1.6489
B(  4-C , 11-O ) :   1.2595 B(  8-H , 11-O ) :   0.3989 B( 10-O , 11-O ) :   0.1178

Dispersion correction           -0.004907460
FINAL SINGLE POINT ENERGY      -362.703873323389

DIPOLE MOMENT
-------------
                                X             Y             Z
Electronic contribution:     -5.73851       0.91173       2.51863
Nuclear contribution   :      9.92875      -2.62114      -2.63866
                        -----------------------------------------
Total Dipole Moment    :      4.19024      -1.70941      -0.12003
                        -----------------------------------------
Magnitude (a.u.)       :      4.52710
Magnitude (Debye)      :     11.50697

Rotational constants in cm-1:     0.159108     0.062474     0.047603
Rotational constants in MHz :  4769.938632  1872.932224  1427.103830

                             ****ORCA TERMINATED NORMALLY****
TOTAL RUN TIME: 0 days 0 hours 0 minutes 20 seconds 145 msec
