                         Program Version 5.0.0 -  RELEASE  -
|  1> !wB97X-D3 RIJCOSX def2-SVPD def2/J TightSCF
|  2> *xyz 0 1
|  3> C         -1.36646        2.47911       -4.31393
|  4> C         -2.35773        2.30686       -3.13675
|  5> F         -3.44376        2.84652       -3.25274
|  6> O         -1.97092        1.58304       -2.15123
|  7> H         -1.80853        3.10058       -5.06443
|  8> H         -1.13980        1.52081       -4.73248
|  9> H         -0.46612        2.93495       -3.95827
| 10> *
| 11> %MaxCore 64000
| 12>
| 13> %pal nprocs 18
| 14> end
| 15>
| 16> %scf
| 17>   MaxIter 150
| 18> end
| 19>
| 20>
| 21>                          ****END OF INPUT****

CARTESIAN COORDINATES (ANGSTROEM)
---------------------------------
  C     -1.366460    2.479110   -4.313930
  C     -2.357730    2.306860   -3.136750
  F     -3.443760    2.846520   -3.252740
  O     -1.970920    1.583040   -2.151230
  H     -1.808530    3.100580   -5.064430
  H     -1.139800    1.520810   -4.732480
  H     -0.466120    2.934950   -3.958270

 Total Charge           Charge          ....    0
 Multiplicity           Mult            ....    1
 Number of Electrons    NEL             ....   32
 Basis Dimension        Dim             ....  110

ORBITAL ENERGIES
----------------

  NO   OCC          E(Eh)            E(eV)
   0   2.0000     -24.891499      -677.3321
   1   2.0000     -19.253179      -523.9056
   2   2.0000     -10.484519      -285.2983
   3   2.0000     -10.318439      -280.7790
   4   2.0000      -1.457275       -39.6545
   5   2.0000      -1.127369       -30.6773
   6   2.0000      -0.882492       -24.0138
   7   2.0000      -0.785863       -21.3844
   8   2.0000      -0.678070       -18.4512
   9   2.0000      -0.670348       -18.2411
  10   2.0000      -0.607743       -16.5375
  11   2.0000      -0.546245       -14.8641
  12   2.0000      -0.533527       -14.5180
  13   2.0000      -0.499343       -13.5878
  14   2.0000      -0.445205       -12.1146
  15   2.0000      -0.390960       -10.6386
  16   0.0000       0.049804         1.3552
  17   0.0000       0.081903         2.2287
  18   0.0000       0.122914         3.3446
  19   0.0000       0.159693         4.3455
  20   0.0000       0.161714         4.4005

MULLIKEN ATOMIC CHARGES
-----------------------
   0 C :    0.267390
   1 C :    0.431989
   2 F :   -0.300573
   3 O :   -0.519705
   4 H :    0.007671
   5 H :    0.058243
   6 H :    0.054986
Sum of atomic charges:    0.0000000

LOEWDIN ATOMIC CHARGES
----------------------
   0 C :    0.211500
   1 C :   -0.024397
   2 F :   -0.015220
   3 O :   -0.164976
   4 H :   -0.013950
   5 H :    0.003838
   6 H :    0.003205

  Mayer bond orders larger than 0.100000
B(  0-C ,  1-C ) :   1.2448 B(  0-C ,  4-H ) :   0.9031 B(  0-C ,  5-H ) :   0.8377
B(  0-C ,  6-H ) :   0.8339 B(  1-C ,  2-F ) :   0.8619 B(  1-C ,  3-O ) :   1.7928
B(  1-C ,  4-H ) :   0.1294 B(  1-C ,  5-H ) :   0.1194 B(  1-C ,  6-H ) :   0.1245

Dispersion correction           -0.000915317
FINAL SINGLE POINT ENERGY      -252.826334859955

DIPOLE MOMENT
-------------
                                X             Y             Z
Electronic contribution:     -4.31060       0.53115       2.67160
Nuclear contribution   :      4.40923       0.04336      -3.80230
                        -----------------------------------------
Total Dipole Moment    :      0.09863       0.57451      -1.13071
                        -----------------------------------------
Magnitude (a.u.)       :      1.27212
Magnitude (Debye)      :      3.23346

Rotational constants in cm-1:     0.364425     0.322930     0.176742
Rotational constants in MHz : 10925.196996  9681.206479  5298.597717

                             ****ORCA TERMINATED NORMALLY****
TOTAL RUN TIME: 0 days 0 hours 0 minutes 6 seconds 111 msec
