                         Program Version 5.0.0 -  RELEASE  -
|  1> !wB97X-D3 RIJCOSX def2-SVPD def2/J TightSCF
|  2> *xyz 0 1
|  3> C          0.64866        1.00359       -3.64560
|  4> C          0.28128        0.67645       -2.24018
|  5> H          0.39079       -0.31925       -2.02649
|  6> H         -0.69269        0.99010       -2.13812
|  7> H          0.85421        1.21221       -1.57528
|  8> H          0.03905        0.43387       -4.31545
|  9> H          1.67860        0.76457       -3.80989
| 10> H          0.49232        2.04741       -3.82138
| 11> *
| 12> %MaxCore 64000
| 13>
| 14> %pal nprocs 18
| 15> end
| 16>
| 17> %scf
| 18>   MaxIter 150
| 19> end
| 20>
| 21>
| 22>                          ****END OF INPUT****

CARTESIAN COORDINATES (ANGSTROEM)
---------------------------------
  C      0.648660    1.003590   -3.645600
  C      0.281280    0.676450   -2.240180
  H      0.390790   -0.319250   -2.026490
  H     -0.692690    0.990100   -2.138120
  H      0.854210    1.212210   -1.575280
  H      0.039050    0.433870   -4.315450
  H      1.678600    0.764570   -3.809890
  H      0.492320    2.047410   -3.821380

 Total Charge           Charge          ....    0
 Multiplicity           Mult            ....    1
 Number of Electrons    NEL             ....   18
 Basis Dimension        Dim             ....   88

ORBITAL ENERGIES
----------------

  NO   OCC          E(Eh)            E(eV)
   0   2.0000     -10.265640      -279.3423
   1   2.0000     -10.252068      -278.9730
   2   2.0000      -0.879863       -23.9423
   3   2.0000      -0.725266       -19.7355
   4   2.0000      -0.554058       -15.0767
   5   2.0000      -0.547994       -14.9117
   6   2.0000      -0.463214       -12.6047
   7   2.0000      -0.442459       -12.0399
   8   2.0000      -0.437202       -11.8969
   9   0.0000       0.098976         2.6933
  10   0.0000       0.129205         3.5158
  11   0.0000       0.180967         4.9244
  12   0.0000       0.182360         4.9623
  13   0.0000       0.201260         5.4766

MULLIKEN ATOMIC CHARGES
-----------------------
   0 C :    0.132632
   1 C :    0.473771
   2 H :   -0.177395
   3 H :   -0.122713
   4 H :   -0.149044
   5 H :   -0.052723
   6 H :   -0.059160
   7 H :   -0.045368
Sum of atomic charges:    0.0000000

LOEWDIN ATOMIC CHARGES
----------------------
   0 C :    0.068549
   1 C :    0.076884
   2 H :   -0.032830
   3 H :   -0.032597
   4 H :   -0.032366
   5 H :   -0.015299
   6 H :   -0.017953
   7 H :   -0.014387

  Mayer bond orders larger than 0.100000
B(  0-C ,  1-C ) :   1.4254 B(  0-C ,  2-H ) :   0.1457 B(  0-C ,  3-H ) :   0.1757
B(  0-C ,  4-H ) :   0.1462 B(  0-C ,  5-H ) :   0.8839 B(  0-C ,  6-H ) :   0.9085
B(  0-C ,  7-H ) :   0.8768 B(  1-C ,  2-H ) :   0.8318 B(  1-C ,  3-H ) :   0.8108
B(  1-C ,  4-H ) :   0.8167 B(  1-C ,  5-H ) :   0.1332 B(  1-C ,  6-H ) :   0.1217
B(  1-C ,  7-H ) :   0.1377

Dispersion correction           -0.000484224
FINAL SINGLE POINT ENERGY       -79.735613458065

DIPOLE MOMENT
-------------
                                X             Y             Z
Electronic contribution:      0.01309      -0.06344       0.04452
Nuclear contribution   :     -0.02064       0.06655      -0.02194
                        -----------------------------------------
Total Dipole Moment    :     -0.00755       0.00310       0.02258
                        -----------------------------------------
Magnitude (a.u.)       :      0.02401
Magnitude (Debye)      :      0.06103

Rotational constants in cm-1:     2.856742     0.718110     0.715385
Rotational constants in MHz : 85642.970161 21528.388214 21446.695095

                             ****ORCA TERMINATED NORMALLY****
TOTAL RUN TIME: 0 days 0 hours 0 minutes 4 seconds 369 msec
