                         Program Version 5.0.0 -  RELEASE  -
|  1> !wB97X-D3 RIJCOSX def2-SVPD def2/J TightSCF
|  2> *xyz 0 1
|  3> C         -1.36646        2.47911       -4.31393
|  4> C         -2.35773        2.30686       -3.13675
|  5> O         -3.44376        2.84652       -3.25274
|  6> F         -1.97092        1.58304       -2.15123
|  7> H         -1.80853        3.10058       -5.06443
|  8> H         -1.13980        1.52081       -4.73248
|  9> H         -0.46612        2.93495       -3.95827
| 10> *
| 11> %MaxCore 64000
| 12>
| 13> %pal nprocs 18
| 14> end
| 15>
| 16> %scf
| 17>   MaxIter 150
| 18> end
| 19>
| 20>
| 21>                          ****END OF INPUT****

CARTESIAN COORDINATES (ANGSTROEM)
---------------------------------
  C     -1.366460    2.479110   -4.313930
  C     -2.357730    2.306860   -3.136750
  O     -3.443760    2.846520   -3.252740
  F     -1.970920    1.583040   -2.151230
  H     -1.808530    3.100580   -5.064430
  H     -1.139800    1.520810   -4.732480
  H     -0.466120    2.934950   -3.958270

 Total Charge           Charge          ....    0
 Multiplicity           Mult            ....    1
 Number of Electrons    NEL             ....   32
 Basis Dimension        Dim             ....  110

ORBITAL ENERGIES
----------------

  NO   OCC          E(Eh)            E(eV)
   0   2.0000     -24.868352      -676.7023
   1   2.0000     -19.262803      -524.1675
   2   2.0000     -10.478816      -285.1431
   3   2.0000     -10.317727      -280.7596
   4   2.0000      -1.408287       -38.3214
   5   2.0000      -1.168272       -31.7903
   6   2.0000      -0.878843       -23.9145
   7   2.0000      -0.759858       -20.6768
   8   2.0000      -0.650315       -17.6960
   9   2.0000      -0.646941       -17.6042
  10   2.0000      -0.609866       -16.5953
  11   2.0000      -0.544549       -14.8179
  12   2.0000      -0.536494       -14.5988
  13   2.0000      -0.509207       -13.8562
  14   2.0000      -0.470707       -12.8086
  15   2.0000      -0.400864       -10.9081
  16   0.0000       0.059729         1.6253
  17   0.0000       0.082795         2.2530
  18   0.0000       0.124103         3.3770
  19   0.0000       0.156894         4.2693
  20   0.0000       0.163365         4.4454

MULLIKEN ATOMIC CHARGES
-----------------------
   0 C :    0.285925
   1 C :    0.428507
   2 O :   -0.413500
   3 F :   -0.398254
   4 H :   -0.012264
   5 H :    0.056195
   6 H :    0.053391
Sum of atomic charges:   -0.0000000

LOEWDIN ATOMIC CHARGES
----------------------
   0 C :    0.212241
   1 C :   -0.021834
   2 O :   -0.123500
   3 F :   -0.059340
   4 H :   -0.001664
   5 H :   -0.002322
   6 H :   -0.003581

  Mayer bond orders larger than 0.100000
B(  0-C ,  1-C ) :   1.2162 B(  0-C ,  4-H ) :   0.9199 B(  0-C ,  5-H ) :   0.8343
B(  0-C ,  6-H ) :   0.8320 B(  1-C ,  2-O ) :   1.9005 B(  1-C ,  3-F ) :   0.7368
B(  1-C ,  4-H ) :   0.1810 B(  1-C ,  5-H ) :   0.1056 B(  1-C ,  6-H ) :   0.1078

Dispersion correction           -0.000897233
FINAL SINGLE POINT ENERGY      -252.844388292024

DIPOLE MOMENT
-------------
                                X             Y             Z
Electronic contribution:     -1.88825      -1.54301       4.47696
Nuclear contribution   :      2.88734       1.34891      -4.94049
                        -----------------------------------------
Total Dipole Moment    :      0.99910      -0.19410      -0.46353
                        -----------------------------------------
Magnitude (a.u.)       :      1.11836
Magnitude (Debye)      :      2.84264

Rotational constants in cm-1:     0.375207     0.313199     0.176202
Rotational constants in MHz : 11248.433436  9389.476975  5282.390844

                             ****ORCA TERMINATED NORMALLY****
TOTAL RUN TIME: 0 days 0 hours 0 minutes 5 seconds 245 msec
