                         Program Version 5.0.0 -  RELEASE  -
|  1> !wB97X-D3 RIJCOSX def2-SVPD def2/J TightSCF xyzfile
|  2>
|  3> *xyzfile 0 1 D2.xyz
|  4>
|  5> %MaxCore 64000
|  6>
|  7> %pal nprocs 18
|  8> end
|  9>
| 10> %scf
| 11>   MaxIter 150
| 12> end
| 13>
| 14>
| 15>                          ****END OF INPUT****

CARTESIAN COORDINATES (ANGSTROEM)
---------------------------------
  C      0.648656    1.003595   -3.645601
  C      0.281280    0.676454   -2.240179
  C      0.132968    2.385869   -4.024618
  C     -1.366462    2.479106   -4.313932
  C     -2.357732    2.306858   -3.136753
  H     -1.636802    1.727095   -5.063993
  H     -1.582347    3.445605   -4.768687
  H      0.390790   -0.319253   -2.026495
  H     -0.692686    0.990104   -2.138123
  H      0.854206    1.212214   -1.575279
  O     -3.443763    2.846518   -3.252744
  F     -1.970922    1.583042   -2.151229
  H      0.190993    0.239655   -4.275752
  H      1.731572    0.931729   -3.750751
  H      0.414839    3.102847   -3.245165
  H      0.683167    2.687560   -4.919721

 Total Charge           Charge          ....    0
 Multiplicity           Mult            ....    1
 Number of Electrons    NEL             ....   56
 Basis Dimension        Dim             ....  218

ORBITAL ENERGIES
----------------

  NO   OCC          E(Eh)            E(eV)
   0   2.0000     -24.877346      -676.9470
   1   2.0000     -19.268824      -524.3314
   2   2.0000     -10.482588      -285.2457
   3   2.0000     -10.326575      -281.0004
   4   2.0000     -10.302946      -280.3574
   5   2.0000     -10.283931      -279.8400
   6   2.0000     -10.230289      -278.3803
   7   2.0000      -1.428215       -38.8637
   8   2.0000      -1.174182       -31.9511
   9   2.0000      -0.937492       -25.5104
  10   2.0000      -0.875240       -23.8165
  11   2.0000      -0.789865       -21.4933
  12   2.0000      -0.785742       -21.3811
  13   2.0000      -0.691906       -18.8277
  14   2.0000      -0.671395       -18.2696
  15   2.0000      -0.661084       -17.9890
  16   2.0000      -0.612898       -16.6778
  17   2.0000      -0.576172       -15.6784
  18   2.0000      -0.556566       -15.1449
  19   2.0000      -0.550499       -14.9798
  20   2.0000      -0.523061       -14.2332
  21   2.0000      -0.491963       -13.3870
  22   2.0000      -0.484139       -13.1741
  23   2.0000      -0.463458       -12.6113
  24   2.0000      -0.433721       -11.8022
  25   2.0000      -0.427585       -11.6352
  26   2.0000      -0.420139       -11.4326
  27   2.0000      -0.389697       -10.6042
  28   0.0000       0.049407         1.3444
  29   0.0000       0.084653         2.3035
  30   0.0000       0.107696         2.9305
  31   0.0000       0.114442         3.1141
  32   0.0000       0.115811         3.1514

MULLIKEN ATOMIC CHARGES
-----------------------
   0 C :   -0.255196
   1 C :    2.072745
   2 C :    0.100073
   3 C :   -0.100507
   4 C :    0.723734
   5 H :    0.200997
   6 H :    0.043444
   7 H :   -0.047285
   8 H :   -1.468885
   9 H :   -0.003222
  10 O :   -0.422114
  11 F :   -0.562187
  12 H :   -0.007646
  13 H :   -0.180382
  14 H :   -0.018359
  15 H :   -0.075210
Sum of atomic charges:    0.0000000

LOEWDIN ATOMIC CHARGES
----------------------
   0 C :   -0.059272
   1 C :    0.140197
   2 C :   -0.033869
   3 C :    0.067086
   4 C :    0.045367
   5 H :    0.047049
   6 H :    0.035339
   7 H :   -0.023085
   8 H :   -0.147357
   9 H :   -0.017370
  10 O :   -0.105208
  11 F :   -0.052229
  12 H :    0.025434
  13 H :    0.021496
  14 H :    0.033888
  15 H :    0.022534

  Mayer bond orders larger than 0.100000
B(  0-C ,  1-C ) :   0.9272 B(  0-C ,  2-C ) :   1.1524 B(  0-C ,  7-H ) :   0.1968
B(  0-C ,  8-H ) :   0.5384 B(  0-C ,  9-H ) :   0.2355 B(  0-C , 12-H ) :   0.8785
B(  0-C , 13-H ) :   0.9600 B(  0-C , 14-H ) :   0.1062 B(  1-C ,  7-H ) :   0.5712
B(  1-C ,  8-H ) :  -1.4441 B(  1-C ,  9-H ) :   0.3157 B(  1-C , 11-F ) :  -0.2080
B(  1-C , 12-H ) :   0.1042 B(  2-C ,  3-C ) :   1.1939 B(  2-C ,  5-H ) :   0.1167
B(  2-C ,  6-H ) :   0.1278 B(  2-C , 13-H ) :   0.1124 B(  2-C , 14-H ) :   0.8880
B(  2-C , 15-H ) :   0.8860 B(  3-C ,  4-C ) :   1.0690 B(  3-C ,  5-H ) :   0.7835
B(  3-C ,  6-H ) :   0.9112 B(  3-C , 14-H ) :   0.1168 B(  3-C , 15-H ) :   0.1016
B(  4-C ,  6-H ) :   0.1214 B(  4-C , 10-O ) :   1.8716 B(  4-C , 11-F ) :   0.6592
B(  7-H ,  8-H ) :   0.1783 B(  7-H ,  9-H ) :  -0.1098 B(  8-H ,  9-H ) :   0.4771
B(  8-H , 11-F ) :   0.3615 B(  8-H , 13-H ) :   0.1097 B( 10-O , 11-F ) :   0.1072

Dispersion correction           -0.004650496
FINAL SINGLE POINT ENERGY      -370.621525262807

DIPOLE MOMENT
-------------
                                X             Y             Z
Electronic contribution:    -10.25682       2.33198       3.29689
Nuclear contribution   :     11.08738      -2.45618      -3.73478
                        -----------------------------------------
Total Dipole Moment    :      0.83056      -0.12420      -0.43790
                        -----------------------------------------
Magnitude (a.u.)       :      0.94710
Magnitude (Debye)      :      2.40735

Rotational constants in cm-1:     0.156244     0.063730     0.048063
Rotational constants in MHz :  4684.071402  1910.571278  1440.877811

                             ****ORCA TERMINATED NORMALLY****
TOTAL RUN TIME: 0 days 0 hours 0 minutes 20 seconds 226 msec
