                         Program Version 5.0.0 -  RELEASE  -
|  1> !TPSS D3BJ RIJCOSX def2-TZVPD def2/J TightSCF
|  2> *xyz -1 1
|  3> C         -0.91495        0.61511        2.50554
|  4> C         -0.05915        1.50352        3.41058
|  5> H          0.36536        2.34431        2.86116
|  6> H         -0.69226        1.92021        4.19898
|  7> C          1.08303        0.74964        4.08571
|  8> O          2.22817        1.26348        4.01983
|  9> O          0.81003       -0.34541        4.63627
| 10> H         -0.30401        0.20228        1.73015
| 11> H         -1.69811        1.19946        2.06954
| 12> H         -1.34124       -0.17772        3.08397
| 13> *
| 14>
| 15> %MaxCore 64000
| 16>
| 17> %pal nprocs 4
| 18> end
| 19>
| 20> %scf
| 21>   MaxIter 150
| 22> end
| 23>
| 24>
| 25>                          ****END OF INPUT****

CARTESIAN COORDINATES (ANGSTROEM)
---------------------------------
  C     -0.914950    0.615110    2.505540
  C     -0.059150    1.503520    3.410580
  H      0.365360    2.344310    2.861160
  H     -0.692260    1.920210    4.198980
  C      1.083030    0.749640    4.085710
  O      2.228170    1.263480    4.019830
  O      0.810030   -0.345410    4.636270
  H     -0.304010    0.202280    1.730150
  H     -1.698110    1.199460    2.069540
  H     -1.341240   -0.177720    3.083970

 Total Charge           Charge          ....   -1
 Multiplicity           Mult            ....    1
 Number of Electrons    NEL             ....   40
 Basis Dimension        Dim             ....  236

ORBITAL ENERGIES
----------------

  NO   OCC          E(Eh)            E(eV)
   0   2.0000     -18.619577      -506.6644
   1   2.0000     -18.618739      -506.6417
   2   2.0000      -9.856511      -268.2093
   3   2.0000      -9.819927      -267.2138
   4   2.0000      -9.808886      -266.9134
   5   2.0000      -0.749416       -20.3927
   6   2.0000      -0.661041       -17.9878
   7   2.0000      -0.547921       -14.9097
   8   2.0000      -0.423340       -11.5197
   9   2.0000      -0.273436        -7.4406
  10   2.0000      -0.250577        -6.8185
  11   2.0000      -0.215490        -5.8638
  12   2.0000      -0.185705        -5.0533
  13   2.0000      -0.173239        -4.7141
  14   2.0000      -0.162517        -4.4223
  15   2.0000      -0.133808        -3.6411
  16   2.0000      -0.120282        -3.2730
  17   2.0000      -0.011856        -0.3226
  18   2.0000       0.000694         0.0189
  19   2.0000       0.016311         0.4439
  20   0.0000       0.125332         3.4104
  21   0.0000       0.151120         4.1122
  22   0.0000       0.163216         4.4413
  23   0.0000       0.173136         4.7113
  24   0.0000       0.196006         5.3336

MULLIKEN ATOMIC CHARGES
-----------------------
   0 C :   -0.875760
   1 C :   -0.061345
   2 H :    0.153345
   3 H :    0.132703
   4 C :    0.568596
   5 O :   -0.815993
   6 O :   -0.810645
   7 H :    0.244515
   8 H :    0.221168
   9 H :    0.243417
Sum of atomic charges:   -1.0000000

LOEWDIN ATOMIC CHARGES
----------------------
   0 C :   -0.129596
   1 C :   -0.208629
   2 H :    0.081198
   3 H :    0.089610
   4 C :   -0.776383
   5 O :   -0.105030
   6 O :   -0.094965
   7 H :    0.056601
   8 H :    0.036869
   9 H :    0.050325

  Mayer bond orders larger than 0.100000
B(  0-C ,  1-C ) :   0.7888 B(  0-C ,  4-C ) :   0.1335 B(  0-C ,  7-H ) :   0.9501
B(  0-C ,  8-H ) :   0.9546 B(  0-C ,  9-H ) :   0.9770 B(  1-C ,  2-H ) :   0.9884
B(  1-C ,  3-H ) :   0.9060 B(  1-C ,  4-C ) :   1.0330 B(  4-C ,  5-O ) :   1.2086
B(  4-C ,  6-O ) :   1.2133

Dispersion correction           -0.008050693
FINAL SINGLE POINT ENERGY      -267.990461649774

DIPOLE MOMENT
-------------
                                X             Y             Z
Electronic contribution:      4.81051      -1.04901       3.41091
Nuclear contribution   :     -6.38408       1.63097      -4.40540
                        -----------------------------------------
Total Dipole Moment    :     -1.57356       0.58196      -0.99449
                        -----------------------------------------
Magnitude (a.u.)       :      1.95033
Magnitude (Debye)      :      4.95735

Rotational constants in cm-1:     0.319732     0.134414     0.104753
Rotational constants in MHz :  9585.336550  4029.633034  3140.404334

                             ****ORCA TERMINATED NORMALLY****
TOTAL RUN TIME: 0 days 0 hours 0 minutes 24 seconds 376 msec
