                         Program Version 5.0.0 -  RELEASE  -
|  1> !TPSS D3BJ RIJCOSX def2-TZVPD def2/J TightSCF
|  2> *xyz 1 1
|  3> C          4.60295       -2.44010        2.63478
|  4> C          3.86085       -1.59157        3.62289
|  5> N          2.75650       -2.04616        4.16633
|  6> N          4.25433       -0.36291        3.86046
|  7> H          3.56526        0.31099        4.16898
|  8> H          5.05429       -0.01606        3.33784
|  9> H          2.43970       -2.97389        3.89740
| 10> H          2.06687       -1.41253        4.54981
| 11> C          3.74469       -2.58056        1.36188
| 12> H          5.56156       -1.97135        2.40708
| 13> H          4.81050       -3.42255        3.06310
| 14> H          4.26314       -3.18477        0.64702
| 15> H          3.56325       -1.61180        0.94535
| 16> H          2.81197       -3.04259        1.60980
| 17> *
| 18>
| 19> %MaxCore 64000
| 20>
| 21> %pal nprocs 4
| 22> end
| 23>
| 24> %scf
| 25>   MaxIter 150
| 26> end
| 27>
| 28>
| 29>                          ****END OF INPUT****

CARTESIAN COORDINATES (ANGSTROEM)
---------------------------------
  C      4.602950   -2.440100    2.634780
  C      3.860850   -1.591570    3.622890
  N      2.756500   -2.046160    4.166330
  N      4.254330   -0.362910    3.860460
  H      3.565260    0.310990    4.168980
  H      5.054290   -0.016060    3.337840
  H      2.439700   -2.973890    3.897400
  H      2.066870   -1.412530    4.549810
  C      3.744690   -2.580560    1.361880
  H      5.561560   -1.971350    2.407080
  H      4.810500   -3.422550    3.063100
  H      4.263140   -3.184770    0.647020
  H      3.563250   -1.611800    0.945350
  H      2.811970   -3.042590    1.609800

 Total Charge           Charge          ....    1
 Multiplicity           Mult            ....    1
 Number of Electrons    NEL             ....   40
 Basis Dimension        Dim             ....  266

ORBITAL ENERGIES
----------------

  NO   OCC          E(Eh)            E(eV)
   0   2.0000     -14.346782      -390.3958
   1   2.0000     -14.345927      -390.3725
   2   2.0000     -10.296931      -280.1937
   3   2.0000     -10.187859      -277.2257
   4   2.0000     -10.147676      -276.1323
   5   2.0000      -1.142728       -31.0952
   6   2.0000      -1.051578       -28.6149
   7   2.0000      -0.915769       -24.9193
   8   2.0000      -0.811551       -22.0834
   9   2.0000      -0.768253       -20.9052
  10   2.0000      -0.725456       -19.7407
  11   2.0000      -0.709088       -19.2953
  12   2.0000      -0.655044       -17.8247
  13   2.0000      -0.620447       -16.8832
  14   2.0000      -0.586729       -15.9657
  15   2.0000      -0.560515       -15.2524
  16   2.0000      -0.513085       -13.9617
  17   2.0000      -0.507888       -13.8203
  18   2.0000      -0.497078       -13.5262
  19   2.0000      -0.459028       -12.4908
  20   0.0000      -0.244617        -6.6564
  21   0.0000      -0.180988        -4.9249
  22   0.0000      -0.139903        -3.8070
  23   0.0000      -0.135565        -3.6889
  24   0.0000      -0.109088        -2.9684

MULLIKEN ATOMIC CHARGES
-----------------------
   0 C :   -0.218249
   1 C :    0.723124
   2 N :   -0.355251
   3 N :   -0.316492
   4 H :    0.211077
   5 H :    0.229301
   6 H :    0.231539
   7 H :    0.191124
   8 C :   -0.892658
   9 H :    0.177462
  10 H :    0.187776
  11 H :    0.202155
  12 H :    0.304639
  13 H :    0.324453
Sum of atomic charges:    1.0000000

LOEWDIN ATOMIC CHARGES
----------------------
   0 C :   -0.132401
   1 C :   -0.374827
   2 N :    0.232140
   3 N :    0.234338
   4 H :    0.146747
   5 H :    0.149361
   6 H :    0.148866
   7 H :    0.148767
   8 C :   -0.043842
   9 H :    0.121808
  10 H :    0.131469
  11 H :    0.085625
  12 H :    0.082239
  13 H :    0.069710

  Mayer bond orders larger than 0.100000
B(  0-C ,  1-C ) :   1.0001 B(  0-C ,  8-C ) :   0.8459 B(  0-C ,  9-H ) :   0.9376
B(  0-C , 10-H ) :   0.9469 B(  1-C ,  2-N ) :   1.1814 B(  1-C ,  3-N ) :   1.2161
B(  1-C ,  8-C ) :   0.1214 B(  2-N ,  3-N ) :   0.1059 B(  2-N ,  6-H ) :   0.9398
B(  2-N ,  7-H ) :   1.0011 B(  3-N ,  4-H ) :   0.9689 B(  3-N ,  5-H ) :   0.9470
B(  8-C , 11-H ) :   1.0068 B(  8-C , 12-H ) :   0.9438 B(  8-C , 13-H ) :   0.8678

Dispersion correction           -0.012633791
FINAL SINGLE POINT ENERGY      -229.160146509310

DIPOLE MOMENT
-------------
                                X             Y             Z
Electronic contribution:     -0.23830       1.78536       3.72670
Nuclear contribution   :     -0.22400      -1.16268      -3.30447
                        -----------------------------------------
Total Dipole Moment    :     -0.46230       0.62268       0.42223
                        -----------------------------------------
Magnitude (a.u.)       :      0.88303
Magnitude (Debye)      :      2.24447

Rotational constants in cm-1:     0.258103     0.130571     0.102508
Rotational constants in MHz :  7737.732062  3914.431392  3073.119154

                             ****ORCA TERMINATED NORMALLY****
TOTAL RUN TIME: 0 days 0 hours 0 minutes 25 seconds 57 msec
