                         Program Version 5.0.0 -  RELEASE  -
|  1> !TPSS D3BJ RIJCOSX def2-TZVPD def2/J TightSCF xyzfile
|  2>
|  3> *xyzfile 0 1 B.xyz
|  4>
|  5> %MaxCore 64000
|  6>
|  7> %pal nprocs 4
|  8> end
|  9>
| 10> %scf
| 11>   MaxIter 150
| 12> end
| 13>
| 14>
| 15>                          ****END OF INPUT****

CARTESIAN COORDINATES (ANGSTROEM)
---------------------------------
  C      4.602954   -2.440100    2.634780
  C     -0.914947    0.615112    2.505538
  C     -0.059146    1.503524    3.410578
  H      0.365364    2.344315    2.861161
  H     -0.692261    1.920207    4.198985
  C      1.083027    0.749640    4.085705
  C      3.860851   -1.591565    3.622893
  N      2.756502   -2.046159    4.166333
  N      4.254325   -0.362905    3.860455
  H      3.565256    0.310994    4.168983
  H      5.054292   -0.016059    3.337838
  H      2.439696   -2.973894    3.897395
  H      2.066869   -1.412532    4.549813
  O      2.228167    1.263475    4.019826
  O      0.810034   -0.345411    4.636269
  C      3.744685   -2.580557    1.361882
  C      0.772139    0.636882    0.562129
  C     -0.130740   -0.193985    1.470763
  H     -0.840563   -0.760165    0.856377
  H      0.466691   -0.938942    2.006959
  H     -1.647961    1.245963    1.991076
  H     -1.478180   -0.081046    3.130424
  C      3.203721   -1.256004    0.826211
  H      2.898939   -3.239289    1.583074
  H      4.334962   -3.095523    0.600188
  C      2.107815   -1.442385   -0.216865
  H      2.786775   -0.672760    1.650711
  H      4.021008   -0.652993    0.414046
  C      1.390662   -0.145912   -0.602422
  H      1.372179   -2.152184    0.176151
  H      2.523302   -1.906787   -1.117115
  H      1.561361    1.100094    1.161831
  H      0.195516    1.468325    0.142758
  H      0.602893   -0.398214   -1.319716
  H      2.087247    0.508272   -1.137335
  H      5.561557   -1.971347    2.407084
  H      4.810498   -3.422552    3.063099

 Total Charge           Charge          ....    0
 Multiplicity           Mult            ....    1
 Number of Electrons    NEL             ....  118
 Basis Dimension        Dim             ....  759

ORBITAL ENERGIES
----------------

  NO   OCC          E(Eh)            E(eV)
   0   2.0000     -18.807912      -511.7893
   1   2.0000     -18.806127      -511.7407
   2   2.0000     -14.142170      -384.8280
   3   2.0000     -14.142135      -384.8271
   4   2.0000     -10.110289      -275.1149
   5   2.0000     -10.038521      -273.1621
   6   2.0000     -10.035101      -273.0690
   7   2.0000     -10.017083      -272.5787
   8   2.0000      -9.994177      -271.9554
   9   2.0000      -9.985546      -271.7205
  10   2.0000      -9.977715      -271.5074
  11   2.0000      -9.967326      -271.2247
  12   2.0000      -9.963989      -271.1339
  13   2.0000      -9.960025      -271.0260
  14   2.0000      -9.951387      -270.7910
  15   2.0000      -0.953633       -25.9497
  16   2.0000      -0.938201       -25.5298
  17   2.0000      -0.863317       -23.4920
  18   2.0000      -0.847433       -23.0598
  19   2.0000      -0.778740       -21.1906
  20   2.0000      -0.745461       -20.2850
  21   2.0000      -0.716656       -19.5012
  22   2.0000      -0.679029       -18.4773
  23   2.0000      -0.642738       -17.4898
  24   2.0000      -0.608666       -16.5626
  25   2.0000      -0.592232       -16.1154
  26   2.0000      -0.570906       -15.5352
  27   2.0000      -0.537894       -14.6369
  28   2.0000      -0.530946       -14.4478
  29   2.0000      -0.523392       -14.2422
  30   2.0000      -0.500709       -13.6250
  31   2.0000      -0.468023       -12.7355
  32   2.0000      -0.464031       -12.6269
  33   2.0000      -0.442494       -12.0409
  34   2.0000      -0.429662       -11.6917
  35   2.0000      -0.420285       -11.4365
  36   2.0000      -0.414193       -11.2708
  37   2.0000      -0.399935       -10.8828
  38   2.0000      -0.390139       -10.6162
  39   2.0000      -0.379862       -10.3366
  40   2.0000      -0.369951       -10.0669
  41   2.0000      -0.364168        -9.9095
  42   2.0000      -0.357662        -9.7325
  43   2.0000      -0.352727        -9.5982
  44   2.0000      -0.335433        -9.1276
  45   2.0000      -0.334427        -9.1002
  46   2.0000      -0.328829        -8.9479
  47   2.0000      -0.322174        -8.7668
  48   2.0000      -0.314161        -8.5487
  49   2.0000      -0.298062        -8.1107
  50   2.0000      -0.295772        -8.0484
  51   2.0000      -0.287148        -7.8137
  52   2.0000      -0.273813        -7.4508
  53   2.0000      -0.268203        -7.2982
  54   2.0000      -0.266291        -7.2462
  55   2.0000      -0.260789        -7.0964
  56   2.0000      -0.199975        -5.4416
  57   2.0000      -0.186342        -5.0706
  58   2.0000      -0.176777        -4.8103
  59   0.0000      -0.062167        -1.6917
  60   0.0000      -0.026646        -0.7251
  61   0.0000      -0.010183        -0.2771
  62   0.0000       0.000323         0.0088
  63   0.0000       0.008035         0.2186

MULLIKEN ATOMIC CHARGES
-----------------------
   0 C :   -0.258309
   1 C :   -0.312608
   2 C :   -0.310773
   3 H :    0.253930
   4 H :    0.100265
   5 C :    1.025190
   6 C :    0.366043
   7 N :   -0.289054
   8 N :   -0.308887
   9 H :    0.296935
  10 H :    0.176936
  11 H :    0.193256
  12 H :    0.253685
  13 O :   -0.958102
  14 O :   -0.986341
  15 C :   -0.396894
  16 C :   -0.294623
  17 C :   -0.449191
  18 H :    0.118482
  19 H :    0.341431
  20 H :    0.069794
  21 H :    0.184013
  22 C :   -0.058694
  23 H :    0.244157
  24 H :    0.134079
  25 C :   -0.478968
  26 H :    0.166586
  27 H :    0.103535
  28 C :   -0.409469
  29 H :    0.319698
  30 H :    0.126423
  31 H :    0.370764
  32 H :    0.092816
  33 H :    0.144051
  34 H :    0.153259
  35 H :    0.183417
  36 H :    0.093168
Sum of atomic charges:    0.0000000

LOEWDIN ATOMIC CHARGES
----------------------
   0 C :   -0.108387
   1 C :   -0.198265
   2 C :   -0.122537
   3 H :    0.102541
   4 H :    0.113427
   5 C :   -0.660120
   6 C :   -0.400789
   7 N :    0.235490
   8 N :    0.221648
   9 H :    0.052997
  10 H :    0.134103
  11 H :    0.136158
  12 H :    0.052299
  13 O :   -0.039290
  14 O :   -0.035368
  15 C :   -0.181272
  16 C :   -0.206196
  17 C :   -0.207198
  18 H :    0.112619
  19 H :    0.096777
  20 H :    0.104405
  21 H :    0.104873
  22 C :   -0.204147
  23 H :    0.106598
  24 H :    0.114818
  25 C :   -0.209808
  26 H :    0.088413
  27 H :    0.124676
  28 C :   -0.202073
  29 H :    0.105193
  30 H :    0.109681
  31 H :    0.102350
  32 H :    0.113269
  33 H :    0.105251
  34 H :    0.105109
  35 H :    0.114034
  36 H :    0.118721

  Mayer bond orders larger than 0.100000
B(  0-C ,  6-C ) :   0.9773 B(  0-C , 15-C ) :   0.8922 B(  0-C , 35-H ) :   0.8718
B(  0-C , 36-H ) :   0.9945 B(  1-C ,  2-C ) :   0.9755 B(  1-C , 16-C ) :   0.1546
B(  1-C , 17-C ) :   1.2330 B(  1-C , 20-H ) :   0.9199 B(  1-C , 21-H ) :   0.8168
B(  2-C ,  3-H ) :   0.8949 B(  2-C ,  4-H ) :   0.8468 B(  2-C ,  5-C ) :   1.1660
B(  2-C , 16-C ) :   0.1671 B(  5-C , 13-O ) :   0.8857 B(  5-C , 14-O ) :   0.8960
B(  5-C , 17-C ) :   0.1372 B(  6-C ,  7-N ) :   1.2272 B(  6-C ,  8-N ) :   1.2834
B(  6-C , 13-O ) :   0.1018 B(  6-C , 22-C ) :   0.1651 B(  7-N , 11-H ) :   0.9674
B(  7-N , 12-H ) :   0.7611 B(  8-N ,  9-H ) :   0.7841 B(  8-N , 10-H ) :   0.9680
B( 12-H , 14-O ) :   0.1313 B( 13-O , 14-O ) :   0.1774 B( 15-C , 22-C ) :   0.7628
B( 15-C , 23-H ) :   0.8006 B( 15-C , 24-H ) :   0.9314 B( 15-C , 25-C ) :   0.4153
B( 15-C , 27-H ) :  -0.1261 B( 16-C , 17-C ) :   0.6319 B( 16-C , 19-H ) :  -0.1066
B( 16-C , 22-C ) :   0.1283 B( 16-C , 26-H ) :   0.1163 B( 16-C , 28-C ) :   1.0561
B( 16-C , 31-H ) :   0.8988 B( 16-C , 32-H ) :   0.8400 B( 17-C , 18-H ) :   0.8325
B( 17-C , 19-H ) :   0.9342 B( 17-C , 25-C ) :   0.1709 B( 17-C , 28-C ) :   0.1925
B( 17-C , 31-H ) :  -0.1217 B( 22-C , 25-C ) :   0.7294 B( 22-C , 26-H ) :   1.4444
B( 22-C , 27-H ) :   0.7455 B( 22-C , 28-C ) :   0.1664 B( 25-C , 27-H ) :  -0.1072
B( 25-C , 28-C ) :   1.1892 B( 25-C , 29-H ) :   0.7490 B( 25-C , 30-H ) :   0.9305
B( 26-H , 27-H ) :   0.1781 B( 28-C , 33-H ) :   0.8789 B( 28-C , 34-H ) :   0.8939

Dispersion correction           -0.053741461
FINAL SINGLE POINT ENERGY      -692.831160288963

DIPOLE MOMENT
-------------
                                X             Y             Z
Electronic contribution:      3.39659       1.66265      13.05523
Nuclear contribution   :     -1.50655      -3.48027     -14.35034
                        -----------------------------------------
Total Dipole Moment    :      1.89004      -1.81762      -1.29511
                        -----------------------------------------
Magnitude (a.u.)       :      2.92460
Magnitude (Debye)      :      7.43374

Rotational constants in cm-1:     0.021781     0.017296     0.011403
Rotational constants in MHz :   652.971749   518.510612   341.853154

                             ****ORCA TERMINATED NORMALLY****
TOTAL RUN TIME: 0 days 0 hours 3 minutes 22 seconds 744 msec
