                         Program Version 5.0.0 -  RELEASE  -
|  1> !TPSS D3BJ RIJCOSX def2-TZVPD def2/J TightSCF
|  2> *xyz 0 1
|  3> C         -0.91495        0.61511        2.50554
|  4> C         -0.05915        1.50352        3.41058
|  5> H          0.36536        2.34431        2.86116
|  6> H         -0.69226        1.92021        4.19898
|  7> C          1.08303        0.74964        4.08571
|  8> F          2.22817        1.26348        4.01983
|  9> O          0.81003       -0.34541        4.63627
| 10> H         -0.30401        0.20228        1.73015
| 11> H         -1.69811        1.19946        2.06954
| 12> H         -1.34124       -0.17772        3.08397
| 13> *
| 14>
| 15> %MaxCore 64000
| 16>
| 17> %pal nprocs 4
| 18> end
| 19>
| 20> %scf
| 21>   MaxIter 150
| 22> end
| 23>
| 24>
| 25>                          ****END OF INPUT****

CARTESIAN COORDINATES (ANGSTROEM)
---------------------------------
  C     -0.914950    0.615110    2.505540
  C     -0.059150    1.503520    3.410580
  H      0.365360    2.344310    2.861160
  H     -0.692260    1.920210    4.198980
  C      1.083030    0.749640    4.085710
  F      2.228170    1.263480    4.019830
  O      0.810030   -0.345410    4.636270
  H     -0.304010    0.202280    1.730150
  H     -1.698110    1.199460    2.069540
  H     -1.341240   -0.177720    3.083970

 Total Charge           Charge          ....    0
 Multiplicity           Mult            ....    1
 Number of Electrons    NEL             ....   40
 Basis Dimension        Dim             ....  236

ORBITAL ENERGIES
----------------

  NO   OCC          E(Eh)            E(eV)
   0   2.0000     -24.477482      -666.0661
   1   2.0000     -18.887431      -513.9531
   2   2.0000     -10.151164      -276.2272
   3   2.0000     -10.016987      -272.5761
   4   2.0000      -9.989251      -271.8213
   5   2.0000      -1.237784       -33.6818
   6   2.0000      -0.963441       -26.2166
   7   2.0000      -0.743486       -20.2313
   8   2.0000      -0.636407       -17.3175
   9   2.0000      -0.582783       -15.8583
  10   2.0000      -0.492981       -13.4147
  11   2.0000      -0.480055       -13.0630
  12   2.0000      -0.457525       -12.4499
  13   2.0000      -0.423623       -11.5274
  14   2.0000      -0.389716       -10.6047
  15   2.0000      -0.357289        -9.7223
  16   2.0000      -0.339631        -9.2418
  17   2.0000      -0.334643        -9.1061
  18   2.0000      -0.309529        -8.4227
  19   2.0000      -0.248728        -6.7682
  20   0.0000      -0.062273        -1.6945
  21   0.0000      -0.007190        -0.1957
  22   0.0000       0.019275         0.5245
  23   0.0000       0.029729         0.8090
  24   0.0000       0.038940         1.0596

MULLIKEN ATOMIC CHARGES
-----------------------
   0 C :   -0.856511
   1 C :   -0.013499
   2 H :    0.180821
   3 H :    0.155836
   4 C :    0.533016
   5 F :   -0.207112
   6 O :   -0.532102
   7 H :    0.266263
   8 H :    0.206370
   9 H :    0.266919
Sum of atomic charges:    0.0000000

LOEWDIN ATOMIC CHARGES
----------------------
   0 C :   -0.081447
   1 C :   -0.153134
   2 H :    0.103843
   3 H :    0.119055
   4 C :   -0.497625
   5 F :    0.213703
   6 O :    0.088757
   7 H :    0.071640
   8 H :    0.065941
   9 H :    0.069267

  Mayer bond orders larger than 0.100000
B(  0-C ,  1-C ) :   0.8918 B(  0-C ,  4-C ) :   0.1309 B(  0-C ,  7-H ) :   0.9209
B(  0-C ,  8-H ) :   0.9698 B(  0-C ,  9-H ) :   0.9570 B(  1-C ,  2-H ) :   0.9438
B(  1-C ,  3-H ) :   0.8915 B(  1-C ,  4-C ) :   0.9934 B(  4-C ,  5-F ) :   0.9814
B(  4-C ,  6-O ) :   1.6138

Dispersion correction           -0.007641491
FINAL SINGLE POINT ENERGY      -292.559994737068

DIPOLE MOMENT
-------------
                                X             Y             Z
Electronic contribution:      7.74262      -0.20062       4.10890
Nuclear contribution   :     -8.12386       1.06915      -4.71960
                        -----------------------------------------
Total Dipole Moment    :     -0.38125       0.86852      -0.61070
                        -----------------------------------------
Magnitude (a.u.)       :      1.12811
Magnitude (Debye)      :      2.86743

Rotational constants in cm-1:     0.309513     0.127560     0.099675
Rotational constants in MHz :  9278.979128  3824.146597  2988.174827

                             ****ORCA TERMINATED NORMALLY****
TOTAL RUN TIME: 0 days 0 hours 0 minutes 16 seconds 675 msec
