                         Program Version 5.0.0 -  RELEASE  -
|  1> !TPSS D3BJ RIJCOSX def2-TZVPD def2/J TightSCF
|  2> *xyz 0 1
|  3> C          4.60295       -2.44010        2.63478
|  4> C          3.86085       -1.59157        3.62289
|  5> C          2.75650       -2.04616        4.16633
|  6> N          4.25433       -0.36291        3.86046
|  7> H          3.56526        0.31099        4.16898
|  8> H          5.05429       -0.01606        3.33784
|  9> H          2.43970       -2.97389        3.89740
| 10> H          2.06687       -1.41253        4.54981
| 11> C          3.74469       -2.58056        1.36188
| 12> H          5.56156       -1.97135        2.40708
| 13> H          4.81050       -3.42255        3.06310
| 14> H          4.26314       -3.18477        0.64702
| 15> H          3.56325       -1.61180        0.94535
| 16> H          2.81197       -3.04259        1.60980
| 17> *
| 18>
| 19> %MaxCore 64000
| 20>
| 21> %pal nprocs 4
| 22> end
| 23>
| 24> %scf
| 25>   MaxIter 150
| 26> end
| 27>
| 28>
| 29>                          ****END OF INPUT****

CARTESIAN COORDINATES (ANGSTROEM)
---------------------------------
  C      4.602950   -2.440100    2.634780
  C      3.860850   -1.591570    3.622890
  C      2.756500   -2.046160    4.166330
  N      4.254330   -0.362910    3.860460
  H      3.565260    0.310990    4.168980
  H      5.054290   -0.016060    3.337840
  H      2.439700   -2.973890    3.897400
  H      2.066870   -1.412530    4.549810
  C      3.744690   -2.580560    1.361880
  H      5.561560   -1.971350    2.407080
  H      4.810500   -3.422550    3.063100
  H      4.263140   -3.184770    0.647020
  H      3.563250   -1.611800    0.945350
  H      2.811970   -3.042590    1.609800

 Total Charge           Charge          ....    0
 Multiplicity           Mult            ....    1
 Number of Electrons    NEL             ....   40
 Basis Dimension        Dim             ....  266

ORBITAL ENERGIES
----------------

  NO   OCC          E(Eh)            E(eV)
   0   2.0000     -14.104159      -383.7937
   1   2.0000      -9.996569      -272.0205
   2   2.0000      -9.987726      -271.7798
   3   2.0000      -9.971054      -271.3262
   4   2.0000      -9.913427      -269.7581
   5   2.0000      -0.871250       -23.7079
   6   2.0000      -0.725468       -19.7410
   7   2.0000      -0.658100       -17.9078
   8   2.0000      -0.590609       -16.0713
   9   2.0000      -0.516016       -14.0415
  10   2.0000      -0.481330       -13.0977
  11   2.0000      -0.439076       -11.9479
  12   2.0000      -0.407031       -11.0759
  13   2.0000      -0.371986       -10.1222
  14   2.0000      -0.349382        -9.5072
  15   2.0000      -0.340222        -9.2579
  16   2.0000      -0.317482        -8.6391
  17   2.0000      -0.305851        -8.3226
  18   2.0000      -0.289578        -7.8798
  19   2.0000      -0.160027        -4.3546
  20   0.0000      -0.007536        -0.2051
  21   0.0000       0.006996         0.1904
  22   0.0000       0.023458         0.6383
  23   0.0000       0.030521         0.8305
  24   0.0000       0.038152         1.0382

MULLIKEN ATOMIC CHARGES
-----------------------
   0 C :   -0.192307
   1 C :    0.702708
   2 C :   -1.086407
   3 N :   -0.462625
   4 H :    0.156459
   5 H :    0.183931
   6 H :    0.297186
   7 H :    0.204450
   8 C :   -0.922417
   9 H :    0.170008
  10 H :    0.163329
  11 H :    0.205309
  12 H :    0.257748
  13 H :    0.322629
Sum of atomic charges:    0.0000000

LOEWDIN ATOMIC CHARGES
----------------------
   0 C :   -0.184391
   1 C :   -0.505456
   2 C :    0.010763
   3 N :    0.106385
   4 H :    0.111012
   5 H :    0.103967
   6 H :    0.024530
   7 H :    0.021999
   8 C :   -0.083756
   9 H :    0.097642
  10 H :    0.110307
  11 H :    0.058059
  12 H :    0.068327
  13 H :    0.060611

  Mayer bond orders larger than 0.100000
B(  0-C ,  1-C ) :   0.9323 B(  0-C ,  8-C ) :   0.8042 B(  0-C ,  9-H ) :   0.9972
B(  0-C , 10-H ) :   0.9143 B(  1-C ,  2-C ) :   1.4034 B(  1-C ,  3-N ) :   0.8935
B(  1-C ,  8-C ) :   0.1218 B(  2-C ,  3-N ) :   0.1228 B(  2-C ,  6-H ) :   0.9135
B(  2-C ,  7-H ) :   1.0725 B(  3-N ,  4-H ) :   1.0044 B(  3-N ,  5-H ) :   0.9982
B(  8-C , 11-H ) :   0.9735 B(  8-C , 12-H ) :   0.9578 B(  8-C , 13-H ) :   0.9174

Dispersion correction           -0.013156218
FINAL SINGLE POINT ENERGY      -212.681999070433

DIPOLE MOMENT
-------------
                                X             Y             Z
Electronic contribution:      0.80085       1.77983       2.56434
Nuclear contribution   :     -0.47010      -1.22282      -3.06417
                        -----------------------------------------
Total Dipole Moment    :      0.33075       0.55701      -0.49983
                        -----------------------------------------
Magnitude (a.u.)       :      0.81822
Magnitude (Debye)      :      2.07974

Rotational constants in cm-1:     0.271862     0.131962     0.105499
Rotational constants in MHz :  8150.219120  3956.123671  3162.785522

                             ****ORCA TERMINATED NORMALLY****
TOTAL RUN TIME: 0 days 0 hours 0 minutes 26 seconds 935 msec
