                         Program Version 5.0.0 -  RELEASE  -
|  1> !TPSS D3BJ RIJCOSX def2-TZVPD def2/J TightSCF
|  2> *xyz 0 1
|  3> C         -0.91495        0.61511        2.50554
|  4> C         -0.05915        1.50352        3.41058
|  5> H          0.36536        2.34431        2.86116
|  6> H         -0.69226        1.92021        4.19898
|  7> C          1.08303        0.74964        4.08571
|  8> O          2.22817        1.26348        4.01983
|  9> F          0.81003       -0.34541        4.63627
| 10> H         -0.30401        0.20228        1.73015
| 11> H         -1.69811        1.19946        2.06954
| 12> H         -1.34124       -0.17772        3.08397
| 13> *
| 14>
| 15> %MaxCore 64000
| 16>
| 17> %pal nprocs 4
| 18> end
| 19>
| 20> %scf
| 21>   MaxIter 150
| 22> end
| 23>
| 24>
| 25>                          ****END OF INPUT****

CARTESIAN COORDINATES (ANGSTROEM)
---------------------------------
  C     -0.914950    0.615110    2.505540
  C     -0.059150    1.503520    3.410580
  H      0.365360    2.344310    2.861160
  H     -0.692260    1.920210    4.198980
  C      1.083030    0.749640    4.085710
  O      2.228170    1.263480    4.019830
  F      0.810030   -0.345410    4.636270
  H     -0.304010    0.202280    1.730150
  H     -1.698110    1.199460    2.069540
  H     -1.341240   -0.177720    3.083970

 Total Charge           Charge          ....    0
 Multiplicity           Mult            ....    1
 Number of Electrons    NEL             ....   40
 Basis Dimension        Dim             ....  236

ORBITAL ENERGIES
----------------

  NO   OCC          E(Eh)            E(eV)
   0   2.0000     -24.478488      -666.0935
   1   2.0000     -18.886362      -513.9240
   2   2.0000     -10.150663      -276.2136
   3   2.0000     -10.016518      -272.5633
   4   2.0000      -9.994275      -271.9581
   5   2.0000      -1.239239       -33.7214
   6   2.0000      -0.961511       -26.1640
   7   2.0000      -0.747473       -20.3398
   8   2.0000      -0.632887       -17.2217
   9   2.0000      -0.589378       -16.0378
  10   2.0000      -0.495684       -13.4882
  11   2.0000      -0.485295       -13.2056
  12   2.0000      -0.450326       -12.2540
  13   2.0000      -0.424073       -11.5396
  14   2.0000      -0.392019       -10.6674
  15   2.0000      -0.360641        -9.8135
  16   2.0000      -0.344732        -9.3806
  17   2.0000      -0.338941        -9.2230
  18   2.0000      -0.311202        -8.4682
  19   2.0000      -0.243702        -6.6315
  20   0.0000      -0.060043        -1.6339
  21   0.0000      -0.009669        -0.2631
  22   0.0000       0.020055         0.5457
  23   0.0000       0.028110         0.7649
  24   0.0000       0.039066         1.0631

MULLIKEN ATOMIC CHARGES
-----------------------
   0 C :   -0.890294
   1 C :    0.051627
   2 H :    0.145570
   3 H :    0.174670
   4 C :    0.513482
   5 O :   -0.531573
   6 F :   -0.213040
   7 H :    0.277570
   8 H :    0.202107
   9 H :    0.269882
Sum of atomic charges:    0.0000000

LOEWDIN ATOMIC CHARGES
----------------------
   0 C :   -0.086069
   1 C :   -0.148161
   2 H :    0.113893
   3 H :    0.116759
   4 C :   -0.502272
   5 O :    0.084689
   6 F :    0.217743
   7 H :    0.071923
   8 H :    0.066152
   9 H :    0.065344

  Mayer bond orders larger than 0.100000
B(  0-C ,  1-C ) :   0.8340 B(  0-C ,  4-C ) :   0.1274 B(  0-C ,  7-H ) :   0.9396
B(  0-C ,  8-H ) :   0.9844 B(  0-C ,  9-H ) :   0.9421 B(  1-C ,  2-H ) :   0.9748
B(  1-C ,  3-H ) :   0.8838 B(  1-C ,  4-C ) :   0.9911 B(  4-C ,  5-O ) :   1.6166
B(  4-C ,  6-F ) :   0.9734

Dispersion correction           -0.007585793
FINAL SINGLE POINT ENERGY      -292.558998144732

DIPOLE MOMENT
-------------
                                X             Y             Z
Electronic contribution:      5.37811      -2.84334       5.10995
Nuclear contribution   :     -6.57765       2.82334      -5.39171
                        -----------------------------------------
Total Dipole Moment    :     -1.19953      -0.02001      -0.28176
                        -----------------------------------------
Magnitude (a.u.)       :      1.23234
Magnitude (Debye)      :      3.13236

Rotational constants in cm-1:     0.294245     0.132994     0.101060
Rotational constants in MHz :  8821.228602  3987.049251  3029.696815

                             ****ORCA TERMINATED NORMALLY****
TOTAL RUN TIME: 0 days 0 hours 0 minutes 22 seconds 993 msec
