                         Program Version 5.0.0 -  RELEASE  -
|  1> !TPSS D3BJ RIJCOSX def2-TZVPD def2/J TightSCF
|  2> *xyz 0 1
|  3> C          4.60295       -2.44010        2.63478
|  4> C          3.86085       -1.59157        3.62289
|  5> N          2.75650       -2.04616        4.16633
|  6> C          4.25433       -0.36291        3.86046
|  7> H          3.56526        0.31099        4.16898
|  8> H          5.05429       -0.01606        3.33784
|  9> H          2.43970       -2.97389        3.89740
| 10> H          2.06687       -1.41253        4.54981
| 11> C          3.74469       -2.58056        1.36188
| 12> H          5.56156       -1.97135        2.40708
| 13> H          4.81050       -3.42255        3.06310
| 14> H          4.26314       -3.18477        0.64702
| 15> H          3.56325       -1.61180        0.94535
| 16> H          2.81197       -3.04259        1.60980
| 17> *
| 18>
| 19> %MaxCore 64000
| 20>
| 21> %pal nprocs 4
| 22> end
| 23>
| 24> %scf
| 25>   MaxIter 150
| 26> end
| 27>
| 28>
| 29>                          ****END OF INPUT****

CARTESIAN COORDINATES (ANGSTROEM)
---------------------------------
  C      4.602950   -2.440100    2.634780
  C      3.860850   -1.591570    3.622890
  N      2.756500   -2.046160    4.166330
  C      4.254330   -0.362910    3.860460
  H      3.565260    0.310990    4.168980
  H      5.054290   -0.016060    3.337840
  H      2.439700   -2.973890    3.897400
  H      2.066870   -1.412530    4.549810
  C      3.744690   -2.580560    1.361880
  H      5.561560   -1.971350    2.407080
  H      4.810500   -3.422550    3.063100
  H      4.263140   -3.184770    0.647020
  H      3.563250   -1.611800    0.945350
  H      2.811970   -3.042590    1.609800

 Total Charge           Charge          ....    0
 Multiplicity           Mult            ....    1
 Number of Electrons    NEL             ....   40
 Basis Dimension        Dim             ....  266

ORBITAL ENERGIES
----------------

  NO   OCC          E(Eh)            E(eV)
   0   2.0000     -14.103943      -383.7878
   1   2.0000      -9.997546      -272.0470
   2   2.0000      -9.987207      -271.7657
   3   2.0000      -9.974833      -271.4290
   4   2.0000      -9.914604      -269.7901
   5   2.0000      -0.870872       -23.6976
   6   2.0000      -0.723935       -19.6993
   7   2.0000      -0.665560       -18.1108
   8   2.0000      -0.586256       -15.9528
   9   2.0000      -0.522526       -14.2187
  10   2.0000      -0.482411       -13.1271
  11   2.0000      -0.434304       -11.8180
  12   2.0000      -0.399211       -10.8631
  13   2.0000      -0.387960       -10.5569
  14   2.0000      -0.348727        -9.4893
  15   2.0000      -0.342450        -9.3185
  16   2.0000      -0.321544        -8.7497
  17   2.0000      -0.302107        -8.2207
  18   2.0000      -0.286800        -7.8042
  19   2.0000      -0.162560        -4.4235
  20   0.0000      -0.009144        -0.2488
  21   0.0000       0.008689         0.2364
  22   0.0000       0.026504         0.7212
  23   0.0000       0.028843         0.7849
  24   0.0000       0.036013         0.9800

MULLIKEN ATOMIC CHARGES
-----------------------
   0 C :   -0.243719
   1 C :    0.672589
   2 N :   -0.493520
   3 C :   -0.973590
   4 H :    0.230489
   5 H :    0.248033
   6 H :    0.181858
   7 H :    0.141512
   8 C :   -0.858599
   9 H :    0.144523
  10 H :    0.176235
  11 H :    0.193914
  12 H :    0.288505
  13 H :    0.291769
Sum of atomic charges:   -0.0000000

LOEWDIN ATOMIC CHARGES
----------------------
   0 C :   -0.185846
   1 C :   -0.509033
   2 N :    0.106943
   3 C :    0.016561
   4 H :    0.020706
   5 H :    0.020754
   6 H :    0.106228
   7 H :    0.113166
   8 C :   -0.083878
   9 H :    0.105776
  10 H :    0.104081
  11 H :    0.059770
  12 H :    0.070850
  13 H :    0.053923

  Mayer bond orders larger than 0.100000
B(  0-C ,  1-C ) :   0.9556 B(  0-C ,  8-C ) :   0.8468 B(  0-C ,  9-H ) :   0.9336
B(  0-C , 10-H ) :   0.9544 B(  1-C ,  2-N ) :   0.8681 B(  1-C ,  3-C ) :   1.4695
B(  2-N ,  3-C ) :   0.1208 B(  2-N ,  6-H ) :   0.9831 B(  2-N ,  7-H ) :   1.0270
B(  3-C ,  4-H ) :   1.0306 B(  3-C ,  5-H ) :   0.9890 B(  8-C , 11-H ) :   0.9930
B(  8-C , 12-H ) :   0.9723 B(  8-C , 13-H ) :   0.9024

Dispersion correction           -0.013135348
FINAL SINGLE POINT ENERGY      -212.682338434369

DIPOLE MOMENT
-------------
                                X             Y             Z
Electronic contribution:     -0.49088       0.31940       2.83613
Nuclear contribution   :     -0.12319      -0.83296      -3.13501
                        -----------------------------------------
Total Dipole Moment    :     -0.61407      -0.51356      -0.29888
                        -----------------------------------------
Magnitude (a.u.)       :      0.85449
Magnitude (Debye)      :      2.17194

Rotational constants in cm-1:     0.266453     0.134423     0.106086
Rotational constants in MHz :  7988.053142  4029.892766  3180.375228

                             ****ORCA TERMINATED NORMALLY****
TOTAL RUN TIME: 0 days 0 hours 0 minutes 24 seconds 616 msec
