                         Program Version 5.0.0 -  RELEASE  -
|  1> !TPSS D3BJ RIJCOSX def2-TZVPD def2/J TightSCF xyzfile
|  2>
|  3> *xyzfile 0 1 D1.xyz
|  4>
|  5> %MaxCore 64000
|  6>
|  7> %pal nprocs 4
|  8> end
|  9>
| 10> %scf
| 11>   MaxIter 150
| 12> end
| 13>
| 14>
| 15>                          ****END OF INPUT****

CARTESIAN COORDINATES (ANGSTROEM)
---------------------------------
  C      4.602954   -2.440100    2.634780
  C     -0.914947    0.615112    2.505538
  C     -0.059146    1.503524    3.410578
  H      0.365364    2.344315    2.861161
  H     -0.692261    1.920207    4.198985
  C      1.083027    0.749640    4.085705
  C      3.860851   -1.591565    3.622893
  C      2.756502   -2.046159    4.166333
  N      4.254325   -0.362905    3.860455
  H      3.565256    0.310994    4.168983
  H      5.054292   -0.016059    3.337838
  H      2.439696   -2.973894    3.897395
  H      2.066869   -1.412532    4.549813
  F      2.228167    1.263475    4.019826
  O      0.810034   -0.345411    4.636269
  C      3.744685   -2.580557    1.361882
  C      0.772139    0.636882    0.562129
  C     -0.130740   -0.193985    1.470763
  H     -0.840563   -0.760165    0.856377
  H      0.466691   -0.938942    2.006959
  H     -1.647961    1.245963    1.991076
  H     -1.478180   -0.081046    3.130424
  C      3.203721   -1.256004    0.826211
  H      2.898939   -3.239289    1.583074
  H      4.334962   -3.095523    0.600188
  C      2.107815   -1.442385   -0.216865
  H      2.786775   -0.672760    1.650711
  H      4.021008   -0.652993    0.414046
  C      1.390662   -0.145912   -0.602422
  H      1.372179   -2.152184    0.176151
  H      2.523302   -1.906787   -1.117115
  H      1.561361    1.100094    1.161831
  H      0.195516    1.468325    0.142758
  H      0.602893   -0.398214   -1.319716
  H      2.087247    0.508272   -1.137335
  H      5.561557   -1.971347    2.407084
  H      4.810498   -3.422552    3.063099

 Total Charge           Charge          ....    0
 Multiplicity           Mult            ....    1
 Number of Electrons    NEL             ....  118
 Basis Dimension        Dim             ....  759

ORBITAL ENERGIES
----------------

  NO   OCC          E(Eh)            E(eV)
   0   2.0000     -24.501978      -666.7327
   1   2.0000     -18.899965      -514.2942
   2   2.0000     -14.081066      -383.1653
   3   2.0000     -10.165368      -276.6137
   4   2.0000     -10.022125      -272.7159
   5   2.0000     -10.001293      -272.1490
   6   2.0000      -9.985965      -271.7319
   7   2.0000      -9.985830      -271.7283
   8   2.0000      -9.981129      -271.6003
   9   2.0000      -9.976853      -271.4840
  10   2.0000      -9.974979      -271.4330
  11   2.0000      -9.973309      -271.3875
  12   2.0000      -9.973191      -271.3843
  13   2.0000      -9.971248      -271.3314
  14   2.0000      -9.882901      -268.9274
  15   2.0000      -1.265754       -34.4429
  16   2.0000      -0.982217       -26.7275
  17   2.0000      -0.854178       -23.2434
  18   2.0000      -0.771874       -21.0037
  19   2.0000      -0.747874       -20.3507
  20   2.0000      -0.723981       -19.7005
  21   2.0000      -0.689014       -18.7490
  22   2.0000      -0.664547       -18.0832
  23   2.0000      -0.636648       -17.3241
  24   2.0000      -0.622483       -16.9386
  25   2.0000      -0.596607       -16.2345
  26   2.0000      -0.562490       -15.3061
  27   2.0000      -0.543157       -14.7801
  28   2.0000      -0.520034       -14.1509
  29   2.0000      -0.514125       -13.9900
  30   2.0000      -0.503805       -13.7092
  31   2.0000      -0.491568       -13.3762
  32   2.0000      -0.479271       -13.0416
  33   2.0000      -0.454135       -12.3577
  34   2.0000      -0.438922       -11.9437
  35   2.0000      -0.436014       -11.8645
  36   2.0000      -0.427998       -11.6464
  37   2.0000      -0.409878       -11.1534
  38   2.0000      -0.400378       -10.8948
  39   2.0000      -0.385921       -10.5014
  40   2.0000      -0.383768       -10.4429
  41   2.0000      -0.366646        -9.9769
  42   2.0000      -0.363360        -9.8875
  43   2.0000      -0.351478        -9.5642
  44   2.0000      -0.348801        -9.4914
  45   2.0000      -0.334719        -9.1082
  46   2.0000      -0.331404        -9.0180
  47   2.0000      -0.321830        -8.7574
  48   2.0000      -0.315394        -8.5823
  49   2.0000      -0.308577        -8.3968
  50   2.0000      -0.305801        -8.3213
  51   2.0000      -0.296045        -8.0558
  52   2.0000      -0.288467        -7.8496
  53   2.0000      -0.285070        -7.7571
  54   2.0000      -0.278896        -7.5891
  55   2.0000      -0.274719        -7.4755
  56   2.0000      -0.266125        -7.2416
  57   2.0000      -0.236103        -6.4247
  58   2.0000      -0.141184        -3.8418
  59   0.0000      -0.077645        -2.1128
  60   0.0000      -0.012953        -0.3525
  61   0.0000       0.001722         0.0469
  62   0.0000       0.003845         0.1046
  63   0.0000       0.008019         0.2182

MULLIKEN ATOMIC CHARGES
-----------------------
   0 C :   -0.362559
   1 C :   -0.283829
   2 C :   -0.361660
   3 H :    0.316110
   4 H :    0.088710
   5 C :    0.894658
   6 C :    0.245867
   7 C :   -1.530722
   8 N :   -0.469589
   9 H :    0.319211
  10 H :    0.166849
  11 H :    0.318009
  12 H :    0.870715
  13 F :   -0.329928
  14 O :   -0.625097
  15 C :   -0.496004
  16 C :   -0.311740
  17 C :   -0.479014
  18 H :    0.124016
  19 H :    0.396467
  20 H :    0.072639
  21 H :    0.208728
  22 C :    0.071352
  23 H :    0.279989
  24 H :    0.149389
  25 C :   -0.436813
  26 H :    0.058906
  27 H :    0.094649
  28 C :   -0.438506
  29 H :    0.281974
  30 H :    0.137351
  31 H :    0.377626
  32 H :    0.075130
  33 H :    0.140174
  34 H :    0.153318
  35 H :    0.227760
  36 H :    0.055863
Sum of atomic charges:   -0.0000000

LOEWDIN ATOMIC CHARGES
----------------------
   0 C :   -0.136569
   1 C :   -0.184657
   2 C :   -0.095794
   3 H :    0.109177
   4 H :    0.125277
   5 C :   -0.450419
   6 C :   -0.495837
   7 C :    0.030417
   8 N :    0.121218
   9 H :    0.068270
  10 H :    0.108300
  11 H :    0.036947
  12 H :   -0.023553
  13 F :    0.200012
  14 O :    0.091836
  15 C :   -0.188492
  16 C :   -0.209879
  17 C :   -0.200326
  18 H :    0.119168
  19 H :    0.104859
  20 H :    0.112819
  21 H :    0.112117
  22 C :   -0.208672
  23 H :    0.106704
  24 H :    0.106119
  25 C :   -0.210290
  26 H :    0.081802
  27 H :    0.120004
  28 C :   -0.201881
  29 H :    0.105632
  30 H :    0.110017
  31 H :    0.098224
  32 H :    0.111874
  33 H :    0.105185
  34 H :    0.105748
  35 H :    0.102215
  36 H :    0.112425

  Mayer bond orders larger than 0.100000
B(  0-C ,  6-C ) :   0.9986 B(  0-C ,  7-C ) :  -0.1440 B(  0-C , 15-C ) :   0.9581
B(  0-C , 35-H ) :   0.8740 B(  0-C , 36-H ) :   0.9653 B(  1-C ,  2-C ) :   0.9840
B(  1-C ,  5-C ) :   0.1156 B(  1-C , 16-C ) :   0.1323 B(  1-C , 17-C ) :   1.1890
B(  1-C , 20-H ) :   0.9268 B(  1-C , 21-H ) :   0.8269 B(  2-C ,  3-H ) :   0.8560
B(  2-C ,  4-H ) :   0.8543 B(  2-C ,  5-C ) :   1.1152 B(  2-C , 16-C ) :   0.1869
B(  5-C , 13-F ) :   0.6757 B(  5-C , 14-O ) :   1.4718 B(  5-C , 17-C ) :   0.1295
B(  6-C ,  7-C ) :   1.5352 B(  6-C ,  8-N ) :   0.9239 B(  6-C , 15-C ) :   0.1282
B(  7-C , 11-H ) :   1.0309 B(  7-C , 12-H ) :   0.5007 B(  7-C , 14-O ) :   0.1574
B(  7-C , 15-C ) :   0.1238 B(  8-N ,  9-H ) :   0.7538 B(  8-N , 10-H ) :   0.9690
B( 12-H , 14-O ) :  -0.2985 B( 13-F , 14-O ) :   0.1240 B( 15-C , 22-C ) :   0.8124
B( 15-C , 23-H ) :   0.7471 B( 15-C , 24-H ) :   0.9288 B( 15-C , 25-C ) :   0.4402
B( 15-C , 27-H ) :  -0.1342 B( 16-C , 17-C ) :   0.6131 B( 16-C , 19-H ) :  -0.1183
B( 16-C , 22-C ) :   0.1874 B( 16-C , 26-H ) :   0.1007 B( 16-C , 28-C ) :   1.1324
B( 16-C , 31-H ) :   0.8726 B( 16-C , 32-H ) :   0.8659 B( 17-C , 18-H ) :   0.8140
B( 17-C , 19-H ) :   0.9734 B( 17-C , 25-C ) :   0.1740 B( 17-C , 28-C ) :   0.1864
B( 17-C , 29-H ) :   0.1028 B( 17-C , 31-H ) :  -0.1104 B( 22-C , 25-C ) :   0.6932
B( 22-C , 26-H ) :   1.5573 B( 22-C , 27-H ) :   0.7641 B( 22-C , 28-C ) :   0.1292
B( 25-C , 27-H ) :  -0.1239 B( 25-C , 28-C ) :   1.1545 B( 25-C , 29-H ) :   0.7757
B( 25-C , 30-H ) :   0.9156 B( 26-H , 27-H ) :   0.1421 B( 28-C , 33-H ) :   0.8868
B( 28-C , 34-H ) :   0.8963

Dispersion correction           -0.053664814
FINAL SINGLE POINT ENERGY      -700.696354087785

DIPOLE MOMENT
-------------
                                X             Y             Z
Electronic contribution:      1.20103       7.34844      15.00295
Nuclear contribution   :     -1.66567      -5.90236     -15.95042
                        -----------------------------------------
Total Dipole Moment    :     -0.46463       1.44608      -0.94747
                        -----------------------------------------
Magnitude (a.u.)       :      1.79017
Magnitude (Debye)      :      4.55026

Rotational constants in cm-1:     0.021600     0.017292     0.011381
Rotational constants in MHz :   647.565282   518.410024   341.193038

                             ****ORCA TERMINATED NORMALLY****
TOTAL RUN TIME: 0 days 0 hours 3 minutes 1 seconds 487 msec
