                         Program Version 5.0.0 -  RELEASE  -
|  1> !TPSS D3BJ RIJCOSX def2-TZVPD def2/J TightSCF xyzfile
|  2>
|  3> *xyzfile 0 1 D2.xyz
|  4>
|  5> %MaxCore 64000
|  6>
|  7> %pal nprocs 4
|  8> end
|  9>
| 10> %scf
| 11>   MaxIter 150
| 12> end
| 13>
| 14>
| 15>                          ****END OF INPUT****

CARTESIAN COORDINATES (ANGSTROEM)
---------------------------------
  C      4.602954   -2.440100    2.634780
  C     -0.914947    0.615112    2.505538
  C     -0.059146    1.503524    3.410578
  H      0.365364    2.344315    2.861161
  H     -0.692261    1.920207    4.198985
  C      1.083027    0.749640    4.085705
  C      3.860851   -1.591565    3.622893
  N      2.756502   -2.046159    4.166333
  C      4.254325   -0.362905    3.860455
  H      3.565256    0.310994    4.168983
  H      5.054292   -0.016059    3.337838
  H      2.439696   -2.973894    3.897395
  H      2.066869   -1.412532    4.549813
  F      2.228167    1.263475    4.019826
  O      0.810034   -0.345411    4.636269
  C      3.744685   -2.580557    1.361882
  C      0.772139    0.636882    0.562129
  C     -0.130740   -0.193985    1.470763
  H     -0.840563   -0.760165    0.856377
  H      0.466691   -0.938942    2.006959
  H     -1.647961    1.245963    1.991076
  H     -1.478180   -0.081046    3.130424
  C      3.203721   -1.256004    0.826211
  H      2.898939   -3.239289    1.583074
  H      4.334962   -3.095523    0.600188
  C      2.107815   -1.442385   -0.216865
  H      2.786775   -0.672760    1.650711
  H      4.021008   -0.652993    0.414046
  C      1.390662   -0.145912   -0.602422
  H      1.372179   -2.152184    0.176151
  H      2.523302   -1.906787   -1.117115
  H      1.561361    1.100094    1.161831
  H      0.195516    1.468325    0.142758
  H      0.602893   -0.398214   -1.319716
  H      2.087247    0.508272   -1.137335
  H      5.561557   -1.971347    2.407084
  H      4.810498   -3.422552    3.063099

 Total Charge           Charge          ....    0
 Multiplicity           Mult            ....    1
 Number of Electrons    NEL             ....  118
 Basis Dimension        Dim             ....  759

ORBITAL ENERGIES
----------------

  NO   OCC          E(Eh)            E(eV)
   0   2.0000     -24.492688      -666.4799
   1   2.0000     -18.911193      -514.5997
   2   2.0000     -14.069641      -382.8544
   3   2.0000     -10.172724      -276.8139
   4   2.0000     -10.025117      -272.7973
   5   2.0000     -10.004891      -272.2469
   6   2.0000      -9.989730      -271.8344
   7   2.0000      -9.986910      -271.7576
   8   2.0000      -9.981679      -271.6153
   9   2.0000      -9.978468      -271.5279
  10   2.0000      -9.976417      -271.4721
  11   2.0000      -9.975464      -271.4462
  12   2.0000      -9.972122      -271.3552
  13   2.0000      -9.969587      -271.2863
  14   2.0000      -9.890960      -269.1467
  15   2.0000      -1.257857       -34.2280
  16   2.0000      -0.992760       -27.0144
  17   2.0000      -0.846459       -23.0333
  18   2.0000      -0.774742       -21.0818
  19   2.0000      -0.748602       -20.3705
  20   2.0000      -0.723433       -19.6856
  21   2.0000      -0.690539       -18.7905
  22   2.0000      -0.661155       -17.9909
  23   2.0000      -0.647298       -17.6139
  24   2.0000      -0.615304       -16.7433
  25   2.0000      -0.597803       -16.2671
  26   2.0000      -0.562023       -15.2934
  27   2.0000      -0.539188       -14.6721
  28   2.0000      -0.516963       -14.0673
  29   2.0000      -0.511955       -13.9310
  30   2.0000      -0.504579       -13.7303
  31   2.0000      -0.495914       -13.4945
  32   2.0000      -0.481331       -13.0977
  33   2.0000      -0.455375       -12.3914
  34   2.0000      -0.442367       -12.0374
  35   2.0000      -0.436461       -11.8767
  36   2.0000      -0.420387       -11.4393
  37   2.0000      -0.411430       -11.1956
  38   2.0000      -0.399496       -10.8708
  39   2.0000      -0.393704       -10.7132
  40   2.0000      -0.382552       -10.4098
  41   2.0000      -0.371843       -10.1184
  42   2.0000      -0.363884        -9.9018
  43   2.0000      -0.355430        -9.6717
  44   2.0000      -0.343793        -9.3551
  45   2.0000      -0.337584        -9.1861
  46   2.0000      -0.330407        -8.9908
  47   2.0000      -0.328792        -8.9469
  48   2.0000      -0.316113        -8.6019
  49   2.0000      -0.313360        -8.5270
  50   2.0000      -0.307024        -8.3546
  51   2.0000      -0.291067        -7.9203
  52   2.0000      -0.288676        -7.8553
  53   2.0000      -0.285858        -7.7786
  54   2.0000      -0.279831        -7.6146
  55   2.0000      -0.275469        -7.4959
  56   2.0000      -0.266018        -7.2387
  57   2.0000      -0.255632        -6.9561
  58   2.0000      -0.142411        -3.8752
  59   0.0000      -0.083211        -2.2643
  60   0.0000      -0.011847        -0.3224
  61   0.0000      -0.000916        -0.0249
  62   0.0000       0.004424         0.1204
  63   0.0000       0.007366         0.2004

MULLIKEN ATOMIC CHARGES
-----------------------
   0 C :   -0.361343
   1 C :   -0.293208
   2 C :   -0.324086
   3 H :    0.315301
   4 H :    0.096518
   5 C :    0.892767
   6 C :    0.274768
   7 N :   -0.432756
   8 C :   -1.378864
   9 H :    0.688617
  10 H :    0.274299
  11 H :    0.174696
  12 H :    0.299516
  13 F :   -0.271453
  14 O :   -0.727491
  15 C :   -0.421283
  16 C :   -0.324171
  17 C :   -0.471546
  18 H :    0.139287
  19 H :    0.363361
  20 H :    0.081180
  21 H :    0.197213
  22 C :    0.091741
  23 H :    0.274245
  24 H :    0.093090
  25 C :   -0.434136
  26 H :    0.052804
  27 H :    0.107812
  28 C :   -0.418490
  29 H :    0.282735
  30 H :    0.108356
  31 H :    0.383697
  32 H :    0.085851
  33 H :    0.143106
  34 H :    0.157110
  35 H :    0.179166
  36 H :    0.101590
Sum of atomic charges:   -0.0000000

LOEWDIN ATOMIC CHARGES
----------------------
   0 C :   -0.137439
   1 C :   -0.185458
   2 C :   -0.092537
   3 H :    0.111741
   4 H :    0.126360
   5 C :   -0.444316
   6 C :   -0.499416
   7 N :    0.136078
   8 C :    0.019472
   9 H :   -0.004722
  10 H :    0.029985
  11 H :    0.111044
  12 H :    0.042022
  13 F :    0.198823
  14 O :    0.091140
  15 C :   -0.188437
  16 C :   -0.208483
  17 C :   -0.202259
  18 H :    0.118997
  19 H :    0.102153
  20 H :    0.113472
  21 H :    0.111259
  22 C :   -0.204946
  23 H :    0.100046
  24 H :    0.107973
  25 C :   -0.212809
  26 H :    0.082424
  27 H :    0.124991
  28 C :   -0.201159
  29 H :    0.103401
  30 H :    0.109461
  31 H :    0.100456
  32 H :    0.112313
  33 H :    0.104972
  34 H :    0.106711
  35 H :    0.109766
  36 H :    0.106920

  Mayer bond orders larger than 0.100000
B(  0-C ,  6-C ) :   1.0175 B(  0-C , 15-C ) :   0.9522 B(  0-C , 24-H ) :   0.1204
B(  0-C , 35-H ) :   0.8046 B(  0-C , 36-H ) :   1.0178 B(  1-C ,  2-C ) :   1.0021
B(  1-C ,  5-C ) :   0.1167 B(  1-C , 16-C ) :   0.1342 B(  1-C , 17-C ) :   1.1989
B(  1-C , 20-H ) :   0.9134 B(  1-C , 21-H ) :   0.8300 B(  2-C ,  3-H ) :   0.8526
B(  2-C ,  4-H ) :   0.8412 B(  2-C ,  5-C ) :   1.1271 B(  2-C , 16-C ) :   0.1862
B(  5-C , 13-F ) :   0.7501 B(  5-C , 14-O ) :   1.3165 B(  5-C , 17-C ) :   0.1365
B(  6-C ,  7-N ) :   0.8338 B(  6-C ,  8-C ) :   1.7681 B(  6-C , 10-H ) :  -0.1139
B(  7-N , 11-H ) :   0.9705 B(  7-N , 12-H ) :   0.7581 B(  8-C ,  9-H ) :   0.6455
B(  8-C , 10-H ) :   1.0638 B(  8-C , 26-H ) :  -0.1011 B(  9-H , 13-F ) :  -0.1224
B( 13-F , 14-O ) :   0.1310 B( 15-C , 22-C ) :   0.8061 B( 15-C , 23-H ) :   0.7746
B( 15-C , 24-H ) :   0.9346 B( 15-C , 25-C ) :   0.4368 B( 15-C , 27-H ) :  -0.1314
B( 16-C , 17-C ) :   0.6124 B( 16-C , 19-H ) :  -0.1256 B( 16-C , 22-C ) :   0.1807
B( 16-C , 28-C ) :   1.1427 B( 16-C , 31-H ) :   0.8814 B( 16-C , 32-H ) :   0.8616
B( 17-C , 18-H ) :   0.7901 B( 17-C , 19-H ) :   0.9864 B( 17-C , 25-C ) :   0.1726
B( 17-C , 28-C ) :   0.1879 B( 17-C , 29-H ) :   0.1116 B( 17-C , 31-H ) :  -0.1222
B( 22-C , 25-C ) :   0.7276 B( 22-C , 26-H ) :   1.5780 B( 22-C , 27-H ) :   0.7237
B( 22-C , 28-C ) :   0.1323 B( 25-C , 27-H ) :  -0.1238 B( 25-C , 28-C ) :   1.1445
B( 25-C , 29-H ) :   0.7719 B( 25-C , 30-H ) :   0.9440 B( 26-H , 27-H ) :   0.2134
B( 28-C , 33-H ) :   0.8896 B( 28-C , 34-H ) :   0.8928

Dispersion correction           -0.053601129
FINAL SINGLE POINT ENERGY      -700.706213918496

DIPOLE MOMENT
-------------
                                X             Y             Z
Electronic contribution:      0.08396       6.22806      15.16849
Nuclear contribution   :     -1.39991      -5.60370     -16.00470
                        -----------------------------------------
Total Dipole Moment    :     -1.31595       0.62435      -0.83621
                        -----------------------------------------
Magnitude (a.u.)       :      1.67952
Magnitude (Debye)      :      4.26900

Rotational constants in cm-1:     0.021622     0.017313     0.011402
Rotational constants in MHz :   648.226014   519.043632   341.814105

                             ****ORCA TERMINATED NORMALLY****
TOTAL RUN TIME: 0 days 0 hours 3 minutes 28 seconds 543 msec
