                         Program Version 5.0.0 -  RELEASE  -
|  1> !TPSS D3BJ RIJCOSX def2-TZVPD def2/J TightSCF xyzfile
|  2>
|  3> *xyzfile 0 1 D3.xyz
|  4>
|  5> %MaxCore 64000
|  6>
|  7> %pal nprocs 4
|  8> end
|  9>
| 10> %scf
| 11>   MaxIter 150
| 12> end
| 13>
| 14>
| 15>                          ****END OF INPUT****

CARTESIAN COORDINATES (ANGSTROEM)
---------------------------------
  C      4.602954   -2.440100    2.634780
  C     -0.914947    0.615112    2.505538
  C     -0.059146    1.503524    3.410578
  H      0.365364    2.344315    2.861161
  H     -0.692261    1.920207    4.198985
  C      1.083027    0.749640    4.085705
  C      3.860851   -1.591565    3.622893
  C      2.756502   -2.046159    4.166333
  N      4.254325   -0.362905    3.860455
  H      3.565256    0.310994    4.168983
  H      5.054292   -0.016059    3.337838
  H      2.439696   -2.973894    3.897395
  H      2.066869   -1.412532    4.549813
  O      2.228167    1.263475    4.019826
  F      0.810034   -0.345411    4.636269
  C      3.744685   -2.580557    1.361882
  C      0.772139    0.636882    0.562129
  C     -0.130740   -0.193985    1.470763
  H     -0.840563   -0.760165    0.856377
  H      0.466691   -0.938942    2.006959
  H     -1.647961    1.245963    1.991076
  H     -1.478180   -0.081046    3.130424
  C      3.203721   -1.256004    0.826211
  H      2.898939   -3.239289    1.583074
  H      4.334962   -3.095523    0.600188
  C      2.107815   -1.442385   -0.216865
  H      2.786775   -0.672760    1.650711
  H      4.021008   -0.652993    0.414046
  C      1.390662   -0.145912   -0.602422
  H      1.372179   -2.152184    0.176151
  H      2.523302   -1.906787   -1.117115
  H      1.561361    1.100094    1.161831
  H      0.195516    1.468325    0.142758
  H      0.602893   -0.398214   -1.319716
  H      2.087247    0.508272   -1.137335
  H      5.561557   -1.971347    2.407084
  H      4.810498   -3.422552    3.063099

 Total Charge           Charge          ....    0
 Multiplicity           Mult            ....    1
 Number of Electrons    NEL             ....  118
 Basis Dimension        Dim             ....  759

ORBITAL ENERGIES
----------------

  NO   OCC          E(Eh)            E(eV)
   0   2.0000     -24.491491      -666.4473
   1   2.0000     -18.909023      -514.5407
   2   2.0000     -14.068306      -382.8181
   3   2.0000     -10.170583      -276.7556
   4   2.0000     -10.023080      -272.7419
   5   2.0000     -10.005580      -272.2657
   6   2.0000      -9.990015      -271.8421
   7   2.0000      -9.984082      -271.6807
   8   2.0000      -9.979995      -271.5695
   9   2.0000      -9.978818      -271.5375
  10   2.0000      -9.974156      -271.4106
  11   2.0000      -9.972896      -271.3763
  12   2.0000      -9.972662      -271.3699
  13   2.0000      -9.968881      -271.2670
  14   2.0000      -9.891363      -269.1577
  15   2.0000      -1.257161       -34.2091
  16   2.0000      -0.989331       -26.9211
  17   2.0000      -0.845758       -23.0142
  18   2.0000      -0.775269       -21.0961
  19   2.0000      -0.747884       -20.3509
  20   2.0000      -0.722795       -19.6682
  21   2.0000      -0.689427       -18.7603
  22   2.0000      -0.658503       -17.9188
  23   2.0000      -0.640616       -17.4320
  24   2.0000      -0.614738       -16.7279
  25   2.0000      -0.598216       -16.2783
  26   2.0000      -0.564483       -15.3604
  27   2.0000      -0.542052       -14.7500
  28   2.0000      -0.515728       -14.0337
  29   2.0000      -0.512727       -13.9520
  30   2.0000      -0.502585       -13.6760
  31   2.0000      -0.495377       -13.4799
  32   2.0000      -0.475897       -12.9498
  33   2.0000      -0.448823       -12.2131
  34   2.0000      -0.440938       -11.9985
  35   2.0000      -0.436059       -11.8658
  36   2.0000      -0.425247       -11.5716
  37   2.0000      -0.406693       -11.0667
  38   2.0000      -0.401831       -10.9344
  39   2.0000      -0.387053       -10.5323
  40   2.0000      -0.382573       -10.4104
  41   2.0000      -0.369487       -10.0542
  42   2.0000      -0.365394        -9.9429
  43   2.0000      -0.352452        -9.5907
  44   2.0000      -0.346083        -9.4174
  45   2.0000      -0.337719        -9.1898
  46   2.0000      -0.333352        -9.0710
  47   2.0000      -0.328119        -8.9286
  48   2.0000      -0.316944        -8.6245
  49   2.0000      -0.307410        -8.3650
  50   2.0000      -0.302947        -8.2436
  51   2.0000      -0.296513        -8.0685
  52   2.0000      -0.287095        -7.8123
  53   2.0000      -0.284143        -7.7319
  54   2.0000      -0.278693        -7.5836
  55   2.0000      -0.273510        -7.4426
  56   2.0000      -0.262791        -7.1509
  57   2.0000      -0.254652        -6.9294
  58   2.0000      -0.141668        -3.8550
  59   0.0000      -0.078767        -2.1433
  60   0.0000      -0.012661        -0.3445
  61   0.0000       0.003514         0.0956
  62   0.0000       0.004394         0.1196
  63   0.0000       0.007867         0.2141

MULLIKEN ATOMIC CHARGES
-----------------------
   0 C :   -0.345388
   1 C :   -0.336345
   2 C :   -0.258664
   3 H :    0.265612
   4 H :    0.115068
   5 C :    0.847504
   6 C :    0.304253
   7 C :   -1.520208
   8 N :   -0.452323
   9 H :    0.317354
  10 H :    0.158860
  11 H :    0.321205
  12 H :    0.784848
  13 O :   -0.693063
  14 F :   -0.296172
  15 C :   -0.504737
  16 C :   -0.329280
  17 C :   -0.404196
  18 H :    0.120136
  19 H :    0.352657
  20 H :    0.082640
  21 H :    0.207202
  22 C :    0.041538
  23 H :    0.278250
  24 H :    0.143998
  25 C :   -0.444380
  26 H :    0.119298
  27 H :    0.086376
  28 C :   -0.425930
  29 H :    0.278647
  30 H :    0.133015
  31 H :    0.396153
  32 H :    0.077988
  33 H :    0.137420
  34 H :    0.153994
  35 H :    0.223110
  36 H :    0.063560
Sum of atomic charges:    0.0000000

LOEWDIN ATOMIC CHARGES
----------------------
   0 C :   -0.135183
   1 C :   -0.190058
   2 C :   -0.089036
   3 H :    0.118802
   4 H :    0.124156
   5 C :   -0.448311
   6 C :   -0.494085
   7 C :    0.025156
   8 N :    0.126386
   9 H :    0.042442
  10 H :    0.109047
  11 H :    0.033098
  12 H :   -0.005772
  13 O :    0.086800
  14 F :    0.200453
  15 C :   -0.189112
  16 C :   -0.206938
  17 C :   -0.202128
  18 H :    0.118630
  19 H :    0.103175
  20 H :    0.112849
  21 H :    0.108774
  22 C :   -0.207416
  23 H :    0.105496
  24 H :    0.106114
  25 C :   -0.211029
  26 H :    0.083184
  27 H :    0.121120
  28 C :   -0.201545
  29 H :    0.104479
  30 H :    0.109761
  31 H :    0.101744
  32 H :    0.112384
  33 H :    0.104500
  34 H :    0.106438
  35 H :    0.103448
  36 H :    0.112176

  Mayer bond orders larger than 0.100000
B(  0-C ,  6-C ) :   1.0204 B(  0-C ,  7-C ) :  -0.1452 B(  0-C , 15-C ) :   0.9579
B(  0-C , 35-H ) :   0.8657 B(  0-C , 36-H ) :   0.9727 B(  1-C ,  2-C ) :   0.9449
B(  1-C ,  5-C ) :   0.1121 B(  1-C , 16-C ) :   0.1358 B(  1-C , 17-C ) :   1.1442
B(  1-C , 20-H ) :   0.9109 B(  1-C , 21-H ) :   0.8663 B(  2-C ,  3-H ) :   0.8920
B(  2-C ,  4-H ) :   0.8661 B(  2-C ,  5-C ) :   1.1308 B(  2-C , 16-C ) :   0.1909
B(  5-C , 13-O ) :   1.3460 B(  5-C , 14-F ) :   0.7556 B(  5-C , 17-C ) :   0.1149
B(  6-C ,  7-C ) :   1.5253 B(  6-C ,  8-N ) :   0.9075 B(  6-C , 13-O ) :   0.1163
B(  6-C , 15-C ) :   0.1258 B(  7-C , 11-H ) :   1.0258 B(  7-C , 12-H ) :   0.4906
B(  7-C , 15-C ) :   0.1227 B(  8-N ,  9-H ) :   0.7764 B(  8-N , 10-H ) :   0.9632
B( 12-H , 14-F ) :  -0.1401 B( 13-O , 14-F ) :   0.1036 B( 15-C , 22-C ) :   0.7978
B( 15-C , 23-H ) :   0.7498 B( 15-C , 24-H ) :   0.9274 B( 15-C , 25-C ) :   0.4383
B( 15-C , 27-H ) :  -0.1340 B( 16-C , 17-C ) :   0.6549 B( 16-C , 19-H ) :  -0.1068
B( 16-C , 22-C ) :   0.1732 B( 16-C , 26-H ) :   0.1116 B( 16-C , 28-C ) :   1.1177
B( 16-C , 31-H ) :   0.8617 B( 16-C , 32-H ) :   0.8601 B( 17-C , 18-H ) :   0.8370
B( 17-C , 19-H ) :   0.9652 B( 17-C , 22-C ) :  -0.1056 B( 17-C , 25-C ) :   0.1793
B( 17-C , 28-C ) :   0.1786 B( 17-C , 29-H ) :   0.1087 B( 22-C , 25-C ) :   0.6728
B( 22-C , 26-H ) :   1.5602 B( 22-C , 27-H ) :   0.7436 B( 22-C , 28-C ) :   0.1241
B( 25-C , 27-H ) :  -0.1208 B( 25-C , 28-C ) :   1.1544 B( 25-C , 29-H ) :   0.7767
B( 25-C , 30-H ) :   0.9186 B( 26-H , 27-H ) :   0.1666 B( 28-C , 33-H ) :   0.8898
B( 28-C , 34-H ) :   0.8924

Dispersion correction           -0.053664287
FINAL SINGLE POINT ENERGY      -700.707354655467

DIPOLE MOMENT
-------------
                                X             Y             Z
Electronic contribution:     -1.17176       4.74316      15.99970
Nuclear contribution   :      0.05905      -3.94566     -16.70013
                        -----------------------------------------
Total Dipole Moment    :     -1.11272       0.79751      -0.70044
                        -----------------------------------------
Magnitude (a.u.)       :      1.53778
Magnitude (Debye)      :      3.90873

Rotational constants in cm-1:     0.021602     0.017295     0.011353
Rotational constants in MHz :   647.614981   518.478934   340.359556

                             ****ORCA TERMINATED NORMALLY****
TOTAL RUN TIME: 0 days 0 hours 3 minutes 30 seconds 56 msec
