                         Program Version 5.0.0 -  RELEASE  -
|  1> !TPSS D3BJ RIJCOSX def2-TZVPD def2/J TightSCF xyzfile
|  2>
|  3> *xyzfile 0 1 D4.xyz
|  4>
|  5> %MaxCore 64000
|  6>
|  7> %pal nprocs 4
|  8> end
|  9>
| 10> %scf
| 11>   MaxIter 150
| 12> end
| 13>
| 14>
| 15>                          ****END OF INPUT****

CARTESIAN COORDINATES (ANGSTROEM)
---------------------------------
  C      4.602954   -2.440100    2.634780
  C     -0.914947    0.615112    2.505538
  C     -0.059146    1.503524    3.410578
  H      0.365364    2.344315    2.861161
  H     -0.692261    1.920207    4.198985
  C      1.083027    0.749640    4.085705
  C      3.860851   -1.591565    3.622893
  N      2.756502   -2.046159    4.166333
  C      4.254325   -0.362905    3.860455
  H      3.565256    0.310994    4.168983
  H      5.054292   -0.016059    3.337838
  H      2.439696   -2.973894    3.897395
  H      2.066869   -1.412532    4.549813
  O      2.228167    1.263475    4.019826
  F      0.810034   -0.345411    4.636269
  C      3.744685   -2.580557    1.361882
  C      0.772139    0.636882    0.562129
  C     -0.130740   -0.193985    1.470763
  H     -0.840563   -0.760165    0.856377
  H      0.466691   -0.938942    2.006959
  H     -1.647961    1.245963    1.991076
  H     -1.478180   -0.081046    3.130424
  C      3.203721   -1.256004    0.826211
  H      2.898939   -3.239289    1.583074
  H      4.334962   -3.095523    0.600188
  C      2.107815   -1.442385   -0.216865
  H      2.786775   -0.672760    1.650711
  H      4.021008   -0.652993    0.414046
  C      1.390662   -0.145912   -0.602422
  H      1.372179   -2.152184    0.176151
  H      2.523302   -1.906787   -1.117115
  H      1.561361    1.100094    1.161831
  H      0.195516    1.468325    0.142758
  H      0.602893   -0.398214   -1.319716
  H      2.087247    0.508272   -1.137335
  H      5.561557   -1.971347    2.407084
  H      4.810498   -3.422552    3.063099

 Total Charge           Charge          ....    0
 Multiplicity           Mult            ....    1
 Number of Electrons    NEL             ....  118
 Basis Dimension        Dim             ....  759

ORBITAL ENERGIES
----------------

  NO   OCC          E(Eh)            E(eV)
   0   2.0000     -24.503422      -666.7720
   1   2.0000     -18.900391      -514.3058
   2   2.0000     -14.082494      -383.2041
   3   2.0000     -10.166152      -276.6351
   4   2.0000     -10.022515      -272.7265
   5   2.0000     -10.006571      -272.2927
   6   2.0000      -9.992810      -271.9182
   7   2.0000      -9.984238      -271.6849
   8   2.0000      -9.980042      -271.5707
   9   2.0000      -9.975488      -271.4468
  10   2.0000      -9.975386      -271.4440
  11   2.0000      -9.974418      -271.4177
  12   2.0000      -9.971126      -271.3281
  13   2.0000      -9.967358      -271.2256
  14   2.0000      -9.881528      -268.8900
  15   2.0000      -1.267969       -34.5032
  16   2.0000      -0.981743       -26.7146
  17   2.0000      -0.853854       -23.2346
  18   2.0000      -0.776060       -21.1177
  19   2.0000      -0.747933       -20.3523
  20   2.0000      -0.723355       -19.6835
  21   2.0000      -0.688550       -18.7364
  22   2.0000      -0.662799       -18.0357
  23   2.0000      -0.639161       -17.3924
  24   2.0000      -0.624663       -16.9980
  25   2.0000      -0.596551       -16.2330
  26   2.0000      -0.564802       -15.3691
  27   2.0000      -0.538705       -14.6589
  28   2.0000      -0.527547       -14.3553
  29   2.0000      -0.517253       -14.0752
  30   2.0000      -0.506812       -13.7910
  31   2.0000      -0.495250       -13.4764
  32   2.0000      -0.472436       -12.8556
  33   2.0000      -0.457462       -12.4482
  34   2.0000      -0.442953       -12.0534
  35   2.0000      -0.439050       -11.9471
  36   2.0000      -0.419308       -11.4100
  37   2.0000      -0.405215       -11.0265
  38   2.0000      -0.398106       -10.8330
  39   2.0000      -0.394803       -10.7431
  40   2.0000      -0.378776       -10.3070
  41   2.0000      -0.372911       -10.1474
  42   2.0000      -0.365511        -9.9461
  43   2.0000      -0.350254        -9.5309
  44   2.0000      -0.346562        -9.4304
  45   2.0000      -0.338125        -9.2009
  46   2.0000      -0.333861        -9.0848
  47   2.0000      -0.322474        -8.7750
  48   2.0000      -0.318903        -8.6778
  49   2.0000      -0.312364        -8.4999
  50   2.0000      -0.308511        -8.3950
  51   2.0000      -0.291386        -7.9290
  52   2.0000      -0.289118        -7.8673
  53   2.0000      -0.286626        -7.7995
  54   2.0000      -0.279081        -7.5942
  55   2.0000      -0.273165        -7.4332
  56   2.0000      -0.265072        -7.2130
  57   2.0000      -0.231102        -6.2886
  58   2.0000      -0.141681        -3.8553
  59   0.0000      -0.076555        -2.0832
  60   0.0000      -0.016328        -0.4443
  61   0.0000      -0.001905        -0.0518
  62   0.0000       0.003746         0.1019
  63   0.0000       0.008102         0.2205

MULLIKEN ATOMIC CHARGES
-----------------------
   0 C :   -0.376478
   1 C :   -0.341199
   2 C :   -0.257876
   3 H :    0.259401
   4 H :    0.115033
   5 C :    0.818865
   6 C :    0.206214
   7 N :   -0.456996
   8 C :   -1.328532
   9 H :    0.749896
  10 H :    0.256624
  11 H :    0.182249
  12 H :    0.328594
  13 O :   -0.599980
  14 F :   -0.372090
  15 C :   -0.414002
  16 C :   -0.342339
  17 C :   -0.385256
  18 H :    0.135753
  19 H :    0.305862
  20 H :    0.090718
  21 H :    0.204359
  22 C :    0.049904
  23 H :    0.268401
  24 H :    0.087825
  25 C :   -0.447917
  26 H :    0.114523
  27 H :    0.107283
  28 C :   -0.406306
  29 H :    0.279822
  30 H :    0.105699
  31 H :    0.401507
  32 H :    0.087762
  33 H :    0.138788
  34 H :    0.158305
  35 H :    0.175027
  36 H :    0.100556
Sum of atomic charges:   -0.0000000

LOEWDIN ATOMIC CHARGES
----------------------
   0 C :   -0.138721
   1 C :   -0.192637
   2 C :   -0.090109
   3 H :    0.119815
   4 H :    0.123376
   5 C :   -0.452729
   6 C :   -0.499574
   7 N :    0.133715
   8 C :    0.025055
   9 H :   -0.024333
  10 H :    0.033510
  11 H :    0.110470
  12 H :    0.067083
  13 O :    0.089462
  14 F :    0.203087
  15 C :   -0.189878
  16 C :   -0.205604
  17 C :   -0.204374
  18 H :    0.118170
  19 H :    0.100096
  20 H :    0.112812
  21 H :    0.107258
  22 C :   -0.203425
  23 H :    0.098533
  24 H :    0.107635
  25 C :   -0.213635
  26 H :    0.084284
  27 H :    0.125999
  28 C :   -0.200997
  29 H :    0.102178
  30 H :    0.109206
  31 H :    0.103794
  32 H :    0.112886
  33 H :    0.104257
  34 H :    0.107287
  35 H :    0.110455
  36 H :    0.105592

  Mayer bond orders larger than 0.100000
B(  0-C ,  6-C ) :   1.0126 B(  0-C , 15-C ) :   0.9503 B(  0-C , 24-H ) :   0.1229
B(  0-C , 35-H ) :   0.8027 B(  0-C , 36-H ) :   1.0344 B(  1-C ,  2-C ) :   0.9386
B(  1-C ,  5-C ) :   0.1064 B(  1-C , 16-C ) :   0.1401 B(  1-C , 17-C ) :   1.1499
B(  1-C , 20-H ) :   0.9040 B(  1-C , 21-H ) :   0.8656 B(  2-C ,  3-H ) :   0.8903
B(  2-C ,  4-H ) :   0.8597 B(  2-C ,  5-C ) :   1.1560 B(  2-C , 16-C ) :   0.1921
B(  5-C , 13-O ) :   1.4487 B(  5-C , 14-F ) :   0.6321 B(  5-C , 17-C ) :   0.1300
B(  6-C ,  7-N ) :   0.8618 B(  6-C ,  8-C ) :   1.7651 B(  6-C ,  9-H ) :  -0.1076
B(  6-C , 10-H ) :  -0.1109 B(  6-C , 22-C ) :   0.1110 B(  7-N , 11-H ) :   0.9760
B(  7-N , 12-H ) :   0.7359 B(  8-C ,  9-H ) :   0.6856 B(  8-C , 10-H ) :   1.0820
B(  8-C , 13-O ) :   0.1275 B(  9-H , 10-H ) :   0.1092 B(  9-H , 13-O ) :  -0.2630
B( 13-O , 14-F ) :   0.1299 B( 15-C , 22-C ) :   0.7724 B( 15-C , 23-H ) :   0.7810
B( 15-C , 24-H ) :   0.9346 B( 15-C , 25-C ) :   0.4359 B( 15-C , 26-H ) :   0.1058
B( 15-C , 27-H ) :  -0.1290 B( 16-C , 17-C ) :   0.6569 B( 16-C , 19-H ) :  -0.1171
B( 16-C , 22-C ) :   0.1649 B( 16-C , 28-C ) :   1.1222 B( 16-C , 31-H ) :   0.8685
B( 16-C , 32-H ) :   0.8540 B( 17-C , 18-H ) :   0.8059 B( 17-C , 19-H ) :   0.9944
B( 17-C , 22-C ) :  -0.1001 B( 17-C , 25-C ) :   0.1798 B( 17-C , 28-C ) :   0.1798
B( 17-C , 29-H ) :   0.1163 B( 17-C , 31-H ) :  -0.1087 B( 22-C , 25-C ) :   0.7073
B( 22-C , 26-H ) :   1.5750 B( 22-C , 27-H ) :   0.7059 B( 22-C , 28-C ) :   0.1283
B( 25-C , 27-H ) :  -0.1194 B( 25-C , 28-C ) :   1.1409 B( 25-C , 29-H ) :   0.7731
B( 25-C , 30-H ) :   0.9453 B( 26-H , 27-H ) :   0.2291 B( 28-C , 33-H ) :   0.8937
B( 28-C , 34-H ) :   0.8886

Dispersion correction           -0.053607255
FINAL SINGLE POINT ENERGY      -700.694789452551

DIPOLE MOMENT
-------------
                                X             Y             Z
Electronic contribution:     -2.20807       3.57761      16.22949
Nuclear contribution   :      0.32481      -3.64700     -16.75441
                        -----------------------------------------
Total Dipole Moment    :     -1.88326      -0.06939      -0.52491
                        -----------------------------------------
Magnitude (a.u.)       :      1.95628
Magnitude (Debye)      :      4.97247

Rotational constants in cm-1:     0.021629     0.017327     0.011372
Rotational constants in MHz :   648.414821   519.443407   340.925013

                             ****ORCA TERMINATED NORMALLY****
TOTAL RUN TIME: 0 days 0 hours 3 minutes 38 seconds 244 msec
