                         Program Version 5.0.0 -  RELEASE  -
|  1> !CAM-B3LYP RIJCOSX def2-TZVPD def2/J TightSCF
|  2> *xyz -1 1
|  3> C         -2.79070       -0.78527        5.70281
|  4> C         -2.45380        0.05510        6.94145
|  5> C         -2.07842        1.48042        6.56410
|  6> H         -1.62558       -0.38216        7.49891
|  7> H         -3.32527        0.08775        7.59917
|  8> O         -0.90125        1.85816        6.82810
|  9> O         -2.93658        2.17731        5.96415
| 10> H         -1.94052       -0.82114        5.05412
| 11> H         -3.61590       -0.34261        5.18514
| 12> H         -3.05063       -1.77815        6.00536
| 13> *
| 14> %MaxCore 64000
| 15>
| 16> %pal nprocs 4
| 17> end
| 18>
| 19> %scf
| 20>   MaxIter 150
| 21> end
| 22>
| 23>
| 24>                          ****END OF INPUT****

CARTESIAN COORDINATES (ANGSTROEM)
---------------------------------
  C     -2.790700   -0.785270    5.702810
  C     -2.453800    0.055100    6.941450
  C     -2.078420    1.480420    6.564100
  H     -1.625580   -0.382160    7.498910
  H     -3.325270    0.087750    7.599170
  O     -0.901250    1.858160    6.828100
  O     -2.936580    2.177310    5.964150
  H     -1.940520   -0.821140    5.054120
  H     -3.615900   -0.342610    5.185140
  H     -3.050630   -1.778150    6.005360

 Total Charge           Charge          ....   -1
 Multiplicity           Mult            ....    1
 Number of Electrons    NEL             ....   40
 Basis Dimension        Dim             ....  236

ORBITAL ENERGIES
----------------

  NO   OCC          E(Eh)            E(eV)
   0   2.0000     -18.934560      -515.2356
   1   2.0000     -18.933389      -515.2037
   2   2.0000     -10.129790      -275.6456
   3   2.0000     -10.081104      -274.3208
   4   2.0000     -10.070454      -274.0310
   5   2.0000      -0.900892       -24.5145
   6   2.0000      -0.805804       -21.9271
   7   2.0000      -0.690237       -18.7823
   8   2.0000      -0.555414       -15.1136
   9   2.0000      -0.396025       -10.7764
  10   2.0000      -0.364858        -9.9283
  11   2.0000      -0.331635        -9.0243
  12   2.0000      -0.300486        -8.1767
  13   2.0000      -0.283791        -7.7223
  14   2.0000      -0.277539        -7.5522
  15   2.0000      -0.245227        -6.6730
  16   2.0000      -0.229362        -6.2413
  17   2.0000      -0.111887        -3.0446
  18   2.0000      -0.108606        -2.9553
  19   2.0000      -0.094538        -2.5725
  20   0.0000       0.157799         4.2939
  21   0.0000       0.181878         4.9492
  22   0.0000       0.192588         5.2406
  23   0.0000       0.205006         5.5785
  24   0.0000       0.230998         6.2858

MULLIKEN ATOMIC CHARGES
-----------------------
   0 C :   -1.079952
   1 C :   -0.098693
   2 C :    0.351555
   3 H :    0.206887
   4 H :    0.208006
   5 O :   -0.724443
   6 O :   -0.722847
   7 H :    0.307975
   8 H :    0.268701
   9 H :    0.282809
Sum of atomic charges:   -1.0000000

LOEWDIN ATOMIC CHARGES
----------------------
   0 C :   -0.128284
   1 C :   -0.213818
   2 C :   -0.775241
   3 H :    0.088545
   4 H :    0.094757
   5 O :   -0.119851
   6 O :   -0.108220
   7 H :    0.062791
   8 H :    0.056194
   9 H :    0.043127

  Mayer bond orders larger than 0.100000
B(  0-C ,  1-C ) :   0.5281 B(  0-C ,  7-H ) :   0.9556 B(  0-C ,  8-H ) :   1.0274
B(  0-C ,  9-H ) :   0.9409 B(  1-C ,  2-C ) :   0.9006 B(  1-C ,  3-H ) :   1.0215
B(  1-C ,  4-H ) :   0.9669 B(  2-C ,  5-O ) :   1.4652 B(  2-C ,  6-O ) :   1.4812

FINAL SINGLE POINT ENERGY      -267.836395989124

DIPOLE MOMENT
-------------
                                X             Y             Z
Electronic contribution:      1.61739       5.50498       0.68335
Nuclear contribution   :     -2.24498      -7.51881      -0.57245
                        -----------------------------------------
Total Dipole Moment    :     -0.62760      -2.01383       0.11090
                        -----------------------------------------
Magnitude (a.u.)       :      2.11227
Magnitude (Debye)      :      5.36896

Rotational constants in cm-1:     0.305589     0.135336     0.107479
Rotational constants in MHz :  9161.317320  4057.276612  3222.126231

                             ****ORCA TERMINATED NORMALLY****
TOTAL RUN TIME: 0 days 0 hours 0 minutes 40 seconds 277 msec
