                         Program Version 5.0.0 -  RELEASE  -
|  1> !CAM-B3LYP RIJCOSX def2-TZVPD def2/J TightSCF
|  2> *xyz 1 1
|  3> C         -0.69912        3.48945        3.75516
|  4> H         -0.96672        4.34901        3.14049
|  5> N         -1.08067        3.79296        5.15686
|  6> C          0.77696        3.13839        3.61741
|  7> H         -1.33146        2.65651        3.44632
|  8> H         -0.87449        4.76274        5.42734
|  9> H         -0.68079        3.13476        5.83900
| 10> H         -2.05755        3.53169        5.34620
| 11> H          0.99957        2.92898        2.59199
| 12> H          0.99576        2.27685        4.21303
| 13> H          1.37223        3.96279        3.95046
| 14> *
| 15> %MaxCore 64000
| 16>
| 17> %pal nprocs 4
| 18> end
| 19>
| 20> %scf
| 21>   MaxIter 150
| 22> end
| 23>
| 24>
| 25>                          ****END OF INPUT****

CARTESIAN COORDINATES (ANGSTROEM)
---------------------------------
  C     -0.699120    3.489450    3.755160
  H     -0.966720    4.349010    3.140490
  N     -1.080670    3.792960    5.156860
  C      0.776960    3.138390    3.617410
  H     -1.331460    2.656510    3.446320
  H     -0.874490    4.762740    5.427340
  H     -0.680790    3.134760    5.839000
  H     -2.057550    3.531690    5.346200
  H      0.999570    2.928980    2.591990
  H      0.995760    2.276850    4.213030
  H      1.372230    3.962790    3.950460

 Total Charge           Charge          ....    1
 Multiplicity           Mult            ....    1
 Number of Electrons    NEL             ....   26
 Basis Dimension        Dim             ....  183

ORBITAL ENERGIES
----------------

  NO   OCC          E(Eh)            E(eV)
   0   2.0000     -14.724724      -400.6801
   1   2.0000     -10.498013      -285.6655
   2   2.0000     -10.416124      -283.4371
   3   2.0000      -1.301234       -35.4084
   4   2.0000      -1.048878       -28.5414
   5   2.0000      -0.924118       -25.1465
   6   2.0000      -0.887730       -24.1564
   7   2.0000      -0.838737       -22.8232
   8   2.0000      -0.768941       -20.9239
   9   2.0000      -0.713431       -19.4134
  10   2.0000      -0.648759       -17.6536
  11   2.0000      -0.634290       -17.2599
  12   2.0000      -0.616849       -16.7853
  13   0.0000      -0.168324        -4.5803
  14   0.0000      -0.109144        -2.9700
  15   0.0000      -0.107767        -2.9325
  16   0.0000      -0.099578        -2.7097
  17   0.0000      -0.071267        -1.9393

MULLIKEN ATOMIC CHARGES
-----------------------
   0 C :   -0.339024
   1 H :    0.332439
   2 N :   -0.324450
   3 C :   -1.131069
   4 H :    0.325603
   5 H :    0.349873
   6 H :    0.344836
   7 H :    0.354174
   8 H :    0.343932
   9 H :    0.377988
  10 H :    0.365697
Sum of atomic charges:    1.0000000

LOEWDIN ATOMIC CHARGES
----------------------
   0 C :   -0.201389
   1 H :    0.137867
   2 N :    0.177201
   3 C :   -0.055874
   4 H :    0.135417
   5 H :    0.186757
   6 H :    0.179972
   7 H :    0.181501
   8 H :    0.092608
   9 H :    0.082468
  10 H :    0.083474

  Mayer bond orders larger than 0.100000
B(  0-C ,  1-H ) :   0.9326 B(  0-C ,  2-N ) :   0.8947 B(  0-C ,  3-C ) :   0.6159
B(  0-C ,  4-H ) :   0.8995 B(  2-N ,  5-H ) :   0.8654 B(  2-N ,  6-H ) :   0.8683
B(  2-N ,  7-H ) :   0.8714 B(  3-C ,  8-H ) :   0.9628 B(  3-C ,  9-H ) :   0.8963
B(  3-C , 10-H ) :   0.9378

FINAL SINGLE POINT ENERGY      -135.502897382603

DIPOLE MOMENT
-------------
                                X             Y             Z
Electronic contribution:     -1.32422       0.56994       1.09043
Nuclear contribution   :      0.33986      -0.24565       0.10678
                        -----------------------------------------
Total Dipole Moment    :     -0.98436       0.32429       1.19721
                        -----------------------------------------
Magnitude (a.u.)       :      1.58350
Magnitude (Debye)      :      4.02493

Rotational constants in cm-1:     1.016237     0.277523     0.247812
Rotational constants in MHz : 30466.024354  8319.937961  7429.230177

                             ****ORCA TERMINATED NORMALLY****
TOTAL RUN TIME: 0 days 0 hours 0 minutes 25 seconds 496 msec
