                         Program Version 5.0.0 -  RELEASE  -
|  1> !CAM-B3LYP RIJCOSX def2-TZVPD def2/J TightSCF xyzfile
|  2>
|  3> *xyzfile 0 1 B.xyz
|  4>
|  5> %MaxCore 64000
|  6>
|  7> %pal nprocs 4
|  8> end
|  9>
| 10> %scf
| 11>   MaxIter 150
| 12> end
| 13>
| 14>
| 15>                          ****END OF INPUT****

CARTESIAN COORDINATES (ANGSTROEM)
---------------------------------
  C     -0.699123    3.489451    3.755163
  H     -0.966716    4.349013    3.140491
  N     -1.080669    3.792957    5.156857
  C      0.776956    3.138391    3.617408
  H     -1.331455    2.656510    3.446323
  H      1.371398    3.888342    4.149744
  H      1.046926    3.232057    2.561331
  C      1.118917    1.731170    4.115155
  H      2.200573    1.654226    4.254882
  C      0.659466    0.635182    3.153306
  H      0.677024    1.576674    5.103150
  H      1.312288    0.638870    2.274207
  H     -0.339563    0.868049    2.772876
  C      0.639957   -0.771175    3.755619
  C     -0.341821   -0.965537    4.915046
  H      1.648266   -1.028665    4.097015
  H      0.398568   -1.482386    2.958453
  H     -0.279892   -2.005646    5.252547
  C     -1.789164   -0.639231    4.557496
  H     -0.032380   -0.352918    5.765118
  H     -2.107151   -1.270102    3.719619
  H     -1.856352    0.391636    4.197604
  C     -2.790700   -0.785275    5.702812
  H     -2.867308   -1.835651    6.001675
  H     -3.774554   -0.486577    5.334807
  C     -2.453797    0.055101    6.941445
  C     -2.078419    1.480421    6.564098
  H     -1.625584   -0.382163    7.498914
  H     -3.325274    0.087746    7.599175
  H     -0.874488    4.762737    5.427344
  H     -0.680793    3.134762    5.839000
  H     -2.057550    3.531691    5.346197
  O     -0.901252    1.858156    6.828104
  O     -2.936582    2.177309    5.964151

 Total Charge           Charge          ....    0
 Multiplicity           Mult            ....    1
 Number of Electrons    NEL             ....  104
 Basis Dimension        Dim             ....  676

ORBITAL ENERGIES
----------------

  NO   OCC          E(Eh)            E(eV)
   0   2.0000     -19.134014      -520.6630
   1   2.0000     -19.132508      -520.6220
   2   2.0000     -14.469586      -393.7375
   3   2.0000     -10.321451      -280.8610
   4   2.0000     -10.313440      -280.6430
   5   2.0000     -10.265987      -279.3517
   6   2.0000     -10.241026      -278.6725
   7   2.0000     -10.237930      -278.5882
   8   2.0000     -10.231555      -278.4148
   9   2.0000     -10.222774      -278.1758
  10   2.0000     -10.222266      -278.1620
  11   2.0000     -10.220901      -278.1249
  12   2.0000     -10.215699      -277.9833
  13   2.0000      -1.112547       -30.2740
  14   2.0000      -1.065388       -28.9907
  15   2.0000      -1.011056       -27.5122
  16   2.0000      -0.906523       -24.6677
  17   2.0000      -0.877857       -23.8877
  18   2.0000      -0.848918       -23.1002
  19   2.0000      -0.801042       -21.7975
  20   2.0000      -0.768211       -20.9041
  21   2.0000      -0.728340       -19.8191
  22   2.0000      -0.688872       -18.7452
  23   2.0000      -0.670087       -18.2340
  24   2.0000      -0.652252       -17.7487
  25   2.0000      -0.625709       -17.0264
  26   2.0000      -0.618472       -16.8295
  27   2.0000      -0.572149       -15.5690
  28   2.0000      -0.556760       -15.1502
  29   2.0000      -0.545169       -14.8348
  30   2.0000      -0.543876       -14.7996
  31   2.0000      -0.517956       -14.0943
  32   2.0000      -0.513945       -13.9852
  33   2.0000      -0.501855       -13.6562
  34   2.0000      -0.490872       -13.3573
  35   2.0000      -0.477348       -12.9893
  36   2.0000      -0.468899       -12.7594
  37   2.0000      -0.468571       -12.7505
  38   2.0000      -0.453829       -12.3493
  39   2.0000      -0.446492       -12.1497
  40   2.0000      -0.428984       -11.6732
  41   2.0000      -0.423239       -11.5169
  42   2.0000      -0.416559       -11.3351
  43   2.0000      -0.401008       -10.9120
  44   2.0000      -0.390194       -10.6177
  45   2.0000      -0.385630       -10.4935
  46   2.0000      -0.371097       -10.0981
  47   2.0000      -0.365666        -9.9503
  48   2.0000      -0.359654        -9.7867
  49   2.0000      -0.314036        -8.5453
  50   2.0000      -0.301105        -8.1935
  51   2.0000      -0.301001        -8.1907
  52   0.0000       0.011072         0.3013
  53   0.0000       0.035594         0.9686
  54   0.0000       0.040104         1.0913
  55   0.0000       0.045585         1.2404
  56   0.0000       0.057836         1.5738

MULLIKEN ATOMIC CHARGES
-----------------------
   0 C :   -0.570760
   1 H :    0.319227
   2 N :   -0.207456
   3 C :   -0.584261
   4 H :    0.287191
   5 H :    0.278985
   6 H :    0.312746
   7 C :   -0.372378
   8 H :    0.307871
   9 C :   -0.555845
  10 H :    0.331523
  11 H :    0.294771
  12 H :    0.304506
  13 C :   -0.768269
  14 C :   -0.445869
  15 H :    0.283854
  16 H :    0.307794
  17 H :    0.269281
  18 C :   -0.289334
  19 H :    0.303858
  20 H :    0.334020
  21 H :    0.000499
  22 C :   -0.731244
  23 H :    0.276585
  24 H :    0.292036
  25 C :   -0.513350
  26 C :    0.718686
  27 H :    0.282470
  28 H :    0.335894
  29 H :    0.303573
  30 H :    0.251066
  31 H :    0.342677
  32 O :   -0.852792
  33 O :   -0.847556
Sum of atomic charges:   -0.0000000

LOEWDIN ATOMIC CHARGES
----------------------
   0 C :   -0.161540
   1 H :    0.124042
   2 N :    0.145570
   3 C :   -0.186872
   4 H :    0.117576
   5 H :    0.114594
   6 H :    0.116909
   7 C :   -0.198986
   8 H :    0.119546
   9 C :   -0.216651
  10 H :    0.091421
  11 H :    0.113906
  12 H :    0.096153
  13 C :   -0.207166
  14 C :   -0.208044
  15 H :    0.111644
  16 H :    0.109788
  17 H :    0.117815
  18 C :   -0.210065
  19 H :    0.097093
  20 H :    0.119087
  21 H :    0.091317
  22 C :   -0.198116
  23 H :    0.110042
  24 H :    0.110463
  25 C :   -0.122736
  26 C :   -0.649071
  27 H :    0.110057
  28 H :    0.117862
  29 H :    0.169432
  30 H :    0.068576
  31 H :    0.096157
  32 O :   -0.065771
  33 O :   -0.044033

  Mayer bond orders larger than 0.100000
B(  0-C ,  1-H ) :   0.9140 B(  0-C ,  2-N ) :   0.8750 B(  0-C ,  3-C ) :   0.8184
B(  0-C ,  4-H ) :   0.9489 B(  2-N , 29-H ) :   0.8768 B(  2-N , 30-H ) :   0.8080
B(  2-N , 31-H ) :   0.7759 B(  3-C ,  5-H ) :   0.9547 B(  3-C ,  6-H ) :   0.9207
B(  3-C ,  7-C ) :   0.8283 B(  3-C ,  9-C ) :   0.1299 B(  7-C ,  8-H ) :   0.9326
B(  7-C ,  9-C ) :   0.3757 B(  7-C , 10-H ) :   1.0351 B(  7-C , 12-H ) :  -0.1047
B(  7-C , 13-C ) :   0.1148 B(  9-C , 11-H ) :   0.9787 B(  9-C , 12-H ) :   0.9922
B(  9-C , 13-C ) :   0.8669 B( 13-C , 14-C ) :   0.7320 B( 13-C , 15-H ) :   0.9910
B( 13-C , 16-H ) :   0.9726 B( 14-C , 17-H ) :   0.9623 B( 14-C , 18-C ) :   0.4175
B( 14-C , 19-H ) :   1.0025 B( 14-C , 21-H ) :  -0.2157 B( 14-C , 25-C ) :   0.1085
B( 18-C , 20-H ) :   0.8462 B( 18-C , 21-H ) :   1.3552 B( 18-C , 22-C ) :   0.8009
B( 18-C , 25-C ) :  -0.1139 B( 20-H , 21-H ) :   0.1202 B( 21-H , 22-C ) :   0.1293
B( 22-C , 23-H ) :   0.9685 B( 22-C , 24-H ) :   0.9433 B( 22-C , 25-C ) :   0.7771
B( 25-C , 26-C ) :   0.9223 B( 25-C , 27-H ) :   1.0056 B( 25-C , 28-H ) :   0.9012
B( 26-C , 32-O ) :   1.2288 B( 26-C , 33-O ) :   1.1215 B( 30-H , 32-O ) :   0.1875
B( 31-H , 33-O ) :   0.1533 B( 32-O , 33-O ) :   0.1259

FINAL SINGLE POINT ENERGY      -598.862452180313

DIPOLE MOMENT
-------------
                                X             Y             Z
Electronic contribution:     -4.65897       4.82826       6.69292
Nuclear contribution   :      5.60885      -3.40606      -8.06960
                        -----------------------------------------
Total Dipole Moment    :      0.94987       1.42220      -1.37668
                        -----------------------------------------
Magnitude (a.u.)       :      2.19549
Magnitude (Debye)      :      5.58049

Rotational constants in cm-1:     0.028465     0.023505     0.015110
Rotational constants in MHz :   853.363165   704.655786   452.976312

                             ****ORCA TERMINATED NORMALLY****
TOTAL RUN TIME: 0 days 0 hours 10 minutes 35 seconds 182 msec
