                         Program Version 5.0.0 -  RELEASE  -
|  1> !CAM-B3LYP RIJCOSX def2-TZVPD def2/J TightSCF
|  2> *xyz 0 1
|  3> C         -2.79070       -0.78527        5.70281
|  4> C         -2.45380        0.05510        6.94145
|  5> C         -2.07842        1.48042        6.56410
|  6> H         -1.62558       -0.38216        7.49891
|  7> H         -3.32527        0.08775        7.59917
|  8> F         -0.90125        1.85816        6.82810
|  9> O         -2.93658        2.17731        5.96415
| 10> H         -1.94052       -0.82114        5.05412
| 11> H         -3.61590       -0.34261        5.18514
| 12> H         -3.05063       -1.77815        6.00536
| 13> *
| 14> %MaxCore 64000
| 15>
| 16> %pal nprocs 4
| 17> end
| 18>
| 19> %scf
| 20>   MaxIter 150
| 21> end
| 22>
| 23>
| 24>                          ****END OF INPUT****

CARTESIAN COORDINATES (ANGSTROEM)
---------------------------------
  C     -2.790700   -0.785270    5.702810
  C     -2.453800    0.055100    6.941450
  C     -2.078420    1.480420    6.564100
  H     -1.625580   -0.382160    7.498910
  H     -3.325270    0.087750    7.599170
  F     -0.901250    1.858160    6.828100
  O     -2.936580    2.177310    5.964150
  H     -1.940520   -0.821140    5.054120
  H     -3.615900   -0.342610    5.185140
  H     -3.050630   -1.778150    6.005360

 Total Charge           Charge          ....    0
 Multiplicity           Mult            ....    1
 Number of Electrons    NEL             ....   40
 Basis Dimension        Dim             ....  236

ORBITAL ENERGIES
----------------

  NO   OCC          E(Eh)            E(eV)
   0   2.0000     -24.826778      -675.5710
   1   2.0000     -19.208303      -522.6845
   2   2.0000     -10.428396      -283.7711
   3   2.0000     -10.278242      -279.6852
   4   2.0000     -10.250011      -278.9170
   5   2.0000      -1.398434       -38.0533
   6   2.0000      -1.117006       -30.3953
   7   2.0000      -0.887717       -24.1560
   8   2.0000      -0.770951       -20.9786
   9   2.0000      -0.716435       -19.4952
  10   2.0000      -0.623862       -16.9762
  11   2.0000      -0.609512       -16.5857
  12   2.0000      -0.584727       -15.9112
  13   2.0000      -0.538460       -14.6522
  14   2.0000      -0.507455       -13.8086
  15   2.0000      -0.469796       -12.7838
  16   2.0000      -0.450082       -12.2474
  17   2.0000      -0.443726       -12.0744
  18   2.0000      -0.415058       -11.2943
  19   2.0000      -0.364797        -9.9266
  20   0.0000       0.012119         0.3298
  21   0.0000       0.030126         0.8198
  22   0.0000       0.052717         1.4345
  23   0.0000       0.061618         1.6767
  24   0.0000       0.071737         1.9521

MULLIKEN ATOMIC CHARGES
-----------------------
   0 C :   -1.110768
   1 C :   -0.174888
   2 C :    0.500498
   3 H :    0.265277
   4 H :    0.249202
   5 F :   -0.204622
   6 O :   -0.485598
   7 H :    0.343084
   8 H :    0.310955
   9 H :    0.306861
Sum of atomic charges:   -0.0000000

LOEWDIN ATOMIC CHARGES
----------------------
   0 C :   -0.085944
   1 C :   -0.157772
   2 C :   -0.483162
   3 H :    0.109592
   4 H :    0.122523
   5 F :    0.197535
   6 O :    0.078139
   7 H :    0.075536
   8 H :    0.073726
   9 H :    0.069828

  Mayer bond orders larger than 0.100000
B(  0-C ,  1-C ) :   0.5907 B(  0-C ,  7-H ) :   0.9167 B(  0-C ,  8-H ) :   1.0015
B(  0-C ,  9-H ) :   0.9490 B(  1-C ,  2-C ) :   0.8947 B(  1-C ,  3-H ) :   0.9666
B(  1-C ,  4-H ) :   0.9602 B(  2-C ,  5-F ) :   1.0217 B(  2-C ,  6-O ) :   1.7697

FINAL SINGLE POINT ENERGY      -292.405286758277

DIPOLE MOMENT
-------------
                                X             Y             Z
Electronic contribution:      3.96655       7.39328       1.49964
Nuclear contribution   :     -3.69486      -8.49563      -1.04945
                        -----------------------------------------
Total Dipole Moment    :      0.27169      -1.10235       0.45019
                        -----------------------------------------
Magnitude (a.u.)       :      1.22134
Magnitude (Debye)      :      3.10440

Rotational constants in cm-1:     0.293725     0.129218     0.102393
Rotational constants in MHz :  8805.653529  3873.869810  3069.666716

                             ****ORCA TERMINATED NORMALLY****
TOTAL RUN TIME: 0 days 0 hours 0 minutes 45 seconds 131 msec
