                         Program Version 5.0.0 -  RELEASE  -
|  1> !CAM-B3LYP RIJCOSX def2-TZVPD def2/J TightSCF
|  2> *xyz 0 1
|  3> C         -0.69912        3.48945        3.75516
|  4> H         -0.96672        4.34901        3.14049
|  5> C         -1.08067        3.79296        5.15686
|  6> C          0.77696        3.13839        3.61741
|  7> H         -1.33146        2.65651        3.44632
|  8> H         -0.87449        4.76274        5.42734
|  9> H         -0.68079        3.13476        5.83900
| 10> H         -2.05755        3.53169        5.34620
| 11> H          0.99957        2.92898        2.59199
| 12> H          0.99576        2.27685        4.21303
| 13> H          1.37223        3.96279        3.95046
| 14> *
| 15> %MaxCore 64000
| 16>
| 17> %pal nprocs 4
| 18> end
| 19>
| 20> %scf
| 21>   MaxIter 150
| 22> end
| 23>
| 24>
| 25>                          ****END OF INPUT****

CARTESIAN COORDINATES (ANGSTROEM)
---------------------------------
  C     -0.699120    3.489450    3.755160
  H     -0.966720    4.349010    3.140490
  C     -1.080670    3.792960    5.156860
  C      0.776960    3.138390    3.617410
  H     -1.331460    2.656510    3.446320
  H     -0.874490    4.762740    5.427340
  H     -0.680790    3.134760    5.839000
  H     -2.057550    3.531690    5.346200
  H      0.999570    2.928980    2.591990
  H      0.995760    2.276850    4.213030
  H      1.372230    3.962790    3.950460

 Total Charge           Charge          ....    0
 Multiplicity           Mult            ....    1
 Number of Electrons    NEL             ....   26
 Basis Dimension        Dim             ....  183

ORBITAL ENERGIES
----------------

  NO   OCC          E(Eh)            E(eV)
   0   2.0000     -10.228788      -278.3395
   1   2.0000     -10.219130      -278.0767
   2   2.0000     -10.200914      -277.5810
   3   2.0000      -0.874213       -23.7885
   4   2.0000      -0.772077       -21.0093
   5   2.0000      -0.665141       -18.0994
   6   2.0000      -0.543485       -14.7890
   7   2.0000      -0.509098       -13.8532
   8   2.0000      -0.467712       -12.7271
   9   2.0000      -0.463220       -12.6048
  10   2.0000      -0.404765       -11.0142
  11   2.0000      -0.393216       -10.6999
  12   2.0000      -0.389241       -10.5918
  13   0.0000       0.039939         1.0868
  14   0.0000       0.061201         1.6654
  15   0.0000       0.064528         1.7559
  16   0.0000       0.087780         2.3886
  17   0.0000       0.111616         3.0372

MULLIKEN ATOMIC CHARGES
-----------------------
   0 C :   -0.100988
   1 H :    0.246657
   2 C :   -1.294143
   3 C :   -1.087131
   4 H :    0.249278
   5 H :    0.327834
   6 H :    0.365834
   7 H :    0.376660
   8 H :    0.304515
   9 H :    0.306579
  10 H :    0.304904
Sum of atomic charges:   -0.0000000

LOEWDIN ATOMIC CHARGES
----------------------
   0 C :   -0.316631
   1 H :    0.104401
   2 C :   -0.134347
   3 C :   -0.116559
   4 H :    0.103173
   5 H :    0.058374
   6 H :    0.054491
   7 H :    0.052266
   8 H :    0.060849
   9 H :    0.066409
  10 H :    0.067574

  Mayer bond orders larger than 0.100000
B(  0-C ,  1-H ) :   0.9821 B(  0-C ,  2-C ) :   0.5890 B(  0-C ,  3-C ) :   0.6093
B(  0-C ,  4-H ) :   0.9922 B(  2-C ,  5-H ) :   0.9438 B(  2-C ,  6-H ) :   0.9424
B(  2-C ,  7-H ) :   0.9234 B(  3-C ,  8-H ) :   0.9866 B(  3-C ,  9-H ) :   0.9684
B(  3-C , 10-H ) :   0.9726

FINAL SINGLE POINT ENERGY      -119.090539261099

DIPOLE MOMENT
-------------
                                X             Y             Z
Electronic contribution:     -0.14262       0.12090      -0.39658
Nuclear contribution   :      0.10024      -0.14218       0.41628
                        -----------------------------------------
Total Dipole Moment    :     -0.04237      -0.02128       0.01971
                        -----------------------------------------
Magnitude (a.u.)       :      0.05135
Magnitude (Debye)      :      0.13052

Rotational constants in cm-1:     1.024179     0.291605     0.259489
Rotational constants in MHz : 30704.103454  8742.106283  7779.285909

                             ****ORCA TERMINATED NORMALLY****
TOTAL RUN TIME: 0 days 0 hours 0 minutes 28 seconds 311 msec
