                         Program Version 5.0.0 -  RELEASE  -
|  1> !CAM-B3LYP RIJCOSX def2-TZVPD def2/J TightSCF
|  2> *xyz 0 1
|  3> C         -2.79070       -0.78527        5.70281
|  4> C         -2.45380        0.05510        6.94145
|  5> C         -2.07842        1.48042        6.56410
|  6> H         -1.62558       -0.38216        7.49891
|  7> H         -3.32527        0.08775        7.59917
|  8> O         -0.90125        1.85816        6.82810
|  9> F         -2.93658        2.17731        5.96415
| 10> H         -1.94052       -0.82114        5.05412
| 11> H         -3.61590       -0.34261        5.18514
| 12> H         -3.05063       -1.77815        6.00536
| 13> *
| 14> %MaxCore 64000
| 15>
| 16> %pal nprocs 4
| 17> end
| 18>
| 19> %scf
| 20>   MaxIter 150
| 21> end
| 22>
| 23>
| 24>                          ****END OF INPUT****

CARTESIAN COORDINATES (ANGSTROEM)
---------------------------------
  C     -2.790700   -0.785270    5.702810
  C     -2.453800    0.055100    6.941450
  C     -2.078420    1.480420    6.564100
  H     -1.625580   -0.382160    7.498910
  H     -3.325270    0.087750    7.599170
  O     -0.901250    1.858160    6.828100
  F     -2.936580    2.177310    5.964150
  H     -1.940520   -0.821140    5.054120
  H     -3.615900   -0.342610    5.185140
  H     -3.050630   -1.778150    6.005360

 Total Charge           Charge          ....    0
 Multiplicity           Mult            ....    1
 Number of Electrons    NEL             ....   40
 Basis Dimension        Dim             ....  236

ORBITAL ENERGIES
----------------

  NO   OCC          E(Eh)            E(eV)
   0   2.0000     -24.829971      -675.6579
   1   2.0000     -19.206655      -522.6396
   2   2.0000     -10.428242      -283.7669
   3   2.0000     -10.277855      -279.6747
   4   2.0000     -10.254078      -279.0276
   5   2.0000      -1.403758       -38.1982
   6   2.0000      -1.112168       -30.2636
   7   2.0000      -0.890872       -24.2419
   8   2.0000      -0.768742       -20.9185
   9   2.0000      -0.723339       -19.6830
  10   2.0000      -0.628291       -17.0967
  11   2.0000      -0.616404       -16.7732
  12   2.0000      -0.578108       -15.7311
  13   2.0000      -0.539050       -14.6683
  14   2.0000      -0.508035       -13.8243
  15   2.0000      -0.472662       -12.8618
  16   2.0000      -0.453896       -12.3511
  17   2.0000      -0.446398       -12.1471
  18   2.0000      -0.416601       -11.3363
  19   2.0000      -0.358576        -9.7574
  20   0.0000       0.014227         0.3871
  21   0.0000       0.029629         0.8063
  22   0.0000       0.052064         1.4167
  23   0.0000       0.060794         1.6543
  24   0.0000       0.072071         1.9611

MULLIKEN ATOMIC CHARGES
-----------------------
   0 C :   -1.129252
   1 C :   -0.152264
   2 C :    0.504807
   3 H :    0.234074
   4 H :    0.273822
   5 O :   -0.490341
   6 F :   -0.212876
   7 H :    0.351126
   8 H :    0.319723
   9 H :    0.301180
Sum of atomic charges:   -0.0000000

LOEWDIN ATOMIC CHARGES
----------------------
   0 C :   -0.088332
   1 C :   -0.155601
   2 C :   -0.488273
   3 H :    0.118245
   4 H :    0.118672
   5 O :    0.069897
   6 F :    0.207694
   7 H :    0.077272
   8 H :    0.070150
   9 H :    0.070276

  Mayer bond orders larger than 0.100000
B(  0-C ,  1-C ) :   0.5394 B(  0-C ,  7-H ) :   0.9416 B(  0-C ,  8-H ) :   0.9622
B(  0-C ,  9-H ) :   0.9629 B(  1-C ,  2-C ) :   0.8986 B(  1-C ,  3-H ) :   1.0039
B(  1-C ,  4-H ) :   0.9409 B(  2-C ,  5-O ) :   1.7521 B(  2-C ,  6-F ) :   1.0146

FINAL SINGLE POINT ENERGY      -292.402930183878

DIPOLE MOMENT
-------------
                                X             Y             Z
Electronic contribution:      0.56045       7.90450       0.05795
Nuclear contribution   :     -1.47571      -8.84360      -0.10748
                        -----------------------------------------
Total Dipole Moment    :     -0.91526      -0.93910      -0.04952
                        -----------------------------------------
Magnitude (a.u.)       :      1.31228
Magnitude (Debye)      :      3.33554

Rotational constants in cm-1:     0.283081     0.133379     0.103386
Rotational constants in MHz :  8486.545774  3998.599544  3099.448040

                             ****ORCA TERMINATED NORMALLY****
TOTAL RUN TIME: 0 days 0 hours 0 minutes 47 seconds 13 msec
