                         Program Version 5.0.0 -  RELEASE  -
|  1> !CAM-B3LYP RIJCOSX def2-TZVPD def2/J TightSCF xyzfile
|  2>
|  3> *xyzfile 0 1 D1.xyz
|  4>
|  5> %MaxCore 64000
|  6>
|  7> %pal nprocs 4
|  8> end
|  9>
| 10> %scf
| 11>   MaxIter 150
| 12> end
| 13>
| 14>
| 15>                          ****END OF INPUT****

CARTESIAN COORDINATES (ANGSTROEM)
---------------------------------
  C     -0.699123    3.489451    3.755163
  H     -0.966716    4.349013    3.140491
  C     -1.080669    3.792957    5.156857
  C      0.776956    3.138391    3.617408
  H     -1.331455    2.656510    3.446323
  H      1.371398    3.888342    4.149744
  H      1.046926    3.232057    2.561331
  C      1.118917    1.731170    4.115155
  H      2.200573    1.654226    4.254882
  C      0.659466    0.635182    3.153306
  H      0.677024    1.576674    5.103150
  H      1.312288    0.638870    2.274207
  H     -0.339563    0.868049    2.772876
  C      0.639957   -0.771175    3.755619
  C     -0.341821   -0.965537    4.915046
  H      1.648266   -1.028665    4.097015
  H      0.398568   -1.482386    2.958453
  H     -0.279892   -2.005646    5.252547
  C     -1.789164   -0.639231    4.557496
  H     -0.032380   -0.352918    5.765118
  H     -2.107151   -1.270102    3.719619
  H     -1.856352    0.391636    4.197604
  C     -2.790700   -0.785275    5.702812
  H     -2.867308   -1.835651    6.001675
  H     -3.774554   -0.486577    5.334807
  C     -2.453797    0.055101    6.941445
  C     -2.078419    1.480421    6.564098
  H     -1.625584   -0.382163    7.498914
  H     -3.325274    0.087746    7.599175
  H     -0.874488    4.762737    5.427344
  H     -0.680793    3.134762    5.839000
  H     -2.057550    3.531691    5.346197
  F     -0.901252    1.858156    6.828104
  O     -2.936582    2.177309    5.964151

 Total Charge           Charge          ....    0
 Multiplicity           Mult            ....    1
 Number of Electrons    NEL             ....  104
 Basis Dimension        Dim             ....  676

ORBITAL ENERGIES
----------------

  NO   OCC          E(Eh)            E(eV)
   0   2.0000     -24.835780      -675.8159
   1   2.0000     -19.213356      -522.8220
   2   2.0000     -10.438168      -284.0370
   3   2.0000     -10.279149      -279.7099
   4   2.0000     -10.260696      -279.2077
   5   2.0000     -10.245606      -278.7971
   6   2.0000     -10.242655      -278.7168
   7   2.0000     -10.237300      -278.5711
   8   2.0000     -10.229957      -278.3713
   9   2.0000     -10.227177      -278.2956
  10   2.0000     -10.220024      -278.1010
  11   2.0000     -10.209942      -277.8266
  12   2.0000     -10.155430      -276.3433
  13   2.0000      -1.414826       -38.4994
  14   2.0000      -1.130479       -30.7619
  15   2.0000      -0.916719       -24.9452
  16   2.0000      -0.891925       -24.2705
  17   2.0000      -0.860973       -23.4283
  18   2.0000      -0.831950       -22.6385
  19   2.0000      -0.789239       -21.4763
  20   2.0000      -0.764932       -20.8149
  21   2.0000      -0.736947       -20.0534
  22   2.0000      -0.704598       -19.1731
  23   2.0000      -0.686080       -18.6692
  24   2.0000      -0.643501       -17.5105
  25   2.0000      -0.639115       -17.3912
  26   2.0000      -0.631032       -17.1713
  27   2.0000      -0.613099       -16.6833
  28   2.0000      -0.594163       -16.1680
  29   2.0000      -0.552200       -15.0261
  30   2.0000      -0.548336       -14.9210
  31   2.0000      -0.531179       -14.4541
  32   2.0000      -0.528276       -14.3751
  33   2.0000      -0.506188       -13.7741
  34   2.0000      -0.498573       -13.5669
  35   2.0000      -0.483416       -13.1544
  36   2.0000      -0.476195       -12.9579
  37   2.0000      -0.467553       -12.7228
  38   2.0000      -0.456508       -12.4222
  39   2.0000      -0.447357       -12.1732
  40   2.0000      -0.434346       -11.8192
  41   2.0000      -0.426546       -11.6069
  42   2.0000      -0.417380       -11.3575
  43   2.0000      -0.410080       -11.1588
  44   2.0000      -0.403875       -10.9900
  45   2.0000      -0.392590       -10.6829
  46   2.0000      -0.387543       -10.5456
  47   2.0000      -0.376395       -10.2422
  48   2.0000      -0.372737       -10.1427
  49   2.0000      -0.361525        -9.8376
  50   2.0000      -0.358938        -9.7672
  51   2.0000      -0.331278        -9.0145
  52   0.0000       0.003196         0.0870
  53   0.0000       0.028459         0.7744
  54   0.0000       0.039644         1.0788
  55   0.0000       0.042645         1.1604
  56   0.0000       0.049053         1.3348

MULLIKEN ATOMIC CHARGES
-----------------------
   0 C :   -0.134227
   1 H :    0.271957
   2 C :   -2.050503
   3 C :   -0.581036
   4 H :    0.219552
   5 H :    0.291777
   6 H :    0.243333
   7 C :   -0.354758
   8 H :    0.298478
   9 C :   -0.526490
  10 H :    0.207707
  11 H :    0.309241
  12 H :    0.269375
  13 C :   -0.774957
  14 C :   -0.412537
  15 H :    0.289907
  16 H :    0.303737
  17 H :    0.264665
  18 C :   -0.348127
  19 H :    0.280695
  20 H :    0.348178
  21 H :    0.055807
  22 C :   -0.678312
  23 H :    0.290725
  24 H :    0.317328
  25 C :   -0.565395
  26 C :    0.670583
  27 H :    0.317160
  28 H :    0.332448
  29 H :    0.450192
  30 H :    0.582687
  31 H :    0.657822
  32 F :   -0.286452
  33 O :   -0.560559
Sum of atomic charges:    0.0000000

LOEWDIN ATOMIC CHARGES
----------------------
   0 C :   -0.238867
   1 H :    0.110708
   2 C :   -0.122234
   3 C :   -0.208969
   4 H :    0.097069
   5 H :    0.113439
   6 H :    0.107679
   7 C :   -0.202794
   8 H :    0.115452
   9 C :   -0.216469
  10 H :    0.088754
  11 H :    0.115318
  12 H :    0.097333
  13 C :   -0.207748
  14 C :   -0.210464
  15 H :    0.112001
  16 H :    0.110557
  17 H :    0.118233
  18 C :   -0.205612
  19 H :    0.093737
  20 H :    0.124994
  21 H :    0.097013
  22 C :   -0.187685
  23 H :    0.116957
  24 H :    0.116756
  25 C :   -0.097081
  26 C :   -0.440455
  27 H :    0.115627
  28 H :    0.128790
  29 H :    0.070823
  30 H :    0.021859
  31 H :    0.020748
  32 F :    0.165382
  33 O :    0.079151

  Mayer bond orders larger than 0.100000
B(  0-C ,  1-H ) :   0.9259 B(  0-C ,  2-C ) :   0.1260 B(  0-C ,  3-C ) :   0.7471
B(  0-C ,  4-H ) :   1.0998 B(  2-C , 29-H ) :   0.7607 B(  2-C , 30-H ) :   0.8213
B(  2-C , 31-H ) :   0.7846 B(  3-C ,  5-H ) :   0.9568 B(  3-C ,  6-H ) :   0.9727
B(  3-C ,  7-C ) :   0.8775 B(  3-C ,  9-C ) :   0.1298 B(  7-C ,  8-H ) :   0.9142
B(  7-C ,  9-C ) :   0.4451 B(  7-C , 10-H ) :   1.1214 B(  7-C , 13-C ) :   0.1030
B(  9-C , 11-H ) :   0.9401 B(  9-C , 12-H ) :   1.0313 B(  9-C , 13-C ) :   0.8266
B( 13-C , 14-C ) :   0.7934 B( 13-C , 15-H ) :   0.9913 B( 13-C , 16-H ) :   0.9743
B( 14-C , 17-H ) :   0.9814 B( 14-C , 18-C ) :   0.3661 B( 14-C , 19-H ) :   1.0163
B( 14-C , 21-H ) :  -0.2183 B( 14-C , 25-C ) :   0.1034 B( 18-C , 19-H ) :  -0.1094
B( 18-C , 20-H ) :   0.8200 B( 18-C , 21-H ) :   1.3651 B( 18-C , 22-C ) :   0.7893
B( 20-H , 21-H ) :   0.1090 B( 21-H , 22-C ) :   0.1171 B( 22-C , 23-H ) :   0.9671
B( 22-C , 24-H ) :   0.9292 B( 22-C , 25-C ) :   0.7824 B( 25-C , 26-C ) :   0.8765
B( 25-C , 27-H ) :   0.9779 B( 25-C , 28-H ) :   0.9068 B( 26-C , 32-F ) :   0.9008
B( 26-C , 33-O ) :   1.6205 B( 29-H , 31-H ) :   0.1143 B( 30-H , 32-F ) :  -0.2066
B( 31-H , 33-O ) :  -0.1572 B( 32-F , 33-O ) :   0.1021

FINAL SINGLE POINT ENERGY      -606.764039303692

DIPOLE MOMENT
-------------
                                X             Y             Z
Electronic contribution:     -5.47099       2.46935      10.84791
Nuclear contribution   :      5.54676      -3.70047     -10.28793
                        -----------------------------------------
Total Dipole Moment    :      0.07577      -1.23112       0.55998
                        -----------------------------------------
Magnitude (a.u.)       :      1.35461
Magnitude (Debye)      :      3.44314

Rotational constants in cm-1:     0.028503     0.023389     0.015214
Rotational constants in MHz :   854.502405   701.197575   456.108322

                             ****ORCA TERMINATED NORMALLY****
TOTAL RUN TIME: 0 days 0 hours 10 minutes 46 seconds 869 msec
