                         Program Version 5.0.0 -  RELEASE  -
|  1> !CAM-B3LYP RIJCOSX def2-TZVPD def2/J TightSCF xyzfile
|  2>
|  3> *xyzfile 0 1 D2.xyz
|  4>
|  5> %MaxCore 64000
|  6>
|  7> %pal nprocs 4
|  8> end
|  9>
| 10> %scf
| 11>   MaxIter 150
| 12> end
| 13>
| 14>
| 15>                          ****END OF INPUT****

CARTESIAN COORDINATES (ANGSTROEM)
---------------------------------
  C     -0.699123    3.489451    3.755163
  H     -0.966716    4.349013    3.140491
  C     -1.080669    3.792957    5.156857
  C      0.776956    3.138391    3.617408
  H     -1.331455    2.656510    3.446323
  H      1.371398    3.888342    4.149744
  H      1.046926    3.232057    2.561331
  C      1.118917    1.731170    4.115155
  H      2.200573    1.654226    4.254882
  C      0.659466    0.635182    3.153306
  H      0.677024    1.576674    5.103150
  H      1.312288    0.638870    2.274207
  H     -0.339563    0.868049    2.772876
  C      0.639957   -0.771175    3.755619
  C     -0.341821   -0.965537    4.915046
  H      1.648266   -1.028665    4.097015
  H      0.398568   -1.482386    2.958453
  H     -0.279892   -2.005646    5.252547
  C     -1.789164   -0.639231    4.557496
  H     -0.032380   -0.352918    5.765118
  H     -2.107151   -1.270102    3.719619
  H     -1.856352    0.391636    4.197604
  C     -2.790700   -0.785275    5.702812
  H     -2.867308   -1.835651    6.001675
  H     -3.774554   -0.486577    5.334807
  C     -2.453797    0.055101    6.941445
  C     -2.078419    1.480421    6.564098
  H     -1.625584   -0.382163    7.498914
  H     -3.325274    0.087746    7.599175
  H     -0.874488    4.762737    5.427344
  H     -0.680793    3.134762    5.839000
  H     -2.057550    3.531691    5.346197
  O     -0.901252    1.858156    6.828104
  F     -2.936582    2.177309    5.964151

 Total Charge           Charge          ....    0
 Multiplicity           Mult            ....    1
 Number of Electrons    NEL             ....  104
 Basis Dimension        Dim             ....  676

ORBITAL ENERGIES
----------------

  NO   OCC          E(Eh)            E(eV)
   0   2.0000     -24.839261      -675.9107
   1   2.0000     -19.213396      -522.8231
   2   2.0000     -10.439962      -284.0858
   3   2.0000     -10.279621      -279.7227
   4   2.0000     -10.264086      -279.3000
   5   2.0000     -10.247926      -278.8603
   6   2.0000     -10.237101      -278.5657
   7   2.0000     -10.233218      -278.4600
   8   2.0000     -10.225784      -278.2577
   9   2.0000     -10.218818      -278.0682
  10   2.0000     -10.216581      -278.0073
  11   2.0000     -10.209774      -277.8221
  12   2.0000     -10.154223      -276.3105
  13   2.0000      -1.418299       -38.5939
  14   2.0000      -1.130234       -30.7552
  15   2.0000      -0.918078       -24.9822
  16   2.0000      -0.888946       -24.1895
  17   2.0000      -0.859160       -23.3789
  18   2.0000      -0.830391       -22.5961
  19   2.0000      -0.785876       -21.3848
  20   2.0000      -0.762286       -20.7428
  21   2.0000      -0.739118       -20.1124
  22   2.0000      -0.700679       -19.0664
  23   2.0000      -0.687026       -18.6949
  24   2.0000      -0.641754       -17.4630
  25   2.0000      -0.639703       -17.4072
  26   2.0000      -0.634328       -17.2609
  27   2.0000      -0.612383       -16.6638
  28   2.0000      -0.589880       -16.0515
  29   2.0000      -0.554981       -15.1018
  30   2.0000      -0.549554       -14.9541
  31   2.0000      -0.529715       -14.4143
  32   2.0000      -0.523310       -14.2400
  33   2.0000      -0.501124       -13.6363
  34   2.0000      -0.492252       -13.3949
  35   2.0000      -0.487482       -13.2651
  36   2.0000      -0.476196       -12.9579
  37   2.0000      -0.469745       -12.7824
  38   2.0000      -0.455469       -12.3939
  39   2.0000      -0.442720       -12.0470
  40   2.0000      -0.438864       -11.9421
  41   2.0000      -0.433160       -11.7869
  42   2.0000      -0.417083       -11.3494
  43   2.0000      -0.408136       -11.1059
  44   2.0000      -0.401554       -10.9268
  45   2.0000      -0.391313       -10.6482
  46   2.0000      -0.384843       -10.4721
  47   2.0000      -0.374656       -10.1949
  48   2.0000      -0.368174       -10.0185
  49   2.0000      -0.358186        -9.7467
  50   2.0000      -0.356257        -9.6942
  51   2.0000      -0.322250        -8.7689
  52   0.0000       0.003892         0.1059
  53   0.0000       0.026743         0.7277
  54   0.0000       0.040179         1.0933
  55   0.0000       0.042780         1.1641
  56   0.0000       0.049161         1.3377

MULLIKEN ATOMIC CHARGES
-----------------------
   0 C :   -0.151130
   1 H :    0.264538
   2 C :   -2.028558
   3 C :   -0.606675
   4 H :    0.223401
   5 H :    0.295641
   6 H :    0.243244
   7 C :   -0.404863
   8 H :    0.288168
   9 C :   -0.520948
  10 H :    0.290971
  11 H :    0.307595
  12 H :    0.260228
  13 C :   -0.757968
  14 C :   -0.459357
  15 H :    0.285461
  16 H :    0.299292
  17 H :    0.267825
  18 C :   -0.235861
  19 H :    0.315842
  20 H :    0.346404
  21 H :    0.010171
  22 C :   -0.762270
  23 H :    0.289890
  24 H :    0.324285
  25 C :   -0.516957
  26 C :    0.638585
  27 H :    0.290591
  28 H :    0.368012
  29 H :    0.435814
  30 H :    0.701570
  31 H :    0.528207
  32 O :   -0.568322
  33 F :   -0.262822
Sum of atomic charges:    0.0000000

LOEWDIN ATOMIC CHARGES
----------------------
   0 C :   -0.242190
   1 H :    0.108261
   2 C :   -0.122281
   3 C :   -0.206521
   4 H :    0.094262
   5 H :    0.114410
   6 H :    0.106867
   7 C :   -0.199867
   8 H :    0.115631
   9 C :   -0.217235
  10 H :    0.089750
  11 H :    0.114356
  12 H :    0.095613
  13 C :   -0.207526
  14 C :   -0.207961
  15 H :    0.112392
  16 H :    0.109296
  17 H :    0.118020
  18 C :   -0.206151
  19 H :    0.096426
  20 H :    0.124313
  21 H :    0.096225
  22 C :   -0.192276
  23 H :    0.117288
  24 H :    0.113248
  25 C :   -0.092668
  26 C :   -0.437752
  27 H :    0.123838
  28 H :    0.125646
  29 H :    0.071204
  30 H :    0.001089
  31 H :    0.036147
  32 O :    0.052465
  33 F :    0.195682

  Mayer bond orders larger than 0.100000
B(  0-C ,  1-H ) :   0.9442 B(  0-C ,  3-C ) :   0.7910 B(  0-C ,  4-H ) :   1.0921
B(  0-C , 30-H ) :  -0.1017 B(  2-C , 29-H ) :   0.7828 B(  2-C , 30-H ) :   0.7776
B(  2-C , 31-H ) :   0.8587 B(  2-C , 32-O ) :   0.1089 B(  3-C ,  5-H ) :   0.9472
B(  3-C ,  6-H ) :   0.9753 B(  3-C ,  7-C ) :   0.8841 B(  3-C ,  9-C ) :   0.1372
B(  7-C ,  8-H ) :   0.9254 B(  7-C ,  9-C ) :   0.4025 B(  7-C , 10-H ) :   1.0902
B(  7-C , 12-H ) :  -0.1011 B(  7-C , 13-C ) :   0.1062 B(  9-C , 11-H ) :   0.9440
B(  9-C , 12-H ) :   1.0384 B(  9-C , 13-C ) :   0.8245 B( 13-C , 14-C ) :   0.7703
B( 13-C , 15-H ) :   0.9903 B( 13-C , 16-H ) :   0.9803 B( 14-C , 17-H ) :   0.9747
B( 14-C , 18-C ) :   0.4076 B( 14-C , 19-H ) :   0.9970 B( 14-C , 21-H ) :  -0.1932
B( 14-C , 25-C ) :   0.1201 B( 18-C , 20-H ) :   0.8460 B( 18-C , 21-H ) :   1.3107
B( 18-C , 22-C ) :   0.7103 B( 18-C , 25-C ) :  -0.1571 B( 21-H , 22-C ) :   0.1253
B( 22-C , 23-H ) :   0.9601 B( 22-C , 24-H ) :   0.9531 B( 22-C , 25-C ) :   0.7316
B( 25-C , 26-C ) :   0.8926 B( 25-C , 27-H ) :   1.0016 B( 25-C , 28-H ) :   0.8940
B( 26-C , 32-O ) :   1.7228 B( 26-C , 33-F ) :   0.8064 B( 29-H , 31-H ) :   0.1125
B( 30-H , 32-O ) :  -0.2948 B( 32-O , 33-F ) :   0.1093

FINAL SINGLE POINT ENERGY      -606.762185072766

DIPOLE MOMENT
-------------
                                X             Y             Z
Electronic contribution:     -8.95782       2.99927       9.46649
Nuclear contribution   :      8.07181      -4.09641      -9.21610
                        -----------------------------------------
Total Dipole Moment    :     -0.88601      -1.09714       0.25038
                        -----------------------------------------
Magnitude (a.u.)       :      1.43228
Magnitude (Debye)      :      3.64057

Rotational constants in cm-1:     0.028400     0.023377     0.015073
Rotational constants in MHz :   851.414727   700.831775   451.871218

                             ****ORCA TERMINATED NORMALLY****
TOTAL RUN TIME: 0 days 0 hours 11 minutes 19 seconds 652 msec
