                         Program Version 5.0.0 -  RELEASE  -
|  1> !LC-PBE RIJCOSX def2-TZVP def2/J TightSCF
|  2> *xyz -1 1
|  3> C         -0.77455        2.78833       -0.54394
|  4> C          0.69721        3.22791       -0.52513
|  5> O          1.48929        2.37470        0.19919
|  6> H          0.71600        4.26403       -0.13077
|  7> H          1.03615        3.33092       -1.58367
|  8> H         -1.34746        3.48478       -1.11982
|  9> H         -1.15078        2.75876        0.45729
| 10> H         -0.85058        1.81526       -0.98241
| 11> *
| 12>
| 13> %MaxCore 64000
| 14> %pal nprocs 4
| 15> end
| 16>
| 17> %scf
| 18>   MaxIter 150
| 19> end
| 20>
| 21>
| 22>                          ****END OF INPUT****

CARTESIAN COORDINATES (ANGSTROEM)
---------------------------------
  C     -0.774550    2.788330   -0.543940
  C      0.697210    3.227910   -0.525130
  O      1.489290    2.374700    0.199190
  H      0.716000    4.264030   -0.130770
  H      1.036150    3.330920   -1.583670
  H     -1.347460    3.484780   -1.119820
  H     -1.150780    2.758760    0.457290
  H     -0.850580    1.815260   -0.982410

 Total Charge           Charge          ....   -1
 Multiplicity           Mult            ....    1
 Number of Electrons    NEL             ....   26
 Basis Dimension        Dim             ....  123

ORBITAL ENERGIES
----------------

  NO   OCC          E(Eh)            E(eV)
   0   2.0000     -18.610864      -506.4274
   1   2.0000      -9.918201      -269.8880
   2   2.0000      -9.896907      -269.3085
   3   2.0000      -0.828670       -22.5493
   4   2.0000      -0.688076       -18.7235
   5   2.0000      -0.521139       -14.1809
   6   2.0000      -0.388183       -10.5630
   7   2.0000      -0.361522        -9.8375
   8   2.0000      -0.301670        -8.2089
   9   2.0000      -0.280012        -7.6195
  10   2.0000      -0.229432        -6.2432
  11   2.0000      -0.079657        -2.1676
  12   2.0000      -0.076985        -2.0949
  13   0.0000       0.297994         8.1088
  14   0.0000       0.336141         9.1469
  15   0.0000       0.362688         9.8692
  16   0.0000       0.363610         9.8943
  17   0.0000       0.398747        10.8505

MULLIKEN ATOMIC CHARGES
-----------------------
   0 C :   -0.305761
   1 C :   -0.014744
   2 O :   -0.784179
   3 H :   -0.035065
   4 H :   -0.036803
   5 H :    0.027447
   6 H :    0.074919
   7 H :    0.074185
Sum of atomic charges:   -1.0000000

LOEWDIN ATOMIC CHARGES
----------------------
   0 C :   -0.384483
   1 C :   -0.576540
   2 O :   -0.451013
   3 H :    0.064613
   4 H :    0.064087
   5 H :    0.086032
   6 H :    0.098822
   7 H :    0.098482

  Mayer bond orders larger than 0.100000
B(  0-C ,  1-C ) :   0.9071 B(  0-C ,  2-O ) :  -0.1434 B(  0-C ,  5-H ) :   0.9542
B(  0-C ,  6-H ) :   0.9770 B(  0-C ,  7-H ) :   0.9768 B(  1-C ,  2-O ) :   1.5723
B(  1-C ,  3-H ) :   0.9452 B(  1-C ,  4-H ) :   0.9466

FINAL SINGLE POINT ENERGY      -154.002799397657

DIPOLE MOMENT
-------------
                                X             Y             Z
Electronic contribution:      2.35057      -1.04246       1.17232
Nuclear contribution   :     -3.69910       1.55962      -1.78699
                        -----------------------------------------
Total Dipole Moment    :     -1.34853       0.51716      -0.61467
                        -----------------------------------------
Magnitude (a.u.)       :      1.56965
Magnitude (Debye)      :      3.98973

Rotational constants in cm-1:     1.268893     0.327436     0.287754
Rotational constants in MHz : 38040.440181  9816.269339  8626.646564

                             ****ORCA TERMINATED NORMALLY****
TOTAL RUN TIME: 0 days 0 hours 0 minutes 10 seconds 718 msec
