                         Program Version 5.0.0 -  RELEASE  -
|  1> !LC-PBE RIJCOSX def2-TZVP def2/J TightSCF
|  2> *xyz 1 1
|  3> C          3.95643        0.50147       -0.37910
|  4> H          3.16840        0.02920        0.20738
|  5> N          3.80389        1.96157       -0.15675
|  6> C          3.84232        0.14849       -1.85406
|  7> H          4.92323        0.17798        0.00937
|  8> H          4.20643        2.24441        0.74536
|  9> H          2.80827        2.21132       -0.09610
| 10> H          4.28076        2.50155       -0.89104
| 11> H          4.62951        0.62800       -2.39748
| 12> H          2.89665        0.48102       -2.22825
| 13> H          3.92053       -0.91187       -1.97413
| 14> *
| 15>
| 16> %MaxCore 64000
| 17> %pal nprocs 4
| 18> end
| 19>
| 20> %scf
| 21>   MaxIter 150
| 22> end
| 23>
| 24>
| 25>                          ****END OF INPUT****

CARTESIAN COORDINATES (ANGSTROEM)
---------------------------------
  C      3.956430    0.501470   -0.379100
  H      3.168400    0.029200    0.207380
  N      3.803890    1.961570   -0.156750
  C      3.842320    0.148490   -1.854060
  H      4.923230    0.177980    0.009370
  H      4.206430    2.244410    0.745360
  H      2.808270    2.211320   -0.096100
  H      4.280760    2.501550   -0.891040
  H      4.629510    0.628000   -2.397480
  H      2.896650    0.481020   -2.228250
  H      3.920530   -0.911870   -1.974130

 Total Charge           Charge          ....    1
 Multiplicity           Mult            ....    1
 Number of Electrons    NEL             ....   26
 Basis Dimension        Dim             ....  141

ORBITAL ENERGIES
----------------

  NO   OCC          E(Eh)            E(eV)
   0   2.0000     -14.550383      -395.9360
   1   2.0000     -10.369327      -282.1637
   2   2.0000     -10.286617      -279.9131
   3   2.0000      -1.392100       -37.8810
   4   2.0000      -1.140860       -31.0444
   5   2.0000      -1.007423       -27.4134
   6   2.0000      -0.952802       -25.9271
   7   2.0000      -0.933407       -25.3993
   8   2.0000      -0.840166       -22.8621
   9   2.0000      -0.784889       -21.3579
  10   2.0000      -0.717368       -19.5206
  11   2.0000      -0.701054       -19.0767
  12   2.0000      -0.680533       -18.5183
  13   0.0000      -0.105317        -2.8658
  14   0.0000      -0.046234        -1.2581
  15   0.0000      -0.040354        -1.0981
  16   0.0000      -0.022781        -0.6199
  17   0.0000       0.015580         0.4240

MULLIKEN ATOMIC CHARGES
-----------------------
   0 C :   -0.280179
   1 H :    0.217429
   2 N :   -0.309969
   3 C :   -0.465639
   4 H :    0.219260
   5 H :    0.349337
   6 H :    0.350488
   7 H :    0.345815
   8 H :    0.184190
   9 H :    0.179735
  10 H :    0.209535
Sum of atomic charges:    1.0000000

LOEWDIN ATOMIC CHARGES
----------------------
   0 C :   -0.300162
   1 H :    0.159472
   2 N :    0.161931
   3 C :   -0.300723
   4 H :    0.160726
   5 H :    0.229324
   6 H :    0.231111
   7 H :    0.229368
   8 H :    0.137401
   9 H :    0.137431
  10 H :    0.154121

  Mayer bond orders larger than 0.100000
B(  0-C ,  1-H ) :   0.9520 B(  0-C ,  2-N ) :   0.8668 B(  0-C ,  3-C ) :   0.9798
B(  0-C ,  4-H ) :   0.9501 B(  2-N ,  5-H ) :   0.8714 B(  2-N ,  6-H ) :   0.8686
B(  2-N ,  7-H ) :   0.8653 B(  3-C ,  8-H ) :   0.9536 B(  3-C ,  9-H ) :   0.9532
B(  3-C , 10-H ) :   0.9540

FINAL SINGLE POINT ENERGY      -135.129739670422

DIPOLE MOMENT
-------------
                                X             Y             Z
Electronic contribution:     -0.01251       1.36456       1.27391
Nuclear contribution   :     -0.06214      -0.04120      -0.39947
                        -----------------------------------------
Total Dipole Moment    :     -0.07465       1.32336       0.87444
                        -----------------------------------------
Magnitude (a.u.)       :      1.58792
Magnitude (Debye)      :      4.03618

Rotational constants in cm-1:     1.011771     0.281435     0.249812
Rotational constants in MHz : 30332.138762  8437.210602  7489.166323

                             ****ORCA TERMINATED NORMALLY****
TOTAL RUN TIME: 0 days 0 hours 0 minutes 12 seconds 837 msec
