                         Program Version 5.0.0 -  RELEASE  -
|  1> !LC-PBE RIJCOSX def2-TZVP def2/J TightSCF
|  2> *xyz 0 1
|  3> C         -0.77455        2.78833       -0.54394
|  4> C          0.69721        3.22791       -0.52513
|  5> F          1.48929        2.37470        0.19919
|  6> H          0.71600        4.26403       -0.13077
|  7> H          1.03615        3.33092       -1.58367
|  8> H         -1.34746        3.48478       -1.11982
|  9> H         -1.15078        2.75876        0.45729
| 10> H         -0.85058        1.81526       -0.98241
| 11> *
| 12>
| 13> %MaxCore 64000
| 14> %pal nprocs 4
| 15> end
| 16>
| 17> %scf
| 18>   MaxIter 150
| 19> end
| 20>
| 21>
| 22>                          ****END OF INPUT****

CARTESIAN COORDINATES (ANGSTROEM)
---------------------------------
  C     -0.774550    2.788330   -0.543940
  C      0.697210    3.227910   -0.525130
  F      1.489290    2.374700    0.199190
  H      0.716000    4.264030   -0.130770
  H      1.036150    3.330920   -1.583670
  H     -1.347460    3.484780   -1.119820
  H     -1.150780    2.758760    0.457290
  H     -0.850580    1.815260   -0.982410

 Total Charge           Charge          ....    0
 Multiplicity           Mult            ....    1
 Number of Electrons    NEL             ....   26
 Basis Dimension        Dim             ....  123

ORBITAL ENERGIES
----------------

  NO   OCC          E(Eh)            E(eV)
   0   2.0000     -24.472758      -665.9376
   1   2.0000     -10.194989      -277.4198
   2   2.0000     -10.108075      -275.0547
   3   2.0000      -1.352153       -36.7940
   4   2.0000      -0.940786       -25.6001
   5   2.0000      -0.793627       -21.5957
   6   2.0000      -0.656220       -17.8566
   7   2.0000      -0.646907       -17.6032
   8   2.0000      -0.605005       -16.4630
   9   2.0000      -0.545212       -14.8360
  10   2.0000      -0.536485       -14.5985
  11   2.0000      -0.469772       -12.7831
  12   2.0000      -0.460551       -12.5322
  13   0.0000       0.125840         3.4243
  14   0.0000       0.165192         4.4951
  15   0.0000       0.185309         5.0425
  16   0.0000       0.191267         5.2046
  17   0.0000       0.201176         5.4743

MULLIKEN ATOMIC CHARGES
-----------------------
   0 C :   -0.426469
   1 C :   -0.038374
   2 F :   -0.212332
   3 H :    0.117823
   4 H :    0.118073
   5 H :    0.142158
   6 H :    0.149672
   7 H :    0.149448
Sum of atomic charges:   -0.0000000

LOEWDIN ATOMIC CHARGES
----------------------
   0 C :   -0.332255
   1 C :   -0.394214
   2 F :    0.098973
   3 H :    0.124771
   4 H :    0.125723
   5 H :    0.128309
   6 H :    0.124450
   7 H :    0.124243

  Mayer bond orders larger than 0.100000
B(  0-C ,  1-C ) :   0.9844 B(  0-C ,  5-H ) :   0.9576 B(  0-C ,  6-H ) :   0.9674
B(  0-C ,  7-H ) :   0.9678 B(  1-C ,  2-F ) :   1.0171 B(  1-C ,  3-H ) :   0.9725
B(  1-C ,  4-H ) :   0.9730

FINAL SINGLE POINT ENERGY      -178.631497437306

DIPOLE MOMENT
-------------
                                X             Y             Z
Electronic contribution:      4.39580      -1.62909       1.98065
Nuclear contribution   :     -4.89513       2.05627      -2.36166
                        -----------------------------------------
Total Dipole Moment    :     -0.49933       0.42718      -0.38101
                        -----------------------------------------
Magnitude (a.u.)       :      0.75960
Magnitude (Debye)      :      1.93074

Rotational constants in cm-1:     1.247826     0.304622     0.269019
Rotational constants in MHz : 37408.889506  9132.346906  8064.979146

                             ****ORCA TERMINATED NORMALLY****
TOTAL RUN TIME: 0 days 0 hours 0 minutes 10 seconds 526 msec
