                         Program Version 5.0.0 -  RELEASE  -
|  1> !LC-PBE RIJCOSX def2-TZVP def2/J TightSCF
|  2> *xyz 0 1
|  3> C          3.95643        0.50147       -0.37910
|  4> H          3.16840        0.02920        0.20738
|  5> C          3.80389        1.96157       -0.15675
|  6> C          3.84232        0.14849       -1.85406
|  7> H          4.92323        0.17798        0.00937
|  8> H          4.20643        2.24441        0.74536
|  9> H          2.80827        2.21132       -0.09610
| 10> H          4.28076        2.50155       -0.89104
| 11> H          4.62951        0.62800       -2.39748
| 12> H          2.89665        0.48102       -2.22825
| 13> H          3.92053       -0.91187       -1.97413
| 14> *
| 15>
| 16> %MaxCore 64000
| 17> %pal nprocs 4
| 18> end
| 19>
| 20> %scf
| 21>   MaxIter 150
| 22> end
| 23>
| 24>
| 25>                          ****END OF INPUT****

CARTESIAN COORDINATES (ANGSTROEM)
---------------------------------
  C      3.956430    0.501470   -0.379100
  H      3.168400    0.029200    0.207380
  C      3.803890    1.961570   -0.156750
  C      3.842320    0.148490   -1.854060
  H      4.923230    0.177980    0.009370
  H      4.206430    2.244410    0.745360
  H      2.808270    2.211320   -0.096100
  H      4.280760    2.501550   -0.891040
  H      4.629510    0.628000   -2.397480
  H      2.896650    0.481020   -2.228250
  H      3.920530   -0.911870   -1.974130

 Total Charge           Charge          ....    0
 Multiplicity           Mult            ....    1
 Number of Electrons    NEL             ....   26
 Basis Dimension        Dim             ....  141

ORBITAL ENERGIES
----------------

  NO   OCC          E(Eh)            E(eV)
   0   2.0000     -10.099890      -274.8320
   1   2.0000     -10.089279      -274.5432
   2   2.0000     -10.070773      -274.0397
   3   2.0000      -0.972434       -26.4613
   4   2.0000      -0.859987       -23.4014
   5   2.0000      -0.744918       -20.2702
   6   2.0000      -0.617295       -16.7974
   7   2.0000      -0.590773       -16.0757
   8   2.0000      -0.540112       -14.6972
   9   2.0000      -0.526364       -14.3231
  10   2.0000      -0.466469       -12.6933
  11   2.0000      -0.463169       -12.6035
  12   2.0000      -0.451724       -12.2920
  13   0.0000       0.124550         3.3892
  14   0.0000       0.167380         4.5547
  15   0.0000       0.173818         4.7298
  16   0.0000       0.179343         4.8802
  17   0.0000       0.199970         5.4415

MULLIKEN ATOMIC CHARGES
-----------------------
   0 C :   -0.219077
   1 H :    0.119641
   2 C :   -0.427070
   3 C :   -0.436081
   4 H :    0.121554
   5 H :    0.142366
   6 H :    0.142520
   7 H :    0.133882
   8 H :    0.141700
   9 H :    0.138744
  10 H :    0.141821
Sum of atomic charges:   -0.0000000

LOEWDIN ATOMIC CHARGES
----------------------
   0 C :   -0.340464
   1 H :    0.140209
   2 C :   -0.326274
   3 C :   -0.328444
   4 H :    0.138084
   5 H :    0.116159
   6 H :    0.116986
   7 H :    0.116308
   8 H :    0.122516
   9 H :    0.123406
  10 H :    0.121514

  Mayer bond orders larger than 0.100000
B(  0-C ,  1-H ) :   0.9774 B(  0-C ,  2-C ) :   0.9393 B(  0-C ,  3-C ) :   0.9614
B(  0-C ,  4-H ) :   0.9795 B(  2-C ,  5-H ) :   0.9841 B(  2-C ,  6-H ) :   0.9775
B(  2-C ,  7-H ) :   0.9766 B(  3-C ,  8-H ) :   0.9751 B(  3-C ,  9-H ) :   0.9729
B(  3-C , 10-H ) :   0.9816

FINAL SINGLE POINT ENERGY      -118.736235345808

DIPOLE MOMENT
-------------
                                X             Y             Z
Electronic contribution:      0.08135      -0.29805       0.23890
Nuclear contribution   :     -0.08172       0.30475      -0.19303
                        -----------------------------------------
Total Dipole Moment    :     -0.00036       0.00670       0.04587
                        -----------------------------------------
Magnitude (a.u.)       :      0.04636
Magnitude (Debye)      :      0.11784

Rotational constants in cm-1:     1.020248     0.295755     0.261591
Rotational constants in MHz : 30586.266829  8866.511639  7842.297953

                             ****ORCA TERMINATED NORMALLY****
TOTAL RUN TIME: 0 days 0 hours 0 minutes 12 seconds 474 msec
