                         Program Version 5.0.0 -  RELEASE  -
|  1> !PBE0 D3BJ RIJCOSX def2-SVPD def2/J TightSCF
|  2> *xyz -1 1
|  3> C          0.13297        2.38587       -4.02462
|  4> C         -1.36646        2.47911       -4.31393
|  5> C         -2.35773        2.30686       -3.13675
|  6> H         -1.63680        1.72709       -5.06399
|  7> H         -1.58235        3.44561       -4.76869
|  8> O         -3.44376        2.84652       -3.25274
|  9> O         -1.97092        1.58304       -2.15123
| 10> H          0.68084        2.52514       -4.93310
| 11> H          0.35823        1.42282       -3.61633
| 12> H          0.40851        3.14443       -3.32208
| 13> *
| 14> %MaxCore 64000
| 15>
| 16> %pal nprocs 4
| 17> end
| 18>
| 19> %scf
| 20>   MaxIter 150
| 21> end
| 22>
| 23>
| 24>                          ****END OF INPUT****

CARTESIAN COORDINATES (ANGSTROEM)
---------------------------------
  C      0.132970    2.385870   -4.024620
  C     -1.366460    2.479110   -4.313930
  C     -2.357730    2.306860   -3.136750
  H     -1.636800    1.727090   -5.063990
  H     -1.582350    3.445610   -4.768690
  O     -3.443760    2.846520   -3.252740
  O     -1.970920    1.583040   -2.151230
  H      0.680840    2.525140   -4.933100
  H      0.358230    1.422820   -3.616330
  H      0.408510    3.144430   -3.322080

 Total Charge           Charge          ....   -1
 Multiplicity           Mult            ....    1
 Number of Electrons    NEL             ....   40
 Basis Dimension        Dim             ....  146

ORBITAL ENERGIES
----------------

  NO   OCC          E(Eh)            E(eV)
   0   2.0000     -18.959642      -515.9181
   1   2.0000     -18.949776      -515.6496
   2   2.0000     -10.116995      -275.2974
   3   2.0000     -10.067762      -273.9577
   4   2.0000     -10.059010      -273.7196
   5   2.0000      -0.847495       -23.0615
   6   2.0000      -0.745131       -20.2761
   7   2.0000      -0.619176       -16.8486
   8   2.0000      -0.486848       -13.2478
   9   2.0000      -0.329093        -8.9551
  10   2.0000      -0.307479        -8.3669
  11   2.0000      -0.274246        -7.4626
  12   2.0000      -0.244564        -6.6549
  13   2.0000      -0.229317        -6.2400
  14   2.0000      -0.223877        -6.0920
  15   2.0000      -0.193736        -5.2718
  16   2.0000      -0.175672        -4.7803
  17   2.0000      -0.063679        -1.7328
  18   2.0000      -0.055825        -1.5191
  19   2.0000      -0.043341        -1.1794
  20   0.0000       0.161134         4.3847
  21   0.0000       0.197579         5.3764
  22   0.0000       0.210563         5.7297
  23   0.0000       0.220986         6.0133
  24   0.0000       0.249015         6.7760

MULLIKEN ATOMIC CHARGES
-----------------------
   0 C :    0.498591
   1 C :   -0.560602
   2 C :    0.601291
   3 H :    0.032470
   4 H :    0.026789
   5 O :   -0.706761
   6 O :   -0.831171
   7 H :   -0.030081
   8 H :   -0.007292
   9 H :   -0.023233
Sum of atomic charges:   -1.0000000

LOEWDIN ATOMIC CHARGES
----------------------
   0 C :    0.085531
   1 C :   -0.043824
   2 C :   -0.295695
   3 H :    0.012110
   4 H :   -0.001960
   5 O :   -0.310356
   6 O :   -0.349528
   7 H :   -0.043478
   8 H :   -0.028412
   9 H :   -0.024388

  Mayer bond orders larger than 0.100000
B(  0-C ,  1-C ) :   1.2925 B(  0-C ,  7-H ) :   0.8027 B(  0-C ,  8-H ) :   0.8489
B(  0-C ,  9-H ) :   0.8622 B(  1-C ,  2-C ) :   1.0222 B(  1-C ,  3-H ) :   0.9362
B(  1-C ,  4-H ) :   0.9547 B(  1-C ,  7-H ) :   0.2030 B(  1-C ,  8-H ) :   0.1975
B(  1-C ,  9-H ) :   0.1714 B(  2-C ,  4-H ) :   0.1465 B(  2-C ,  5-O ) :   1.4293
B(  2-C ,  6-O ) :   1.3491

Dispersion correction           -0.005397792
FINAL SINGLE POINT ENERGY      -267.361429174604

DIPOLE MOMENT
-------------
                                X             Y             Z
Electronic contribution:     -5.25036      -0.36684       3.18746
Nuclear contribution   :      6.75610       0.63068      -4.53972
                        -----------------------------------------
Total Dipole Moment    :      1.50574       0.26384      -1.35226
                        -----------------------------------------
Magnitude (a.u.)       :      2.04095
Magnitude (Debye)      :      5.18769

Rotational constants in cm-1:     0.335096     0.130241     0.099025
Rotational constants in MHz : 10045.924902  3904.536250  2968.708333

                             ****ORCA TERMINATED NORMALLY****
TOTAL RUN TIME: 0 days 0 hours 0 minutes 16 seconds 306 msec
