                         Program Version 5.0.0 -  RELEASE  -
|  1> !PBE0 D3BJ RIJCOSX def2-SVPD def2/J TightSCF
|  2> *xyz 1 1
|  3> C          0.64866        1.00359       -3.64560
|  4> N          0.28128        0.67645       -2.24018
|  5> C          0.13297        2.38587       -4.02462
|  6> H          0.39079       -0.31925       -2.02649
|  7> H         -0.69269        0.99010       -2.13812
|  8> H          0.85421        1.21221       -1.57528
|  9> H          0.19099        0.23965       -4.27575
| 10> H          1.73157        0.93173       -3.75075
| 11> H          0.40589        2.60338       -5.03610
| 12> H          0.56342        3.11797       -3.37374
| 13> H         -0.93265        2.40724       -3.93025
| 14> *
| 15> %MaxCore 64000
| 16>
| 17> %pal nprocs 4
| 18> end
| 19>
| 20> %scf
| 21>   MaxIter 150
| 22> end
| 23>
| 24>
| 25>                          ****END OF INPUT****

CARTESIAN COORDINATES (ANGSTROEM)
---------------------------------
  C      0.648660    1.003590   -3.645600
  N      0.281280    0.676450   -2.240180
  C      0.132970    2.385870   -4.024620
  H      0.390790   -0.319250   -2.026490
  H     -0.692690    0.990100   -2.138120
  H      0.854210    1.212210   -1.575280
  H      0.190990    0.239650   -4.275750
  H      1.731570    0.931730   -3.750750
  H      0.405890    2.603380   -5.036100
  H      0.563420    3.117970   -3.373740
  H     -0.932650    2.407240   -3.930250

 Total Charge           Charge          ....    1
 Multiplicity           Mult            ....    1
 Number of Electrons    NEL             ....   26
 Basis Dimension        Dim             ....  124

ORBITAL ENERGIES
----------------

  NO   OCC          E(Eh)            E(eV)
   0   2.0000     -14.732669      -400.8963
   1   2.0000     -10.488426      -285.4046
   2   2.0000     -10.411419      -283.3091
   3   2.0000      -1.235920       -33.6311
   4   2.0000      -0.983802       -26.7706
   5   2.0000      -0.861499       -23.4426
   6   2.0000      -0.818126       -22.2623
   7   2.0000      -0.810643       -22.0587
   8   2.0000      -0.711268       -19.3546
   9   2.0000      -0.657212       -17.8836
  10   2.0000      -0.599451       -16.3119
  11   2.0000      -0.584989       -15.9184
  12   2.0000      -0.566181       -15.4066
  13   0.0000      -0.184477        -5.0199
  14   0.0000      -0.124455        -3.3866
  15   0.0000      -0.122367        -3.3298
  16   0.0000      -0.114822        -3.1245
  17   0.0000      -0.082177        -2.2362

MULLIKEN ATOMIC CHARGES
-----------------------
   0 C :    0.128150
   1 N :   -0.839530
   2 C :    0.418662
   3 H :    0.352296
   4 H :    0.458732
   5 H :    0.397719
   6 H :   -0.005800
   7 H :   -0.035223
   8 H :    0.024824
   9 H :    0.066043
  10 H :    0.034128
Sum of atomic charges:    1.0000000

LOEWDIN ATOMIC CHARGES
----------------------
   0 C :    0.049864
   1 N :    0.327165
   2 C :    0.168187
   3 H :    0.108186
   4 H :    0.100978
   5 H :    0.110554
   6 H :    0.055664
   7 H :    0.055063
   8 H :    0.018171
   9 H :    0.004199
  10 H :    0.001969

  Mayer bond orders larger than 0.100000
B(  0-C ,  1-N ) :   0.7537 B(  0-C ,  2-C ) :   1.3173 B(  0-C ,  6-H ) :   0.9481
B(  0-C ,  7-H ) :   0.9650 B(  0-C ,  8-H ) :   0.1605 B(  0-C ,  9-H ) :   0.1143
B(  0-C , 10-H ) :   0.1242 B(  1-N ,  3-H ) :   0.7835 B(  1-N ,  4-H ) :   0.6420
B(  1-N ,  5-H ) :   0.7528 B(  2-C ,  8-H ) :   0.8620 B(  2-C ,  9-H ) :   0.8496
B(  2-C , 10-H ) :   0.8668

Dispersion correction           -0.005040354
FINAL SINGLE POINT ENERGY      -135.283210404775

DIPOLE MOMENT
-------------
                                X             Y             Z
Electronic contribution:      0.16952      -1.30310       1.32377
Nuclear contribution   :     -0.22655       0.48066      -0.09136
                        -----------------------------------------
Total Dipole Moment    :     -0.05702      -0.82244       1.23242
                        -----------------------------------------
Magnitude (a.u.)       :      1.48274
Magnitude (Debye)      :      3.76882

Rotational constants in cm-1:     0.998155     0.284845     0.251232
Rotational constants in MHz : 29923.943568  8539.431565  7531.732866

                             ****ORCA TERMINATED NORMALLY****
TOTAL RUN TIME: 0 days 0 hours 0 minutes 11 seconds 463 msec
