                         Program Version 5.0.0 -  RELEASE  -
|  1> !PBE0 D3BJ RIJCOSX def2-SVPD def2/J TightSCF
|  2> *xyz 0 1
|  3> C          0.13297        2.38587       -4.02462
|  4> C         -1.36646        2.47911       -4.31393
|  5> C         -2.35773        2.30686       -3.13675
|  6> H         -1.63680        1.72709       -5.06399
|  7> H         -1.58235        3.44561       -4.76869
|  8> F         -3.44376        2.84652       -3.25274
|  9> O         -1.97092        1.58304       -2.15123
| 10> H          0.68084        2.52514       -4.93310
| 11> H          0.35823        1.42282       -3.61633
| 12> H          0.40851        3.14443       -3.32208
| 13> *
| 14> %MaxCore 64000
| 15>
| 16> %pal nprocs 4
| 17> end
| 18>
| 19> %scf
| 20>   MaxIter 150
| 21> end
| 22>
| 23>
| 24>                          ****END OF INPUT****

CARTESIAN COORDINATES (ANGSTROEM)
---------------------------------
  C      0.132970    2.385870   -4.024620
  C     -1.366460    2.479110   -4.313930
  C     -2.357730    2.306860   -3.136750
  H     -1.636800    1.727090   -5.063990
  H     -1.582350    3.445610   -4.768690
  F     -3.443760    2.846520   -3.252740
  O     -1.970920    1.583040   -2.151230
  H      0.680840    2.525140   -4.933100
  H      0.358230    1.422820   -3.616330
  H      0.408510    3.144430   -3.322080

 Total Charge           Charge          ....    0
 Multiplicity           Mult            ....    1
 Number of Electrons    NEL             ....   40
 Basis Dimension        Dim             ....  146

ORBITAL ENERGIES
----------------

  NO   OCC          E(Eh)            E(eV)
   0   2.0000     -24.871527      -676.7887
   1   2.0000     -19.223256      -523.0914
   2   2.0000     -10.419909      -283.5401
   3   2.0000     -10.268827      -279.4290
   4   2.0000     -10.235085      -278.5108
   5   2.0000      -1.370547       -37.2945
   6   2.0000      -1.037999       -28.2454
   7   2.0000      -0.815617       -22.1941
   8   2.0000      -0.719419       -19.5764
   9   2.0000      -0.666193       -18.1280
  10   2.0000      -0.588256       -16.0073
  11   2.0000      -0.568918       -15.4811
  12   2.0000      -0.524345       -14.2681
  13   2.0000      -0.482908       -13.1406
  14   2.0000      -0.446865       -12.1598
  15   2.0000      -0.409480       -11.1425
  16   2.0000      -0.389222       -10.5913
  17   2.0000      -0.386578       -10.5193
  18   2.0000      -0.359161        -9.7733
  19   2.0000      -0.303978        -8.2717
  20   0.0000      -0.028230        -0.7682
  21   0.0000       0.020432         0.5560
  22   0.0000       0.049748         1.3537
  23   0.0000       0.066012         1.7963
  24   0.0000       0.080165         2.1814

MULLIKEN ATOMIC CHARGES
-----------------------
   0 C :    0.500454
   1 C :   -0.621868
   2 C :    0.881828
   3 H :    0.107403
   4 H :    0.077741
   5 F :   -0.359530
   6 O :   -0.601033
   7 H :    0.000853
   8 H :    0.010685
   9 H :    0.003467
Sum of atomic charges:    0.0000000

LOEWDIN ATOMIC CHARGES
----------------------
   0 C :    0.133024
   1 C :   -0.004029
   2 C :    0.000661
   3 H :    0.042008
   4 H :    0.022808
   5 F :   -0.012299
   6 O :   -0.155677
   7 H :   -0.011539
   8 H :   -0.008598
   9 H :   -0.006359

  Mayer bond orders larger than 0.100000
B(  0-C ,  1-C ) :   1.3690 B(  0-C ,  7-H ) :   0.8058 B(  0-C ,  8-H ) :   0.8426
B(  0-C ,  9-H ) :   0.8591 B(  1-C ,  2-C ) :   1.0846 B(  1-C ,  3-H ) :   0.8979
B(  1-C ,  4-H ) :   0.9216 B(  1-C ,  5-F ) :   0.1027 B(  1-C ,  7-H ) :   0.1889
B(  1-C ,  8-H ) :   0.1841 B(  1-C ,  9-H ) :   0.1670 B(  2-C ,  5-F ) :   0.7303
B(  2-C ,  6-O ) :   1.7098

Dispersion correction           -0.005122514
FINAL SINGLE POINT ENERGY      -291.871342205579

DIPOLE MOMENT
-------------
                                X             Y             Z
Electronic contribution:     -8.37065       0.48022       3.56165
Nuclear contribution   :      8.54799       0.05434      -4.66633
                        -----------------------------------------
Total Dipole Moment    :      0.17734       0.53456      -1.10468
                        -----------------------------------------
Magnitude (a.u.)       :      1.23997
Magnitude (Debye)      :      3.15175

Rotational constants in cm-1:     0.325803     0.123345     0.094275
Rotational constants in MHz :  9767.324172  3697.779805  2826.305733

                             ****ORCA TERMINATED NORMALLY****
TOTAL RUN TIME: 0 days 0 hours 0 minutes 14 seconds 38 msec
