                         Program Version 5.0.0 -  RELEASE  -
|  1> !PBE0 D3BJ RIJCOSX def2-SVPD def2/J TightSCF
|  2> *xyz 0 1
|  3> C          0.64866        1.00359       -3.64560
|  4> C          0.28128        0.67645       -2.24018
|  5> C          0.13297        2.38587       -4.02462
|  6> H          0.39079       -0.31925       -2.02649
|  7> H         -0.69269        0.99010       -2.13812
|  8> H          0.85421        1.21221       -1.57528
|  9> H          0.19099        0.23965       -4.27575
| 10> H          1.73157        0.93173       -3.75075
| 11> H          0.40589        2.60338       -5.03610
| 12> H          0.56342        3.11797       -3.37374
| 13> H         -0.93265        2.40724       -3.93025
| 14> *
| 15> %MaxCore 64000
| 16>
| 17> %pal nprocs 4
| 18> end
| 19>
| 20> %scf
| 21>   MaxIter 150
| 22> end
| 23>
| 24>
| 25>                          ****END OF INPUT****

CARTESIAN COORDINATES (ANGSTROEM)
---------------------------------
  C      0.648660    1.003590   -3.645600
  C      0.281280    0.676450   -2.240180
  C      0.132970    2.385870   -4.024620
  H      0.390790   -0.319250   -2.026490
  H     -0.692690    0.990100   -2.138120
  H      0.854210    1.212210   -1.575280
  H      0.190990    0.239650   -4.275750
  H      1.731570    0.931730   -3.750750
  H      0.405890    2.603380   -5.036100
  H      0.563420    3.117970   -3.373740
  H     -0.932650    2.407240   -3.930250

 Total Charge           Charge          ....    0
 Multiplicity           Mult            ....    1
 Number of Electrons    NEL             ....   26
 Basis Dimension        Dim             ....  124

ORBITAL ENERGIES
----------------

  NO   OCC          E(Eh)            E(eV)
   0   2.0000     -10.219916      -278.0981
   1   2.0000     -10.211623      -277.8724
   2   2.0000     -10.193159      -277.3700
   3   2.0000      -0.810615       -22.0580
   4   2.0000      -0.703510       -19.1435
   5   2.0000      -0.598358       -16.2822
   6   2.0000      -0.482608       -13.1324
   7   2.0000      -0.464064       -12.6278
   8   2.0000      -0.416060       -11.3216
   9   2.0000      -0.399226       -10.8635
  10   2.0000      -0.351078        -9.5533
  11   2.0000      -0.346630        -9.4323
  12   2.0000      -0.338165        -9.2019
  13   0.0000       0.034589         0.9412
  14   0.0000       0.063509         1.7282
  15   0.0000       0.069691         1.8964
  16   0.0000       0.092577         2.5191
  17   0.0000       0.111348         3.0299

MULLIKEN ATOMIC CHARGES
-----------------------
   0 C :   -0.727019
   1 C :    0.805482
   2 C :    0.452854
   3 H :   -0.184817
   4 H :   -0.118666
   5 H :   -0.113406
   6 H :   -0.014179
   7 H :   -0.063977
   8 H :   -0.055099
   9 H :    0.004766
  10 H :    0.014061
Sum of atomic charges:   -0.0000000

LOEWDIN ATOMIC CHARGES
----------------------
   0 C :   -0.126525
   1 C :    0.110466
   2 C :    0.110014
   3 H :   -0.031629
   4 H :   -0.032351
   5 H :   -0.026818
   6 H :    0.023153
   7 H :    0.021813
   8 H :   -0.020188
   9 H :   -0.012555
  10 H :   -0.015379

  Mayer bond orders larger than 0.100000
B(  0-C ,  1-C ) :   1.2594 B(  0-C ,  2-C ) :   1.2557 B(  0-C ,  3-H ) :   0.1744
B(  0-C ,  4-H ) :   0.2229 B(  0-C ,  5-H ) :   0.2035 B(  0-C ,  6-H ) :   0.9584
B(  0-C ,  7-H ) :   1.0023 B(  0-C ,  8-H ) :   0.1562 B(  0-C ,  9-H ) :   0.1557
B(  0-C , 10-H ) :   0.1400 B(  1-C ,  3-H ) :   0.7972 B(  1-C ,  4-H ) :   0.7803
B(  1-C ,  5-H ) :   0.7559 B(  2-C ,  8-H ) :   0.8776 B(  2-C ,  9-H ) :   0.8598
B(  2-C , 10-H ) :   0.8652 B(  4-H ,  5-H ) :   0.1074

Dispersion correction           -0.005059642
FINAL SINGLE POINT ENERGY      -118.895431622756

DIPOLE MOMENT
-------------
                                X             Y             Z
Electronic contribution:      0.25933      -0.28052      -0.24486
Nuclear contribution   :     -0.24754       0.26111       0.24628
                        -----------------------------------------
Total Dipole Moment    :      0.01179      -0.01941       0.00141
                        -----------------------------------------
Magnitude (a.u.)       :      0.02275
Magnitude (Debye)      :      0.05783

Rotational constants in cm-1:     1.006509     0.299509     0.263145
Rotational constants in MHz : 30174.379724  8979.049324  7888.875355

                             ****ORCA TERMINATED NORMALLY****
TOTAL RUN TIME: 0 days 0 hours 0 minutes 13 seconds 254 msec
