                         Program Version 5.0.0 -  RELEASE  -
|  1> !PBE0 D3BJ RIJCOSX def2-SVPD def2/J TightSCF
|  2> *xyz 0 1
|  3> C          0.13297        2.38587       -4.02462
|  4> C         -1.36646        2.47911       -4.31393
|  5> C         -2.35773        2.30686       -3.13675
|  6> H         -1.63680        1.72709       -5.06399
|  7> H         -1.58235        3.44561       -4.76869
|  8> O         -3.44376        2.84652       -3.25274
|  9> F         -1.97092        1.58304       -2.15123
| 10> H          0.68084        2.52514       -4.93310
| 11> H          0.35823        1.42282       -3.61633
| 12> H          0.40851        3.14443       -3.32208
| 13> *
| 14> %MaxCore 64000
| 15>
| 16> %pal nprocs 4
| 17> end
| 18>
| 19> %scf
| 20>   MaxIter 150
| 21> end
| 22>
| 23>
| 24>                          ****END OF INPUT****

CARTESIAN COORDINATES (ANGSTROEM)
---------------------------------
  C      0.132970    2.385870   -4.024620
  C     -1.366460    2.479110   -4.313930
  C     -2.357730    2.306860   -3.136750
  H     -1.636800    1.727090   -5.063990
  H     -1.582350    3.445610   -4.768690
  O     -3.443760    2.846520   -3.252740
  F     -1.970920    1.583040   -2.151230
  H      0.680840    2.525140   -4.933100
  H      0.358230    1.422820   -3.616330
  H      0.408510    3.144430   -3.322080

 Total Charge           Charge          ....    0
 Multiplicity           Mult            ....    1
 Number of Electrons    NEL             ....   40
 Basis Dimension        Dim             ....  146

ORBITAL ENERGIES
----------------

  NO   OCC          E(Eh)            E(eV)
   0   2.0000     -24.847984      -676.1480
   1   2.0000     -19.232296      -523.3374
   2   2.0000     -10.414506      -283.3931
   3   2.0000     -10.267153      -279.3834
   4   2.0000     -10.240053      -278.6460
   5   2.0000      -1.321401       -35.9572
   6   2.0000      -1.078986       -29.3607
   7   2.0000      -0.817856       -22.2550
   8   2.0000      -0.699007       -19.0210
   9   2.0000      -0.658095       -17.9077
  10   2.0000      -0.561600       -15.2819
  11   2.0000      -0.556303       -15.1378
  12   2.0000      -0.515136       -14.0176
  13   2.0000      -0.483077       -13.1452
  14   2.0000      -0.450035       -12.2461
  15   2.0000      -0.424274       -11.5451
  16   2.0000      -0.406961       -11.0740
  17   2.0000      -0.390010       -10.6127
  18   2.0000      -0.370844       -10.0912
  19   2.0000      -0.314949        -8.5702
  20   0.0000      -0.022966        -0.6249
  21   0.0000       0.017327         0.4715
  22   0.0000       0.055030         1.4974
  23   0.0000       0.062670         1.7053
  24   0.0000       0.080744         2.1972

MULLIKEN ATOMIC CHARGES
-----------------------
   0 C :    0.518772
   1 C :   -0.619129
   2 C :    0.878895
   3 H :    0.107062
   4 H :    0.066237
   5 O :   -0.507895
   6 F :   -0.450933
   7 H :   -0.001447
   8 H :    0.003869
   9 H :    0.004568
Sum of atomic charges:    0.0000000

LOEWDIN ATOMIC CHARGES
----------------------
   0 C :    0.121774
   1 C :    0.006879
   2 C :    0.004853
   3 H :    0.043108
   4 H :    0.033335
   5 O :   -0.120260
   6 F :   -0.054572
   7 H :   -0.011756
   8 H :   -0.013683
   9 H :   -0.009677

  Mayer bond orders larger than 0.100000
B(  0-C ,  1-C ) :   1.3316 B(  0-C ,  7-H ) :   0.8040 B(  0-C ,  8-H ) :   0.8464
B(  0-C ,  9-H ) :   0.8616 B(  1-C ,  2-C ) :   1.0444 B(  1-C ,  3-H ) :   0.8995
B(  1-C ,  4-H ) :   0.9592 B(  1-C ,  7-H ) :   0.1996 B(  1-C ,  8-H ) :   0.1692
B(  1-C ,  9-H ) :   0.1566 B(  2-C ,  4-H ) :   0.1072 B(  2-C ,  5-O ) :   1.7630
B(  2-C ,  6-F ) :   0.6638

Dispersion correction           -0.005082640
FINAL SINGLE POINT ENERGY      -291.888679135716

DIPOLE MOMENT
-------------
                                X             Y             Z
Electronic contribution:     -5.89002      -1.62678       5.38450
Nuclear contribution   :      6.94213       1.43193      -5.86732
                        -----------------------------------------
Total Dipole Moment    :      1.05211      -0.19486      -0.48282
                        -----------------------------------------
Magnitude (a.u.)       :      1.17389
Magnitude (Debye)      :      2.98380

Rotational constants in cm-1:     0.306336     0.129048     0.095707
Rotational constants in MHz :  9183.725605  3868.769583  2869.236577

                             ****ORCA TERMINATED NORMALLY****
TOTAL RUN TIME: 0 days 0 hours 0 minutes 15 seconds 335 msec
