                         Program Version 5.0.0 -  RELEASE  -
|  1> !PBE0 D3BJ RIJCOSX def2-SVPD def2/J TightSCF xyzfile
|  2>
|  3> *xyzfile 0 1 D1.xyz
|  4>
|  5> %MaxCore 64000
|  6>
|  7> %pal nprocs 4
|  8> end
|  9>
| 10> %scf
| 11>   MaxIter 150
| 12> end
| 13>
| 14>
| 15>                          ****END OF INPUT****

CARTESIAN COORDINATES (ANGSTROEM)
---------------------------------
  C      0.648656    1.003595   -3.645601
  C      0.281280    0.676454   -2.240179
  C      0.132968    2.385869   -4.024618
  C     -1.366462    2.479106   -4.313932
  C     -2.357732    2.306858   -3.136753
  H     -1.636802    1.727095   -5.063993
  H     -1.582347    3.445605   -4.768687
  H      0.390790   -0.319253   -2.026495
  H     -0.692686    0.990104   -2.138123
  H      0.854206    1.212214   -1.575279
  F     -3.443763    2.846518   -3.252744
  O     -1.970922    1.583042   -2.151229
  H      0.190993    0.239655   -4.275752
  H      1.731572    0.931729   -3.750751
  H      0.414839    3.102847   -3.245165
  H      0.683167    2.687560   -4.919721

 Total Charge           Charge          ....    0
 Multiplicity           Mult            ....    1
 Number of Electrons    NEL             ....   56
 Basis Dimension        Dim             ....  218

ORBITAL ENERGIES
----------------

  NO   OCC          E(Eh)            E(eV)
   0   2.0000     -24.882813      -677.0958
   1   2.0000     -19.231416      -523.3134
   2   2.0000     -10.435118      -283.9540
   3   2.0000     -10.273605      -279.5590
   4   2.0000     -10.242603      -278.7154
   5   2.0000     -10.214012      -277.9374
   6   2.0000     -10.141885      -275.9747
   7   2.0000      -1.381110       -37.5819
   8   2.0000      -1.061821       -28.8936
   9   2.0000      -0.835093       -22.7240
  10   2.0000      -0.775962       -21.1150
  11   2.0000      -0.711628       -19.3644
  12   2.0000      -0.676892       -18.4192
  13   2.0000      -0.602101       -16.3840
  14   2.0000      -0.592541       -16.1238
  15   2.0000      -0.579523       -15.7696
  16   2.0000      -0.542882       -14.7726
  17   2.0000      -0.498114       -13.5544
  18   2.0000      -0.467381       -12.7181
  19   2.0000      -0.451247       -12.2791
  20   2.0000      -0.426146       -11.5960
  21   2.0000      -0.398150       -10.8342
  22   2.0000      -0.392306       -10.6752
  23   2.0000      -0.371906       -10.1201
  24   2.0000      -0.357168        -9.7190
  25   2.0000      -0.332158        -9.0385
  26   2.0000      -0.324773        -8.8375
  27   2.0000      -0.260007        -7.0752
  28   0.0000      -0.042598        -1.1592
  29   0.0000       0.018978         0.5164
  30   0.0000       0.043677         1.1885
  31   0.0000       0.055745         1.5169
  32   0.0000       0.060470         1.6455

MULLIKEN ATOMIC CHARGES
-----------------------
   0 C :   -0.373307
   1 C :    1.848440
   2 C :   -0.033585
   3 C :   -0.166392
   4 C :    0.866141
   5 H :    0.235725
   6 H :    0.100920
   7 H :   -0.051465
   8 H :   -1.362532
   9 H :    0.022146
  10 F :   -0.407819
  11 O :   -0.576240
  12 H :    0.047516
  13 H :   -0.142992
  14 H :    0.032508
  15 H :   -0.039064
Sum of atomic charges:    0.0000000

LOEWDIN ATOMIC CHARGES
----------------------
   0 C :   -0.060680
   1 C :    0.126104
   2 C :   -0.026443
   3 C :    0.060249
   4 C :    0.077262
   5 H :    0.047965
   6 H :    0.026255
   7 H :   -0.027542
   8 H :   -0.197714
   9 H :   -0.020953
  10 F :    0.002176
  11 O :   -0.112460
  12 H :    0.025532
  13 H :    0.019294
  14 H :    0.037922
  15 H :    0.023035

  Mayer bond orders larger than 0.100000
B(  0-C ,  1-C ) :   0.9933 B(  0-C ,  2-C ) :   1.1734 B(  0-C ,  7-H ) :   0.1906
B(  0-C ,  8-H ) :   0.5279 B(  0-C ,  9-H ) :   0.2232 B(  0-C , 12-H ) :   0.8692
B(  0-C , 13-H ) :   0.9738 B(  0-C , 14-H ) :   0.1122 B(  1-C ,  7-H ) :   0.5740
B(  1-C ,  8-H ) :  -1.0310 B(  1-C ,  9-H ) :   0.3975 B(  1-C , 11-O ) :  -0.1555
B(  2-C ,  3-C ) :   1.2531 B(  2-C ,  5-H ) :   0.1128 B(  2-C ,  6-H ) :   0.1313
B(  2-C , 13-H ) :   0.1051 B(  2-C , 14-H ) :   0.8949 B(  2-C , 15-H ) :   0.9097
B(  3-C ,  4-C ) :   1.1247 B(  3-C ,  5-H ) :   0.7762 B(  3-C ,  6-H ) :   0.8636
B(  3-C , 10-F ) :   0.1115 B(  3-C , 14-H ) :   0.1071 B(  4-C ,  6-H ) :   0.1007
B(  4-C , 10-F ) :   0.6952 B(  4-C , 11-O ) :   1.5923 B(  7-H ,  8-H ) :   0.2101
B(  8-H ,  9-H ) :   0.4281 B(  8-H , 11-O ) :   0.2344

Dispersion correction           -0.011324148
FINAL SINGLE POINT ENERGY      -370.298266611591

DIPOLE MOMENT
-------------
                                X             Y             Z
Electronic contribution:    -13.00109       4.58877       1.41038
Nuclear contribution   :     12.79331      -3.91961      -2.45895
                        -----------------------------------------
Total Dipole Moment    :     -0.20777       0.66916      -1.04856
                        -----------------------------------------
Magnitude (a.u.)       :      1.26112
Magnitude (Debye)      :      3.20552

Rotational constants in cm-1:     0.162888     0.059977     0.046450
Rotational constants in MHz :  4883.250030  1798.063289  1392.548669

                             ****ORCA TERMINATED NORMALLY****
TOTAL RUN TIME: 0 days 0 hours 0 minutes 35 seconds 202 msec
