                         Program Version 5.0.0 -  RELEASE  -
|  1> !BLYP D3BJ RIJCOSX def2-SVPD def2/J TightSCF
|  2> *xyz -1 1
|  3> C         -0.77455        2.78833       -0.54394
|  4> C          0.69721        3.22791       -0.52513
|  5> O          1.48929        2.37470        0.19919
|  6> H          0.71600        4.26403       -0.13077
|  7> H          1.03615        3.33092       -1.58367
|  8> H         -1.34746        3.48478       -1.11982
|  9> H         -1.15078        2.75876        0.45729
| 10> H         -0.85058        1.81526       -0.98241
| 11> *
| 12>
| 13> %MaxCore 64000
| 14> %pal nprocs 4
| 15> end
| 16>
| 17> %scf
| 18>   MaxIter 150
| 19> end
| 20>
| 21>
| 22>                          ****END OF INPUT****

CARTESIAN COORDINATES (ANGSTROEM)
---------------------------------
  C     -0.774550    2.788330   -0.543940
  C      0.697210    3.227910   -0.525130
  O      1.489290    2.374700    0.199190
  H      0.716000    4.264030   -0.130770
  H      1.036150    3.330920   -1.583670
  H     -1.347460    3.484780   -1.119820
  H     -1.150780    2.758760    0.457290
  H     -0.850580    1.815260   -0.982410

 Total Charge           Charge          ....   -1
 Multiplicity           Mult            ....    1
 Number of Electrons    NEL             ....   26
 Basis Dimension        Dim             ....  103

ORBITAL ENERGIES
----------------

  NO   OCC          E(Eh)            E(eV)
   0   2.0000     -18.470857      -502.6176
   1   2.0000      -9.740160      -265.0432
   2   2.0000      -9.716366      -264.3958
   3   2.0000      -0.587071       -15.9750
   4   2.0000      -0.446023       -12.1369
   5   2.0000      -0.305494        -8.3129
   6   2.0000      -0.199697        -5.4340
   7   2.0000      -0.178478        -4.8566
   8   2.0000      -0.129670        -3.5285
   9   2.0000      -0.111992        -3.0475
  10   2.0000      -0.069325        -1.8864
  11   2.0000       0.067444         1.8352
  12   2.0000       0.070751         1.9252
  13   0.0000       0.162722         4.4279
  14   0.0000       0.191901         5.2219
  15   0.0000       0.222715         6.0604
  16   0.0000       0.235290         6.4026
  17   0.0000       0.254768         6.9326

MULLIKEN ATOMIC CHARGES
-----------------------
   0 C :    0.596644
   1 C :    0.313586
   2 O :   -0.815150
   3 H :   -0.278505
   4 H :   -0.266255
   5 H :   -0.160292
   6 H :   -0.193810
   7 H :   -0.196216
Sum of atomic charges:   -1.0000000

LOEWDIN ATOMIC CHARGES
----------------------
   0 C :    0.071896
   1 C :   -0.262571
   2 O :   -0.543506
   3 H :   -0.046485
   4 H :   -0.042796
   5 H :   -0.073701
   6 H :   -0.051090
   7 H :   -0.051746

  Mayer bond orders larger than 0.100000
B(  0-C ,  1-C ) :   1.1622 B(  0-C ,  2-O ) :   0.3045 B(  0-C ,  3-H ) :   0.1920
B(  0-C ,  4-H ) :   0.1806 B(  0-C ,  5-H ) :   0.8811 B(  0-C ,  6-H ) :   0.8439
B(  0-C ,  7-H ) :   0.8488 B(  1-C ,  2-O ) :   1.1561 B(  1-C ,  3-H ) :   0.9156
B(  1-C ,  4-H ) :   0.9291 B(  1-C ,  5-H ) :   0.1774 B(  1-C ,  6-H ) :   0.2287
B(  1-C ,  7-H ) :   0.2275 B(  3-H ,  4-H ) :   0.1148

Dispersion correction           -0.007745486
FINAL SINGLE POINT ENERGY      -154.268482723685

DIPOLE MOMENT
-------------
                                X             Y             Z
Electronic contribution:      2.50809      -1.05808       1.21715
Nuclear contribution   :     -3.69910       1.55962      -1.78699
                        -----------------------------------------
Total Dipole Moment    :     -1.19100       0.50154      -0.56984
                        -----------------------------------------
Magnitude (a.u.)       :      1.41235
Magnitude (Debye)      :      3.58992

Rotational constants in cm-1:     1.268893     0.327436     0.287754
Rotational constants in MHz : 38040.440181  9816.269339  8626.646564

                             ****ORCA TERMINATED NORMALLY****
TOTAL RUN TIME: 0 days 0 hours 0 minutes 8 seconds 27 msec
