                         Program Version 5.0.0 -  RELEASE  -
|  1> !BLYP D3BJ RIJCOSX def2-SVPD def2/J TightSCF
|  2> *xyz 1 1
|  3> C          3.95643        0.50147       -0.37910
|  4> H          3.16840        0.02920        0.20738
|  5> N          3.80389        1.96157       -0.15675
|  6> C          3.84232        0.14849       -1.85406
|  7> H          4.92323        0.17798        0.00937
|  8> H          4.20643        2.24441        0.74536
|  9> H          2.80827        2.21132       -0.09610
| 10> H          4.28076        2.50155       -0.89104
| 11> H          4.62951        0.62800       -2.39748
| 12> H          2.89665        0.48102       -2.22825
| 13> H          3.92053       -0.91187       -1.97413
| 14> *
| 15>
| 16> %MaxCore 64000
| 17> %pal nprocs 4
| 18> end
| 19>
| 20> %scf
| 21>   MaxIter 150
| 22> end
| 23>
| 24>
| 25>                          ****END OF INPUT****

CARTESIAN COORDINATES (ANGSTROEM)
---------------------------------
  C      3.956430    0.501470   -0.379100
  H      3.168400    0.029200    0.207380
  N      3.803890    1.961570   -0.156750
  C      3.842320    0.148490   -1.854060
  H      4.923230    0.177980    0.009370
  H      4.206430    2.244410    0.745360
  H      2.808270    2.211320   -0.096100
  H      4.280760    2.501550   -0.891040
  H      4.629510    0.628000   -2.397480
  H      2.896650    0.481020   -2.228250
  H      3.920530   -0.911870   -1.974130

 Total Charge           Charge          ....    1
 Multiplicity           Mult            ....    1
 Number of Electrons    NEL             ....   26
 Basis Dimension        Dim             ....  124

ORBITAL ENERGIES
----------------

  NO   OCC          E(Eh)            E(eV)
   0   2.0000     -14.358787      -390.7224
   1   2.0000     -10.176375      -276.9132
   2   2.0000     -10.100360      -274.8448
   3   2.0000      -1.123472       -30.5712
   4   2.0000      -0.886418       -24.1206
   5   2.0000      -0.777373       -21.1534
   6   2.0000      -0.749066       -20.3831
   7   2.0000      -0.730977       -19.8909
   8   2.0000      -0.646947       -17.6043
   9   2.0000      -0.593448       -16.1485
  10   2.0000      -0.537582       -14.6283
  11   2.0000      -0.524103       -14.2616
  12   2.0000      -0.507062       -13.7979
  13   0.0000      -0.220985        -6.0133
  14   0.0000      -0.166605        -4.5336
  15   0.0000      -0.160660        -4.3718
  16   0.0000      -0.147341        -4.0093
  17   0.0000      -0.115153        -3.1335

MULLIKEN ATOMIC CHARGES
-----------------------
   0 C :    0.485186
   1 H :   -0.223359
   2 N :   -0.685539
   3 C :    1.013356
   4 H :   -0.203365
   5 H :    0.314283
   6 H :    0.366358
   7 H :    0.371505
   8 H :   -0.153860
   9 H :   -0.111824
  10 H :   -0.172743
Sum of atomic charges:    1.0000000

LOEWDIN ATOMIC CHARGES
----------------------
   0 C :    0.054793
   1 H :    0.049537
   2 N :    0.340671
   3 C :    0.187053
   4 H :    0.050448
   5 H :    0.102779
   6 H :    0.106572
   7 H :    0.102545
   8 H :   -0.003522
   9 H :   -0.002706
  10 H :    0.011829

  Mayer bond orders larger than 0.100000
B(  0-C ,  1-H ) :   0.8173 B(  0-C ,  2-N ) :   0.8024 B(  0-C ,  3-C ) :   1.3293
B(  0-C ,  4-H ) :   0.8380 B(  0-C ,  8-H ) :   0.2185 B(  0-C ,  9-H ) :   0.1954
B(  0-C , 10-H ) :   0.2433 B(  1-H ,  2-N ) :   0.1552 B(  2-N ,  5-H ) :   0.7881
B(  2-N ,  6-H ) :   0.7304 B(  2-N ,  7-H ) :   0.7077 B(  3-C ,  8-H ) :   0.7532
B(  3-C ,  9-H ) :   0.7429 B(  3-C , 10-H ) :   0.7320

Dispersion correction           -0.012450835
FINAL SINGLE POINT ENERGY      -135.370580769499

DIPOLE MOMENT
-------------
                                X             Y             Z
Electronic contribution:     -0.01212       1.31950       1.24046
Nuclear contribution   :     -0.06214      -0.04120      -0.39947
                        -----------------------------------------
Total Dipole Moment    :     -0.07426       1.27829       0.84098
                        -----------------------------------------
Magnitude (a.u.)       :      1.53193
Magnitude (Debye)      :      3.89385

Rotational constants in cm-1:     1.011771     0.281435     0.249812
Rotational constants in MHz : 30332.138762  8437.210602  7489.166323

                             ****ORCA TERMINATED NORMALLY****
TOTAL RUN TIME: 0 days 0 hours 0 minutes 8 seconds 223 msec
