                         Program Version 5.0.0 -  RELEASE  -
|  1> !BLYP D3BJ RIJCOSX def2-SVPD def2/J TightSCF xyzfile
|  2>
|  3> *xyzfile 0 1 B.xyz
|  4>
|  5> %MaxCore 64000
|  6>
|  7> %pal nprocs 4
|  8> end
|  9>
| 10> %scf
| 11>   MaxIter 150
| 12> end
| 13>
| 14>
| 15>                          ****END OF INPUT****

CARTESIAN COORDINATES (ANGSTROEM)
---------------------------------
  C      3.956426    0.501466   -0.379100
  H      3.168398    0.029201    0.207383
  N      3.803893    1.961572   -0.156747
  C      3.842322    0.148490   -1.854058
  H      4.923231    0.177982    0.009371
  H      4.620021    0.694502   -2.402150
  H      4.096015   -0.910930   -1.955103
  C      2.475619    0.412708   -2.485377
  H      2.174689    1.445076   -2.287971
  C      1.383931   -0.532740   -1.995203
  H      2.575613    0.318574   -3.571460
  H      1.264698   -0.412309   -0.915491
  H      1.705223   -1.566885   -2.164984
  C      0.031398   -0.317260   -2.677791
  C     -0.587292    1.060853   -2.436460
  H     -0.662815   -1.089530   -2.329985
  H      0.149465   -0.478040   -3.755648
  H      0.104376    1.828590   -2.793130
  C     -0.951213    1.334978   -0.972500
  H     -1.478832    1.161355   -3.062484
  H     -0.317007    0.741648   -0.311389
  H     -1.980916    1.012842   -0.788958
  C     -0.774550    2.788332   -0.543943
  H     -1.352609    3.459372   -1.192585
  H     -1.171014    2.902331    0.469968
  C      0.697208    3.227911   -0.525126
  O      1.489294    2.374703    0.199189
  H      0.715998    4.264030   -0.130774
  H      1.036148    3.330920   -1.583669
  H      4.206425    2.244406    0.745359
  H      2.808269    2.211323   -0.096097
  H      4.280757    2.501552   -0.891037

 Total Charge           Charge          ....    0
 Multiplicity           Mult            ....    1
 Number of Electrons    NEL             ....   90
 Basis Dimension        Dim             ....  391

ORBITAL ENERGIES
----------------

  NO   OCC          E(Eh)            E(eV)
   0   2.0000     -18.666568      -507.9431
   1   2.0000     -14.102549      -383.7499
   2   2.0000      -9.988687      -271.8060
   3   2.0000      -9.945331      -270.6262
   4   2.0000      -9.919744      -269.9299
   5   2.0000      -9.907325      -269.5920
   6   2.0000      -9.906433      -269.5677
   7   2.0000      -9.901543      -269.4347
   8   2.0000      -9.889256      -269.1003
   9   2.0000      -9.876715      -268.7591
  10   2.0000      -9.870112      -268.5794
  11   2.0000      -0.895076       -24.3563
  12   2.0000      -0.792442       -21.5635
  13   2.0000      -0.731666       -19.9096
  14   2.0000      -0.694047       -18.8860
  15   2.0000      -0.658501       -17.9187
  16   2.0000      -0.620339       -16.8803
  17   2.0000      -0.585515       -15.9327
  18   2.0000      -0.552167       -15.0252
  19   2.0000      -0.525165       -14.2905
  20   2.0000      -0.515694       -14.0327
  21   2.0000      -0.507394       -13.8069
  22   2.0000      -0.482014       -13.1163
  23   2.0000      -0.448763       -12.2115
  24   2.0000      -0.438883       -11.9426
  25   2.0000      -0.414478       -11.2785
  26   2.0000      -0.414202       -11.2710
  27   2.0000      -0.385214       -10.4822
  28   2.0000      -0.373555       -10.1650
  29   2.0000      -0.367959       -10.0127
  30   2.0000      -0.353077        -9.6077
  31   2.0000      -0.342865        -9.3298
  32   2.0000      -0.334791        -9.1101
  33   2.0000      -0.318561        -8.6685
  34   2.0000      -0.310092        -8.4380
  35   2.0000      -0.299177        -8.1410
  36   2.0000      -0.289777        -7.8852
  37   2.0000      -0.282150        -7.6777
  38   2.0000      -0.272760        -7.4222
  39   2.0000      -0.266686        -7.2569
  40   2.0000      -0.247834        -6.7439
  41   2.0000      -0.242674        -6.6035
  42   2.0000      -0.239393        -6.5142
  43   2.0000      -0.140203        -3.8151
  44   2.0000      -0.130950        -3.5633
  45   0.0000      -0.035977        -0.9790
  46   0.0000      -0.000393        -0.0107
  47   0.0000       0.004612         0.1255
  48   0.0000       0.019684         0.5356
  49   0.0000       0.031134         0.8472

MULLIKEN ATOMIC CHARGES
-----------------------
   0 C :    1.191337
   1 H :   -0.140159
   2 N :    0.245510
   3 C :    0.530122
   4 H :   -0.458947
   5 H :   -0.238749
   6 H :   -0.239892
   7 C :    0.880924
   8 H :   -0.823308
   9 C :    0.213867
  10 H :   -0.208102
  11 H :   -0.205312
  12 H :   -0.293834
  13 C :    0.902014
  14 C :    0.428250
  15 H :   -0.382368
  16 H :   -0.112872
  17 H :   -0.243114
  18 C :    0.402480
  19 H :   -0.403785
  20 H :   -0.215056
  21 H :   -0.291988
  22 C :    0.554913
  23 H :   -0.303302
  24 H :   -0.095117
  25 C :    0.692015
  26 O :   -0.533068
  27 H :   -0.544470
  28 H :   -0.073426
  29 H :    0.282788
  30 H :   -0.820417
  31 H :    0.303062
Sum of atomic charges:    0.0000000

LOEWDIN ATOMIC CHARGES
----------------------
   0 C :    0.089104
   1 H :    0.033838
   2 N :    0.327795
   3 C :   -0.008853
   4 H :    0.022398
   5 H :    0.016257
   6 H :    0.023942
   7 C :   -0.010056
   8 H :   -0.008739
   9 C :   -0.019103
  10 H :    0.025218
  11 H :   -0.001932
  12 H :    0.018288
  13 C :   -0.021692
  14 C :   -0.013476
  15 H :    0.017547
  16 H :    0.013364
  17 H :   -0.010902
  18 C :   -0.018983
  19 H :    0.013709
  20 H :   -0.011520
  21 H :    0.011690
  22 C :   -0.022051
  23 H :    0.013035
  24 H :    0.014843
  25 C :   -0.079542
  26 O :   -0.349519
  27 H :   -0.002164
  28 H :   -0.015414
  29 H :    0.081055
  30 H :   -0.205790
  31 H :    0.077654

  Mayer bond orders larger than 0.100000
B(  0-C ,  1-H ) :   0.6879 B(  0-C ,  2-N ) :   0.8799 B(  0-C ,  3-C ) :   1.1082
B(  0-C ,  4-H ) :   0.6430 B(  0-C ,  5-H ) :   0.1111 B(  0-C ,  6-H ) :   0.1844
B(  0-C ,  7-C ) :   0.1007 B(  0-C , 30-H ) :  -0.1274 B(  1-H ,  2-N ) :   0.1638
B(  1-H ,  3-C ) :   0.1340 B(  1-H ,  4-H ) :  -0.2033 B(  2-N ,  4-H ) :   0.1119
B(  2-N , 10-H ) :  -0.1390 B(  2-N , 29-H ) :   0.7852 B(  2-N , 30-H ) :   1.4465
B(  2-N , 31-H ) :   0.7953 B(  3-C ,  4-H ) :   0.1477 B(  3-C ,  5-H ) :   0.5944
B(  3-C ,  6-H ) :   0.7677 B(  3-C ,  7-C ) :   1.1208 B(  3-C ,  8-H ) :   0.1530
B(  3-C , 10-H ) :   0.1028 B(  5-H ,  6-H ) :  -0.1545 B(  5-H ,  7-C ) :   0.3217
B(  7-C ,  8-H ) :   0.3842 B(  7-C ,  9-C ) :   1.1209 B(  7-C , 10-H ) :   0.4872
B(  7-C , 11-H ) :   0.1652 B(  7-C , 12-H ) :   0.1803 B(  8-H ,  9-C ) :   0.3367
B(  8-H , 10-H ) :   0.1209 B(  9-C , 10-H ) :   0.1996 B(  9-C , 11-H ) :   0.7508
B(  9-C , 12-H ) :   0.7167 B(  9-C , 13-C ) :   1.1483 B(  9-C , 14-C ) :   0.1857
B(  9-C , 15-H ) :   0.3924 B(  9-C , 16-H ) :   0.1605 B(  9-C , 17-H ) :  -0.1067
B( 11-H , 13-C ) :   0.1209 B( 11-H , 20-H ) :   0.1701 B( 13-C , 14-C ) :   1.1589
B( 13-C , 15-H ) :   0.5035 B( 13-C , 16-H ) :   0.5431 B( 13-C , 17-H ) :   0.1463
B( 13-C , 19-H ) :   0.1262 B( 14-C , 15-H ) :   0.1072 B( 14-C , 16-H ) :   0.3025
B( 14-C , 17-H ) :   0.7450 B( 14-C , 18-C ) :   1.1789 B( 14-C , 19-H ) :   0.6353
B( 14-C , 20-H ) :   0.1500 B( 14-C , 21-H ) :   0.2769 B( 14-C , 22-C ) :   0.1039
B( 15-H , 16-H ) :  -0.2020 B( 17-H , 18-C ) :   0.1733 B( 18-C , 19-H ) :   0.2374
B( 18-C , 20-H ) :   0.7120 B( 18-C , 21-H ) :   0.6187 B( 18-C , 22-C ) :   1.2177
B( 18-C , 23-H ) :   0.1315 B( 18-C , 24-H ) :   0.2946 B( 18-C , 25-C ) :   0.1666
B( 20-H , 22-C ) :   0.1899 B( 21-H , 22-C ) :   0.1411 B( 22-C , 23-H ) :   0.6875
B( 22-C , 24-H ) :   0.5355 B( 22-C , 25-C ) :   1.1327 B( 22-C , 27-H ) :   0.1366
B( 22-C , 28-H ) :   0.1292 B( 23-H , 24-H ) :  -0.1291 B( 23-H , 25-C ) :   0.2273
B( 24-H , 25-C ) :   0.1517 B( 25-C , 26-O ) :   1.0965 B( 25-C , 27-H ) :   0.8633
B( 25-C , 28-H ) :   0.7482 B( 26-O , 27-H ) :  -0.1093 B( 26-O , 30-H ) :   0.4309
B( 30-H , 31-H ) :  -0.1494

Dispersion correction           -0.065636211
FINAL SINGLE POINT ENERGY      -485.004324428816

DIPOLE MOMENT
-------------
                                X             Y             Z
Electronic contribution:      2.07404       0.89225       2.56938
Nuclear contribution   :      0.61785      -1.47632      -2.91844
                        -----------------------------------------
Total Dipole Moment    :      2.69189      -0.58408      -0.34906
                        -----------------------------------------
Magnitude (a.u.)       :      2.77655
Magnitude (Debye)      :      7.05743

Rotational constants in cm-1:     0.040993     0.027400     0.018162
Rotational constants in MHz :  1228.944366   821.418004   544.476857

                             ****ORCA TERMINATED NORMALLY****
TOTAL RUN TIME: 0 days 0 hours 0 minutes 37 seconds 156 msec
