                         Program Version 5.0.0 -  RELEASE  -
|  1> !BLYP D3BJ RIJCOSX def2-SVPD def2/J TightSCF
|  2> *xyz 0 1
|  3> C         -0.77455        2.78833       -0.54394
|  4> C          0.69721        3.22791       -0.52513
|  5> F          1.48929        2.37470        0.19919
|  6> H          0.71600        4.26403       -0.13077
|  7> H          1.03615        3.33092       -1.58367
|  8> H         -1.34746        3.48478       -1.11982
|  9> H         -1.15078        2.75876        0.45729
| 10> H         -0.85058        1.81526       -0.98241
| 11> *
| 12>
| 13> %MaxCore 64000
| 14> %pal nprocs 4
| 15> end
| 16>
| 17> %scf
| 18>   MaxIter 150
| 19> end
| 20>
| 21>
| 22>                          ****END OF INPUT****

CARTESIAN COORDINATES (ANGSTROEM)
---------------------------------
  C     -0.774550    2.788330   -0.543940
  C      0.697210    3.227910   -0.525130
  F      1.489290    2.374700    0.199190
  H      0.716000    4.264030   -0.130770
  H      1.036150    3.330920   -1.583670
  H     -1.347460    3.484780   -1.119820
  H     -1.150780    2.758760    0.457290
  H     -0.850580    1.815260   -0.982410

 Total Charge           Charge          ....    0
 Multiplicity           Mult            ....    1
 Number of Electrons    NEL             ....   26
 Basis Dimension        Dim             ....  103

ORBITAL ENERGIES
----------------

  NO   OCC          E(Eh)            E(eV)
   0   2.0000     -24.295177      -661.1054
   1   2.0000     -10.002802      -272.1901
   2   2.0000      -9.921044      -269.9653
   3   2.0000      -1.078414       -29.3451
   4   2.0000      -0.682283       -18.5659
   5   2.0000      -0.559665       -15.2293
   6   2.0000      -0.454331       -12.3630
   7   2.0000      -0.437524       -11.9056
   8   2.0000      -0.401686       -10.9304
   9   2.0000      -0.354198        -9.6382
  10   2.0000      -0.352801        -9.6002
  11   2.0000      -0.288438        -7.8488
  12   2.0000      -0.283274        -7.7083
  13   0.0000       0.003466         0.0943
  14   0.0000       0.034901         0.9497
  15   0.0000       0.048692         1.3250
  16   0.0000       0.058450         1.5905
  17   0.0000       0.082516         2.2454

MULLIKEN ATOMIC CHARGES
-----------------------
   0 C :    0.739365
   1 C :    0.601924
   2 F :   -0.392225
   3 H :   -0.198721
   4 H :   -0.186055
   5 H :   -0.173561
   6 H :   -0.193609
   7 H :   -0.197119
Sum of atomic charges:   -0.0000000

LOEWDIN ATOMIC CHARGES
----------------------
   0 C :    0.150246
   1 C :    0.053320
   2 F :   -0.194281
   3 H :    0.022668
   4 H :    0.027472
   5 H :   -0.018823
   6 H :   -0.020031
   7 H :   -0.020571

  Mayer bond orders larger than 0.100000
B(  0-C ,  1-C ) :   1.3334 B(  0-C ,  3-H ) :   0.1219 B(  0-C ,  4-H ) :   0.1144
B(  0-C ,  5-H ) :   0.7813 B(  0-C ,  6-H ) :   0.8060 B(  0-C ,  7-H ) :   0.8098
B(  1-C ,  2-F ) :   0.8204 B(  1-C ,  3-H ) :   0.8700 B(  1-C ,  4-H ) :   0.8781
B(  1-C ,  5-H ) :   0.1638 B(  1-C ,  6-H ) :   0.1889 B(  1-C ,  7-H ) :   0.1868

Dispersion correction           -0.007136014
FINAL SINGLE POINT ENERGY      -178.880443078009

DIPOLE MOMENT
-------------
                                X             Y             Z
Electronic contribution:      4.41688      -1.65992       2.00577
Nuclear contribution   :     -4.89513       2.05627      -2.36166
                        -----------------------------------------
Total Dipole Moment    :     -0.47826       0.39635      -0.35589
                        -----------------------------------------
Magnitude (a.u.)       :      0.71588
Magnitude (Debye)      :      1.81962

Rotational constants in cm-1:     1.247826     0.304622     0.269019
Rotational constants in MHz : 37408.889506  9132.346906  8064.979146

                             ****ORCA TERMINATED NORMALLY****
TOTAL RUN TIME: 0 days 0 hours 0 minutes 7 seconds 532 msec
