                         Program Version 5.0.0 -  RELEASE  -
|  1> !BLYP D3BJ RIJCOSX def2-SVPD def2/J TightSCF xyzfile
|  2>
|  3> *xyzfile 0 1 D.xyz
|  4>
|  5> %MaxCore 64000
|  6>
|  7> %pal nprocs 4
|  8> end
|  9>
| 10> %scf
| 11>   MaxIter 150
| 12> end
| 13>
| 14>
| 15>                          ****END OF INPUT****

CARTESIAN COORDINATES (ANGSTROEM)
---------------------------------
  C      3.956426    0.501466   -0.379100
  H      3.168398    0.029201    0.207383
  C      3.803893    1.961572   -0.156747
  C      3.842322    0.148490   -1.854058
  H      4.923231    0.177982    0.009371
  H      4.620021    0.694502   -2.402150
  H      4.096015   -0.910930   -1.955103
  C      2.475619    0.412708   -2.485377
  H      2.174689    1.445076   -2.287971
  C      1.383931   -0.532740   -1.995203
  H      2.575613    0.318574   -3.571460
  H      1.264698   -0.412309   -0.915491
  H      1.705223   -1.566885   -2.164984
  C      0.031398   -0.317260   -2.677791
  C     -0.587292    1.060853   -2.436460
  H     -0.662815   -1.089530   -2.329985
  H      0.149465   -0.478040   -3.755648
  H      0.104376    1.828590   -2.793130
  C     -0.951213    1.334978   -0.972500
  H     -1.478832    1.161355   -3.062484
  H     -0.317007    0.741648   -0.311389
  H     -1.980916    1.012842   -0.788958
  C     -0.774550    2.788332   -0.543943
  H     -1.352609    3.459372   -1.192585
  H     -1.171014    2.902331    0.469968
  C      0.697208    3.227911   -0.525126
  F      1.489294    2.374703    0.199189
  H      0.715998    4.264030   -0.130774
  H      1.036148    3.330920   -1.583669
  H      4.206425    2.244406    0.745359
  H      2.808269    2.211323   -0.096097
  H      4.280757    2.501552   -0.891037

 Total Charge           Charge          ....    0
 Multiplicity           Mult            ....    1
 Number of Electrons    NEL             ....   90
 Basis Dimension        Dim             ....  391

ORBITAL ENERGIES
----------------

  NO   OCC          E(Eh)            E(eV)
   0   2.0000     -24.314908      -661.6423
   1   2.0000     -10.009136      -272.3624
   2   2.0000      -9.932996      -270.2906
   3   2.0000      -9.919465      -269.9224
   4   2.0000      -9.915971      -269.8273
   5   2.0000      -9.912775      -269.7403
   6   2.0000      -9.907178      -269.5880
   7   2.0000      -9.905167      -269.5333
   8   2.0000      -9.899090      -269.3679
   9   2.0000      -9.889377      -269.1036
  10   2.0000      -9.839230      -267.7391
  11   2.0000      -1.110954       -30.2306
  12   2.0000      -0.733074       -19.9479
  13   2.0000      -0.714443       -19.4410
  14   2.0000      -0.683632       -18.6026
  15   2.0000      -0.655777       -17.8446
  16   2.0000      -0.611613       -16.6428
  17   2.0000      -0.589414       -16.0388
  18   2.0000      -0.550534       -14.9808
  19   2.0000      -0.532355       -14.4861
  20   2.0000      -0.497746       -13.5443
  21   2.0000      -0.489831       -13.3290
  22   2.0000      -0.466137       -12.6842
  23   2.0000      -0.454997       -12.3811
  24   2.0000      -0.437981       -11.9181
  25   2.0000      -0.414570       -11.2810
  26   2.0000      -0.403718       -10.9857
  27   2.0000      -0.396040       -10.7768
  28   2.0000      -0.378485       -10.2991
  29   2.0000      -0.373846       -10.1729
  30   2.0000      -0.360157        -9.8004
  31   2.0000      -0.344876        -9.3846
  32   2.0000      -0.336999        -9.1702
  33   2.0000      -0.328233        -8.9317
  34   2.0000      -0.319285        -8.6882
  35   2.0000      -0.308851        -8.4043
  36   2.0000      -0.303621        -8.2619
  37   2.0000      -0.297730        -8.1017
  38   2.0000      -0.281596        -7.6626
  39   2.0000      -0.277492        -7.5510
  40   2.0000      -0.271652        -7.3920
  41   2.0000      -0.270722        -7.3667
  42   2.0000      -0.256654        -6.9839
  43   2.0000      -0.255531        -6.9533
  44   2.0000      -0.229388        -6.2420
  45   0.0000      -0.000064        -0.0017
  46   0.0000       0.008543         0.2325
  47   0.0000       0.015807         0.4301
  48   0.0000       0.021747         0.5918
  49   0.0000       0.033729         0.9178

MULLIKEN ATOMIC CHARGES
-----------------------
   0 C :    0.248885
   1 H :   -0.095185
   2 C :    3.589754
   3 C :    0.602507
   4 H :   -0.538047
   5 H :   -0.155502
   6 H :   -0.217926
   7 C :    0.756559
   8 H :   -0.804650
   9 C :    0.261692
  10 H :   -0.174903
  11 H :   -0.231187
  12 H :   -0.315136
  13 C :    0.890519
  14 C :    0.473159
  15 H :   -0.392912
  16 H :   -0.100785
  17 H :   -0.285592
  18 C :    0.410870
  19 H :   -0.397471
  20 H :   -0.195894
  21 H :   -0.290340
  22 C :    0.534281
  23 H :   -0.265229
  24 H :   -0.132933
  25 C :    0.906998
  26 F :   -0.440739
  27 H :   -0.433825
  28 H :   -0.010381
  29 H :   -0.036804
  30 H :   -2.905938
  31 H :   -0.253846
Sum of atomic charges:   -0.0000000

LOEWDIN ATOMIC CHARGES
----------------------
   0 C :   -0.044065
   1 H :    0.009229
   2 C :    0.148503
   3 C :   -0.026072
   4 H :    0.013399
   5 H :    0.017999
   6 H :    0.011027
   7 C :   -0.013272
   8 H :   -0.013087
   9 C :   -0.019958
  10 H :    0.021708
  11 H :   -0.004923
  12 H :    0.022631
  13 C :   -0.021179
  14 C :   -0.012817
  15 H :    0.017549
  16 H :    0.017532
  17 H :   -0.009415
  18 C :   -0.012253
  19 H :    0.016867
  20 H :   -0.002787
  21 H :    0.021066
  22 C :   -0.003711
  23 H :    0.030286
  24 H :    0.021602
  25 C :    0.148097
  26 F :   -0.151515
  27 H :    0.034447
  28 H :    0.025081
  29 H :   -0.030230
  30 H :   -0.181531
  31 H :   -0.030208

  Mayer bond orders larger than 0.100000
B(  0-C ,  1-H ) :   0.7124 B(  0-C ,  2-C ) :   0.3614 B(  0-C ,  3-C ) :   1.1421
B(  0-C ,  4-H ) :   0.7816 B(  0-C ,  5-H ) :   0.1516 B(  0-C ,  6-H ) :   0.2242
B(  0-C ,  7-C ) :   0.1059 B(  0-C , 29-H ) :   0.2176 B(  0-C , 30-H ) :   1.1072
B(  0-C , 31-H ) :   0.4495 B(  1-H ,  2-C ) :   0.4132 B(  1-H ,  3-C ) :   0.2107
B(  1-H ,  4-H ) :  -0.2670 B(  1-H , 30-H ) :  -0.2197 B(  1-H , 31-H ) :  -0.1417
B(  2-C ,  3-C ) :   0.1349 B(  2-C ,  4-H ) :  -0.2662 B(  2-C ,  8-H ) :  -0.1074
B(  2-C , 26-F ) :  -0.3251 B(  2-C , 29-H ) :   0.5941 B(  2-C , 30-H ) :  -6.5494
B(  2-C , 31-H ) :  -0.5554 B(  3-C ,  5-H ) :   0.5444 B(  3-C ,  6-H ) :   0.7374
B(  3-C ,  7-C ) :   1.1586 B(  3-C ,  8-H ) :   0.1770 B(  4-H , 29-H ) :  -0.2004
B(  4-H , 30-H ) :   0.2352 B(  4-H , 31-H ) :   0.3444 B(  5-H ,  6-H ) :  -0.2045
B(  5-H ,  7-C ) :   0.3586 B(  5-H , 29-H ) :  -0.1148 B(  5-H , 31-H ) :   0.1802
B(  6-H , 31-H ) :  -0.2253 B(  7-C ,  8-H ) :   0.4116 B(  7-C ,  9-C ) :   1.1573
B(  7-C , 10-H ) :   0.4936 B(  7-C , 11-H ) :   0.1484 B(  7-C , 12-H ) :   0.1772
B(  8-H ,  9-C ) :   0.2734 B(  8-H , 10-H ) :   0.1066 B(  8-H , 30-H ) :   0.1306
B(  9-C , 10-H ) :   0.2218 B(  9-C , 11-H ) :   0.7594 B(  9-C , 12-H ) :   0.7324
B(  9-C , 13-C ) :   1.1410 B(  9-C , 14-C ) :   0.1782 B(  9-C , 15-H ) :   0.3897
B(  9-C , 16-H ) :   0.1704 B(  9-C , 17-H ) :  -0.1122 B( 11-H , 13-C ) :   0.1267
B( 11-H , 20-H ) :   0.1582 B( 13-C , 14-C ) :   1.1689 B( 13-C , 15-H ) :   0.5143
B( 13-C , 16-H ) :   0.5372 B( 13-C , 17-H ) :   0.1563 B( 13-C , 19-H ) :   0.1315
B( 14-C , 15-H ) :   0.1092 B( 14-C , 16-H ) :   0.3022 B( 14-C , 17-H ) :   0.7183
B( 14-C , 18-C ) :   1.1792 B( 14-C , 19-H ) :   0.6223 B( 14-C , 20-H ) :   0.1445
B( 14-C , 21-H ) :   0.2749 B( 14-C , 22-C ) :   0.1014 B( 15-H , 16-H ) :  -0.2049
B( 17-H , 18-C ) :   0.1696 B( 18-C , 19-H ) :   0.2259 B( 18-C , 20-H ) :   0.7180
B( 18-C , 21-H ) :   0.6720 B( 18-C , 22-C ) :   1.2036 B( 18-C , 23-H ) :   0.1112
B( 18-C , 24-H ) :   0.2872 B( 18-C , 25-C ) :   0.1661 B( 20-H , 22-C ) :   0.1707
B( 20-H , 27-H ) :  -0.1002 B( 21-H , 22-C ) :   0.1183 B( 22-C , 23-H ) :   0.6804
B( 22-C , 24-H ) :   0.5452 B( 22-C , 25-C ) :   1.2612 B( 22-C , 27-H ) :   0.1605
B( 22-C , 28-H ) :   0.1236 B( 23-H , 24-H ) :  -0.1310 B( 23-H , 25-C ) :   0.2100
B( 24-H , 25-C ) :   0.1511 B( 25-C , 26-F ) :   0.6552 B( 25-C , 27-H ) :   0.7938
B( 25-C , 28-H ) :   0.7261 B( 25-C , 30-H ) :   0.2565 B( 26-F , 27-H ) :  -0.1398
B( 26-F , 30-H ) :   0.5303 B( 29-H , 30-H ) :   0.1979 B( 29-H , 31-H ) :  -0.3162
B( 30-H , 31-H ) :   1.1243

Dispersion correction           -0.064249733
FINAL SINGLE POINT ENERGY      -492.944038872613

DIPOLE MOMENT
-------------
                                X             Y             Z
Electronic contribution:     -1.95138       3.27362       4.28786
Nuclear contribution   :      1.09293      -2.80761      -4.51228
                        -----------------------------------------
Total Dipole Moment    :     -0.85845       0.46601      -0.22442
                        -----------------------------------------
Magnitude (a.u.)       :      1.00223
Magnitude (Debye)      :      2.54746

Rotational constants in cm-1:     0.040502     0.027818     0.018259
Rotational constants in MHz :  1214.218058   833.972871   547.398614

                             ****ORCA TERMINATED NORMALLY****
TOTAL RUN TIME: 0 days 0 hours 0 minutes 34 seconds 109 msec
