                         Program Version 5.0.0 -  RELEASE  -
|  1> !PBE0 D3BJ RIJCOSX def2-TZVPD def2/J TightSCF
|  2> *xyz -1 1
|  3> C         -0.90349       -0.87394       -1.98739
|  4> C         -0.96015       -0.52236       -0.48987
|  5> H         -1.69039       -1.20813       -0.02168
|  6> H         -1.41449        0.48633       -0.40668
|  7> O          0.26170       -0.58031        0.13861
|  8> H         -1.88568       -0.80774       -2.40670
|  9> H         -0.53143       -1.87013       -2.10605
| 10> H         -0.25399       -0.18836       -2.49039
| 11> *
| 12>
| 13> %MaxCore 64000
| 14>
| 15> %pal nprocs 4
| 16> end
| 17>
| 18> %scf
| 19>   MaxIter 150
| 20> end
| 21>
| 22>
| 23>                          ****END OF INPUT****

CARTESIAN COORDINATES (ANGSTROEM)
---------------------------------
  C     -0.903490   -0.873940   -1.987390
  C     -0.960150   -0.522360   -0.489870
  H     -1.690390   -1.208130   -0.021680
  H     -1.414490    0.486330   -0.406680
  O      0.261700   -0.580310    0.138610
  H     -1.885680   -0.807740   -2.406700
  H     -0.531430   -1.870130   -2.106050
  H     -0.253990   -0.188360   -2.490390

 Total Charge           Charge          ....   -1
 Multiplicity           Mult            ....    1
 Number of Electrons    NEL             ....   26
 Basis Dimension        Dim             ....  159

ORBITAL ENERGIES
----------------

  NO   OCC          E(Eh)            E(eV)
   0   2.0000     -18.874144      -513.5916
   1   2.0000     -10.033257      -273.0188
   2   2.0000     -10.010602      -272.4023
   3   2.0000      -0.705199       -19.1894
   4   2.0000      -0.548752       -14.9323
   5   2.0000      -0.391161       -10.6440
   6   2.0000      -0.263830        -7.1792
   7   2.0000      -0.241329        -6.5669
   8   2.0000      -0.185529        -5.0485
   9   2.0000      -0.169145        -4.6027
  10   2.0000      -0.125613        -3.4181
  11   2.0000       0.017872         0.4863
  12   2.0000       0.020639         0.5616
  13   0.0000       0.160064         4.3556
  14   0.0000       0.183527         4.9940
  15   0.0000       0.210098         5.7171
  16   0.0000       0.212757         5.7894
  17   0.0000       0.233893         6.3646

MULLIKEN ATOMIC CHARGES
-----------------------
   0 C :   -0.709400
   1 C :   -0.126819
   2 H :    0.087137
   3 H :    0.087610
   4 O :   -0.903812
   5 H :    0.252208
   6 H :    0.156710
   7 H :    0.156366
Sum of atomic charges:   -1.0000000

LOEWDIN ATOMIC CHARGES
----------------------
   0 C :   -0.173414
   1 C :   -0.617506
   2 H :    0.053785
   3 H :    0.055084
   4 O :   -0.421022
   5 H :    0.026268
   6 H :    0.038425
   7 H :    0.038380

  Mayer bond orders larger than 0.100000
B(  0-C ,  1-C ) :   0.8887 B(  0-C ,  4-O ) :   0.3798 B(  0-C ,  5-H ) :   0.9850
B(  0-C ,  6-H ) :   1.0185 B(  0-C ,  7-H ) :   1.0187 B(  1-C ,  2-H ) :   1.0745
B(  1-C ,  3-H ) :   1.0720 B(  1-C ,  4-O ) :   0.9531

Dispersion correction           -0.003046785
FINAL SINGLE POINT ENERGY      -154.305741345786

DIPOLE MOMENT
-------------
                                X             Y             Z
Electronic contribution:      1.91134       0.18052       2.18859
Nuclear contribution   :     -2.90669      -0.27617      -3.31210
                        -----------------------------------------
Total Dipole Moment    :     -0.99535      -0.09565      -1.12351
                        -----------------------------------------
Magnitude (a.u.)       :      1.50404
Magnitude (Debye)      :      3.82298

Rotational constants in cm-1:     1.291883     0.321656     0.284469
Rotational constants in MHz : 38729.676116  9643.011620  8528.167295

                             ****ORCA TERMINATED NORMALLY****
TOTAL RUN TIME: 0 days 0 hours 0 minutes 18 seconds 796 msec
