                         Program Version 5.0.0 -  RELEASE  -
|  1> !PBE0 D3BJ RIJCOSX def2-TZVPD def2/J TightSCF
|  2> *xyz 1 1
|  3> C          4.36645       -0.13321       -1.41606
|  4> C          4.50829       -0.93187       -2.72425
|  5> C          3.05650       -0.32080       -0.70738
|  6> N          2.38983        0.71129       -0.24391
|  7> N          2.51600       -1.50772       -0.55023
|  8> H          2.96768       -2.32291       -0.95631
|  9> H          1.54987       -1.49063       -0.24988
| 10> H          2.74307        1.64947       -0.41280
| 11> H          1.44036        0.50278        0.03703
| 12> H          4.48784        0.93300       -1.61157
| 13> H          5.16967       -0.41443       -0.72982
| 14> H          5.46700       -0.73824       -3.15818
| 15> H          3.74074       -0.63528       -3.40821
| 16> H          4.41574       -1.97727       -2.51573
| 17> *
| 18>
| 19> %MaxCore 64000
| 20>
| 21> %pal nprocs 4
| 22> end
| 23>
| 24> %scf
| 25>   MaxIter 150
| 26> end
| 27>
| 28>
| 29>                          ****END OF INPUT****

CARTESIAN COORDINATES (ANGSTROEM)
---------------------------------
  C      4.366450   -0.133210   -1.416060
  C      4.508290   -0.931870   -2.724250
  C      3.056500   -0.320800   -0.707380
  N      2.389830    0.711290   -0.243910
  N      2.516000   -1.507720   -0.550230
  H      2.967680   -2.322910   -0.956310
  H      1.549870   -1.490630   -0.249880
  H      2.743070    1.649470   -0.412800
  H      1.440360    0.502780    0.037030
  H      4.487840    0.933000   -1.611570
  H      5.169670   -0.414430   -0.729820
  H      5.467000   -0.738240   -3.158180
  H      3.740740   -0.635280   -3.408210
  H      4.415740   -1.977270   -2.515730

 Total Charge           Charge          ....    1
 Multiplicity           Mult            ....    1
 Number of Electrons    NEL             ....   40
 Basis Dimension        Dim             ....  266

ORBITAL ENERGIES
----------------

  NO   OCC          E(Eh)            E(eV)
   0   2.0000     -14.629983      -398.1021
   1   2.0000     -14.628518      -398.0622
   2   2.0000     -10.542949      -286.8882
   3   2.0000     -10.423952      -283.6502
   4   2.0000     -10.378997      -282.4269
   5   2.0000      -1.240335       -33.7512
   6   2.0000      -1.132895       -30.8276
   7   2.0000      -0.994398       -27.0590
   8   2.0000      -0.881403       -23.9842
   9   2.0000      -0.837176       -22.7807
  10   2.0000      -0.785820       -21.3832
  11   2.0000      -0.772689       -21.0259
  12   2.0000      -0.718461       -19.5503
  13   2.0000      -0.675136       -18.3714
  14   2.0000      -0.642234       -17.4761
  15   2.0000      -0.616005       -16.7623
  16   2.0000      -0.568385       -15.4665
  17   2.0000      -0.554090       -15.0776
  18   2.0000      -0.539798       -14.6887
  19   2.0000      -0.506175       -13.7737
  20   0.0000      -0.209327        -5.6961
  21   0.0000      -0.163271        -4.4428
  22   0.0000      -0.120571        -3.2809
  23   0.0000      -0.117354        -3.1934
  24   0.0000      -0.087462        -2.3800

MULLIKEN ATOMIC CHARGES
-----------------------
   0 C :   -0.076960
   1 C :   -0.914192
   2 C :    0.463014
   3 N :   -0.195435
   4 N :   -0.199382
   5 H :    0.200657
   6 H :    0.181812
   7 H :    0.231787
   8 H :    0.175125
   9 H :    0.193060
  10 H :    0.198794
  11 H :    0.185618
  12 H :    0.256498
  13 H :    0.299601
Sum of atomic charges:    1.0000000

LOEWDIN ATOMIC CHARGES
----------------------
   0 C :   -0.137791
   1 C :   -0.056883
   2 C :   -0.360689
   3 N :    0.224618
   4 N :    0.229058
   5 H :    0.147119
   6 H :    0.146152
   7 H :    0.154200
   8 H :    0.144712
   9 H :    0.124782
  10 H :    0.142041
  11 H :    0.087995
  12 H :    0.086176
  13 H :    0.068510

  Mayer bond orders larger than 0.100000
B(  0-C ,  1-C ) :   0.8162 B(  0-C ,  2-C ) :   0.9237 B(  0-C ,  9-H ) :   0.9123
B(  0-C , 10-H ) :   0.9068 B(  1-C , 11-H ) :   1.0216 B(  1-C , 12-H ) :   0.9624
B(  1-C , 13-H ) :   0.9118 B(  2-C ,  3-N ) :   1.3229 B(  2-C ,  4-N ) :   1.2889
B(  3-N ,  4-N ) :   0.1039 B(  3-N ,  7-H ) :   0.9335 B(  3-N ,  8-H ) :   0.9979
B(  4-N ,  5-H ) :   0.9416 B(  4-N ,  6-H ) :   0.9960

Dispersion correction           -0.008492465
FINAL SINGLE POINT ENERGY      -228.848207936044

DIPOLE MOMENT
-------------
                                X             Y             Z
Electronic contribution:     -2.65511       0.62582       3.10533
Nuclear contribution   :      1.78847      -0.48174      -2.67127
                        -----------------------------------------
Total Dipole Moment    :     -0.86664       0.14408       0.43406
                        -----------------------------------------
Magnitude (a.u.)       :      0.97991
Magnitude (Debye)      :      2.49074

Rotational constants in cm-1:     0.286883     0.123210     0.094446
Rotational constants in MHz :  8600.540572  3693.747366  2831.415242

                             ****ORCA TERMINATED NORMALLY****
TOTAL RUN TIME: 0 days 0 hours 0 minutes 39 seconds 926 msec
