                         Program Version 5.0.0 -  RELEASE  -
|  1> !PBE0 D3BJ RIJCOSX def2-TZVPD def2/J TightSCF xyzfile
|  2>
|  3> *xyzfile 0 1 B.xyz
|  4>
|  5> %MaxCore 64000
|  6>
|  7> %pal nprocs 4
|  8> end
|  9>
| 10> %scf
| 11>   MaxIter 150
| 12> end
| 13>
| 14>
| 15>                          ****END OF INPUT****

CARTESIAN COORDINATES (ANGSTROEM)
---------------------------------
  C      4.366454   -0.133215   -1.416062
  C      4.508292   -0.931872   -2.724249
  H      4.753716   -1.972051   -2.488408
  C      3.294164   -0.918214   -3.656570
  H      5.385637   -0.536236   -3.242640
  H      2.483463   -1.477378   -3.185764
  H      3.553092   -1.478495   -4.560331
  C      2.772335    0.460100   -4.051448
  H      2.608762    1.065107   -3.155194
  C      1.465354    0.410537   -4.853644
  H      3.532940    0.988848   -4.635671
  C      0.326171   -0.375613   -4.192580
  H      1.666704   -0.022269   -5.839323
  H      1.138198    1.439246   -5.035449
  C     -0.017405    0.080588   -2.778406
  H      0.585573   -1.439385   -4.168057
  H     -0.560005   -0.311425   -4.831461
  H      0.902090    0.201296   -2.206729
  C     -0.903495   -0.873945   -1.987388
  H     -0.479549    1.074657   -2.811915
  H     -0.502554   -1.892096   -2.081204
  H     -1.917039   -0.895427   -2.406277
  C     -0.960148   -0.522365   -0.489867
  H     -1.690392   -1.208130   -0.021677
  H     -1.414490    0.486329   -0.406677
  O      0.261703   -0.580307    0.138611
  C      3.056503   -0.320797   -0.707384
  N      2.389825    0.711285   -0.243909
  N      2.515999   -1.507721   -0.550229
  H      2.967683   -2.322915   -0.956305
  H      1.549872   -1.490634   -0.249876
  H      2.743071    1.649471   -0.412802
  H      1.440364    0.502778    0.037031
  H      4.487835    0.932997   -1.611569
  H      5.169672   -0.414432   -0.729817

 Total Charge           Charge          ....    0
 Multiplicity           Mult            ....    1
 Number of Electrons    NEL             ....  104
 Basis Dimension        Dim             ....  682

ORBITAL ENERGIES
----------------

  NO   OCC          E(Eh)            E(eV)
   0   2.0000     -19.080333      -519.2023
   1   2.0000     -14.412182      -392.1754
   2   2.0000     -14.411690      -392.1620
   3   2.0000     -10.345057      -281.5033
   4   2.0000     -10.266830      -279.3746
   5   2.0000     -10.251786      -278.9653
   6   2.0000     -10.230296      -278.3805
   7   2.0000     -10.223925      -278.2072
   8   2.0000     -10.215297      -277.9724
   9   2.0000     -10.204536      -277.6795
  10   2.0000     -10.201291      -277.5912
  11   2.0000     -10.190870      -277.3077
  12   2.0000     -10.178091      -276.9599
  13   2.0000      -1.035485       -28.1770
  14   2.0000      -0.926753       -25.2182
  15   2.0000      -0.916917       -24.9506
  16   2.0000      -0.858572       -23.3629
  17   2.0000      -0.822083       -22.3700
  18   2.0000      -0.782100       -21.2820
  19   2.0000      -0.741786       -20.1850
  20   2.0000      -0.702927       -19.1276
  21   2.0000      -0.659327       -17.9412
  22   2.0000      -0.641845       -17.4655
  23   2.0000      -0.628344       -17.0981
  24   2.0000      -0.585569       -15.9341
  25   2.0000      -0.570064       -15.5122
  26   2.0000      -0.567021       -15.4294
  27   2.0000      -0.543358       -14.7855
  28   2.0000      -0.517184       -14.0733
  29   2.0000      -0.516667       -14.0592
  30   2.0000      -0.498008       -13.5515
  31   2.0000      -0.477215       -12.9857
  32   2.0000      -0.461520       -12.5586
  33   2.0000      -0.443232       -12.0610
  34   2.0000      -0.433153       -11.7867
  35   2.0000      -0.426619       -11.6089
  36   2.0000      -0.420424       -11.4403
  37   2.0000      -0.415543       -11.3075
  38   2.0000      -0.393113       -10.6971
  39   2.0000      -0.383824       -10.4444
  40   2.0000      -0.374364       -10.1870
  41   2.0000      -0.365394        -9.9429
  42   2.0000      -0.354694        -9.6517
  43   2.0000      -0.350588        -9.5400
  44   2.0000      -0.332261        -9.0413
  45   2.0000      -0.325113        -8.8468
  46   2.0000      -0.314622        -8.5613
  47   2.0000      -0.311504        -8.4765
  48   2.0000      -0.306882        -8.3507
  49   2.0000      -0.297247        -8.0885
  50   2.0000      -0.194752        -5.2995
  51   2.0000      -0.189722        -5.1626
  52   0.0000      -0.022867        -0.6223
  53   0.0000      -0.006936        -0.1888
  54   0.0000       0.005352         0.1456
  55   0.0000       0.019499         0.5306
  56   0.0000       0.026131         0.7111

MULLIKEN ATOMIC CHARGES
-----------------------
   0 C :   -0.155305
   1 C :   -0.453878
   2 H :    0.248822
   3 C :   -0.124570
   4 H :    0.101201
   5 H :    0.178969
   6 H :    0.125557
   7 C :   -0.399804
   8 H :    0.238597
   9 C :   -0.339918
  10 H :    0.118038
  11 C :   -0.301925
  12 H :    0.161124
  13 H :    0.159745
  14 C :    0.426509
  15 H :    0.180975
  16 H :    0.167513
  17 H :   -0.617384
  18 C :   -0.254600
  19 H :    0.271033
  20 H :    0.140184
  21 H :    0.171793
  22 C :   -0.366516
  23 H :    0.119819
  24 H :    0.176478
  25 O :   -1.028322
  26 C :   -0.158674
  27 N :   -0.060613
  28 N :   -0.036163
  29 H :    0.203357
  30 H :    0.290927
  31 H :    0.188457
  32 H :    0.310306
  33 H :    0.277099
  34 H :    0.041170
Sum of atomic charges:   -0.0000000

LOEWDIN ATOMIC CHARGES
----------------------
   0 C :   -0.115117
   1 C :   -0.192945
   2 H :    0.107971
   3 C :   -0.212394
   4 H :    0.114543
   5 H :    0.093443
   6 H :    0.122419
   7 C :   -0.214206
   8 H :    0.095545
   9 C :   -0.208117
  10 H :    0.116158
  11 C :   -0.221356
  12 H :    0.108757
  13 H :    0.110337
  14 C :   -0.224892
  15 H :    0.102824
  16 H :    0.112911
  17 H :    0.073511
  18 C :   -0.206201
  19 H :    0.125020
  20 H :    0.107430
  21 H :    0.108434
  22 C :   -0.398735
  23 H :    0.096160
  24 H :    0.100975
  25 O :   -0.330986
  26 C :   -0.396466
  27 N :    0.196507
  28 N :    0.212581
  29 H :    0.133804
  30 H :    0.055315
  31 H :    0.134551
  32 H :    0.049134
  33 H :    0.115080
  34 H :    0.128006

  Mayer bond orders larger than 0.100000
B(  0-C ,  1-C ) :   0.9519 B(  0-C ,  7-C ) :   0.1373 B(  0-C , 26-C ) :   1.0358
B(  0-C , 33-H ) :   0.8775 B(  0-C , 34-H ) :   0.9650 B(  1-C ,  2-H ) :   0.8885
B(  1-C ,  3-C ) :   1.0749 B(  1-C ,  4-H ) :   0.9036 B(  1-C ,  7-C ) :   0.2748
B(  1-C , 26-C ) :   0.2098 B(  3-C ,  5-H ) :   0.9908 B(  3-C ,  6-H ) :   0.8996
B(  3-C ,  7-C ) :   0.7755 B(  3-C ,  9-C ) :   0.1785 B(  3-C , 11-C ) :   0.2174
B(  7-C ,  8-H ) :   0.9722 B(  7-C ,  9-C ) :   1.0437 B(  7-C , 10-H ) :   0.9338
B(  9-C , 11-C ) :   0.9830 B(  9-C , 12-H ) :   0.9191 B(  9-C , 13-H ) :   0.9478
B(  9-C , 14-C ) :   0.2282 B( 11-C , 14-C ) :   0.6946 B( 11-C , 15-H ) :   0.8958
B( 11-C , 16-H ) :   0.9378 B( 11-C , 17-H ) :  -0.1564 B( 11-C , 18-C ) :   0.4082
B( 14-C , 17-H ) :   1.9421 B( 14-C , 18-C ) :   0.8223 B( 14-C , 19-H ) :   0.7464
B( 14-C , 22-C ) :   0.2944 B( 14-C , 25-O ) :   0.2156 B( 17-H , 18-C ) :   0.2256
B( 17-H , 25-O ) :  -0.1790 B( 18-C , 19-H ) :  -0.1092 B( 18-C , 20-H ) :   0.8622
B( 18-C , 21-H ) :   0.9750 B( 18-C , 22-C ) :   0.9251 B( 22-C , 23-H ) :   1.0050
B( 22-C , 24-H ) :   0.9743 B( 22-C , 25-O ) :   1.0398 B( 25-O , 26-C ) :  -0.1080
B( 25-O , 30-H ) :   0.2467 B( 25-O , 32-H ) :   0.1794 B( 26-C , 27-N ) :   1.6173
B( 26-C , 28-N ) :   1.4881 B( 27-N , 31-H ) :   0.9073 B( 27-N , 32-H ) :   0.7456
B( 28-N , 29-H ) :   0.8718 B( 28-N , 30-H ) :   0.7597

Dispersion correction           -0.034612361
FINAL SINGLE POINT ENERGY      -578.585904022914

DIPOLE MOMENT
-------------
                                X             Y             Z
Electronic contribution:      2.78304      -0.27067       7.55625
Nuclear contribution   :     -0.17996       0.53390      -8.68067
                        -----------------------------------------
Total Dipole Moment    :      2.60308       0.26323      -1.12442
                        -----------------------------------------
Magnitude (a.u.)       :      2.84774
Magnitude (Debye)      :      7.23838

Rotational constants in cm-1:     0.028240     0.022734     0.014600
Rotational constants in MHz :   846.611263   681.554306   437.693928

                             ****ORCA TERMINATED NORMALLY****
TOTAL RUN TIME: 0 days 0 hours 6 minutes 53 seconds 637 msec
