                         Program Version 5.0.0 -  RELEASE  -
|  1> !PBE0 D3BJ RIJCOSX def2-TZVPD def2/J TightSCF
|  2> *xyz 0 1
|  3> C         -0.90349       -0.87394       -1.98739
|  4> C         -0.96015       -0.52236       -0.48987
|  5> H         -1.69039       -1.20813       -0.02168
|  6> H         -1.41449        0.48633       -0.40668
|  7> F          0.26170       -0.58031        0.13861
|  8> H         -1.88568       -0.80774       -2.40670
|  9> H         -0.53143       -1.87013       -2.10605
| 10> H         -0.25399       -0.18836       -2.49039
| 11> *
| 12>
| 13> %MaxCore 64000
| 14>
| 15> %pal nprocs 4
| 16> end
| 17>
| 18> %scf
| 19>   MaxIter 150
| 20> end
| 21>
| 22>
| 23>                          ****END OF INPUT****

CARTESIAN COORDINATES (ANGSTROEM)
---------------------------------
  C     -0.903490   -0.873940   -1.987390
  C     -0.960150   -0.522360   -0.489870
  H     -1.690390   -1.208130   -0.021680
  H     -1.414490    0.486330   -0.406680
  F      0.261700   -0.580310    0.138610
  H     -1.885680   -0.807740   -2.406700
  H     -0.531430   -1.870130   -2.106050
  H     -0.253990   -0.188360   -2.490390

 Total Charge           Charge          ....    0
 Multiplicity           Mult            ....    1
 Number of Electrons    NEL             ....   26
 Basis Dimension        Dim             ....  159

ORBITAL ENERGIES
----------------

  NO   OCC          E(Eh)            E(eV)
   0   2.0000     -24.758388      -673.7100
   1   2.0000     -10.299023      -280.2507
   2   2.0000     -10.215286      -277.9721
   3   2.0000      -1.228854       -33.4388
   4   2.0000      -0.788193       -21.4478
   5   2.0000      -0.652072       -17.7438
   6   2.0000      -0.522974       -14.2308
   7   2.0000      -0.510682       -13.8964
   8   2.0000      -0.473347       -12.8804
   9   2.0000      -0.419992       -11.4286
  10   2.0000      -0.414823       -11.2879
  11   2.0000      -0.349915        -9.5217
  12   2.0000      -0.343982        -9.3602
  13   0.0000       0.016623         0.4523
  14   0.0000       0.043546         1.1850
  15   0.0000       0.061033         1.6608
  16   0.0000       0.064533         1.7560
  17   0.0000       0.090586         2.4650

MULLIKEN ATOMIC CHARGES
-----------------------
   0 C :   -0.618710
   1 C :    0.033062
   2 H :    0.130508
   3 H :    0.131062
   4 F :   -0.261803
   5 H :    0.227619
   6 H :    0.179215
   7 H :    0.179046
Sum of atomic charges:   -0.0000000

LOEWDIN ATOMIC CHARGES
----------------------
   0 C :   -0.084547
   1 C :   -0.284380
   2 H :    0.110268
   3 H :    0.112017
   4 F :   -0.050239
   5 H :    0.067534
   6 H :    0.064694
   7 H :    0.064654

  Mayer bond orders larger than 0.100000
B(  0-C ,  1-C ) :   0.9284 B(  0-C ,  5-H ) :   0.9541 B(  0-C ,  6-H ) :   0.9772
B(  0-C ,  7-H ) :   0.9772 B(  1-C ,  2-H ) :   0.9938 B(  1-C ,  3-H ) :   0.9919
B(  1-C ,  4-F ) :   0.8501

Dispersion correction           -0.002808289
FINAL SINGLE POINT ENERGY      -178.939401349920

DIPOLE MOMENT
-------------
                                X             Y             Z
Electronic contribution:      3.22894       0.37564       3.98459
Nuclear contribution   :     -3.84149      -0.36812      -4.38946
                        -----------------------------------------
Total Dipole Moment    :     -0.61255       0.00752      -0.40488
                        -----------------------------------------
Magnitude (a.u.)       :      0.73430
Magnitude (Debye)      :      1.86644

Rotational constants in cm-1:     1.270659     0.299196     0.265842
Rotational constants in MHz : 38093.410361  8969.665806  7969.741481

                             ****ORCA TERMINATED NORMALLY****
TOTAL RUN TIME: 0 days 0 hours 0 minutes 13 seconds 64 msec
