                         Program Version 5.0.0 -  RELEASE  -
|  1> !PBE0 D3BJ RIJCOSX def2-TZVPD def2/J TightSCF
|  2> *xyz 0 1
|  3> C          4.36645       -0.13321       -1.41606
|  4> C          4.50829       -0.93187       -2.72425
|  5> C          3.05650       -0.32080       -0.70738
|  6> C          2.38983        0.71129       -0.24391
|  7> N          2.51600       -1.50772       -0.55023
|  8> H          2.96768       -2.32291       -0.95631
|  9> H          1.54987       -1.49063       -0.24988
| 10> H          2.74307        1.64947       -0.41280
| 11> H          1.44036        0.50278        0.03703
| 12> H          4.48784        0.93300       -1.61157
| 13> H          5.16967       -0.41443       -0.72982
| 14> H          5.46700       -0.73824       -3.15818
| 15> H          3.74074       -0.63528       -3.40821
| 16> H          4.41574       -1.97727       -2.51573
| 17> *
| 18>
| 19> %MaxCore 64000
| 20>
| 21> %pal nprocs 4
| 22> end
| 23>
| 24> %scf
| 25>   MaxIter 150
| 26> end
| 27>
| 28>
| 29>                          ****END OF INPUT****

CARTESIAN COORDINATES (ANGSTROEM)
---------------------------------
  C      4.366450   -0.133210   -1.416060
  C      4.508290   -0.931870   -2.724250
  C      3.056500   -0.320800   -0.707380
  C      2.389830    0.711290   -0.243910
  N      2.516000   -1.507720   -0.550230
  H      2.967680   -2.322910   -0.956310
  H      1.549870   -1.490630   -0.249880
  H      2.743070    1.649470   -0.412800
  H      1.440360    0.502780    0.037030
  H      4.487840    0.933000   -1.611570
  H      5.169670   -0.414430   -0.729820
  H      5.467000   -0.738240   -3.158180
  H      3.740740   -0.635280   -3.408210
  H      4.415740   -1.977270   -2.515730

 Total Charge           Charge          ....    0
 Multiplicity           Mult            ....    1
 Number of Electrons    NEL             ....   40
 Basis Dimension        Dim             ....  266

ORBITAL ENERGIES
----------------

  NO   OCC          E(Eh)            E(eV)
   0   2.0000     -14.382534      -391.3686
   1   2.0000     -10.238696      -278.6091
   2   2.0000     -10.223013      -278.1823
   3   2.0000     -10.211371      -277.8655
   4   2.0000     -10.150270      -276.2029
   5   2.0000      -0.960420       -26.1344
   6   2.0000      -0.801700       -21.8154
   7   2.0000      -0.745091       -20.2750
   8   2.0000      -0.656126       -17.8541
   9   2.0000      -0.579595       -15.7716
  10   2.0000      -0.550087       -14.9686
  11   2.0000      -0.484818       -13.1926
  12   2.0000      -0.454511       -12.3679
  13   2.0000      -0.443843       -12.0776
  14   2.0000      -0.406688       -11.0665
  15   2.0000      -0.393556       -10.7092
  16   2.0000      -0.369847       -10.0640
  17   2.0000      -0.356258        -9.6943
  18   2.0000      -0.338016        -9.1979
  19   2.0000      -0.199763        -5.4358
  20   0.0000       0.008256         0.2247
  21   0.0000       0.032948         0.8966
  22   0.0000       0.039320         1.0700
  23   0.0000       0.047495         1.2924
  24   0.0000       0.059284         1.6132

MULLIKEN ATOMIC CHARGES
-----------------------
   0 C :   -0.001410
   1 C :   -0.853330
   2 C :    0.587754
   3 C :   -1.069308
   4 N :   -0.293350
   5 H :    0.148141
   6 H :    0.147041
   7 H :    0.207380
   8 H :    0.206194
   9 H :    0.136988
  10 H :    0.146742
  11 H :    0.179800
  12 H :    0.219543
  13 H :    0.237815
Sum of atomic charges:   -0.0000000

LOEWDIN ATOMIC CHARGES
----------------------
   0 C :   -0.191456
   1 C :   -0.095792
   2 C :   -0.503037
   3 C :    0.013538
   4 N :    0.098110
   5 H :    0.104635
   6 H :    0.111979
   7 H :    0.024382
   8 H :    0.022734
   9 H :    0.109100
  10 H :    0.114970
  11 H :    0.064633
  12 H :    0.073039
  13 H :    0.053166

  Mayer bond orders larger than 0.100000
B(  0-C ,  1-C ) :   0.7626 B(  0-C ,  2-C ) :   0.9689 B(  0-C ,  9-H ) :   0.9165
B(  0-C , 10-H ) :   0.9051 B(  1-C , 11-H ) :   1.0168 B(  1-C , 12-H ) :   1.0089
B(  1-C , 13-H ) :   0.9539 B(  2-C ,  3-C ) :   1.3281 B(  2-C ,  4-N ) :   1.1217
B(  2-C ,  8-H ) :  -0.1236 B(  3-C ,  7-H ) :   0.9825 B(  3-C ,  8-H ) :   1.0579
B(  4-N ,  5-H ) :   1.0049 B(  4-N ,  6-H ) :   0.9874

Dispersion correction           -0.008822803
FINAL SINGLE POINT ENERGY      -212.384925141854

DIPOLE MOMENT
-------------
                                X             Y             Z
Electronic contribution:     -1.48675      -0.43083       2.06700
Nuclear contribution   :      1.56827      -0.21459      -2.46657
                        -----------------------------------------
Total Dipole Moment    :      0.08151      -0.64542      -0.39957
                        -----------------------------------------
Magnitude (a.u.)       :      0.76346
Magnitude (Debye)      :      1.94055

Rotational constants in cm-1:     0.294070     0.127722     0.097792
Rotational constants in MHz :  8815.983970  3829.010547  2931.715816

                             ****ORCA TERMINATED NORMALLY****
TOTAL RUN TIME: 0 days 0 hours 0 minutes 39 seconds 418 msec
