                         Program Version 5.0.0 -  RELEASE  -
|  1> !PBE0 D3BJ RIJCOSX def2-TZVPD def2/J TightSCF
|  2> *xyz 0 1
|  3> C          4.36645       -0.13321       -1.41606
|  4> C          4.50829       -0.93187       -2.72425
|  5> C          3.05650       -0.32080       -0.70738
|  6> N          2.38983        0.71129       -0.24391
|  7> C          2.51600       -1.50772       -0.55023
|  8> H          2.96768       -2.32291       -0.95631
|  9> H          1.54987       -1.49063       -0.24988
| 10> H          2.74307        1.64947       -0.41280
| 11> H          1.44036        0.50278        0.03703
| 12> H          4.48784        0.93300       -1.61157
| 13> H          5.16967       -0.41443       -0.72982
| 14> H          5.46700       -0.73824       -3.15818
| 15> H          3.74074       -0.63528       -3.40821
| 16> H          4.41574       -1.97727       -2.51573
| 17> *
| 18>
| 19> %MaxCore 64000
| 20>
| 21> %pal nprocs 4
| 22> end
| 23>
| 24> %scf
| 25>   MaxIter 150
| 26> end
| 27>
| 28>
| 29>                          ****END OF INPUT****

CARTESIAN COORDINATES (ANGSTROEM)
---------------------------------
  C      4.366450   -0.133210   -1.416060
  C      4.508290   -0.931870   -2.724250
  C      3.056500   -0.320800   -0.707380
  N      2.389830    0.711290   -0.243910
  C      2.516000   -1.507720   -0.550230
  H      2.967680   -2.322910   -0.956310
  H      1.549870   -1.490630   -0.249880
  H      2.743070    1.649470   -0.412800
  H      1.440360    0.502780    0.037030
  H      4.487840    0.933000   -1.611570
  H      5.169670   -0.414430   -0.729820
  H      5.467000   -0.738240   -3.158180
  H      3.740740   -0.635280   -3.408210
  H      4.415740   -1.977270   -2.515730

 Total Charge           Charge          ....    0
 Multiplicity           Mult            ....    1
 Number of Electrons    NEL             ....   40
 Basis Dimension        Dim             ....  266

ORBITAL ENERGIES
----------------

  NO   OCC          E(Eh)            E(eV)
   0   2.0000     -14.383441      -391.3933
   1   2.0000     -10.238872      -278.6139
   2   2.0000     -10.224393      -278.2199
   3   2.0000     -10.205120      -277.6954
   4   2.0000     -10.148533      -276.1556
   5   2.0000      -0.960889       -26.1471
   6   2.0000      -0.803209       -21.8564
   7   2.0000      -0.734198       -19.9786
   8   2.0000      -0.665430       -18.1073
   9   2.0000      -0.570612       -15.5271
  10   2.0000      -0.547419       -14.8960
  11   2.0000      -0.493141       -13.4190
  12   2.0000      -0.464208       -12.6317
  13   2.0000      -0.420926       -11.4540
  14   2.0000      -0.403996       -10.9933
  15   2.0000      -0.393287       -10.7019
  16   2.0000      -0.370840       -10.0911
  17   2.0000      -0.353854        -9.6289
  18   2.0000      -0.339560        -9.2399
  19   2.0000      -0.198196        -5.3932
  20   0.0000       0.011297         0.3074
  21   0.0000       0.029498         0.8027
  22   0.0000       0.040530         1.1029
  23   0.0000       0.045658         1.2424
  24   0.0000       0.062774         1.7082

MULLIKEN ATOMIC CHARGES
-----------------------
   0 C :   -0.011750
   1 C :   -0.799143
   2 C :    0.578526
   3 N :   -0.278362
   4 C :   -1.084616
   5 H :    0.191285
   6 H :    0.197232
   7 H :    0.176625
   8 H :    0.139656
   9 H :    0.147131
  10 H :    0.135424
  11 H :    0.176403
  12 H :    0.214034
  13 H :    0.217553
Sum of atomic charges:   -0.0000000

LOEWDIN ATOMIC CHARGES
----------------------
   0 C :   -0.191349
   1 C :   -0.093442
   2 C :   -0.499622
   3 N :    0.092052
   4 C :    0.013467
   5 H :    0.021347
   6 H :    0.024359
   7 H :    0.108749
   8 H :    0.110413
   9 H :    0.101536
  10 H :    0.116979
  11 H :    0.062963
  12 H :    0.073292
  13 H :    0.059255

  Mayer bond orders larger than 0.100000
B(  0-C ,  1-C ) :   0.7631 B(  0-C ,  2-C ) :   0.7898 B(  0-C ,  9-H ) :   1.0156
B(  0-C , 10-H ) :   0.9297 B(  1-C ,  2-C ) :   0.1482 B(  1-C , 11-H ) :   1.0079
B(  1-C , 12-H ) :   0.9930 B(  1-C , 13-H ) :   0.9810 B(  2-C ,  3-N ) :   1.1756
B(  2-C ,  4-C ) :   1.2372 B(  2-C ,  6-H ) :  -0.1291 B(  3-N ,  4-C ) :   0.1271
B(  3-N ,  7-H ) :   1.0008 B(  3-N ,  8-H ) :   0.9867 B(  4-C ,  5-H ) :   1.0015
B(  4-C ,  6-H ) :   1.0733

Dispersion correction           -0.008849645
FINAL SINGLE POINT ENERGY      -212.383710324309

DIPOLE MOMENT
-------------
                                X             Y             Z
Electronic contribution:     -1.59937       1.45861       2.34433
Nuclear contribution   :      1.59749      -0.72853      -2.53752
                        -----------------------------------------
Total Dipole Moment    :     -0.00188       0.73008      -0.19319
                        -----------------------------------------
Magnitude (a.u.)       :      0.75521
Magnitude (Debye)      :      1.91960

Rotational constants in cm-1:     0.304597     0.124127     0.096828
Rotational constants in MHz :  9131.600925  3721.227051  2902.830760

                             ****ORCA TERMINATED NORMALLY****
TOTAL RUN TIME: 0 days 0 hours 0 minutes 38 seconds 967 msec
