                         Program Version 5.0.0 -  RELEASE  -
|  1> !PBE0 D3BJ RIJCOSX def2-TZVPD def2/J TightSCF xyzfile
|  2>
|  3> *xyzfile 0 1 D1.xyz
|  4>
|  5> %MaxCore 64000
|  6>
|  7> %pal nprocs 4
|  8> end
|  9>
| 10> %scf
| 11>   MaxIter 150
| 12> end
| 13>
| 14>
| 15>                          ****END OF INPUT****

CARTESIAN COORDINATES (ANGSTROEM)
---------------------------------
  C      4.366454   -0.133215   -1.416062
  C      4.508292   -0.931872   -2.724249
  H      4.753716   -1.972051   -2.488408
  C      3.294164   -0.918214   -3.656570
  H      5.385637   -0.536236   -3.242640
  H      2.483463   -1.477378   -3.185764
  H      3.553092   -1.478495   -4.560331
  C      2.772335    0.460100   -4.051448
  H      2.608762    1.065107   -3.155194
  C      1.465354    0.410537   -4.853644
  H      3.532940    0.988848   -4.635671
  C      0.326171   -0.375613   -4.192580
  H      1.666704   -0.022269   -5.839323
  H      1.138198    1.439246   -5.035449
  C     -0.017405    0.080588   -2.778406
  H      0.585573   -1.439385   -4.168057
  H     -0.560005   -0.311425   -4.831461
  H      0.902090    0.201296   -2.206729
  C     -0.903495   -0.873945   -1.987388
  H     -0.479549    1.074657   -2.811915
  H     -0.502554   -1.892096   -2.081204
  H     -1.917039   -0.895427   -2.406277
  C     -0.960148   -0.522365   -0.489867
  H     -1.690392   -1.208130   -0.021677
  H     -1.414490    0.486329   -0.406677
  F      0.261703   -0.580307    0.138611
  C      3.056503   -0.320797   -0.707384
  C      2.389825    0.711285   -0.243909
  N      2.515999   -1.507721   -0.550229
  H      2.967683   -2.322915   -0.956305
  H      1.549872   -1.490634   -0.249876
  H      2.743071    1.649471   -0.412802
  H      1.440364    0.502778    0.037031
  H      4.487835    0.932997   -1.611569
  H      5.169672   -0.414432   -0.729817

 Total Charge           Charge          ....    0
 Multiplicity           Mult            ....    1
 Number of Electrons    NEL             ....  104
 Basis Dimension        Dim             ....  682

ORBITAL ENERGIES
----------------

  NO   OCC          E(Eh)            E(eV)
   0   2.0000     -24.789859      -674.5664
   1   2.0000     -14.358794      -390.7227
   2   2.0000     -10.311606      -280.5931
   3   2.0000     -10.233412      -278.4653
   4   2.0000     -10.222503      -278.1685
   5   2.0000     -10.214681      -277.9556
   6   2.0000     -10.213956      -277.9359
   7   2.0000     -10.211692      -277.8743
   8   2.0000     -10.211378      -277.8657
   9   2.0000     -10.209751      -277.8215
  10   2.0000     -10.207405      -277.7576
  11   2.0000     -10.205265      -277.6994
  12   2.0000     -10.126126      -275.5459
  13   2.0000      -1.270280       -34.5661
  14   2.0000      -0.943517       -25.6744
  15   2.0000      -0.842620       -22.9288
  16   2.0000      -0.820442       -22.3254
  17   2.0000      -0.793633       -21.5959
  18   2.0000      -0.755976       -20.5711
  19   2.0000      -0.727947       -19.8084
  20   2.0000      -0.706332       -19.2203
  21   2.0000      -0.658243       -17.9117
  22   2.0000      -0.634730       -17.2719
  23   2.0000      -0.603820       -16.4308
  24   2.0000      -0.574305       -15.6276
  25   2.0000      -0.558737       -15.2040
  26   2.0000      -0.551323       -15.0023
  27   2.0000      -0.543749       -14.7962
  28   2.0000      -0.531086       -14.4516
  29   2.0000      -0.501001       -13.6329
  30   2.0000      -0.486135       -13.2284
  31   2.0000      -0.474265       -12.9054
  32   2.0000      -0.457317       -12.4442
  33   2.0000      -0.452049       -12.3009
  34   2.0000      -0.441710       -12.0195
  35   2.0000      -0.435541       -11.8517
  36   2.0000      -0.411260       -11.1910
  37   2.0000      -0.402936       -10.9644
  38   2.0000      -0.393266       -10.7013
  39   2.0000      -0.384789       -10.4706
  40   2.0000      -0.377916       -10.2836
  41   2.0000      -0.369099       -10.0437
  42   2.0000      -0.361006        -9.8235
  43   2.0000      -0.353866        -9.6292
  44   2.0000      -0.350461        -9.5365
  45   2.0000      -0.342069        -9.3082
  46   2.0000      -0.324913        -8.8413
  47   2.0000      -0.323397        -8.8001
  48   2.0000      -0.316006        -8.5990
  49   2.0000      -0.313018        -8.5177
  50   2.0000      -0.309796        -8.4300
  51   2.0000      -0.183105        -4.9825
  52   0.0000       0.008498         0.2312
  53   0.0000       0.016684         0.4540
  54   0.0000       0.022622         0.6156
  55   0.0000       0.026067         0.7093
  56   0.0000       0.040896         1.1128

MULLIKEN ATOMIC CHARGES
-----------------------
   0 C :   -0.175804
   1 C :   -0.441544
   2 H :    0.228908
   3 C :   -0.082274
   4 H :    0.086332
   5 H :    0.164410
   6 H :    0.097692
   7 C :   -0.414903
   8 H :    0.221825
   9 C :   -0.325452
  10 H :    0.122438
  11 C :   -0.389892
  12 H :    0.169047
  13 H :    0.165622
  14 C :    0.368751
  15 H :    0.224575
  16 H :    0.161310
  17 H :   -0.519522
  18 C :   -0.333085
  19 H :    0.224415
  20 H :    0.166248
  21 H :    0.182210
  22 C :   -0.145833
  23 H :    0.117335
  24 H :    0.209911
  25 F :   -0.405048
  26 C :    0.109688
  27 C :   -1.231758
  28 N :   -0.157871
  29 H :    0.186602
  30 H :    0.311622
  31 H :    0.221238
  32 H :    0.587139
  33 H :    0.233266
  34 H :    0.062404
Sum of atomic charges:    0.0000000

LOEWDIN ATOMIC CHARGES
----------------------
   0 C :   -0.143477
   1 C :   -0.200346
   2 H :    0.102936
   3 C :   -0.215207
   4 H :    0.108411
   5 H :    0.089593
   6 H :    0.117061
   7 C :   -0.210167
   8 H :    0.100530
   9 C :   -0.206977
  10 H :    0.116185
  11 C :   -0.218003
  12 H :    0.108822
  13 H :    0.109704
  14 C :   -0.217866
  15 H :    0.104559
  16 H :    0.111733
  17 H :    0.077414
  18 C :   -0.181289
  19 H :    0.128263
  20 H :    0.115863
  21 H :    0.120900
  22 C :   -0.187991
  23 H :    0.121015
  24 H :    0.129797
  25 F :   -0.087715
  26 C :   -0.489439
  27 C :    0.014986
  28 N :    0.120931
  29 H :    0.114370
  30 H :    0.076783
  31 H :    0.035802
  32 H :    0.003665
  33 H :    0.111835
  34 H :    0.117320

  Mayer bond orders larger than 0.100000
B(  0-C ,  1-C ) :   0.9735 B(  0-C ,  7-C ) :   0.1648 B(  0-C , 26-C ) :   1.0378
B(  0-C , 33-H ) :   0.8654 B(  0-C , 34-H ) :   0.9479 B(  1-C ,  2-H ) :   0.8900
B(  1-C ,  3-C ) :   1.0704 B(  1-C ,  4-H ) :   0.9087 B(  1-C ,  7-C ) :   0.2973
B(  1-C , 26-C ) :   0.1605 B(  3-C ,  5-H ) :   0.9768 B(  3-C ,  6-H ) :   0.9084
B(  3-C ,  7-C ) :   0.7626 B(  3-C ,  9-C ) :   0.1730 B(  3-C , 11-C ) :   0.2468
B(  7-C ,  8-H ) :   1.0453 B(  7-C ,  9-C ) :   0.9892 B(  7-C , 10-H ) :   0.8935
B(  9-C , 11-C ) :   1.0418 B(  9-C , 12-H ) :   0.9151 B(  9-C , 13-H ) :   0.9380
B(  9-C , 14-C ) :   0.2145 B( 11-C , 14-C ) :   0.6749 B( 11-C , 15-H ) :   0.8794
B( 11-C , 16-H ) :   0.9360 B( 11-C , 18-C ) :   0.4295 B( 14-C , 17-H ) :   1.8578
B( 14-C , 18-C ) :   0.7830 B( 14-C , 19-H ) :   0.7042 B( 14-C , 22-C ) :   0.3035
B( 14-C , 26-C ) :  -0.1746 B( 14-C , 27-C ) :   0.2178 B( 17-H , 18-C ) :   0.1447
B( 17-H , 19-H ) :   0.1902 B( 18-C , 19-H ) :  -0.1210 B( 18-C , 20-H ) :   0.8667
B( 18-C , 21-H ) :   0.9521 B( 18-C , 22-C ) :   0.9858 B( 22-C , 23-H ) :   0.9867
B( 22-C , 24-H ) :   0.9278 B( 22-C , 25-F ) :   0.8463 B( 26-C , 27-C ) :   1.8527
B( 26-C , 28-N ) :   1.0863 B( 27-C , 31-H ) :   0.9368 B( 27-C , 32-H ) :   0.7569
B( 28-N , 29-H ) :   0.8660 B( 28-N , 30-H ) :   0.8388

Dispersion correction           -0.034583891
FINAL SINGLE POINT ENERGY      -586.512728022247

DIPOLE MOMENT
-------------
                                X             Y             Z
Electronic contribution:     -2.68582      -1.60046      10.45524
Nuclear contribution   :      1.82572       1.04089     -11.09065
                        -----------------------------------------
Total Dipole Moment    :     -0.86011      -0.55956      -0.63540
                        -----------------------------------------
Magnitude (a.u.)       :      1.20691
Magnitude (Debye)      :      3.06772

Rotational constants in cm-1:     0.028436     0.022359     0.014416
Rotational constants in MHz :   852.496561   670.291843   432.183951

                             ****ORCA TERMINATED NORMALLY****
TOTAL RUN TIME: 0 days 0 hours 6 minutes 30 seconds 413 msec
