                         Program Version 5.0.0 -  RELEASE  -
|  1> !PBE0 D3BJ RIJCOSX def2-TZVPD def2/J TightSCF xyzfile
|  2>
|  3> *xyzfile 0 1 D2.xyz
|  4>
|  5> %MaxCore 64000
|  6>
|  7> %pal nprocs 4
|  8> end
|  9>
| 10> %scf
| 11>   MaxIter 150
| 12> end
| 13>
| 14>
| 15>                          ****END OF INPUT****

CARTESIAN COORDINATES (ANGSTROEM)
---------------------------------
  C      4.366454   -0.133215   -1.416062
  C      4.508292   -0.931872   -2.724249
  H      4.753716   -1.972051   -2.488408
  C      3.294164   -0.918214   -3.656570
  H      5.385637   -0.536236   -3.242640
  H      2.483463   -1.477378   -3.185764
  H      3.553092   -1.478495   -4.560331
  C      2.772335    0.460100   -4.051448
  H      2.608762    1.065107   -3.155194
  C      1.465354    0.410537   -4.853644
  H      3.532940    0.988848   -4.635671
  C      0.326171   -0.375613   -4.192580
  H      1.666704   -0.022269   -5.839323
  H      1.138198    1.439246   -5.035449
  C     -0.017405    0.080588   -2.778406
  H      0.585573   -1.439385   -4.168057
  H     -0.560005   -0.311425   -4.831461
  H      0.902090    0.201296   -2.206729
  C     -0.903495   -0.873945   -1.987388
  H     -0.479549    1.074657   -2.811915
  H     -0.502554   -1.892096   -2.081204
  H     -1.917039   -0.895427   -2.406277
  C     -0.960148   -0.522365   -0.489867
  H     -1.690392   -1.208130   -0.021677
  H     -1.414490    0.486329   -0.406677
  F      0.261703   -0.580307    0.138611
  C      3.056503   -0.320797   -0.707384
  N      2.389825    0.711285   -0.243909
  C      2.515999   -1.507721   -0.550229
  H      2.967683   -2.322915   -0.956305
  H      1.549872   -1.490634   -0.249876
  H      2.743071    1.649471   -0.412802
  H      1.440364    0.502778    0.037031
  H      4.487835    0.932997   -1.611569
  H      5.169672   -0.414432   -0.729817

 Total Charge           Charge          ....    0
 Multiplicity           Mult            ....    1
 Number of Electrons    NEL             ....  104
 Basis Dimension        Dim             ....  682

ORBITAL ENERGIES
----------------

  NO   OCC          E(Eh)            E(eV)
   0   2.0000     -24.790059      -674.5718
   1   2.0000     -14.358931      -390.7264
   2   2.0000     -10.311886      -280.6007
   3   2.0000     -10.231848      -278.4227
   4   2.0000     -10.221894      -278.1519
   5   2.0000     -10.214000      -277.9371
   6   2.0000     -10.213718      -277.9294
   7   2.0000     -10.212218      -277.8886
   8   2.0000     -10.211203      -277.8610
   9   2.0000     -10.210157      -277.8325
  10   2.0000     -10.207035      -277.7475
  11   2.0000     -10.201287      -277.5911
  12   2.0000     -10.124181      -275.4930
  13   2.0000      -1.270427       -34.5701
  14   2.0000      -0.943537       -25.6750
  15   2.0000      -0.842471       -22.9248
  16   2.0000      -0.819909       -22.3108
  17   2.0000      -0.794385       -21.6163
  18   2.0000      -0.752279       -20.4706
  19   2.0000      -0.721039       -19.6205
  20   2.0000      -0.707784       -19.2598
  21   2.0000      -0.661690       -18.0055
  22   2.0000      -0.636263       -17.3136
  23   2.0000      -0.605044       -16.4641
  24   2.0000      -0.571541       -15.5524
  25   2.0000      -0.561666       -15.2837
  26   2.0000      -0.548273       -14.9193
  27   2.0000      -0.539220       -14.6729
  28   2.0000      -0.526069       -14.3151
  29   2.0000      -0.499295       -13.5865
  30   2.0000      -0.490098       -13.3362
  31   2.0000      -0.475725       -12.9451
  32   2.0000      -0.463792       -12.6204
  33   2.0000      -0.449729       -12.2378
  34   2.0000      -0.442060       -12.0291
  35   2.0000      -0.427574       -11.6349
  36   2.0000      -0.410981       -11.1834
  37   2.0000      -0.402004       -10.9391
  38   2.0000      -0.393126       -10.6975
  39   2.0000      -0.379966       -10.3394
  40   2.0000      -0.376217       -10.2374
  41   2.0000      -0.370766       -10.0891
  42   2.0000      -0.362845        -9.8735
  43   2.0000      -0.359346        -9.7783
  44   2.0000      -0.344065        -9.3625
  45   2.0000      -0.338282        -9.2051
  46   2.0000      -0.326713        -8.8903
  47   2.0000      -0.319643        -8.6979
  48   2.0000      -0.318184        -8.6582
  49   2.0000      -0.311863        -8.4862
  50   2.0000      -0.309338        -8.4175
  51   2.0000      -0.181326        -4.9341
  52   0.0000       0.009648         0.2625
  53   0.0000       0.017777         0.4837
  54   0.0000       0.022077         0.6007
  55   0.0000       0.026409         0.7186
  56   0.0000       0.037697         1.0258

MULLIKEN ATOMIC CHARGES
-----------------------
   0 C :   -0.254900
   1 C :   -0.355277
   2 H :    0.231318
   3 C :   -0.090484
   4 H :    0.108867
   5 H :    0.113557
   6 H :    0.132700
   7 C :   -0.400342
   8 H :    0.230564
   9 C :   -0.368935
  10 H :    0.116329
  11 C :   -0.395560
  12 H :    0.160938
  13 H :    0.153015
  14 C :    0.489774
  15 H :    0.243276
  16 H :    0.166757
  17 H :   -0.587907
  18 C :   -0.326865
  19 H :    0.238706
  20 H :    0.203313
  21 H :    0.183569
  22 C :   -0.160408
  23 H :    0.119026
  24 H :    0.207063
  25 F :   -0.418504
  26 C :   -0.017637
  27 N :   -0.192072
  28 C :   -1.224583
  29 H :    0.280364
  30 H :    0.646491
  31 H :    0.179583
  32 H :    0.315145
  33 H :    0.253124
  34 H :    0.019993
Sum of atomic charges:   -0.0000000

LOEWDIN ATOMIC CHARGES
----------------------
   0 C :   -0.143383
   1 C :   -0.196184
   2 H :    0.108146
   3 C :   -0.214795
   4 H :    0.107626
   5 H :    0.090006
   6 H :    0.117661
   7 C :   -0.212323
   8 H :    0.096928
   9 C :   -0.207434
  10 H :    0.115555
  11 C :   -0.216081
  12 H :    0.109546
  13 H :    0.108707
  14 C :   -0.220241
  15 H :    0.106992
  16 H :    0.112094
  17 H :    0.078563
  18 C :   -0.179319
  19 H :    0.125870
  20 H :    0.119429
  21 H :    0.121252
  22 C :   -0.188100
  23 H :    0.122476
  24 H :    0.126778
  25 F :   -0.087006
  26 C :   -0.487597
  27 N :    0.104956
  28 C :    0.024390
  29 H :    0.037860
  30 H :    0.007445
  31 H :    0.113681
  32 H :    0.072191
  33 H :    0.104901
  34 H :    0.119411

  Mayer bond orders larger than 0.100000
B(  0-C ,  1-C ) :   0.9624 B(  0-C ,  7-C ) :   0.1740 B(  0-C , 26-C ) :   0.9906
B(  0-C , 28-C ) :  -0.1371 B(  0-C , 33-H ) :   0.8943 B(  0-C , 34-H ) :   0.9888
B(  1-C ,  2-H ) :   0.8437 B(  1-C ,  3-C ) :   1.1719 B(  1-C ,  4-H ) :   0.9149
B(  1-C ,  5-H ) :   0.1471 B(  1-C ,  7-C ) :   0.2513 B(  1-C , 28-C ) :   0.1964
B(  3-C ,  5-H ) :   0.9907 B(  3-C ,  6-H ) :   0.8691 B(  3-C ,  7-C ) :   0.7764
B(  3-C ,  9-C ) :   0.1681 B(  3-C , 11-C ) :   0.2361 B(  3-C , 26-C ) :   0.1804
B(  3-C , 28-C ) :  -0.1383 B(  7-C ,  8-H ) :   0.9752 B(  7-C ,  9-C ) :   1.0238
B(  7-C , 10-H ) :   0.9393 B(  9-C , 11-C ) :   1.0050 B(  9-C , 12-H ) :   0.9286
B(  9-C , 13-H ) :   0.9479 B(  9-C , 14-C ) :   0.2313 B( 11-C , 14-C ) :   0.6507
B( 11-C , 15-H ) :   0.8767 B( 11-C , 16-H ) :   0.9363 B( 11-C , 18-C ) :   0.4404
B( 14-C , 17-H ) :   1.7026 B( 14-C , 18-C ) :   0.8191 B( 14-C , 19-H ) :   0.7186
B( 14-C , 22-C ) :   0.2872 B( 14-C , 27-N ) :  -0.1719 B( 17-H , 18-C ) :   0.1033
B( 17-H , 19-H ) :   0.1490 B( 18-C , 19-H ) :  -0.1147 B( 18-C , 20-H ) :   0.8437
B( 18-C , 21-H ) :   0.9657 B( 18-C , 22-C ) :   0.9544 B( 22-C , 23-H ) :   0.9794
B( 22-C , 24-H ) :   0.9244 B( 22-C , 25-F ) :   0.8764 B( 26-C , 27-N ) :   1.2337
B( 26-C , 28-C ) :   1.7228 B( 27-N , 31-H ) :   0.8927 B( 27-N , 32-H ) :   0.8306
B( 28-C , 29-H ) :   0.9554 B( 28-C , 30-H ) :   0.6638

Dispersion correction           -0.034623063
FINAL SINGLE POINT ENERGY      -586.511799613667

DIPOLE MOMENT
-------------
                                X             Y             Z
Electronic contribution:     -2.78407       0.00726      10.68368
Nuclear contribution   :      1.85154       0.58682     -11.15333
                        -----------------------------------------
Total Dipole Moment    :     -0.93254       0.59409      -0.46964
                        -----------------------------------------
Magnitude (a.u.)       :      1.20130
Magnitude (Debye)      :      3.05347

Rotational constants in cm-1:     0.028379     0.022321     0.014415
Rotational constants in MHz :   850.785777   669.176075   432.155504

                             ****ORCA TERMINATED NORMALLY****
TOTAL RUN TIME: 0 days 0 hours 6 minutes 34 seconds 219 msec
