                         Program Version 5.0.0 -  RELEASE  -
|  1> !PBE0 D3BJ RIJCOSX def2-SVPD def2/J TightSCF
|  2> *xyz -1 1
|  3> C          2.49556        1.81615       -2.13636
|  4> C          1.87218        0.42790       -2.07750
|  5> H          2.61427       -0.36583       -2.19889
|  6> H          1.38995        0.27309       -1.11236
|  7> S          0.57902        0.14047       -3.29794
|  8> O          0.22886       -1.24687       -3.12787
|  9> O         -0.43927        1.11897       -3.01455
| 10> O          1.24788        0.40347       -4.59565
| 11> H          2.96535        1.95613       -3.08747
| 12> H          3.22581        1.91242       -1.36024
| 13> H          1.73350        2.55528       -2.00274
| 14> *
| 15>
| 16> %MaxCore 64000
| 17>
| 18> %pal nprocs 4
| 19> end
| 20>
| 21> %scf
| 22>   MaxIter 150
| 23> end
| 24>
| 25>
| 26>                          ****END OF INPUT****

CARTESIAN COORDINATES (ANGSTROEM)
---------------------------------
  C      2.495560    1.816150   -2.136360
  C      1.872180    0.427900   -2.077500
  H      2.614270   -0.365830   -2.198890
  H      1.389950    0.273090   -1.112360
  S      0.579020    0.140470   -3.297940
  O      0.228860   -1.246870   -3.127870
  O     -0.439270    1.118970   -3.014550
  O      1.247880    0.403470   -4.595650
  H      2.965350    1.956130   -3.087470
  H      3.225810    1.912420   -1.360240
  H      1.733500    2.555280   -2.002740

 Total Charge           Charge          ....   -1
 Multiplicity           Mult            ....    1
 Number of Electrons    NEL             ....   58
 Basis Dimension        Dim             ....  176

ORBITAL ENERGIES
----------------

  NO   OCC          E(Eh)            E(eV)
   0   2.0000     -89.036224     -2422.7988
   1   2.0000     -18.999283      -516.9968
   2   2.0000     -18.999105      -516.9919
   3   2.0000     -18.984835      -516.6036
   4   2.0000     -10.093805      -274.6664
   5   2.0000     -10.087268      -274.4885
   6   2.0000      -7.995932      -217.5804
   7   2.0000      -5.938201      -161.5867
   8   2.0000      -5.938008      -161.5814
   9   2.0000      -5.937600      -161.5703
  10   2.0000      -0.960632       -26.1401
  11   2.0000      -0.822860       -22.3912
  12   2.0000      -0.795408       -21.6442
  13   2.0000      -0.649317       -17.6688
  14   2.0000      -0.520685       -14.1686
  15   2.0000      -0.397696       -10.8219
  16   2.0000      -0.334397        -9.0994
  17   2.0000      -0.331245        -9.0136
  18   2.0000      -0.294059        -8.0018
  19   2.0000      -0.282196        -7.6789
  20   2.0000      -0.271620        -7.3912
  21   2.0000      -0.244978        -6.6662
  22   2.0000      -0.224703        -6.1145
  23   2.0000      -0.168586        -4.5874
  24   2.0000      -0.167473        -4.5572
  25   2.0000      -0.133206        -3.6247
  26   2.0000      -0.122084        -3.3221
  27   2.0000      -0.112779        -3.0689
  28   2.0000      -0.079665        -2.1678
  29   0.0000       0.150118         4.0849
  30   0.0000       0.175756         4.7826
  31   0.0000       0.183598         4.9960
  32   0.0000       0.188750         5.1361
  33   0.0000       0.210367         5.7244

MULLIKEN ATOMIC CHARGES
-----------------------
   0 C :    0.585125
   1 C :   -0.482391
   2 H :   -0.010912
   3 H :    0.027603
   4 S :    1.446460
   5 O :   -0.829243
   6 O :   -0.826135
   7 O :   -0.867292
   8 H :   -0.001553
   9 H :   -0.044660
  10 H :    0.003000
Sum of atomic charges:   -1.0000000

LOEWDIN ATOMIC CHARGES
----------------------
   0 C :    0.095159
   1 C :   -0.143535
   2 H :    0.006635
   3 H :    0.001758
   4 S :    0.861918
   5 O :   -0.578669
   6 O :   -0.575642
   7 O :   -0.598070
   8 H :   -0.019357
   9 H :   -0.032846
  10 H :   -0.017350

  Mayer bond orders larger than 0.100000
B(  0-C ,  1-C ) :   1.2826 B(  0-C ,  8-H ) :   0.8573 B(  0-C ,  9-H ) :   0.7859
B(  0-C , 10-H ) :   0.8403 B(  1-C ,  2-H ) :   1.0244 B(  1-C ,  3-H ) :   0.9863
B(  1-C ,  4-S ) :   0.9354 B(  1-C ,  8-H ) :   0.1726 B(  1-C ,  9-H ) :   0.1826
B(  1-C , 10-H ) :   0.1802 B(  4-S ,  5-O ) :   1.3068 B(  4-S ,  6-O ) :   1.2751
B(  4-S ,  7-O ) :   1.2489

Dispersion correction           -0.008288434
FINAL SINGLE POINT ENERGY      -702.320218282616

DIPOLE MOMENT
-------------
                                X             Y             Z
Electronic contribution:     -5.64494      -3.57517      -4.04769
Nuclear contribution   :      6.89220       4.11756       5.35566
                        -----------------------------------------
Total Dipole Moment    :      1.24726       0.54239       1.30797
                        -----------------------------------------
Magnitude (a.u.)       :      1.88696
Magnitude (Debye)      :      4.79628

Rotational constants in cm-1:     0.162183     0.084017     0.082390
Rotational constants in MHz :  4862.117324  2518.774315  2469.980309

                             ****ORCA TERMINATED NORMALLY****
TOTAL RUN TIME: 0 days 0 hours 0 minutes 15 seconds 947 msec
