                         Program Version 5.0.0 -  RELEASE  -
|  1> !PBE0 D3BJ RIJCOSX def2-SVPD def2/J TightSCF
|  2> *xyz 1 1
|  3> C          3.38093        2.08304       -3.35013
|  4> N          4.53592        1.18245       -3.42852
|  5> C          2.49556        1.81615       -2.13636
|  6> C          4.67196        0.12227       -4.22060
|  7> N          5.86602       -0.50785       -4.22428
|  8> N          3.69888       -0.31284       -4.98699
|  9> H          2.73141       -0.05009       -4.84900
| 10> H          3.89005       -1.05517       -5.64373
| 11> H          5.25193        1.30346       -2.72101
| 12> H          6.69516       -0.06232       -3.85160
| 13> H          5.97538       -1.39688       -4.69141
| 14> H          2.80646        1.98651       -4.26848
| 15> H          3.77871        3.09828       -3.30738
| 16> H          2.11090        0.81901       -2.18783
| 17> H          1.68276        2.51198       -2.12786
| 18> H          3.07216        1.93031       -1.24227
| 19> *
| 20>
| 21> %MaxCore 64000
| 22>
| 23> %pal nprocs 4
| 24> end
| 25>
| 26> %scf
| 27>   MaxIter 150
| 28> end
| 29>
| 30>
| 31>                          ****END OF INPUT****

CARTESIAN COORDINATES (ANGSTROEM)
---------------------------------
  C      3.380930    2.083040   -3.350130
  N      4.535920    1.182450   -3.428520
  C      2.495560    1.816150   -2.136360
  C      4.671960    0.122270   -4.220600
  N      5.866020   -0.507850   -4.224280
  N      3.698880   -0.312840   -4.986990
  H      2.731410   -0.050090   -4.849000
  H      3.890050   -1.055170   -5.643730
  H      5.251930    1.303460   -2.721010
  H      6.695160   -0.062320   -3.851600
  H      5.975380   -1.396880   -4.691410
  H      2.806460    1.986510   -4.268480
  H      3.778710    3.098280   -3.307380
  H      2.110900    0.819010   -2.187830
  H      1.682760    2.511980   -2.127860
  H      3.072160    1.930310   -1.242270

 Total Charge           Charge          ....    1
 Multiplicity           Mult            ....    1
 Number of Electrons    NEL             ....   48
 Basis Dimension        Dim             ....  200

ORBITAL ENERGIES
----------------

  NO   OCC          E(Eh)            E(eV)
   0   2.0000     -14.622875      -397.9086
   1   2.0000     -14.619953      -397.8291
   2   2.0000     -14.615099      -397.6971
   3   2.0000     -10.568115      -287.5730
   4   2.0000     -10.439541      -284.0743
   5   2.0000     -10.368058      -282.1292
   6   2.0000      -1.233691       -33.5704
   7   2.0000      -1.122488       -30.5445
   8   2.0000      -1.106661       -30.1138
   9   2.0000      -0.947546       -25.7840
  10   2.0000      -0.857933       -23.3455
  11   2.0000      -0.819071       -22.2880
  12   2.0000      -0.804464       -21.8906
  13   2.0000      -0.758485       -20.6394
  14   2.0000      -0.712337       -19.3837
  15   2.0000      -0.708691       -19.2845
  16   2.0000      -0.658177       -17.9099
  17   2.0000      -0.646605       -17.5950
  18   2.0000      -0.617533       -16.8039
  19   2.0000      -0.572481       -15.5780
  20   2.0000      -0.542734       -14.7685
  21   2.0000      -0.525963       -14.3122
  22   2.0000      -0.491575       -13.3764
  23   2.0000      -0.460060       -12.5189
  24   0.0000      -0.163728        -4.4553
  25   0.0000      -0.144206        -3.9241
  26   0.0000      -0.111650        -3.0382
  27   0.0000      -0.103035        -2.8037
  28   0.0000      -0.082987        -2.2582

MULLIKEN ATOMIC CHARGES
-----------------------
   0 C :    0.276912
   1 N :   -0.582948
   2 C :    0.492606
   3 C :    1.738779
   4 N :   -0.229502
   5 N :   -0.170957
   6 H :   -0.039022
   7 H :   -0.052727
   8 H :   -0.244929
   9 H :   -0.044539
  10 H :   -0.001771
  11 H :   -0.063635
  12 H :   -0.138078
  13 H :   -0.032152
  14 H :    0.084481
  15 H :    0.007482
Sum of atomic charges:    1.0000000

LOEWDIN ATOMIC CHARGES
----------------------
   0 C :    0.044899
   1 N :    0.033103
   2 C :    0.153911
   3 C :   -0.025201
   4 N :    0.253017
   5 N :    0.273161
   6 H :    0.034879
   7 H :    0.043472
   8 H :    0.061426
   9 H :    0.037531
  10 H :    0.034338
  11 H :    0.023305
  12 H :    0.042555
  13 H :   -0.011120
  14 H :    0.005100
  15 H :   -0.004376

  Mayer bond orders larger than 0.100000
B(  0-C ,  1-N ) :   0.8260 B(  0-C ,  2-C ) :   1.2749 B(  0-C ,  8-H ) :  -0.2051
B(  0-C , 11-H ) :   0.8972 B(  0-C , 12-H ) :   0.9365 B(  0-C , 13-H ) :   0.1749
B(  0-C , 14-H ) :   0.1466 B(  0-C , 15-H ) :   0.1817 B(  1-N ,  3-C ) :   0.8803
B(  1-N ,  4-N ) :   0.2702 B(  1-N ,  5-N ) :   0.2609 B(  1-N ,  8-H ) :   1.3878
B(  1-N , 11-H ) :   0.1412 B(  1-N , 12-H ) :   0.1540 B(  2-C , 13-H ) :   0.8600
B(  2-C , 14-H ) :   0.8160 B(  2-C , 15-H ) :   0.8381 B(  3-C ,  4-N ) :   0.6779
B(  3-C ,  5-N ) :   0.8258 B(  3-C ,  6-H ) :  -0.1709 B(  3-C ,  7-H ) :  -0.1542
B(  3-C ,  8-H ) :  -0.2614 B(  3-C ,  9-H ) :  -0.1775 B(  3-C , 10-H ) :  -0.1068
B(  4-N ,  5-N ) :   0.1971 B(  4-N ,  9-H ) :   1.2052 B(  4-N , 10-H ) :   1.1718
B(  5-N ,  6-H ) :   1.1719 B(  5-N ,  7-H ) :   1.2359 B(  6-H ,  7-H ) :  -0.1836
B(  9-H , 10-H ) :  -0.1621

Dispersion correction           -0.010226723
FINAL SINGLE POINT ENERGY      -283.894427321056

DIPOLE MOMENT
-------------
                                X             Y             Z
Electronic contribution:      3.56391      -2.65335      -2.82157
Nuclear contribution   :     -2.93277       1.85779       2.25966
                        -----------------------------------------
Total Dipole Moment    :      0.63115      -0.79555      -0.56191
                        -----------------------------------------
Magnitude (a.u.)       :      1.16060
Magnitude (Debye)      :      2.95001

Rotational constants in cm-1:     0.245511     0.068839     0.059711
Rotational constants in MHz :  7360.233487  2063.743353  1790.088408

                             ****ORCA TERMINATED NORMALLY****
TOTAL RUN TIME: 0 days 0 hours 0 minutes 18 seconds 681 msec
