                         Program Version 5.0.0 -  RELEASE  -
|  1> !PBE0 D3BJ RIJCOSX def2-SVPD def2/J TightSCF xyzfile
|  2>
|  3> *xyzfile 0 1 B.xyz
|  4>
|  5> %MaxCore 64000
|  6>
|  7> %pal nprocs 4
|  8> end
|  9>
| 10> %scf
| 11>   MaxIter 150
| 12> end
| 13>
| 14>
| 15>                          ****END OF INPUT****

CARTESIAN COORDINATES (ANGSTROEM)
---------------------------------
  C      3.380928    2.083045   -3.350127
  N      4.535924    1.182447   -3.428518
  C      2.495557    1.816150   -2.136364
  C      1.872181    0.427903   -2.077497
  H      2.614270   -0.365825   -2.198894
  H      1.389953    0.273087   -1.112360
  S      0.579024    0.140472   -3.297943
  C      4.671956    0.122273   -4.220598
  N      5.866023   -0.507849   -4.224284
  N      3.698881   -0.312844   -4.986988
  H      2.731405   -0.050091   -4.849000
  H      3.890046   -1.055172   -5.643730
  H      5.251933    1.303459   -2.721014
  H      6.695165   -0.062322   -3.851596
  H      5.975383   -1.396884   -4.691414
  O      0.228860   -1.246868   -3.127871
  O     -0.439269    1.118966   -3.014550
  O      1.247881    0.403474   -4.595647
  H      1.697003    2.561969   -2.141109
  H      3.080787    1.987436   -1.225838
  H      2.806463    1.986511   -4.268484
  H      3.778714    3.098282   -3.307383

 Total Charge           Charge          ....    0
 Multiplicity           Mult            ....    1
 Number of Electrons    NEL             ....   96
 Basis Dimension        Dim             ....  324

ORBITAL ENERGIES
----------------

  NO   OCC          E(Eh)            E(eV)
   0   2.0000     -89.184431     -2426.8317
   1   2.0000     -19.152648      -521.1700
   2   2.0000     -19.136296      -520.7251
   3   2.0000     -19.136207      -520.7227
   4   2.0000     -14.492302      -394.3556
   5   2.0000     -14.488351      -394.2481
   6   2.0000     -14.455958      -393.3666
   7   2.0000     -10.429647      -283.8051
   8   2.0000     -10.298731      -280.2427
   9   2.0000     -10.250805      -278.9386
  10   2.0000     -10.236881      -278.5597
  11   2.0000      -8.143260      -221.5894
  12   2.0000      -6.086121      -165.6118
  13   2.0000      -6.085041      -165.5824
  14   2.0000      -6.084806      -165.5760
  15   2.0000      -1.107803       -30.1448
  16   2.0000      -1.096477       -29.8367
  17   2.0000      -0.986737       -26.8505
  18   2.0000      -0.972108       -26.4524
  19   2.0000      -0.959652       -26.1134
  20   2.0000      -0.955614       -26.0036
  21   2.0000      -0.829171       -22.5629
  22   2.0000      -0.757738       -20.6191
  23   2.0000      -0.703753       -19.1501
  24   2.0000      -0.669739       -18.2245
  25   2.0000      -0.659394       -17.9430
  26   2.0000      -0.622658       -16.9434
  27   2.0000      -0.582947       -15.8628
  28   2.0000      -0.568125       -15.4595
  29   2.0000      -0.547680       -14.9031
  30   2.0000      -0.525518       -14.3001
  31   2.0000      -0.505287       -13.7496
  32   2.0000      -0.489829       -13.3289
  33   2.0000      -0.468610       -12.7515
  34   2.0000      -0.455615       -12.3979
  35   2.0000      -0.438904       -11.9432
  36   2.0000      -0.419187       -11.4067
  37   2.0000      -0.395971       -10.7749
  38   2.0000      -0.390801       -10.6342
  39   2.0000      -0.377961       -10.2848
  40   2.0000      -0.354391        -9.6435
  41   2.0000      -0.326476        -8.8839
  42   2.0000      -0.317929        -8.6513
  43   2.0000      -0.310223        -8.4416
  44   2.0000      -0.279140        -7.5958
  45   2.0000      -0.269213        -7.3257
  46   2.0000      -0.259854        -7.0710
  47   2.0000      -0.230010        -6.2589
  48   0.0000      -0.033705        -0.9171
  49   0.0000      -0.029273        -0.7966
  50   0.0000       0.001478         0.0402
  51   0.0000       0.019658         0.5349
  52   0.0000       0.041850         1.1388

MULLIKEN ATOMIC CHARGES
-----------------------
   0 C :    0.827012
   1 N :   -0.658975
   2 C :    0.032273
   3 C :   -0.058543
   4 H :    0.150373
   5 H :   -0.091012
   6 S :    1.558209
   7 C :    1.666024
   8 N :   -0.234605
   9 N :    0.167038
  10 H :   -0.196367
  11 H :   -0.130227
  12 H :   -0.228269
  13 H :   -0.081551
  14 H :   -0.020983
  15 O :   -0.809967
  16 O :   -0.848124
  17 O :   -0.984878
  18 H :    0.094440
  19 H :    0.008962
  20 H :    0.074111
  21 H :   -0.234940
Sum of atomic charges:   -0.0000000

LOEWDIN ATOMIC CHARGES
----------------------
   0 C :    0.088700
   1 N :    0.033786
   2 C :   -0.022228
   3 C :   -0.076795
   4 H :    0.003523
   5 H :    0.020712
   6 S :    0.938101
   7 C :   -0.034950
   8 N :    0.228763
   9 N :    0.306777
  10 H :   -0.128943
  11 H :    0.038301
  12 H :    0.048493
  13 H :    0.018895
  14 H :    0.020676
  15 O :   -0.530222
  16 O :   -0.521943
  17 O :   -0.539240
  18 H :    0.038488
  19 H :    0.023416
  20 H :    0.013553
  21 H :    0.032135

  Mayer bond orders larger than 0.100000
B(  0-C ,  1-N ) :   0.8280 B(  0-C ,  2-C ) :   1.1454 B(  0-C , 12-H ) :  -0.1872
B(  0-C , 18-H ) :   0.1310 B(  0-C , 19-H ) :   0.1216 B(  0-C , 20-H ) :   0.7618
B(  0-C , 21-H ) :   0.8768 B(  1-N ,  7-C ) :   0.8379 B(  1-N ,  8-N ) :   0.2734
B(  1-N ,  9-N ) :   0.1947 B(  1-N , 12-H ) :   1.3825 B(  1-N , 20-H ) :   0.1889
B(  1-N , 21-H ) :   0.1432 B(  2-C ,  3-C ) :   1.2484 B(  2-C ,  4-H ) :   0.1227
B(  2-C ,  5-H ) :   0.1462 B(  2-C , 18-H ) :   0.8428 B(  2-C , 19-H ) :   0.8151
B(  2-C , 20-H ) :   0.1242 B(  3-C ,  4-H ) :   0.9078 B(  3-C ,  5-H ) :   0.8888
B(  3-C ,  6-S ) :   0.9202 B(  3-C , 17-O ) :   0.1698 B(  3-C , 18-H ) :   0.1513
B(  3-C , 19-H ) :   0.1101 B(  6-S , 15-O ) :   1.3001 B(  6-S , 16-O ) :   1.2922
B(  6-S , 17-O ) :   1.0719 B(  7-C ,  8-N ) :   0.6630 B(  7-C ,  9-N ) :   0.9776
B(  7-C , 10-H ) :  -0.2464 B(  7-C , 11-H ) :  -0.1876 B(  7-C , 12-H ) :  -0.2509
B(  7-C , 13-H ) :  -0.1782 B(  7-C , 14-H ) :  -0.1025 B(  8-N ,  9-N ) :   0.1824
B(  8-N , 13-H ) :   1.2329 B(  8-N , 14-H ) :   1.1863 B(  9-N , 10-H ) :   1.1138
B(  9-N , 11-H ) :   1.2516 B( 10-H , 11-H ) :  -0.2435 B( 10-H , 17-O ) :   0.1656
B( 13-H , 14-H ) :  -0.1659 B( 20-H , 21-H ) :  -0.1115

Dispersion correction           -0.021968678
FINAL SINGLE POINT ENERGY      -945.932343170412

DIPOLE MOMENT
-------------
                                X             Y             Z
Electronic contribution:     -7.03626      -3.18503      -2.41812
Nuclear contribution   :     13.40759       3.44219       2.21042
                        -----------------------------------------
Total Dipole Moment    :      6.37133       0.25716      -0.20770
                        -----------------------------------------
Magnitude (a.u.)       :      6.37990
Magnitude (Debye)      :     16.21642

Rotational constants in cm-1:     0.059860     0.020817     0.017914
Rotational constants in MHz :  1794.564877   624.092098   537.039275

                             ****ORCA TERMINATED NORMALLY****
TOTAL RUN TIME: 0 days 0 hours 1 minutes 18 seconds 360 msec
