                         Program Version 5.0.0 -  RELEASE  -
|  1> !PBE0 D3BJ RIJCOSX def2-SVPD def2/J TightSCF
|  2> *xyz 0 1
|  3> C          2.49556        1.81615       -2.13636
|  4> C          1.87218        0.42790       -2.07750
|  5> H          2.61427       -0.36583       -2.19889
|  6> H          1.38995        0.27309       -1.11236
|  7> S          0.57902        0.14047       -3.29794
|  8> F          0.22886       -1.24687       -3.12787
|  9> O         -0.43927        1.11897       -3.01455
| 10> O          1.24788        0.40347       -4.59565
| 11> H          2.96535        1.95613       -3.08747
| 12> H          3.22581        1.91242       -1.36024
| 13> H          1.73350        2.55528       -2.00274
| 14> *
| 15>
| 16> %MaxCore 64000
| 17>
| 18> %pal nprocs 4
| 19> end
| 20>
| 21> %scf
| 22>   MaxIter 150
| 23> end
| 24>
| 25>
| 26>                          ****END OF INPUT****

CARTESIAN COORDINATES (ANGSTROEM)
---------------------------------
  C      2.495560    1.816150   -2.136360
  C      1.872180    0.427900   -2.077500
  H      2.614270   -0.365830   -2.198890
  H      1.389950    0.273090   -1.112360
  S      0.579020    0.140470   -3.297940
  F      0.228860   -1.246870   -3.127870
  O     -0.439270    1.118970   -3.014550
  O      1.247880    0.403470   -4.595650
  H      2.965350    1.956130   -3.087470
  H      3.225810    1.912420   -1.360240
  H      1.733500    2.555280   -2.002740

 Total Charge           Charge          ....    0
 Multiplicity           Mult            ....    1
 Number of Electrons    NEL             ....   58
 Basis Dimension        Dim             ....  176

ORBITAL ENERGIES
----------------

  NO   OCC          E(Eh)            E(eV)
   0   2.0000     -89.297275     -2429.9024
   1   2.0000     -24.906718      -677.7463
   2   2.0000     -19.234243      -523.3904
   3   2.0000     -19.219430      -522.9873
   4   2.0000     -10.297204      -280.2012
   5   2.0000     -10.251744      -278.9641
   6   2.0000      -8.257868      -224.7080
   7   2.0000      -6.204104      -168.8223
   8   2.0000      -6.197781      -168.6502
   9   2.0000      -6.196450      -168.6140
  10   2.0000      -1.413162       -38.4541
  11   2.0000      -1.139435       -31.0056
  12   2.0000      -1.031725       -28.0747
  13   2.0000      -0.842460       -22.9245
  14   2.0000      -0.761767       -20.7287
  15   2.0000      -0.695875       -18.9357
  16   2.0000      -0.612399       -16.6642
  17   2.0000      -0.609212       -16.5775
  18   2.0000      -0.576768       -15.6947
  19   2.0000      -0.511039       -13.9061
  20   2.0000      -0.503867       -13.7109
  21   2.0000      -0.464241       -12.6326
  22   2.0000      -0.447692       -12.1823
  23   2.0000      -0.424991       -11.5646
  24   2.0000      -0.404078       -10.9955
  25   2.0000      -0.401284       -10.9195
  26   2.0000      -0.352002        -9.5785
  27   2.0000      -0.337073        -9.1722
  28   2.0000      -0.322033        -8.7630
  29   0.0000       0.001262         0.0344
  30   0.0000       0.026348         0.7170
  31   0.0000       0.040415         1.0998
  32   0.0000       0.045197         1.2299
  33   0.0000       0.058303         1.5865

MULLIKEN ATOMIC CHARGES
-----------------------
   0 C :    0.576810
   1 C :   -0.520069
   2 H :    0.045148
   3 H :    0.085193
   4 S :    1.619493
   5 F :   -0.429531
   6 O :   -0.687541
   7 O :   -0.725998
   8 H :    0.020399
   9 H :   -0.007667
  10 H :    0.023762
Sum of atomic charges:   -0.0000000

LOEWDIN ATOMIC CHARGES
----------------------
   0 C :    0.140392
   1 C :   -0.106901
   2 H :    0.024880
   3 H :    0.020211
   4 S :    1.128780
   5 F :   -0.257241
   6 O :   -0.463264
   7 O :   -0.484837
   8 H :   -0.001242
   9 H :   -0.001078
  10 H :    0.000301

  Mayer bond orders larger than 0.100000
B(  0-C ,  1-C ) :   1.3532 B(  0-C ,  8-H ) :   0.8532 B(  0-C ,  9-H ) :   0.7915
B(  0-C , 10-H ) :   0.8361 B(  1-C ,  2-H ) :   0.9943 B(  1-C ,  3-H ) :   0.9569
B(  1-C ,  4-S ) :   0.9800 B(  1-C ,  8-H ) :   0.1675 B(  1-C ,  9-H ) :   0.1720
B(  1-C , 10-H ) :   0.1737 B(  4-S ,  5-F ) :   0.6512 B(  4-S ,  6-O ) :   1.4875
B(  4-S ,  7-O ) :   1.4590

Dispersion correction           -0.007925029
FINAL SINGLE POINT ENERGY      -726.790688639448

DIPOLE MOMENT
-------------
                                X             Y             Z
Electronic contribution:     -6.78645      -6.38726      -4.06204
Nuclear contribution   :      7.60530       5.82028       5.38743
                        -----------------------------------------
Total Dipole Moment    :      0.81885      -0.56698       1.32539
                        -----------------------------------------
Magnitude (a.u.)       :      1.65790
Magnitude (Debye)      :      4.21405

Rotational constants in cm-1:     0.157861     0.081452     0.078859
Rotational constants in MHz :  4732.562506  2441.865430  2364.129821

                             ****ORCA TERMINATED NORMALLY****
TOTAL RUN TIME: 0 days 0 hours 0 minutes 15 seconds 400 msec
