                         Program Version 5.0.0 -  RELEASE  -
|  1> !PBE0 D3BJ RIJCOSX def2-SVPD def2/J TightSCF
|  2> *xyz 0 1
|  3> C          3.38093        2.08304       -3.35013
|  4> C          4.53592        1.18245       -3.42852
|  5> C          2.49556        1.81615       -2.13636
|  6> C          4.67196        0.12227       -4.22060
|  7> N          5.86602       -0.50785       -4.22428
|  8> N          3.69888       -0.31284       -4.98699
|  9> H          2.73141       -0.05009       -4.84900
| 10> H          3.89005       -1.05517       -5.64373
| 11> H          5.25193        1.30346       -2.72101
| 12> H          6.69516       -0.06232       -3.85160
| 13> H          5.97538       -1.39688       -4.69141
| 14> H          2.80646        1.98651       -4.26848
| 15> H          3.77871        3.09828       -3.30738
| 16> H          2.11090        0.81901       -2.18783
| 17> H          1.68276        2.51198       -2.12786
| 18> H          3.07216        1.93031       -1.24227
| 19> *
| 20>
| 21> %MaxCore 64000
| 22>
| 23> %pal nprocs 4
| 24> end
| 25>
| 26> %scf
| 27>   MaxIter 150
| 28> end
| 29>
| 30>
| 31>                          ****END OF INPUT****

CARTESIAN COORDINATES (ANGSTROEM)
---------------------------------
  C      3.380930    2.083040   -3.350130
  C      4.535920    1.182450   -3.428520
  C      2.495560    1.816150   -2.136360
  C      4.671960    0.122270   -4.220600
  N      5.866020   -0.507850   -4.224280
  N      3.698880   -0.312840   -4.986990
  H      2.731410   -0.050090   -4.849000
  H      3.890050   -1.055170   -5.643730
  H      5.251930    1.303460   -2.721010
  H      6.695160   -0.062320   -3.851600
  H      5.975380   -1.396880   -4.691410
  H      2.806460    1.986510   -4.268480
  H      3.778710    3.098280   -3.307380
  H      2.110900    0.819010   -2.187830
  H      1.682760    2.511980   -2.127860
  H      3.072160    1.930310   -1.242270

 Total Charge           Charge          ....    0
 Multiplicity           Mult            ....    1
 Number of Electrons    NEL             ....   48
 Basis Dimension        Dim             ....  200

ORBITAL ENERGIES
----------------

  NO   OCC          E(Eh)            E(eV)
   0   2.0000     -14.399679      -391.8352
   1   2.0000     -14.392284      -391.6340
   2   2.0000     -10.275034      -279.5979
   3   2.0000     -10.206365      -277.7293
   4   2.0000     -10.197227      -277.4807
   5   2.0000     -10.154933      -276.3298
   6   2.0000      -0.979762       -26.6607
   7   2.0000      -0.885476       -24.0950
   8   2.0000      -0.787390       -21.4260
   9   2.0000      -0.709380       -19.3032
  10   2.0000      -0.631218       -17.1763
  11   2.0000      -0.593301       -16.1445
  12   2.0000      -0.560604       -15.2548
  13   2.0000      -0.520542       -14.1647
  14   2.0000      -0.495405       -13.4806
  15   2.0000      -0.455367       -12.3912
  16   2.0000      -0.428571       -11.6620
  17   2.0000      -0.406854       -11.0711
  18   2.0000      -0.390450       -10.6247
  19   2.0000      -0.363705        -9.8969
  20   2.0000      -0.338114        -9.2005
  21   2.0000      -0.331025        -9.0076
  22   2.0000      -0.277247        -7.5443
  23   2.0000      -0.167910        -4.5691
  24   0.0000       0.020785         0.5656
  25   0.0000       0.044819         1.2196
  26   0.0000       0.059911         1.6303
  27   0.0000       0.070512         1.9187
  28   0.0000       0.086063         2.3419

MULLIKEN ATOMIC CHARGES
-----------------------
   0 C :   -0.260827
   1 C :   -0.383359
   2 C :    0.476414
   3 C :    1.198385
   4 N :   -0.172411
   5 N :   -0.120388
   6 H :   -0.068410
   7 H :   -0.199324
   8 H :   -0.233033
   9 H :   -0.063548
  10 H :   -0.113455
  11 H :   -0.055055
  12 H :   -0.011049
  13 H :   -0.043154
  14 H :    0.044048
  15 H :    0.005166
Sum of atomic charges:   -0.0000000

LOEWDIN ATOMIC CHARGES
----------------------
   0 C :   -0.101691
   1 C :   -0.037935
   2 C :    0.109147
   3 C :   -0.219782
   4 N :    0.170764
   5 N :    0.187898
   6 H :    0.003679
   7 H :   -0.005129
   8 H :   -0.046382
   9 H :    0.004293
  10 H :   -0.015545
  11 H :    0.001407
  12 H :    0.014466
  13 H :   -0.021947
  14 H :   -0.025353
  15 H :   -0.017892

  Mayer bond orders larger than 0.100000
B(  0-C ,  1-C ) :   1.1442 B(  0-C ,  2-C ) :   1.2334 B(  0-C ,  8-H ) :   0.2150
B(  0-C , 11-H ) :   0.9168 B(  0-C , 12-H ) :   0.9015 B(  0-C , 13-H ) :   0.1755
B(  0-C , 14-H ) :   0.1497 B(  0-C , 15-H ) :   0.1915 B(  1-C ,  3-C ) :   1.6109
B(  1-C ,  4-N ) :   0.4540 B(  1-C ,  5-N ) :   0.2690 B(  1-C ,  8-H ) :   0.9169
B(  1-C , 11-H ) :   0.2277 B(  1-C , 12-H ) :   0.1282 B(  2-C , 13-H ) :   0.8844
B(  2-C , 14-H ) :   0.8282 B(  2-C , 15-H ) :   0.8339 B(  3-C ,  4-N ) :   0.5966
B(  3-C ,  5-N ) :   0.8609 B(  3-C ,  7-H ) :  -0.1904 B(  3-C ,  8-H ) :   0.1062
B(  3-C ,  9-H ) :  -0.1426 B(  3-C , 11-H ) :  -0.1003 B(  4-N ,  5-N ) :   0.1298
B(  4-N ,  9-H ) :   1.2135 B(  4-N , 10-H ) :   1.1835 B(  5-N ,  6-H ) :   1.1543
B(  5-N ,  7-H ) :   1.3402 B(  6-H ,  7-H ) :  -0.1761 B(  9-H , 10-H ) :  -0.1532

Dispersion correction           -0.010650433
FINAL SINGLE POINT ENERGY      -267.434375611836

DIPOLE MOMENT
-------------
                                X             Y             Z
Electronic contribution:      3.00022      -2.79248      -2.89529
Nuclear contribution   :     -2.84307       1.95814       2.32378
                        -----------------------------------------
Total Dipole Moment    :      0.15714      -0.83434      -0.57151
                        -----------------------------------------
Magnitude (a.u.)       :      1.02345
Magnitude (Debye)      :      2.60139

Rotational constants in cm-1:     0.248902     0.068887     0.059904
Rotational constants in MHz :  7461.898926  2065.183281  1795.882140

                             ****ORCA TERMINATED NORMALLY****
TOTAL RUN TIME: 0 days 0 hours 0 minutes 21 seconds 210 msec
