                         Program Version 5.0.0 -  RELEASE  -
|  1> !PBE0 D3BJ RIJCOSX def2-SVPD def2/J TightSCF
|  2> *xyz 0 1
|  3> C          2.49556        1.81615       -2.13636
|  4> C          1.87218        0.42790       -2.07750
|  5> H          2.61427       -0.36583       -2.19889
|  6> H          1.38995        0.27309       -1.11236
|  7> S          0.57902        0.14047       -3.29794
|  8> O          0.22886       -1.24687       -3.12787
|  9> F         -0.43927        1.11897       -3.01455
| 10> O          1.24788        0.40347       -4.59565
| 11> H          2.96535        1.95613       -3.08747
| 12> H          3.22581        1.91242       -1.36024
| 13> H          1.73350        2.55528       -2.00274
| 14> *
| 15>
| 16> %MaxCore 64000
| 17>
| 18> %pal nprocs 4
| 19> end
| 20>
| 21> %scf
| 22>   MaxIter 150
| 23> end
| 24>
| 25>
| 26>                          ****END OF INPUT****

CARTESIAN COORDINATES (ANGSTROEM)
---------------------------------
  C      2.495560    1.816150   -2.136360
  C      1.872180    0.427900   -2.077500
  H      2.614270   -0.365830   -2.198890
  H      1.389950    0.273090   -1.112360
  S      0.579020    0.140470   -3.297940
  O      0.228860   -1.246870   -3.127870
  F     -0.439270    1.118970   -3.014550
  O      1.247880    0.403470   -4.595650
  H      2.965350    1.956130   -3.087470
  H      3.225810    1.912420   -1.360240
  H      1.733500    2.555280   -2.002740

 Total Charge           Charge          ....    0
 Multiplicity           Mult            ....    1
 Number of Electrons    NEL             ....   58
 Basis Dimension        Dim             ....  176

ORBITAL ENERGIES
----------------

  NO   OCC          E(Eh)            E(eV)
   0   2.0000     -89.297485     -2429.9081
   1   2.0000     -24.906811      -677.7488
   2   2.0000     -19.234633      -523.4010
   3   2.0000     -19.220050      -523.0041
   4   2.0000     -10.297165      -280.2001
   5   2.0000     -10.254747      -279.0458
   6   2.0000      -8.258037      -224.7126
   7   2.0000      -6.204359      -168.8292
   8   2.0000      -6.197884      -168.6530
   9   2.0000      -6.196615      -168.6185
  10   2.0000      -1.413655       -38.4675
  11   2.0000      -1.138919       -30.9916
  12   2.0000      -1.032830       -28.1047
  13   2.0000      -0.845380       -23.0040
  14   2.0000      -0.758262       -20.6334
  15   2.0000      -0.699588       -19.0368
  16   2.0000      -0.620295       -16.8791
  17   2.0000      -0.611055       -16.6277
  18   2.0000      -0.569782       -15.5045
  19   2.0000      -0.511023       -13.9056
  20   2.0000      -0.499898       -13.6029
  21   2.0000      -0.473699       -12.8900
  22   2.0000      -0.452001       -12.2996
  23   2.0000      -0.424517       -11.5517
  24   2.0000      -0.414027       -11.2663
  25   2.0000      -0.395407       -10.7596
  26   2.0000      -0.351605        -9.5677
  27   2.0000      -0.336975        -9.1695
  28   2.0000      -0.324138        -8.8202
  29   0.0000      -0.002629        -0.0715
  30   0.0000       0.031301         0.8517
  31   0.0000       0.041125         1.1191
  32   0.0000       0.042853         1.1661
  33   0.0000       0.053190         1.4474

MULLIKEN ATOMIC CHARGES
-----------------------
   0 C :    0.603976
   1 C :   -0.492555
   2 H :    0.035288
   3 H :    0.073409
   4 S :    1.589654
   5 O :   -0.683464
   6 F :   -0.417330
   7 O :   -0.727749
   8 H :    0.025307
   9 H :   -0.009580
  10 H :    0.003043
Sum of atomic charges:    0.0000000

LOEWDIN ATOMIC CHARGES
----------------------
   0 C :    0.125212
   1 C :   -0.095410
   2 H :    0.039374
   3 H :    0.020638
   4 S :    1.126454
   5 O :   -0.463954
   6 F :   -0.255292
   7 O :   -0.482789
   8 H :   -0.003630
   9 H :   -0.003439
  10 H :   -0.007165

  Mayer bond orders larger than 0.100000
B(  0-C ,  1-C ) :   1.3039 B(  0-C ,  8-H ) :   0.8617 B(  0-C ,  9-H ) :   0.7853
B(  0-C , 10-H ) :   0.8353 B(  1-C ,  2-H ) :   1.0130 B(  1-C ,  3-H ) :   0.9717
B(  1-C ,  4-S ) :   1.0098 B(  1-C ,  8-H ) :   0.1674 B(  1-C ,  9-H ) :   0.1723
B(  1-C , 10-H ) :   0.1698 B(  4-S ,  5-O ) :   1.5250 B(  4-S ,  6-F ) :   0.6384
B(  4-S ,  7-O ) :   1.4738

Dispersion correction           -0.007884603
FINAL SINGLE POINT ENERGY      -726.790675175111

DIPOLE MOMENT
-------------
                                X             Y             Z
Electronic contribution:     -7.90178      -2.40000      -3.86575
Nuclear contribution   :      8.30151       3.35500       5.26935
                        -----------------------------------------
Total Dipole Moment    :      0.39973       0.95500       1.40360
                        -----------------------------------------
Magnitude (a.u.)       :      1.74411
Magnitude (Debye)      :      4.43317

Rotational constants in cm-1:     0.152913     0.083043     0.080351
Rotational constants in MHz :  4584.227971  2489.580280  2408.872860

                             ****ORCA TERMINATED NORMALLY****
TOTAL RUN TIME: 0 days 0 hours 0 minutes 15 seconds 577 msec
