                         Program Version 5.0.0 -  RELEASE  -
|  1> !PBE0 D3BJ RIJCOSX def2-SVPD def2/J TightSCF
|  2> *xyz 0 1
|  3> C          3.38093        2.08304       -3.35013
|  4> N          4.53592        1.18245       -3.42852
|  5> C          2.49556        1.81615       -2.13636
|  6> C          4.67196        0.12227       -4.22060
|  7> C          5.86602       -0.50785       -4.22428
|  8> N          3.69888       -0.31284       -4.98699
|  9> H          2.73141       -0.05009       -4.84900
| 10> H          3.89005       -1.05517       -5.64373
| 11> H          5.25193        1.30346       -2.72101
| 12> H          6.69516       -0.06232       -3.85160
| 13> H          5.97538       -1.39688       -4.69141
| 14> H          2.80646        1.98651       -4.26848
| 15> H          3.77871        3.09828       -3.30738
| 16> H          2.11090        0.81901       -2.18783
| 17> H          1.68276        2.51198       -2.12786
| 18> H          3.07216        1.93031       -1.24227
| 19> *
| 20>
| 21> %MaxCore 64000
| 22>
| 23> %pal nprocs 4
| 24> end
| 25>
| 26> %scf
| 27>   MaxIter 150
| 28> end
| 29>
| 30>
| 31>                          ****END OF INPUT****

CARTESIAN COORDINATES (ANGSTROEM)
---------------------------------
  C      3.380930    2.083040   -3.350130
  N      4.535920    1.182450   -3.428520
  C      2.495560    1.816150   -2.136360
  C      4.671960    0.122270   -4.220600
  C      5.866020   -0.507850   -4.224280
  N      3.698880   -0.312840   -4.986990
  H      2.731410   -0.050090   -4.849000
  H      3.890050   -1.055170   -5.643730
  H      5.251930    1.303460   -2.721010
  H      6.695160   -0.062320   -3.851600
  H      5.975380   -1.396880   -4.691410
  H      2.806460    1.986510   -4.268480
  H      3.778710    3.098280   -3.307380
  H      2.110900    0.819010   -2.187830
  H      1.682760    2.511980   -2.127860
  H      3.072160    1.930310   -1.242270

 Total Charge           Charge          ....    0
 Multiplicity           Mult            ....    1
 Number of Electrons    NEL             ....   48
 Basis Dimension        Dim             ....  200

ORBITAL ENERGIES
----------------

  NO   OCC          E(Eh)            E(eV)
   0   2.0000     -14.399019      -391.8172
   1   2.0000     -14.397000      -391.7623
   2   2.0000     -10.278879      -279.7025
   3   2.0000     -10.273157      -279.5468
   4   2.0000     -10.225835      -278.2591
   5   2.0000     -10.140458      -275.9359
   6   2.0000      -0.987158       -26.8619
   7   2.0000      -0.904667       -24.6172
   8   2.0000      -0.788119       -21.4458
   9   2.0000      -0.712184       -19.3795
  10   2.0000      -0.641654       -17.4603
  11   2.0000      -0.619167       -16.8484
  12   2.0000      -0.560081       -15.2406
  13   2.0000      -0.513489       -13.9727
  14   2.0000      -0.495917       -13.4946
  15   2.0000      -0.460067       -12.5190
  16   2.0000      -0.442557       -12.0426
  17   2.0000      -0.415436       -11.3046
  18   2.0000      -0.401424       -10.9233
  19   2.0000      -0.381251       -10.3744
  20   2.0000      -0.374749       -10.1974
  21   2.0000      -0.365381        -9.9425
  22   2.0000      -0.266126        -7.2416
  23   2.0000      -0.166911        -4.5419
  24   0.0000       0.017022         0.4632
  25   0.0000       0.048494         1.3196
  26   0.0000       0.052850         1.4381
  27   0.0000       0.060892         1.6569
  28   0.0000       0.082502         2.2450

MULLIKEN ATOMIC CHARGES
-----------------------
   0 C :    0.265108
   1 N :   -0.487773
   2 C :    0.495677
   3 C :    0.895810
   4 C :    0.341924
   5 N :   -0.056397
   6 H :   -0.147990
   7 H :   -0.080057
   8 H :   -0.288021
   9 H :   -0.333579
  10 H :   -0.304759
  11 H :   -0.092108
  12 H :   -0.194187
  13 H :   -0.052958
  14 H :    0.058543
  15 H :   -0.019233
Sum of atomic charges:   -0.0000000

LOEWDIN ATOMIC CHARGES
----------------------
   0 C :    0.013735
   1 N :   -0.023398
   2 C :    0.124095
   3 C :   -0.235215
   4 C :    0.136010
   5 N :    0.186926
   6 H :   -0.011176
   7 H :    0.013012
   8 H :    0.037173
   9 H :   -0.105231
  10 H :   -0.108980
  11 H :    0.008962
  12 H :    0.017769
  13 H :   -0.018708
  14 H :   -0.017551
  15 H :   -0.017423

  Mayer bond orders larger than 0.100000
B(  0-C ,  1-N ) :   0.8568 B(  0-C ,  2-C ) :   1.2557 B(  0-C ,  8-H ) :  -0.2157
B(  0-C , 11-H ) :   0.9084 B(  0-C , 12-H ) :   0.9435 B(  0-C , 13-H ) :   0.1901
B(  0-C , 14-H ) :   0.1580 B(  0-C , 15-H ) :   0.1934 B(  1-N ,  3-C ) :   0.9146
B(  1-N ,  4-C ) :   0.2351 B(  1-N ,  5-N ) :   0.2094 B(  1-N ,  8-H ) :   1.3308
B(  1-N , 11-H ) :   0.1546 B(  1-N , 12-H ) :   0.1566 B(  2-C , 13-H ) :   0.8687
B(  2-C , 14-H ) :   0.8109 B(  2-C , 15-H ) :   0.8378 B(  3-C ,  4-C ) :   1.4494
B(  3-C ,  5-N ) :   0.9281 B(  3-C ,  6-H ) :  -0.1174 B(  3-C ,  8-H ) :  -0.2351
B(  3-C , 10-H ) :   0.1798 B(  4-C ,  5-N ) :   0.1987 B(  4-C ,  9-H ) :   0.9451
B(  4-C , 10-H ) :   0.8080 B(  5-N ,  6-H ) :   1.1996 B(  5-N ,  7-H ) :   1.2077
B(  6-H ,  7-H ) :  -0.1754

Dispersion correction           -0.010548447
FINAL SINGLE POINT ENERGY      -267.422116358791

DIPOLE MOMENT
-------------
                                X             Y             Z
Electronic contribution:      1.51034      -1.10675      -2.04563
Nuclear contribution   :     -2.56090       1.59955       2.15496
                        -----------------------------------------
Total Dipole Moment    :     -1.05056       0.49280       0.10933
                        -----------------------------------------
Magnitude (a.u.)       :      1.16554
Magnitude (Debye)      :      2.96256

Rotational constants in cm-1:     0.249834     0.071381     0.061833
Rotational constants in MHz :  7489.842787  2139.945635  1853.706310

                             ****ORCA TERMINATED NORMALLY****
TOTAL RUN TIME: 0 days 0 hours 0 minutes 21 seconds 68 msec
