                         Program Version 5.0.0 -  RELEASE  -
|  1> !PBE0 D3BJ RIJCOSX def2-SVPD def2/J TightSCF
|  2> *xyz 0 1
|  3> C          2.49556        1.81615       -2.13636
|  4> C          1.87218        0.42790       -2.07750
|  5> H          2.61427       -0.36583       -2.19889
|  6> H          1.38995        0.27309       -1.11236
|  7> S          0.57902        0.14047       -3.29794
|  8> O          0.22886       -1.24687       -3.12787
|  9> O         -0.43927        1.11897       -3.01455
| 10> F          1.24788        0.40347       -4.59565
| 11> H          2.96535        1.95613       -3.08747
| 12> H          3.22581        1.91242       -1.36024
| 13> H          1.73350        2.55528       -2.00274
| 14> *
| 15>
| 16> %MaxCore 64000
| 17>
| 18> %pal nprocs 4
| 19> end
| 20>
| 21> %scf
| 22>   MaxIter 150
| 23> end
| 24>
| 25>
| 26>                          ****END OF INPUT****

CARTESIAN COORDINATES (ANGSTROEM)
---------------------------------
  C      2.495560    1.816150   -2.136360
  C      1.872180    0.427900   -2.077500
  H      2.614270   -0.365830   -2.198890
  H      1.389950    0.273090   -1.112360
  S      0.579020    0.140470   -3.297940
  O      0.228860   -1.246870   -3.127870
  O     -0.439270    1.118970   -3.014550
  F      1.247880    0.403470   -4.595650
  H      2.965350    1.956130   -3.087470
  H      3.225810    1.912420   -1.360240
  H      1.733500    2.555280   -2.002740

 Total Charge           Charge          ....    0
 Multiplicity           Mult            ....    1
 Number of Electrons    NEL             ....   58
 Basis Dimension        Dim             ....  176

ORBITAL ENERGIES
----------------

  NO   OCC          E(Eh)            E(eV)
   0   2.0000     -89.295211     -2429.8462
   1   2.0000     -24.884668      -677.1462
   2   2.0000     -19.234242      -523.3903
   3   2.0000     -19.234051      -523.3851
   4   2.0000     -10.295906      -280.1659
   5   2.0000     -10.255192      -279.0580
   6   2.0000      -8.255716      -224.6495
   7   2.0000      -6.201772      -168.7588
   8   2.0000      -6.195865      -168.5981
   9   2.0000      -6.194481      -168.5604
  10   2.0000      -1.376592       -37.4590
  11   2.0000      -1.149498       -31.2794
  12   2.0000      -1.054649       -28.6985
  13   2.0000      -0.844407       -22.9775
  14   2.0000      -0.743285       -20.2258
  15   2.0000      -0.692912       -18.8551
  16   2.0000      -0.602438       -16.3932
  17   2.0000      -0.585958       -15.9447
  18   2.0000      -0.567831       -15.4515
  19   2.0000      -0.512844       -13.9552
  20   2.0000      -0.496602       -13.5132
  21   2.0000      -0.477349       -12.9893
  22   2.0000      -0.455751       -12.4016
  23   2.0000      -0.425726       -11.5846
  24   2.0000      -0.419465       -11.4142
  25   2.0000      -0.397344       -10.8123
  26   2.0000      -0.360355        -9.8058
  27   2.0000      -0.346717        -9.4346
  28   2.0000      -0.339433        -9.2364
  29   0.0000      -0.000383        -0.0104
  30   0.0000       0.034153         0.9294
  31   0.0000       0.041955         1.1417
  32   0.0000       0.044812         1.2194
  33   0.0000       0.054897         1.4938

MULLIKEN ATOMIC CHARGES
-----------------------
   0 C :    0.599484
   1 C :   -0.493793
   2 H :    0.034178
   3 H :    0.076433
   4 S :    1.600026
   5 O :   -0.695789
   6 O :   -0.702404
   7 F :   -0.437569
   8 H :    0.000104
   9 H :   -0.011134
  10 H :    0.030465
Sum of atomic charges:    0.0000000

LOEWDIN ATOMIC CHARGES
----------------------
   0 C :    0.124955
   1 C :   -0.094808
   2 H :    0.026760
   3 H :    0.034483
   4 S :    1.123692
   5 O :   -0.464350
   6 O :   -0.462046
   7 F :   -0.274170
   8 H :   -0.008122
   9 H :   -0.003433
  10 H :   -0.002962

  Mayer bond orders larger than 0.100000
B(  0-C ,  1-C ) :   1.3023 B(  0-C ,  8-H ) :   0.8525 B(  0-C ,  9-H ) :   0.7869
B(  0-C , 10-H ) :   0.8449 B(  1-C ,  2-H ) :   1.0149 B(  1-C ,  3-H ) :   0.9739
B(  1-C ,  4-S ) :   1.0098 B(  1-C ,  8-H ) :   0.1611 B(  1-C ,  9-H ) :   0.1738
B(  1-C , 10-H ) :   0.1731 B(  4-S ,  5-O ) :   1.5199 B(  4-S ,  6-O ) :   1.4960
B(  4-S ,  7-F ) :   0.5998

Dispersion correction           -0.007882547
FINAL SINGLE POINT ENERGY      -726.809701635491

DIPOLE MOMENT
-------------
                                X             Y             Z
Electronic contribution:     -5.04982      -3.59805      -6.54601
Nuclear contribution   :      6.54345       4.10057       6.91691
                        -----------------------------------------
Total Dipole Moment    :      1.49363       0.50253       0.37089
                        -----------------------------------------
Magnitude (a.u.)       :      1.61896
Magnitude (Debye)      :      4.11506

Rotational constants in cm-1:     0.152835     0.082826     0.080611
Rotational constants in MHz :  4581.878371  2483.049050  2416.647141

                             ****ORCA TERMINATED NORMALLY****
TOTAL RUN TIME: 0 days 0 hours 0 minutes 15 seconds 317 msec
