                         Program Version 5.0.0 -  RELEASE  -
|  1> !PBE0 D3BJ RIJCOSX def2-SVPD def2/J TightSCF
|  2> *xyz 0 1
|  3> C          3.38093        2.08304       -3.35013
|  4> N          4.53592        1.18245       -3.42852
|  5> C          2.49556        1.81615       -2.13636
|  6> C          4.67196        0.12227       -4.22060
|  7> N          5.86602       -0.50785       -4.22428
|  8> C          3.69888       -0.31284       -4.98699
|  9> H          2.73141       -0.05009       -4.84900
| 10> H          3.89005       -1.05517       -5.64373
| 11> H          5.25193        1.30346       -2.72101
| 12> H          6.69516       -0.06232       -3.85160
| 13> H          5.97538       -1.39688       -4.69141
| 14> H          2.80646        1.98651       -4.26848
| 15> H          3.77871        3.09828       -3.30738
| 16> H          2.11090        0.81901       -2.18783
| 17> H          1.68276        2.51198       -2.12786
| 18> H          3.07216        1.93031       -1.24227
| 19> *
| 20>
| 21> %MaxCore 64000
| 22>
| 23> %pal nprocs 4
| 24> end
| 25>
| 26> %scf
| 27>   MaxIter 150
| 28> end
| 29>
| 30>
| 31>                          ****END OF INPUT****

CARTESIAN COORDINATES (ANGSTROEM)
---------------------------------
  C      3.380930    2.083040   -3.350130
  N      4.535920    1.182450   -3.428520
  C      2.495560    1.816150   -2.136360
  C      4.671960    0.122270   -4.220600
  N      5.866020   -0.507850   -4.224280
  C      3.698880   -0.312840   -4.986990
  H      2.731410   -0.050090   -4.849000
  H      3.890050   -1.055170   -5.643730
  H      5.251930    1.303460   -2.721010
  H      6.695160   -0.062320   -3.851600
  H      5.975380   -1.396880   -4.691410
  H      2.806460    1.986510   -4.268480
  H      3.778710    3.098280   -3.307380
  H      2.110900    0.819010   -2.187830
  H      1.682760    2.511980   -2.127860
  H      3.072160    1.930310   -1.242270

 Total Charge           Charge          ....    0
 Multiplicity           Mult            ....    1
 Number of Electrons    NEL             ....   48
 Basis Dimension        Dim             ....  200

ORBITAL ENERGIES
----------------

  NO   OCC          E(Eh)            E(eV)
   0   2.0000     -14.397564      -391.7776
   1   2.0000     -14.392729      -391.6461
   2   2.0000     -10.276425      -279.6357
   3   2.0000     -10.265006      -279.3250
   4   2.0000     -10.218424      -278.0575
   5   2.0000     -10.145029      -276.0603
   6   2.0000      -0.980843       -26.6901
   7   2.0000      -0.895519       -24.3683
   8   2.0000      -0.773016       -21.0348
   9   2.0000      -0.727330       -19.7916
  10   2.0000      -0.653945       -17.7947
  11   2.0000      -0.579574       -15.7710
  12   2.0000      -0.560957       -15.2644
  13   2.0000      -0.529326       -14.4037
  14   2.0000      -0.473399       -12.8818
  15   2.0000      -0.462360       -12.5815
  16   2.0000      -0.434667       -11.8279
  17   2.0000      -0.416145       -11.3239
  18   2.0000      -0.392546       -10.6817
  19   2.0000      -0.388081       -10.5602
  20   2.0000      -0.365806        -9.9541
  21   2.0000      -0.361350        -9.8328
  22   2.0000      -0.258758        -7.0412
  23   2.0000      -0.179592        -4.8869
  24   0.0000       0.023719         0.6454
  25   0.0000       0.044332         1.2063
  26   0.0000       0.058525         1.5925
  27   0.0000       0.064477         1.7545
  28   0.0000       0.086889         2.3644

MULLIKEN ATOMIC CHARGES
-----------------------
   0 C :    0.241017
   1 N :   -0.539240
   2 C :    0.473067
   3 C :    1.110837
   4 N :   -0.127016
   5 C :    0.051568
   6 H :   -0.147341
   7 H :   -0.343249
   8 H :   -0.359731
   9 H :   -0.162966
  10 H :   -0.019086
  11 H :    0.011639
  12 H :   -0.184172
  13 H :   -0.044889
  14 H :    0.049232
  15 H :   -0.009669
Sum of atomic charges:   -0.0000000

LOEWDIN ATOMIC CHARGES
----------------------
   0 C :    0.022877
   1 N :   -0.032689
   2 C :    0.127524
   3 C :   -0.234601
   4 N :    0.173936
   5 C :    0.146056
   6 H :   -0.099705
   7 H :   -0.096256
   8 H :    0.022198
   9 H :   -0.012041
  10 H :    0.002607
  11 H :    0.015148
  12 H :    0.018057
  13 H :   -0.015273
  14 H :   -0.016967
  15 H :   -0.020871

  Mayer bond orders larger than 0.100000
B(  0-C ,  1-N ) :   0.8192 B(  0-C ,  2-C ) :   1.2559 B(  0-C ,  8-H ) :  -0.1989
B(  0-C , 11-H ) :   0.8878 B(  0-C , 12-H ) :   0.9523 B(  0-C , 13-H ) :   0.1796
B(  0-C , 14-H ) :   0.1613 B(  0-C , 15-H ) :   0.1750 B(  1-N ,  3-C ) :   0.7747
B(  1-N ,  4-N ) :   0.1987 B(  1-N ,  5-C ) :   0.3527 B(  1-N ,  8-H ) :   1.4440
B(  1-N , 11-H ) :   0.1239 B(  1-N , 12-H ) :   0.1543 B(  2-C , 13-H ) :   0.8780
B(  2-C , 14-H ) :   0.8161 B(  2-C , 15-H ) :   0.8491 B(  3-C ,  4-N ) :   0.7745
B(  3-C ,  5-C ) :   1.5452 B(  3-C ,  6-H ) :   0.1038 B(  3-C ,  7-H ) :   0.1483
B(  3-C ,  8-H ) :  -0.3024 B(  3-C ,  9-H ) :  -0.1331 B(  4-N ,  5-C ) :   0.2829
B(  4-N ,  9-H ) :   1.2453 B(  4-N , 10-H ) :   1.1451 B(  5-C ,  6-H ) :   0.7709
B(  5-C ,  7-H ) :   0.9405 B(  9-H , 10-H ) :  -0.1590

Dispersion correction           -0.010605433
FINAL SINGLE POINT ENERGY      -267.426598248534

DIPOLE MOMENT
-------------
                                X             Y             Z
Electronic contribution:      3.66670      -1.32817      -1.35777
Nuclear contribution   :     -3.02065       1.64092       1.99316
                        -----------------------------------------
Total Dipole Moment    :      0.64605       0.31275       0.63539
                        -----------------------------------------
Magnitude (a.u.)       :      0.95860
Magnitude (Debye)      :      2.43658

Rotational constants in cm-1:     0.259304     0.069422     0.060943
Rotational constants in MHz :  7773.747720  2081.225169  1827.013389

                             ****ORCA TERMINATED NORMALLY****
TOTAL RUN TIME: 0 days 0 hours 0 minutes 20 seconds 980 msec
