                         Program Version 5.0.0 -  RELEASE  -
|  1> !PBE0 D3BJ RIJCOSX def2-SVPD def2/J TightSCF xyzfile
|  2>
|  3> *xyzfile 0 1 D5.xyz
|  4>
|  5> %MaxCore 64000
|  6>
|  7> %pal nprocs 4
|  8> end
|  9>
| 10> %scf
| 11>   MaxIter 150
| 12> end
| 13>
| 14>
| 15>                          ****END OF INPUT****

CARTESIAN COORDINATES (ANGSTROEM)
---------------------------------
  C      3.380928    2.083045   -3.350127
  N      4.535924    1.182447   -3.428518
  C      2.495557    1.816150   -2.136364
  C      1.872181    0.427903   -2.077497
  H      2.614270   -0.365825   -2.198894
  H      1.389953    0.273087   -1.112360
  S      0.579024    0.140472   -3.297943
  C      4.671956    0.122273   -4.220598
  C      5.866023   -0.507849   -4.224284
  N      3.698881   -0.312844   -4.986988
  H      2.731405   -0.050091   -4.849000
  H      3.890046   -1.055172   -5.643730
  H      5.251933    1.303459   -2.721014
  H      6.695165   -0.062322   -3.851596
  H      5.975383   -1.396884   -4.691414
  O      0.228860   -1.246868   -3.127871
  F     -0.439269    1.118966   -3.014550
  O      1.247881    0.403474   -4.595647
  H      1.697003    2.561969   -2.141109
  H      3.080787    1.987436   -1.225838
  H      2.806463    1.986511   -4.268484
  H      3.778714    3.098282   -3.307383

 Total Charge           Charge          ....    0
 Multiplicity           Mult            ....    1
 Number of Electrons    NEL             ....   96
 Basis Dimension        Dim             ....  324

ORBITAL ENERGIES
----------------

  NO   OCC          E(Eh)            E(eV)
   0   2.0000     -89.321213     -2430.5538
   1   2.0000     -24.925892      -678.2680
   2   2.0000     -19.253721      -523.9204
   3   2.0000     -19.248812      -523.7868
   4   2.0000     -14.400224      -391.8500
   5   2.0000     -14.368876      -390.9970
   6   2.0000     -10.307645      -280.4853
   7   2.0000     -10.279259      -279.7128
   8   2.0000     -10.274881      -279.5937
   9   2.0000     -10.271183      -279.4931
  10   2.0000     -10.133576      -275.7486
  11   2.0000      -8.280876      -225.3341
  12   2.0000      -6.227151      -169.4494
  13   2.0000      -6.221123      -169.2854
  14   2.0000      -6.219297      -169.2357
  15   2.0000      -1.432179       -38.9716
  16   2.0000      -1.162648       -31.6373
  17   2.0000      -1.062697       -28.9175
  18   2.0000      -0.981543       -26.7091
  19   2.0000      -0.898704       -24.4550
  20   2.0000      -0.859192       -23.3798
  21   2.0000      -0.791280       -21.5318
  22   2.0000      -0.750516       -20.4226
  23   2.0000      -0.707062       -19.2401
  24   2.0000      -0.656064       -17.8524
  25   2.0000      -0.634353       -17.2616
  26   2.0000      -0.630164       -17.1476
  27   2.0000      -0.612857       -16.6767
  28   2.0000      -0.593504       -16.1501
  29   2.0000      -0.558917       -15.2089
  30   2.0000      -0.525425       -14.2975
  31   2.0000      -0.516550       -14.0560
  32   2.0000      -0.506477       -13.7819
  33   2.0000      -0.497755       -13.5446
  34   2.0000      -0.480259       -13.0685
  35   2.0000      -0.468883       -12.7589
  36   2.0000      -0.436418       -11.8755
  37   2.0000      -0.428865       -11.6700
  38   2.0000      -0.422366       -11.4932
  39   2.0000      -0.405491       -11.0340
  40   2.0000      -0.396346       -10.7851
  41   2.0000      -0.380965       -10.3666
  42   2.0000      -0.368893       -10.0381
  43   2.0000      -0.356988        -9.7141
  44   2.0000      -0.353818        -9.6279
  45   2.0000      -0.347553        -9.4574
  46   2.0000      -0.260074        -7.0770
  47   2.0000      -0.161013        -4.3814
  48   0.0000      -0.012648        -0.3442
  49   0.0000       0.014443         0.3930
  50   0.0000       0.030356         0.8260
  51   0.0000       0.031971         0.8700
  52   0.0000       0.034015         0.9256

MULLIKEN ATOMIC CHARGES
-----------------------
   0 C :    0.858152
   1 N :   -0.527205
   2 C :    0.043570
   3 C :   -0.070368
   4 H :    0.216054
   5 H :   -0.052860
   6 S :    1.714490
   7 C :    0.684159
   8 C :    0.309655
   9 N :    0.411150
  10 H :   -0.348100
  11 H :   -0.166508
  12 H :   -0.247933
  13 H :   -0.319155
  14 H :   -0.216709
  15 O :   -0.690373
  16 F :   -0.489786
  17 O :   -0.915964
  18 H :    0.059025
  19 H :    0.012545
  20 H :    0.011056
  21 H :   -0.274895
Sum of atomic charges:   -0.0000000

LOEWDIN ATOMIC CHARGES
----------------------
   0 C :    0.071749
   1 N :   -0.012252
   2 C :   -0.028146
   3 C :   -0.033036
   4 H :    0.040014
   5 H :    0.023755
   6 S :    1.178007
   7 C :   -0.235964
   8 C :    0.132859
   9 N :    0.225366
  10 H :   -0.142326
  11 H :    0.019835
  12 H :    0.036337
  13 H :   -0.110009
  14 H :   -0.108418
  15 O :   -0.441862
  16 F :   -0.243035
  17 O :   -0.463967
  18 H :    0.026725
  19 H :    0.035758
  20 H :    0.003489
  21 H :    0.025120

  Mayer bond orders larger than 0.100000
B(  0-C ,  1-N ) :   0.8805 B(  0-C ,  2-C ) :   1.1371 B(  0-C , 12-H ) :  -0.1959
B(  0-C , 18-H ) :   0.1384 B(  0-C , 19-H ) :   0.1253 B(  0-C , 20-H ) :   0.7776
B(  0-C , 21-H ) :   0.8881 B(  1-N ,  7-C ) :   0.9149 B(  1-N ,  8-C ) :   0.2258
B(  1-N ,  9-N ) :   0.1438 B(  1-N , 12-H ) :   1.2944 B(  1-N , 20-H ) :   0.2238
B(  1-N , 21-H ) :   0.1524 B(  2-C ,  3-C ) :   1.2466 B(  2-C ,  4-H ) :   0.1222
B(  2-C ,  5-H ) :   0.1471 B(  2-C , 18-H ) :   0.8373 B(  2-C , 19-H ) :   0.8324
B(  2-C , 20-H ) :   0.1233 B(  3-C ,  4-H ) :   0.8960 B(  3-C ,  5-H ) :   0.8522
B(  3-C ,  6-S ) :   0.9998 B(  3-C , 17-O ) :   0.1356 B(  3-C , 18-H ) :   0.1152
B(  6-S , 15-O ) :   1.5034 B(  6-S , 16-F ) :   0.5706 B(  6-S , 17-O ) :   1.3250
B(  7-C ,  8-C ) :   1.5042 B(  7-C ,  9-N ) :   1.0271 B(  7-C , 10-H ) :  -0.1019
B(  7-C , 11-H ) :  -0.1199 B(  7-C , 12-H ) :  -0.2081 B(  7-C , 13-H ) :   0.1103
B(  7-C , 14-H ) :   0.1915 B(  8-C ,  9-N ) :   0.1590 B(  8-C , 13-H ) :   0.8238
B(  8-C , 14-H ) :   0.8169 B(  9-N , 10-H ) :   0.9903 B(  9-N , 11-H ) :   1.1965
B(  9-N , 17-O ) :  -0.1035 B(  9-N , 20-H ) :   0.1135 B( 10-H , 11-H ) :  -0.2236
B( 10-H , 17-O ) :   0.1200 B( 13-H , 14-H ) :   0.1563 B( 20-H , 21-H ) :  -0.1184

Dispersion correction           -0.021870601
FINAL SINGLE POINT ENERGY      -953.787344338666

DIPOLE MOMENT
-------------
                                X             Y             Z
Electronic contribution:    -17.83574      -1.19512      -0.17204
Nuclear contribution   :     16.78714       2.58368       1.61768
                        -----------------------------------------
Total Dipole Moment    :     -1.04860       1.38857       1.44564
                        -----------------------------------------
Magnitude (a.u.)       :      2.26220
Magnitude (Debye)      :      5.75007

Rotational constants in cm-1:     0.059928     0.020911     0.017993
Rotational constants in MHz :  1796.610847   626.896941   539.414615

                             ****ORCA TERMINATED NORMALLY****
TOTAL RUN TIME: 0 days 0 hours 1 minutes 24 seconds 500 msec
