                         Program Version 5.0.0 -  RELEASE  -
|  1> !PBE0 D3BJ RIJCOSX def2-SVPD def2/J TightSCF xyzfile
|  2>
|  3> *xyzfile 0 1 D9.xyz
|  4>
|  5> %MaxCore 64000
|  6>
|  7> %pal nprocs 4
|  8> end
|  9>
| 10> %scf
| 11>   MaxIter 150
| 12> end
| 13>
| 14>
| 15>                          ****END OF INPUT****

CARTESIAN COORDINATES (ANGSTROEM)
---------------------------------
  C      3.380928    2.083045   -3.350127
  N      4.535924    1.182447   -3.428518
  C      2.495557    1.816150   -2.136364
  C      1.872181    0.427903   -2.077497
  H      2.614270   -0.365825   -2.198894
  H      1.389953    0.273087   -1.112360
  S      0.579024    0.140472   -3.297943
  C      4.671956    0.122273   -4.220598
  N      5.866023   -0.507849   -4.224284
  C      3.698881   -0.312844   -4.986988
  H      2.731405   -0.050091   -4.849000
  H      3.890046   -1.055172   -5.643730
  H      5.251933    1.303459   -2.721014
  H      6.695165   -0.062322   -3.851596
  H      5.975383   -1.396884   -4.691414
  O      0.228860   -1.246868   -3.127871
  O     -0.439269    1.118966   -3.014550
  F      1.247881    0.403474   -4.595647
  H      1.697003    2.561969   -2.141109
  H      3.080787    1.987436   -1.225838
  H      2.806463    1.986511   -4.268484
  H      3.778714    3.098282   -3.307383

 Total Charge           Charge          ....    0
 Multiplicity           Mult            ....    1
 Number of Electrons    NEL             ....   96
 Basis Dimension        Dim             ....  324

ORBITAL ENERGIES
----------------

  NO   OCC          E(Eh)            E(eV)
   0   2.0000     -89.293290     -2429.7939
   1   2.0000     -24.882862      -677.0971
   2   2.0000     -19.231742      -523.3223
   3   2.0000     -19.230168      -523.2795
   4   2.0000     -14.414984      -392.2516
   5   2.0000     -14.403165      -391.9301
   6   2.0000     -10.289813      -280.0000
   7   2.0000     -10.288579      -279.9665
   8   2.0000     -10.286454      -279.9086
   9   2.0000     -10.265834      -279.3475
  10   2.0000     -10.149227      -276.1745
  11   2.0000      -8.252949      -224.5742
  12   2.0000      -6.199174      -168.6881
  13   2.0000      -6.193089      -168.5225
  14   2.0000      -6.191710      -168.4850
  15   2.0000      -1.379369       -37.5345
  16   2.0000      -1.146810       -31.2063
  17   2.0000      -1.051017       -28.5996
  18   2.0000      -0.996147       -27.1066
  19   2.0000      -0.911616       -24.8063
  20   2.0000      -0.846112       -23.0239
  21   2.0000      -0.770216       -20.9586
  22   2.0000      -0.750969       -20.4349
  23   2.0000      -0.715837       -19.4789
  24   2.0000      -0.671556       -18.2740
  25   2.0000      -0.608050       -16.5459
  26   2.0000      -0.602404       -16.3922
  27   2.0000      -0.583786       -15.8856
  28   2.0000      -0.575027       -15.6473
  29   2.0000      -0.562868       -15.3164
  30   2.0000      -0.534626       -14.5479
  31   2.0000      -0.514304       -13.9949
  32   2.0000      -0.498552       -13.5663
  33   2.0000      -0.486157       -13.2290
  34   2.0000      -0.481279       -13.0963
  35   2.0000      -0.466042       -12.6816
  36   2.0000      -0.433987       -11.8094
  37   2.0000      -0.426423       -11.6036
  38   2.0000      -0.414597       -11.2818
  39   2.0000      -0.400931       -10.9099
  40   2.0000      -0.395362       -10.7584
  41   2.0000      -0.387870       -10.5545
  42   2.0000      -0.370781       -10.0895
  43   2.0000      -0.355585        -9.6760
  44   2.0000      -0.341881        -9.3031
  45   2.0000      -0.334743        -9.1088
  46   2.0000      -0.274073        -7.4579
  47   2.0000      -0.192019        -5.2251
  48   0.0000       0.006073         0.1652
  49   0.0000       0.019101         0.5198
  50   0.0000       0.031880         0.8675
  51   0.0000       0.038703         1.0532
  52   0.0000       0.054317         1.4780

MULLIKEN ATOMIC CHARGES
-----------------------
   0 C :    0.842934
   1 N :   -0.661043
   2 C :    0.009853
   3 C :    0.037717
   4 H :    0.168892
   5 H :   -0.066659
   6 S :    1.593817
   7 C :    1.168983
   8 N :   -0.136482
   9 C :    0.543791
  10 H :   -0.523953
  11 H :   -0.333412
  12 H :   -0.309058
  13 H :   -0.132726
  14 H :   -0.007919
  15 O :   -0.722059
  16 O :   -0.764485
  17 F :   -0.615002
  18 H :    0.074886
  19 H :    0.028008
  20 H :    0.058284
  21 H :   -0.254366
Sum of atomic charges:   -0.0000000

LOEWDIN ATOMIC CHARGES
----------------------
   0 C :    0.079084
   1 N :   -0.020646
   2 C :   -0.025298
   3 C :   -0.035177
   4 H :    0.023632
   5 H :    0.033801
   6 S :    1.134974
   7 C :   -0.222356
   8 N :    0.178185
   9 C :    0.181990
  10 H :   -0.169452
  11 H :   -0.079952
  12 H :    0.025716
  13 H :   -0.010534
  14 H :    0.005405
  15 O :   -0.453127
  16 O :   -0.457093
  17 F :   -0.294653
  18 H :    0.030925
  19 H :    0.032929
  20 H :    0.013063
  21 H :    0.028585

  Mayer bond orders larger than 0.100000
B(  0-C ,  1-N ) :   0.8254 B(  0-C ,  2-C ) :   1.1143 B(  0-C , 12-H ) :  -0.1874
B(  0-C , 18-H ) :   0.1263 B(  0-C , 19-H ) :   0.1178 B(  0-C , 20-H ) :   0.7492
B(  0-C , 21-H ) :   0.9181 B(  1-N ,  7-C ) :   0.7250 B(  1-N ,  8-N ) :   0.2202
B(  1-N ,  9-C ) :   0.3018 B(  1-N , 12-H ) :   1.4779 B(  1-N , 20-H ) :   0.1713
B(  1-N , 21-H ) :   0.1438 B(  2-C ,  3-C ) :   1.2530 B(  2-C ,  4-H ) :   0.1317
B(  2-C ,  5-H ) :   0.1605 B(  2-C , 18-H ) :   0.8624 B(  2-C , 19-H ) :   0.8271
B(  2-C , 20-H ) :   0.1145 B(  3-C ,  4-H ) :   0.9301 B(  3-C ,  5-H ) :   0.8008
B(  3-C ,  6-S ) :   1.0324 B(  3-C , 17-F ) :   0.1181 B(  3-C , 18-H ) :   0.1348
B(  3-C , 19-H ) :   0.1048 B(  6-S , 15-O ) :   1.4801 B(  6-S , 16-O ) :   1.4488
B(  6-S , 17-F ) :   0.6206 B(  7-C ,  8-N ) :   0.7694 B(  7-C ,  9-C ) :   1.6986
B(  7-C , 10-H ) :  -0.1248 B(  7-C , 11-H ) :   0.3312 B(  7-C , 12-H ) :  -0.3279
B(  8-N ,  9-C ) :   0.3459 B(  8-N , 13-H ) :   1.2037 B(  8-N , 14-H ) :   1.1415
B(  9-C , 10-H ) :   0.1436 B(  9-C , 11-H ) :   0.8463 B( 10-H , 11-H ) :  -0.1145
B( 10-H , 17-F ) :   0.1378 B( 10-H , 20-H ) :   0.1042 B( 13-H , 14-H ) :  -0.1614
B( 20-H , 21-H ) :  -0.1494

Dispersion correction           -0.021856663
FINAL SINGLE POINT ENERGY      -953.790825798880

DIPOLE MOMENT
-------------
                                X             Y             Z
Electronic contribution:    -12.59786      -2.63355      -2.41430
Nuclear contribution   :     14.72648       3.38697       3.27638
                        -----------------------------------------
Total Dipole Moment    :      2.12862       0.75342       0.86208
                        -----------------------------------------
Magnitude (a.u.)       :      2.41699
Magnitude (Debye)      :      6.14350

Rotational constants in cm-1:     0.059651     0.020833     0.018010
Rotational constants in MHz :  1788.283887   624.555661   539.921162

                             ****ORCA TERMINATED NORMALLY****
TOTAL RUN TIME: 0 days 0 hours 1 minutes 18 seconds 364 msec
