                         Program Version 5.0.0 -  RELEASE  -
|  1> !DLPNO-CCSD(T) aug-cc-pVTZ aug-cc-pVTZ/C TightSCF TightPNO RIJCOSX def2/J
|  2> *xyz -1 1
|  3> C          3.93993        0.32036       -4.36773
|  4> C          5.10585        0.66802       -5.30546
|  5> O          4.80913        1.15019       -6.41436
|  6> O          6.26737        0.56500       -4.81948
|  7> H          3.01376        0.44480       -4.88890
|  8> H          3.96058        0.96928       -3.51722
|  9> H          4.03331       -0.69517       -4.04388
| 10> *
| 11>
| 12> %MaxCore 64000
| 13>
| 14> %pal nprocs 2
| 15> end
| 16>
| 17> %scf
| 18>   MaxIter 150
| 19> end
| 20>
| 21>
| 22>                          ****END OF INPUT****

CARTESIAN COORDINATES (ANGSTROEM)
---------------------------------
  C      3.939930    0.320360   -4.367730
  C      5.105850    0.668020   -5.305460
  O      4.809130    1.150190   -6.414360
  O      6.267370    0.565000   -4.819480
  H      3.013760    0.444800   -4.888900
  H      3.960580    0.969280   -3.517220
  H      4.033310   -0.695170   -4.043880

 Total Charge           Charge          ....   -1
 Multiplicity           Mult            ....    1
 Number of Electrons    NEL             ....   32
 Basis Dimension        Dim             ....  253

ORBITAL ENERGIES
----------------

  NO   OCC          E(Eh)            E(eV)
   0   2.0000     -20.284106      -551.9586
   1   2.0000     -20.278175      -551.7972
   2   2.0000     -11.124632      -302.7166
   3   2.0000     -11.036537      -300.3194
   4   2.0000      -1.161106       -31.5953
   5   2.0000      -1.054713       -28.7002
   6   2.0000      -0.801134       -21.8000
   7   2.0000      -0.509731       -13.8705
   8   2.0000      -0.420214       -11.4346
   9   2.0000      -0.418554       -11.3894
  10   2.0000      -0.412974       -11.2376
  11   2.0000      -0.357825        -9.7369
  12   2.0000      -0.317731        -8.6459
  13   2.0000      -0.196711        -5.3528
  14   2.0000      -0.192681        -5.2431
  15   2.0000      -0.183415        -4.9910
  16   0.0000       0.132925         3.6171
  17   0.0000       0.143600         3.9076
  18   0.0000       0.145415         3.9569
  19   0.0000       0.184606         5.0234
  20   0.0000       0.220955         6.0125

MULLIKEN ATOMIC CHARGES
-----------------------
   0 C :   -0.651289
   1 C :    0.429886
   2 O :   -0.769151
   3 O :   -0.803403
   4 H :    0.288770
   5 H :    0.251010
   6 H :    0.254177
Sum of atomic charges:   -1.0000000

LOEWDIN ATOMIC CHARGES
----------------------
   0 C :    0.480998
   1 C :   -1.230726
   2 O :    0.236497
   3 O :    0.212570
   4 H :   -0.244162
   5 H :   -0.224623
   6 H :   -0.230553

  Mayer bond orders larger than 0.100000
B(  0-C ,  1-C ) :   0.7383 B(  0-C ,  4-H ) :   0.9196 B(  0-C ,  5-H ) :   0.9494
B(  0-C ,  6-H ) :   0.9469 B(  1-C ,  2-O ) :   1.4665 B(  1-C ,  3-O ) :   1.4850

E(0)                                       ...   -227.327478207
E(0)                                       ...   -227.327478207
E(CORR)(strong-pairs)                      ...     -0.836464705
E(CORR)(weak-pairs)                        ...     -0.000621998
E(CORR)(corrected)                         ...     -0.837086703
E(TOT)                                     ...   -228.164564911
E(CCSD(T))                                 ...   -228.200599710
FINAL SINGLE POINT ENERGY      -228.200599709924

DIPOLE MOMENT
-------------
                                X             Y             Z
Electronic contribution:      2.60249       0.81626      -2.15023
Nuclear contribution   :     -3.81330      -1.22874       3.01208
                        -----------------------------------------
Total Dipole Moment    :     -1.21081      -0.41249       0.86185
                        -----------------------------------------
Magnitude (a.u.)       :      1.54240
Magnitude (Debye)      :      3.92047

Rotational constants in cm-1:     0.390282     0.335702     0.186718
Rotational constants in MHz : 11700.346989 10064.094211  5597.661196

                             ****ORCA TERMINATED NORMALLY****
TOTAL RUN TIME: 0 days 0 hours 32 minutes 17 seconds 532 msec
