                         Program Version 5.0.0 -  RELEASE  -
|  1> !DLPNO-CCSD(T) aug-cc-pVTZ aug-cc-pVTZ/C TightSCF TightPNO RIJCOSX def2/J
|  2> *xyz 1 1
|  3> C          3.90595        2.81985       -3.75292
|  4> N          5.29562        3.13151       -4.10533
|  5> C          5.70862        3.46889       -5.32419
|  6> N          6.90470        3.03895       -5.71708
|  7> N          4.98188        4.29357       -6.09746
|  8> H          5.00055        4.10131       -7.08776
|  9> H          4.08469        4.59690       -5.73965
| 10> H          5.96336        2.52611       -3.64239
| 11> H          7.04716        2.06686       -5.47360
| 12> H          7.19815        3.30799       -6.64523
| 13> H          3.24866        3.48801       -4.26909
| 14> H          3.77188        2.93227       -2.69732
| 15> H          3.68381        1.81198       -4.03533
| 16> *
| 17>
| 18> %MaxCore 64000
| 19>
| 20> %pal nprocs 2
| 21> end
| 22>
| 23> %scf
| 24>   MaxIter 150
| 25> end
| 26>
| 27>
| 28>                          ****END OF INPUT****

CARTESIAN COORDINATES (ANGSTROEM)
---------------------------------
  C      3.905950    2.819850   -3.752920
  N      5.295620    3.131510   -4.105330
  C      5.708620    3.468890   -5.324190
  N      6.904700    3.038950   -5.717080
  N      4.981880    4.293570   -6.097460
  H      5.000550    4.101310   -7.087760
  H      4.084690    4.596900   -5.739650
  H      5.963360    2.526110   -3.642390
  H      7.047160    2.066860   -5.473600
  H      7.198150    3.307990   -6.645230
  H      3.248660    3.488010   -4.269090
  H      3.771880    2.932270   -2.697320
  H      3.683810    1.811980   -4.035330

 Total Charge           Charge          ....    1
 Multiplicity           Mult            ....    1
 Number of Electrons    NEL             ....   40
 Basis Dimension        Dim             ....  414

ORBITAL ENERGIES
----------------

  NO   OCC          E(Eh)            E(eV)
   0   2.0000     -15.794654      -429.7944
   1   2.0000     -15.794400      -429.7875
   2   2.0000     -15.793566      -429.7648
   3   2.0000     -11.596891      -315.5675
   4   2.0000     -11.435909      -311.1869
   5   2.0000      -1.552702       -42.2512
   6   2.0000      -1.412459       -38.4350
   7   2.0000      -1.403471       -38.1904
   8   2.0000      -1.154925       -31.4271
   9   2.0000      -1.039015       -28.2730
  10   2.0000      -0.972330       -26.4584
  11   2.0000      -0.946784       -25.7633
  12   2.0000      -0.879896       -23.9432
  13   2.0000      -0.862703       -23.4753
  14   2.0000      -0.812489       -22.1090
  15   2.0000      -0.807081       -21.9618
  16   2.0000      -0.746767       -20.3206
  17   2.0000      -0.739601       -20.1256
  18   2.0000      -0.642958       -17.4958
  19   2.0000      -0.606477       -16.5031
  20   0.0000      -0.100558        -2.7363
  21   0.0000      -0.077246        -2.1020
  22   0.0000      -0.073144        -1.9904
  23   0.0000      -0.064707        -1.7608
  24   0.0000      -0.050768        -1.3815

MULLIKEN ATOMIC CHARGES
-----------------------
   0 C :   -0.843275
   1 N :   -0.048071
   2 C :    0.627808
   3 N :   -0.363406
   4 N :   -0.289323
   5 H :    0.138716
   6 H :    0.204145
   7 H :    0.114880
   8 H :    0.155248
   9 H :    0.188308
  10 H :    0.379311
  11 H :    0.366878
  12 H :    0.368782
Sum of atomic charges:    1.0000000

LOEWDIN ATOMIC CHARGES
----------------------
   0 C :    0.595964
   1 N :    0.621789
   2 C :   -0.366482
   3 N :    0.946032
   4 N :    0.952302
   5 H :   -0.246367
   6 H :   -0.272010
   7 H :   -0.256108
   8 H :   -0.248715
   9 H :   -0.244832
  10 H :   -0.180981
  11 H :   -0.148241
  12 H :   -0.152350

  Mayer bond orders larger than 0.100000
B(  0-C ,  1-N ) :   0.8480 B(  0-C , 10-H ) :   0.8504 B(  0-C , 11-H ) :   0.9031
B(  0-C , 12-H ) :   0.8682 B(  1-N ,  2-C ) :   1.0646 B(  1-N ,  7-H ) :   1.0108
B(  2-C ,  3-N ) :   0.9959 B(  2-C ,  4-N ) :   0.9458 B(  3-N ,  8-H ) :   1.0310
B(  3-N ,  9-H ) :   0.9990 B(  4-N ,  5-H ) :   1.0600 B(  4-N ,  6-H ) :   0.9797

E(0)                                       ...   -243.643733727
E(0)                                       ...   -243.643733727
E(CORR)(strong-pairs)                      ...     -0.997216570
E(CORR)(weak-pairs)                        ...     -0.000990374
E(CORR)(corrected)                         ...     -0.998206944
E(TOT)                                     ...   -244.641940671
E(CCSD(T))                                 ...   -244.682180005
FINAL SINGLE POINT ENERGY      -244.682180004852

DIPOLE MOMENT
-------------
                                X             Y             Z
Electronic contribution:      2.48145       1.04284      -1.23698
Nuclear contribution   :     -2.62204      -1.73043       0.52001
                        -----------------------------------------
Total Dipole Moment    :     -0.14058      -0.68759      -0.71697
                        -----------------------------------------
Magnitude (a.u.)       :      1.00329
Magnitude (Debye)      :      2.55016

Rotational constants in cm-1:     0.299316     0.133886     0.097604
Rotational constants in MHz :  8973.254382  4013.798371  2926.103660

                             ****ORCA TERMINATED NORMALLY****
TOTAL RUN TIME: 0 days 1 hours 56 minutes 39 seconds 799 msec
