                         Program Version 5.0.0 -  RELEASE  -
|  1> !DLPNO-CCSD(T) aug-cc-pVTZ aug-cc-pVTZ/C TightSCF TightPNO RIJCOSX def2/J
|  2>
|  3> *xyzfile 0 1 B.xyz
|  4>
|  5> %MaxCore 64000
|  6>
|  7> %pal nprocs 18
|  8> end
|  9>
| 10> %scf
| 11>   MaxIter 150
| 12> end
| 13>
| 14>
| 15>                          ****END OF INPUT****

CARTESIAN COORDINATES (ANGSTROEM)
---------------------------------
  C      3.905947    2.819855   -3.752920
  N      5.295615    3.131515   -4.105334
  C      3.803511    1.374716   -3.260807
  C      3.939934    0.320362   -4.367729
  H      4.105043   -0.655085   -3.907733
  H      3.022801    0.280517   -4.957117
  C      5.105846    0.668022   -5.305463
  C      5.708619    3.468885   -5.324190
  N      6.904696    3.038954   -5.717084
  N      4.981884    4.293570   -6.097457
  H      5.000546    4.101311   -7.087761
  H      4.084693    4.596899   -5.739652
  H      5.963358    2.526112   -3.642391
  H      7.047164    2.066861   -5.473604
  H      7.198145    3.307994   -6.645225
  H      3.282025    2.949187   -4.640259
  H      3.565254    3.514574   -2.982523
  H      4.574833    1.215157   -2.500443
  H      2.843514    1.260845   -2.751465
  O      4.809132    1.150187   -6.414361
  O      6.267366    0.564999   -4.819481

 Total Charge           Charge          ....    0
 Multiplicity           Mult            ....    1
 Number of Electrons    NEL             ....   78
 Basis Dimension        Dim             ....  713

ORBITAL ENERGIES
----------------

  NO   OCC          E(Eh)            E(eV)
   0   2.0000     -20.463195      -556.8318
   1   2.0000     -20.462086      -556.8017
   2   2.0000     -15.629224      -425.2928
   3   2.0000     -15.616251      -424.9398
   4   2.0000     -15.595242      -424.3681
   5   2.0000     -11.421145      -310.7851
   6   2.0000     -11.301048      -307.5171
   7   2.0000     -11.291219      -307.2497
   8   2.0000     -11.237866      -305.7979
   9   2.0000     -11.205605      -304.9200
  10   2.0000      -1.379561       -37.5398
  11   2.0000      -1.346478       -36.6395
  12   2.0000      -1.247006       -33.9327
  13   2.0000      -1.241378       -33.7796
  14   2.0000      -1.222121       -33.2556
  15   2.0000      -1.068090       -29.0642
  16   2.0000      -0.962712       -26.1967
  17   2.0000      -0.872450       -23.7406
  18   2.0000      -0.844185       -22.9714
  19   2.0000      -0.798687       -21.7334
  20   2.0000      -0.762847       -20.7581
  21   2.0000      -0.712714       -19.3939
  22   2.0000      -0.688971       -18.7479
  23   2.0000      -0.687328       -18.7031
  24   2.0000      -0.659039       -17.9334
  25   2.0000      -0.643819       -17.5192
  26   2.0000      -0.606650       -16.5078
  27   2.0000      -0.596383       -16.2284
  28   2.0000      -0.577199       -15.7064
  29   2.0000      -0.552148       -15.0247
  30   2.0000      -0.543105       -14.7787
  31   2.0000      -0.537898       -14.6369
  32   2.0000      -0.490899       -13.3580
  33   2.0000      -0.484780       -13.1915
  34   2.0000      -0.463713       -12.6183
  35   2.0000      -0.429523       -11.6879
  36   2.0000      -0.382824       -10.4172
  37   2.0000      -0.372752       -10.1431
  38   2.0000      -0.366730        -9.9792
  39   0.0000       0.016141         0.4392
  40   0.0000       0.028463         0.7745
  41   0.0000       0.035108         0.9553
  42   0.0000       0.039306         1.0696
  43   0.0000       0.050314         1.3691

MULLIKEN ATOMIC CHARGES
-----------------------
   0 C :   -0.572761
   1 N :   -0.097778
   2 C :   -0.453604
   3 C :   -0.418411
   4 H :    0.347203
   5 H :    0.246662
   6 C :    1.089543
   7 C :    1.274644
   8 N :   -0.607044
   9 N :   -0.572866
  10 H :    0.122748
  11 H :    0.145202
  12 H :    0.119991
  13 H :    0.238820
  14 H :    0.133392
  15 H :    0.329624
  16 H :    0.256687
  17 H :    0.212784
  18 H :    0.325206
  19 O :   -1.081196
  20 O :   -1.038845
Sum of atomic charges:   -0.0000000

LOEWDIN ATOMIC CHARGES
----------------------
   0 C :    0.231338
   1 N :    0.617796
   2 C :    0.293680
   3 C :    0.257385
   4 H :   -0.159123
   5 H :   -0.174164
   6 C :   -1.102868
   7 C :   -0.436974
   8 N :    0.925836
   9 N :    0.928822
  10 H :   -0.256841
  11 H :   -0.274481
  12 H :   -0.315867
  13 H :   -0.490808
  14 H :   -0.248664
  15 H :   -0.154224
  16 H :   -0.134624
  17 H :   -0.143366
  18 H :   -0.141708
  19 O :    0.359875
  20 O :    0.418980

  Mayer bond orders larger than 0.100000
B(  0-C ,  1-N ) :   0.9253 B(  0-C ,  2-C ) :   0.8399 B(  0-C , 15-H ) :   0.9606
B(  0-C , 16-H ) :   0.9444 B(  1-N ,  7-C ) :   1.0316 B(  1-N , 12-H ) :   1.0403
B(  2-C ,  3-C ) :   0.8812 B(  2-C ,  6-C ) :   0.1099 B(  2-C , 17-H ) :   1.0118
B(  2-C , 18-H ) :   0.8956 B(  3-C ,  4-H ) :   0.9014 B(  3-C ,  5-H ) :   0.9978
B(  3-C ,  6-C ) :   0.8733 B(  6-C , 19-O ) :   1.0725 B(  6-C , 20-O ) :   1.0775
B(  7-C ,  8-N ) :   0.7750 B(  7-C ,  9-N ) :   0.5905 B(  8-N , 13-H ) :   0.8881
B(  8-N , 14-H ) :   1.0321 B(  9-N , 10-H ) :   1.0565 B(  9-N , 11-H ) :   1.0062
B( 13-H , 20-O ) :   0.1720

E(0)                                       ...   -509.024253612
E(0)                                       ...   -509.024253612
E(CORR)(strong-pairs)                      ...     -2.000741377
E(CORR)(weak-pairs)                        ...     -0.002789442
E(CORR)(corrected)                         ...     -2.003530819
E(TOT)                                     ...   -511.027784431
E(CCSD(T))                                 ...   -511.115370304
FINAL SINGLE POINT ENERGY      -511.115370304367

DIPOLE MOMENT
-------------
                                X             Y             Z
Electronic contribution:      4.06233       0.45842      -3.37761
Nuclear contribution   :     -4.94498       2.03334       3.78956
                        -----------------------------------------
Total Dipole Moment    :     -0.88265       2.49176       0.41195
                        -----------------------------------------
Magnitude (a.u.)       :      2.67538
Magnitude (Debye)      :      6.80028

Rotational constants in cm-1:     0.062533     0.042832     0.033687
Rotational constants in MHz :  1874.701390  1284.063603  1009.911042

                             ****ORCA TERMINATED NORMALLY****
TOTAL RUN TIME: 0 days 1 hours 49 minutes 29 seconds 131 msec
