                         Program Version 5.0.0 -  RELEASE  -
|  1> !DLPNO-CCSD(T) aug-cc-pVTZ aug-cc-pVTZ/C TightSCF TightPNO RIJCOSX def2/J
|  2> *xyz 0 1
|  3> C          3.93993        0.32036       -4.36773
|  4> C          5.10585        0.66802       -5.30546
|  5> F          4.80913        1.15019       -6.41436
|  6> O          6.26737        0.56500       -4.81948
|  7> H          3.01376        0.44480       -4.88890
|  8> H          3.96058        0.96928       -3.51722
|  9> H          4.03331       -0.69517       -4.04388
| 10> *
| 11>
| 12> %MaxCore 64000
| 13>
| 14> %pal nprocs 8
| 15> end
| 16>
| 17> %scf
| 18>   MaxIter 150
| 19> end
| 20>
| 21>
| 22>                          ****END OF INPUT****

CARTESIAN COORDINATES (ANGSTROEM)
---------------------------------
  C      3.939930    0.320360   -4.367730
  C      5.105850    0.668020   -5.305460
  F      4.809130    1.150190   -6.414360
  O      6.267370    0.565000   -4.819480
  H      3.013760    0.444800   -4.888900
  H      3.960580    0.969280   -3.517220
  H      4.033310   -0.695170   -4.043880

 Total Charge           Charge          ....    0
 Multiplicity           Mult            ....    1
 Number of Electrons    NEL             ....   32
 Basis Dimension        Dim             ....  253

ORBITAL ENERGIES
----------------

  NO   OCC          E(Eh)            E(eV)
   0   2.0000     -26.384428      -717.9568
   1   2.0000     -20.563969      -559.5740
   2   2.0000     -11.437531      -311.2310
   3   2.0000     -11.255737      -306.2842
   4   2.0000      -1.742414       -47.4135
   5   2.0000      -1.371023       -37.3074
   6   2.0000      -1.040374       -28.3100
   7   2.0000      -0.908735       -24.7279
   8   2.0000      -0.785893       -21.3852
   9   2.0000      -0.778171       -21.1751
  10   2.0000      -0.709889       -19.3171
  11   2.0000      -0.613292       -16.6885
  12   2.0000      -0.599780       -16.3208
  13   2.0000      -0.583909       -15.8890
  14   2.0000      -0.493718       -13.4347
  15   2.0000      -0.467934       -12.7331
  16   0.0000       0.025560         0.6955
  17   0.0000       0.044602         1.2137
  18   0.0000       0.044971         1.2237
  19   0.0000       0.062523         1.7013
  20   0.0000       0.097244         2.6461

MULLIKEN ATOMIC CHARGES
-----------------------
   0 C :   -0.696156
   1 C :    0.550292
   2 F :   -0.220557
   3 O :   -0.586238
   4 H :    0.318658
   5 H :    0.314623
   6 H :    0.319377
Sum of atomic charges:   -0.0000000

LOEWDIN ATOMIC CHARGES
----------------------
   0 C :    0.584252
   1 C :   -0.929779
   2 F :    0.584675
   3 O :    0.359739
   4 H :   -0.212395
   5 H :   -0.191505
   6 H :   -0.194986

  Mayer bond orders larger than 0.100000
B(  0-C ,  1-C ) :   0.8161 B(  0-C ,  4-H ) :   0.9051 B(  0-C ,  5-H ) :   0.8980
B(  0-C ,  6-H ) :   0.9000 B(  1-C ,  2-F ) :   0.9475 B(  1-C ,  3-O ) :   1.7432

E(0)                                       ...   -251.875370894
E(0)                                       ...   -251.875370894
E(CORR)(strong-pairs)                      ...     -0.838380884
E(CORR)(weak-pairs)                        ...     -0.000614606
E(CORR)(corrected)                         ...     -0.838995490
E(TOT)                                     ...   -252.714366385
E(CCSD(T))                                 ...   -252.747136624
FINAL SINGLE POINT ENERGY      -252.747136624040

DIPOLE MOMENT
-------------
                                X             Y             Z
Electronic contribution:      2.25923       1.60794      -4.16096
Nuclear contribution   :     -3.58567      -1.71656       4.24175
                        -----------------------------------------
Total Dipole Moment    :     -1.32644      -0.10862       0.08079
                        -----------------------------------------
Magnitude (a.u.)       :      1.33333
Magnitude (Debye)      :      3.38905

Rotational constants in cm-1:     0.365806     0.323297     0.177262
Rotational constants in MHz : 10966.600844  9692.195205  5314.176777

                             ****ORCA TERMINATED NORMALLY****
TOTAL RUN TIME: 0 days 0 hours 2 minutes 27 seconds 131 msec
