                         Program Version 5.0.0 -  RELEASE  -
|  1> !DLPNO-CCSD(T) aug-cc-pVTZ aug-cc-pVTZ/C TightSCF TightPNO RIJCOSX def2/J
|  2> *xyz 0 1
|  3> C          3.90595        2.81985       -3.75292
|  4> C          5.29562        3.13151       -4.10533
|  5> C          5.70862        3.46889       -5.32419
|  6> N          6.90470        3.03895       -5.71708
|  7> N          4.98188        4.29357       -6.09746
|  8> H          5.00055        4.10131       -7.08776
|  9> H          4.08469        4.59690       -5.73965
| 10> H          5.96336        2.52611       -3.64239
| 11> H          7.04716        2.06686       -5.47360
| 12> H          7.19815        3.30799       -6.64523
| 13> H          3.24866        3.48801       -4.26909
| 14> H          3.77188        2.93227       -2.69732
| 15> H          3.68381        1.81198       -4.03533
| 16> *
| 17>
| 18> %MaxCore 64000
| 19>
| 20> %pal nprocs 2
| 21> end
| 22>
| 23> %scf
| 24>   MaxIter 150
| 25> end
| 26>
| 27>
| 28>                          ****END OF INPUT****

CARTESIAN COORDINATES (ANGSTROEM)
---------------------------------
  C      3.905950    2.819850   -3.752920
  C      5.295620    3.131510   -4.105330
  C      5.708620    3.468890   -5.324190
  N      6.904700    3.038950   -5.717080
  N      4.981880    4.293570   -6.097460
  H      5.000550    4.101310   -7.087760
  H      4.084690    4.596900   -5.739650
  H      5.963360    2.526110   -3.642390
  H      7.047160    2.066860   -5.473600
  H      7.198150    3.307990   -6.645230
  H      3.248660    3.488010   -4.269090
  H      3.771880    2.932270   -2.697320
  H      3.683810    1.811980   -4.035330

 Total Charge           Charge          ....    0
 Multiplicity           Mult            ....    1
 Number of Electrons    NEL             ....   40
 Basis Dimension        Dim             ....  414

ORBITAL ENERGIES
----------------

  NO   OCC          E(Eh)            E(eV)
   0   2.0000     -15.564883      -423.5420
   1   2.0000     -15.563228      -423.4970
   2   2.0000     -11.282648      -307.0164
   3   2.0000     -11.189650      -304.4858
   4   2.0000     -11.144159      -303.2480
   5   2.0000      -1.283366       -34.9222
   6   2.0000      -1.172187       -31.8968
   7   2.0000      -1.026277       -27.9264
   8   2.0000      -0.896862       -24.4048
   9   2.0000      -0.779856       -21.2210
  10   2.0000      -0.717539       -19.5252
  11   2.0000      -0.691062       -18.8048
  12   2.0000      -0.646645       -17.5961
  13   2.0000      -0.596002       -16.2180
  14   2.0000      -0.562094       -15.2953
  15   2.0000      -0.536108       -14.5882
  16   2.0000      -0.508950       -13.8492
  17   2.0000      -0.480250       -13.0683
  18   2.0000      -0.426124       -11.5954
  19   2.0000      -0.268410        -7.3038
  20   0.0000       0.023370         0.6359
  21   0.0000       0.036379         0.9899
  22   0.0000       0.039810         1.0833
  23   0.0000       0.047797         1.3006
  24   0.0000       0.056601         1.5402

MULLIKEN ATOMIC CHARGES
-----------------------
   0 C :   -0.893454
   1 C :   -0.407962
   2 C :    0.619960
   3 N :   -0.489565
   4 N :   -0.410237
   5 H :    0.105467
   6 H :    0.110399
   7 H :    0.344100
   8 H :    0.127518
   9 H :    0.067148
  10 H :    0.319462
  11 H :    0.236416
  12 H :    0.270747
Sum of atomic charges:    0.0000000

LOEWDIN ATOMIC CHARGES
----------------------
   0 C :    0.542870
   1 C :    0.204211
   2 C :   -0.439873
   3 N :    0.857174
   4 N :    0.865423
   5 H :   -0.288019
   6 H :   -0.300594
   7 H :   -0.291762
   8 H :   -0.281098
   9 H :   -0.286550
  10 H :   -0.211403
  11 H :   -0.188795
  12 H :   -0.181583

  Mayer bond orders larger than 0.100000
B(  0-C ,  1-C ) :   0.8559 B(  0-C , 10-H ) :   0.9012 B(  0-C , 11-H ) :   1.0670
B(  0-C , 12-H ) :   0.9358 B(  1-C ,  2-C ) :   1.2698 B(  1-C ,  4-N ) :  -0.1493
B(  1-C ,  7-H ) :   0.9062 B(  2-C ,  3-N ) :   0.6818 B(  2-C ,  4-N ) :   0.7870
B(  3-N ,  4-N ) :  -0.1134 B(  3-N ,  8-H ) :   1.0768 B(  3-N ,  9-H ) :   1.0943
B(  4-N ,  5-H ) :   1.0428 B(  4-N ,  6-H ) :   1.0924

E(0)                                       ...   -227.196931835
E(0)                                       ...   -227.196931835
E(CORR)(strong-pairs)                      ...     -0.980868911
E(CORR)(weak-pairs)                        ...     -0.000973219
E(CORR)(corrected)                         ...     -0.981842130
E(TOT)                                     ...   -228.178773965
E(CCSD(T))                                 ...   -228.219297946
FINAL SINGLE POINT ENERGY      -228.219297946414

DIPOLE MOMENT
-------------
                                X             Y             Z
Electronic contribution:      2.50173       1.30663      -1.88293
Nuclear contribution   :     -2.63304      -1.77161       0.70501
                        -----------------------------------------
Total Dipole Moment    :     -0.13131      -0.46499      -1.17792
                        -----------------------------------------
Magnitude (a.u.)       :      1.27317
Magnitude (Debye)      :      3.23614

Rotational constants in cm-1:     0.303572     0.135185     0.098519
Rotational constants in MHz :  9100.846149  4052.756012  2953.539431

                             ****ORCA TERMINATED NORMALLY****
TOTAL RUN TIME: 0 days 2 hours 9 minutes 5 seconds 316 msec
