                         Program Version 5.0.0 -  RELEASE  -
|  1> !DLPNO-CCSD(T) aug-cc-pVTZ aug-cc-pVTZ/C TightSCF TightPNO RIJCOSX def2/J
|  2> *xyz 0 1
|  3> C          3.93993        0.32036       -4.36773
|  4> C          5.10585        0.66802       -5.30546
|  5> O          4.80913        1.15019       -6.41436
|  6> F          6.26737        0.56500       -4.81948
|  7> H          3.01376        0.44480       -4.88890
|  8> H          3.96058        0.96928       -3.51722
|  9> H          4.03331       -0.69517       -4.04388
| 10> *
| 11>
| 12> %MaxCore 64000
| 13>
| 14> %pal nprocs 8
| 15> end
| 16>
| 17> %scf
| 18>   MaxIter 150
| 19> end
| 20>
| 21>
| 22>                          ****END OF INPUT****

CARTESIAN COORDINATES (ANGSTROEM)
---------------------------------
  C      3.939930    0.320360   -4.367730
  C      5.105850    0.668020   -5.305460
  O      4.809130    1.150190   -6.414360
  F      6.267370    0.565000   -4.819480
  H      3.013760    0.444800   -4.888900
  H      3.960580    0.969280   -3.517220
  H      4.033310   -0.695170   -4.043880

 Total Charge           Charge          ....    0
 Multiplicity           Mult            ....    1
 Number of Electrons    NEL             ....   32
 Basis Dimension        Dim             ....  253

ORBITAL ENERGIES
----------------

  NO   OCC          E(Eh)            E(eV)
   0   2.0000     -26.376749      -717.7478
   1   2.0000     -20.568436      -559.6956
   2   2.0000     -11.434799      -311.1567
   3   2.0000     -11.255266      -306.2714
   4   2.0000      -1.727046       -46.9953
   5   2.0000      -1.385300       -37.6959
   6   2.0000      -1.038894       -28.2697
   7   2.0000      -0.898712       -24.4552
   8   2.0000      -0.776276       -21.1236
   9   2.0000      -0.769619       -20.9424
  10   2.0000      -0.712593       -19.3906
  11   2.0000      -0.612322       -16.6621
  12   2.0000      -0.603209       -16.4142
  13   2.0000      -0.586815       -15.9680
  14   2.0000      -0.504302       -13.7227
  15   2.0000      -0.470285       -12.7971
  16   0.0000       0.025538         0.6949
  17   0.0000       0.041835         1.1384
  18   0.0000       0.048191         1.3113
  19   0.0000       0.063463         1.7269
  20   0.0000       0.097751         2.6599

MULLIKEN ATOMIC CHARGES
-----------------------
   0 C :   -0.734273
   1 C :    0.595327
   2 O :   -0.565803
   3 F :   -0.248022
   4 H :    0.331845
   5 H :    0.309215
   6 H :    0.311710
Sum of atomic charges:   -0.0000000

LOEWDIN ATOMIC CHARGES
----------------------
   0 C :    0.583593
   1 C :   -0.924467
   2 O :    0.379523
   3 F :    0.561917
   4 H :   -0.201817
   5 H :   -0.196468
   6 H :   -0.202283

  Mayer bond orders larger than 0.100000
B(  0-C ,  1-C ) :   0.8582 B(  0-C ,  4-H ) :   0.8999 B(  0-C ,  5-H ) :   0.9056
B(  0-C ,  6-H ) :   0.9072 B(  1-C ,  2-O ) :   1.7245 B(  1-C ,  3-F ) :   0.9224

E(0)                                       ...   -251.881934090
E(0)                                       ...   -251.881934090
E(CORR)(strong-pairs)                      ...     -0.837705043
E(CORR)(weak-pairs)                        ...     -0.000612920
E(CORR)(corrected)                         ...     -0.838317963
E(TOT)                                     ...   -252.720252053
E(CCSD(T))                                 ...   -252.752787483
FINAL SINGLE POINT ENERGY      -252.752787483004

DIPOLE MOMENT
-------------
                                X             Y             Z
Electronic contribution:      4.73183       0.61912      -1.46358
Nuclear contribution   :     -5.09247      -1.11188       2.59376
                        -----------------------------------------
Total Dipole Moment    :     -0.36063      -0.49276       1.13019
                        -----------------------------------------
Magnitude (a.u.)       :      1.28460
Magnitude (Debye)      :      3.26519

Rotational constants in cm-1:     0.367940     0.321271     0.177147
Rotational constants in MHz : 11030.570495  9631.458923  5310.737691

                             ****ORCA TERMINATED NORMALLY****
TOTAL RUN TIME: 0 days 0 hours 2 minutes 23 seconds 586 msec
