                         Program Version 5.0.0 -  RELEASE  -
|  1> !DLPNO-CCSD(T) aug-cc-pVTZ aug-cc-pVTZ/C TightSCF TightPNO RIJCOSX def2/J
|  2> *xyz 0 1
|  3> C          3.90595        2.81985       -3.75292
|  4> N          5.29562        3.13151       -4.10533
|  5> C          5.70862        3.46889       -5.32419
|  6> C          6.90470        3.03895       -5.71708
|  7> N          4.98188        4.29357       -6.09746
|  8> H          5.00055        4.10131       -7.08776
|  9> H          4.08469        4.59690       -5.73965
| 10> H          5.96336        2.52611       -3.64239
| 11> H          7.04716        2.06686       -5.47360
| 12> H          7.19815        3.30799       -6.64523
| 13> H          3.24866        3.48801       -4.26909
| 14> H          3.77188        2.93227       -2.69732
| 15> H          3.68381        1.81198       -4.03533
| 16> *
| 17>
| 18> %MaxCore 64000
| 19>
| 20> %pal nprocs 2
| 21> end
| 22>
| 23> %scf
| 24>   MaxIter 150
| 25> end
| 26>
| 27>
| 28>                          ****END OF INPUT****

CARTESIAN COORDINATES (ANGSTROEM)
---------------------------------
  C      3.905950    2.819850   -3.752920
  N      5.295620    3.131510   -4.105330
  C      5.708620    3.468890   -5.324190
  C      6.904700    3.038950   -5.717080
  N      4.981880    4.293570   -6.097460
  H      5.000550    4.101310   -7.087760
  H      4.084690    4.596900   -5.739650
  H      5.963360    2.526110   -3.642390
  H      7.047160    2.066860   -5.473600
  H      7.198150    3.307990   -6.645230
  H      3.248660    3.488010   -4.269090
  H      3.771880    2.932270   -2.697320
  H      3.683810    1.811980   -4.035330

 Total Charge           Charge          ....    0
 Multiplicity           Mult            ....    1
 Number of Electrons    NEL             ....   40
 Basis Dimension        Dim             ....  414

ORBITAL ENERGIES
----------------

  NO   OCC          E(Eh)            E(eV)
   0   2.0000     -15.567734      -423.6196
   1   2.0000     -15.565021      -423.5458
   2   2.0000     -11.291984      -307.2705
   3   2.0000     -11.260964      -306.4264
   4   2.0000     -11.130407      -302.8738
   5   2.0000      -1.290645       -35.1202
   6   2.0000      -1.185350       -32.2550
   7   2.0000      -1.010038       -27.4845
   8   2.0000      -0.920246       -25.0412
   9   2.0000      -0.799282       -21.7496
  10   2.0000      -0.718068       -19.5396
  11   2.0000      -0.669323       -18.2132
  12   2.0000      -0.649800       -17.6820
  13   2.0000      -0.622256       -16.9324
  14   2.0000      -0.565012       -15.3748
  15   2.0000      -0.550200       -14.9717
  16   2.0000      -0.545121       -14.8335
  17   2.0000      -0.499579       -13.5942
  18   2.0000      -0.406798       -11.0695
  19   2.0000      -0.279057        -7.5935
  20   0.0000       0.024087         0.6554
  21   0.0000       0.035027         0.9531
  22   0.0000       0.040505         1.1022
  23   0.0000       0.045797         1.2462
  24   0.0000       0.056123         1.5272

MULLIKEN ATOMIC CHARGES
-----------------------
   0 C :   -0.872889
   1 N :   -0.124333
   2 C :    0.709491
   3 C :   -1.272193
   4 N :   -0.426626
   5 H :    0.079057
   6 H :    0.133857
   7 H :    0.061975
   8 H :    0.309738
   9 H :    0.359514
  10 H :    0.378837
  11 H :    0.330887
  12 H :    0.332685
Sum of atomic charges:    0.0000000

LOEWDIN ATOMIC CHARGES
----------------------
   0 C :    0.542744
   1 N :    0.557724
   2 C :   -0.463151
   3 C :    0.546637
   4 N :    0.872910
   5 H :   -0.275739
   6 H :   -0.310470
   7 H :   -0.285104
   8 H :   -0.321473
   9 H :   -0.316607
  10 H :   -0.199570
  11 H :   -0.174202
  12 H :   -0.173701

  Mayer bond orders larger than 0.100000
B(  0-C ,  1-N ) :   0.8624 B(  0-C ,  2-C ) :  -0.1234 B(  0-C , 10-H ) :   0.8580
B(  0-C , 11-H ) :   0.9398 B(  0-C , 12-H ) :   0.8964 B(  1-N ,  2-C ) :   0.9126
B(  1-N ,  3-C ) :  -0.1125 B(  1-N ,  4-N ) :  -0.1392 B(  1-N ,  7-H ) :   1.0793
B(  2-C ,  3-C ) :   1.1009 B(  2-C ,  4-N ) :   0.7009 B(  3-C ,  8-H ) :   0.9917
B(  3-C ,  9-H ) :   0.9119 B(  4-N ,  5-H ) :   1.1280 B(  4-N ,  6-H ) :   1.0355

E(0)                                       ...   -227.186715448
E(0)                                       ...   -227.186715448
E(CORR)(strong-pairs)                      ...     -0.977987741
E(CORR)(weak-pairs)                        ...     -0.000977191
E(CORR)(corrected)                         ...     -0.978964932
E(TOT)                                     ...   -228.165680381
E(CCSD(T))                                 ...   -228.206136663
FINAL SINGLE POINT ENERGY      -228.206136662698

DIPOLE MOMENT
-------------
                                X             Y             Z
Electronic contribution:      0.83552       1.42539      -0.29264
Nuclear contribution   :     -2.30713      -1.79036       0.37856
                        -----------------------------------------
Total Dipole Moment    :     -1.47161      -0.36497       0.08592
                        -----------------------------------------
Magnitude (a.u.)       :      1.51862
Magnitude (Debye)      :      3.86004

Rotational constants in cm-1:     0.307513     0.139026     0.101190
Rotational constants in MHz :  9218.994719  4167.905268  3033.592538

                             ****ORCA TERMINATED NORMALLY****
TOTAL RUN TIME: 0 days 2 hours 14 minutes 35 seconds 956 msec
