                         Program Version 5.0.0 -  RELEASE  -
|  1> !DLPNO-CCSD(T) aug-cc-pVTZ aug-cc-pVTZ/C TightSCF TightPNO RIJCOSX def2/J
|  2> *xyz 0 1
|  3> C          3.90595        2.81985       -3.75292
|  4> N          5.29562        3.13151       -4.10533
|  5> C          5.70862        3.46889       -5.32419
|  6> N          6.90470        3.03895       -5.71708
|  7> C          4.98188        4.29357       -6.09746
|  8> H          5.00055        4.10131       -7.08776
|  9> H          4.08469        4.59690       -5.73965
| 10> H          5.96336        2.52611       -3.64239
| 11> H          7.04716        2.06686       -5.47360
| 12> H          7.19815        3.30799       -6.64523
| 13> H          3.24866        3.48801       -4.26909
| 14> H          3.77188        2.93227       -2.69732
| 15> H          3.68381        1.81198       -4.03533
| 16> *
| 17>
| 18> %MaxCore 64000
| 19>
| 20> %pal nprocs 2
| 21> end
| 22>
| 23> %scf
| 24>   MaxIter 150
| 25> end
| 26>
| 27>
| 28>                          ****END OF INPUT****

CARTESIAN COORDINATES (ANGSTROEM)
---------------------------------
  C      3.905950    2.819850   -3.752920
  N      5.295620    3.131510   -4.105330
  C      5.708620    3.468890   -5.324190
  N      6.904700    3.038950   -5.717080
  C      4.981880    4.293570   -6.097460
  H      5.000550    4.101310   -7.087760
  H      4.084690    4.596900   -5.739650
  H      5.963360    2.526110   -3.642390
  H      7.047160    2.066860   -5.473600
  H      7.198150    3.307990   -6.645230
  H      3.248660    3.488010   -4.269090
  H      3.771880    2.932270   -2.697320
  H      3.683810    1.811980   -4.035330

 Total Charge           Charge          ....    0
 Multiplicity           Mult            ....    1
 Number of Electrons    NEL             ....   40
 Basis Dimension        Dim             ....  414

ORBITAL ENERGIES
----------------

  NO   OCC          E(Eh)            E(eV)
   0   2.0000     -15.567491      -423.6130
   1   2.0000     -15.565823      -423.5676
   2   2.0000     -11.290472      -307.2294
   3   2.0000     -11.254128      -306.2404
   4   2.0000     -11.135302      -303.0070
   5   2.0000      -1.296014       -35.2663
   6   2.0000      -1.186836       -32.2954
   7   2.0000      -0.984876       -26.7998
   8   2.0000      -0.943805       -25.6822
   9   2.0000      -0.770509       -20.9666
  10   2.0000      -0.722584       -19.6625
  11   2.0000      -0.704588       -19.1728
  12   2.0000      -0.623337       -16.9618
  13   2.0000      -0.610118       -16.6021
  14   2.0000      -0.583236       -15.8707
  15   2.0000      -0.544651       -14.8207
  16   2.0000      -0.534861       -14.5543
  17   2.0000      -0.502496       -13.6736
  18   2.0000      -0.407925       -11.1002
  19   2.0000      -0.278239        -7.5713
  20   0.0000       0.023426         0.6374
  21   0.0000       0.035398         0.9632
  22   0.0000       0.041060         1.1173
  23   0.0000       0.044945         1.2230
  24   0.0000       0.057456         1.5635

MULLIKEN ATOMIC CHARGES
-----------------------
   0 C :   -0.930807
   1 N :   -0.147457
   2 C :    0.601517
   3 N :   -0.516443
   4 C :   -1.146835
   5 H :    0.315101
   6 H :    0.418378
   7 H :    0.076038
   8 H :    0.119944
   9 H :    0.122065
  10 H :    0.423998
  11 H :    0.329493
  12 H :    0.335007
Sum of atomic charges:    0.0000000

LOEWDIN ATOMIC CHARGES
----------------------
   0 C :    0.545877
   1 N :    0.559158
   2 C :   -0.468481
   3 N :    0.857815
   4 C :    0.556532
   5 H :   -0.318319
   6 H :   -0.333099
   7 H :   -0.288333
   8 H :   -0.287553
   9 H :   -0.277205
  10 H :   -0.199271
  11 H :   -0.174180
  12 H :   -0.172942

  Mayer bond orders larger than 0.100000
B(  0-C ,  1-N ) :   0.9252 B(  0-C , 10-H ) :   0.8281 B(  0-C , 11-H ) :   0.9378
B(  0-C , 12-H ) :   0.9021 B(  1-N ,  2-C ) :   0.8104 B(  1-N ,  3-N ) :  -0.1070
B(  1-N ,  7-H ) :   1.0163 B(  2-C ,  3-N ) :   0.8953 B(  2-C ,  4-C ) :   1.2102
B(  3-N ,  4-C ) :  -0.1447 B(  3-N ,  8-H ) :   1.0260 B(  3-N ,  9-H ) :   1.0649
B(  4-C ,  5-H ) :   1.0188 B(  4-C ,  6-H ) :   0.8328

E(0)                                       ...   -227.190997420
E(0)                                       ...   -227.190997420
E(CORR)(strong-pairs)                      ...     -0.977883394
E(CORR)(weak-pairs)                        ...     -0.000979435
E(CORR)(corrected)                         ...     -0.978862829
E(TOT)                                     ...   -228.169860249
E(CCSD(T))                                 ...   -228.210290473
FINAL SINGLE POINT ENERGY      -228.210290472553

DIPOLE MOMENT
-------------
                                X             Y             Z
Electronic contribution:      2.77699       0.17865       0.01924
Nuclear contribution   :     -2.69659      -1.53624       0.30152
                        -----------------------------------------
Total Dipole Moment    :      0.08040      -1.35760       0.32076
                        -----------------------------------------
Magnitude (a.u.)       :      1.39729
Magnitude (Debye)      :      3.55163

Rotational constants in cm-1:     0.320409     0.134796     0.100241
Rotational constants in MHz :  9605.632807  4041.079317  3005.150506

                             ****ORCA TERMINATED NORMALLY****
TOTAL RUN TIME: 0 days 2 hours 9 minutes 50 seconds 895 msec
