                         Program Version 5.0.0 -  RELEASE  -
|  1> !DLPNO-CCSD(T) aug-cc-pVTZ aug-cc-pVTZ/C TightSCF TightPNO RIJCOSX def2/J
|  2>
|  3> *xyzfile 0 1 D5.xyz
|  4>
|  5> %MaxCore 64000
|  6>
|  7> %pal nprocs 18
|  8> end
|  9>
| 10> %scf
| 11>   MaxIter 150
| 12> end
| 13>
| 14>
| 15>                          ****END OF INPUT****

CARTESIAN COORDINATES (ANGSTROEM)
---------------------------------
  C      3.905947    2.819855   -3.752920
  N      5.295615    3.131515   -4.105334
  C      3.803511    1.374716   -3.260807
  C      3.939934    0.320362   -4.367729
  H      4.105043   -0.655085   -3.907733
  H      3.022801    0.280517   -4.957117
  C      5.105846    0.668022   -5.305463
  C      5.708619    3.468885   -5.324190
  C      6.904696    3.038954   -5.717084
  N      4.981884    4.293570   -6.097457
  H      5.000546    4.101311   -7.087761
  H      4.084693    4.596899   -5.739652
  H      5.963358    2.526112   -3.642391
  H      7.047164    2.066861   -5.473604
  H      7.198145    3.307994   -6.645225
  H      3.282025    2.949187   -4.640259
  H      3.565254    3.514574   -2.982523
  H      4.574833    1.215157   -2.500443
  H      2.843514    1.260845   -2.751465
  O      4.809132    1.150187   -6.414361
  F      6.267366    0.564999   -4.819481

 Total Charge           Charge          ....    0
 Multiplicity           Mult            ....    1
 Number of Electrons    NEL             ....   78
 Basis Dimension        Dim             ....  713

ORBITAL ENERGIES
----------------

  NO   OCC          E(Eh)            E(eV)
   0   2.0000     -26.378452      -717.7942
   1   2.0000     -20.567584      -559.6724
   2   2.0000     -15.565503      -423.5589
   3   2.0000     -15.556971      -423.3267
   4   2.0000     -11.435198      -311.1675
   5   2.0000     -11.280771      -306.9654
   6   2.0000     -11.277890      -306.8870
   7   2.0000     -11.270331      -306.6813
   8   2.0000     -11.260708      -306.4194
   9   2.0000     -11.112113      -302.3760
  10   2.0000      -1.734610       -47.2011
  11   2.0000      -1.389042       -37.7978
  12   2.0000      -1.290107       -35.1056
  13   2.0000      -1.186455       -32.2851
  14   2.0000      -1.100051       -29.9339
  15   2.0000      -1.005800       -27.3692
  16   2.0000      -0.957237       -26.0478
  17   2.0000      -0.902144       -24.5486
  18   2.0000      -0.846474       -23.0337
  19   2.0000      -0.806877       -21.9562
  20   2.0000      -0.785626       -21.3780
  21   2.0000      -0.773932       -21.0598
  22   2.0000      -0.713432       -19.4135
  23   2.0000      -0.706499       -19.2248
  24   2.0000      -0.674889       -18.3647
  25   2.0000      -0.663792       -18.0627
  26   2.0000      -0.636517       -17.3205
  27   2.0000      -0.617728       -16.8092
  28   2.0000      -0.596037       -16.2190
  29   2.0000      -0.562319       -15.3015
  30   2.0000      -0.556760       -15.1502
  31   2.0000      -0.537956       -14.6385
  32   2.0000      -0.529828       -14.4174
  33   2.0000      -0.517329       -14.0772
  34   2.0000      -0.508141       -13.8272
  35   2.0000      -0.473424       -12.8825
  36   2.0000      -0.463307       -12.6072
  37   2.0000      -0.406510       -11.0617
  38   2.0000      -0.265342        -7.2203
  39   0.0000       0.020210         0.5499
  40   0.0000       0.029740         0.8093
  41   0.0000       0.034931         0.9505
  42   0.0000       0.038754         1.0545
  43   0.0000       0.051287         1.3956

MULLIKEN ATOMIC CHARGES
-----------------------
   0 C :   -0.485568
   1 N :   -0.187913
   2 C :   -0.459094
   3 C :   -0.394028
   4 H :    0.361933
   5 H :    0.270622
   6 C :    1.035535
   7 C :    1.496032
   8 C :   -1.473373
   9 N :   -0.804168
  10 H :    0.065452
  11 H :    0.062590
  12 H :    0.030937
  13 H :    0.424139
  14 H :    0.296764
  15 H :    0.314998
  16 H :    0.273678
  17 H :    0.193349
  18 H :    0.322479
  19 O :   -0.881488
  20 F :   -0.462876
Sum of atomic charges:   -0.0000000

LOEWDIN ATOMIC CHARGES
----------------------
   0 C :    0.218317
   1 N :    0.573359
   2 C :    0.296803
   3 C :    0.296853
   4 H :   -0.155346
   5 H :   -0.156423
   6 C :   -0.891179
   7 C :   -0.503615
   8 C :    0.530063
   9 N :    0.878138
  10 H :   -0.272355
  11 H :   -0.296646
  12 H :   -0.319716
  13 H :   -0.472717
  14 H :   -0.297892
  15 H :   -0.156999
  16 H :   -0.134949
  17 H :   -0.142639
  18 H :   -0.137748
  19 O :    0.465589
  20 F :    0.679102

  Mayer bond orders larger than 0.100000
B(  0-C ,  1-N ) :   0.8813 B(  0-C ,  2-C ) :   0.8410 B(  0-C , 15-H ) :   0.9866
B(  0-C , 16-H ) :   0.9392 B(  1-N ,  7-C ) :   0.6942 B(  1-N ,  8-C ) :  -0.1491
B(  1-N , 12-H ) :   1.1566 B(  2-C ,  3-C ) :   0.8818 B(  2-C ,  6-C ) :   0.1078
B(  2-C , 17-H ) :   1.0183 B(  2-C , 18-H ) :   0.9078 B(  3-C ,  4-H ) :   0.8890
B(  3-C ,  5-H ) :   0.9811 B(  3-C ,  6-C ) :   0.9025 B(  6-C , 19-O ) :   1.3388
B(  6-C , 20-F ) :   0.6506 B(  7-C ,  8-C ) :   1.0845 B(  7-C ,  9-N ) :   0.3183
B(  8-C , 13-H ) :   0.8673 B(  8-C , 14-H ) :   1.0331 B(  9-N , 10-H ) :   1.1374
B(  9-N , 11-H ) :   1.0955

E(0)                                       ...   -516.920432905
E(0)                                       ...   -516.920432905
E(CORR)(strong-pairs)                      ...     -1.984716116
E(CORR)(weak-pairs)                        ...     -0.002731850
E(CORR)(corrected)                         ...     -1.987447966
E(TOT)                                     ...   -518.907880871
E(CCSD(T))                                 ...   -518.992324574
FINAL SINGLE POINT ENERGY      -518.992324574390

DIPOLE MOMENT
-------------
                                X             Y             Z
Electronic contribution:      4.23438      -4.79963      -2.50026
Nuclear contribution   :     -6.05797       3.87976       3.55209
                        -----------------------------------------
Total Dipole Moment    :     -1.82359      -0.91987       1.05183
                        -----------------------------------------
Magnitude (a.u.)       :      2.29738
Magnitude (Debye)      :      5.83949

Rotational constants in cm-1:     0.061282     0.043164     0.033679
Rotational constants in MHz :  1837.191639  1294.028651  1009.659886

                             ****ORCA TERMINATED NORMALLY****
TOTAL RUN TIME: 0 days 1 hours 23 minutes 41 seconds 62 msec
