                         Program Version 5.0.0 -  RELEASE  -
|  1> !BLYP D3BJ RIJCOSX def2-SVP def2/J TightSCF
|  2> *xyz -1 1
|  3> C          3.76678       -2.26611       -6.51175
|  4> C          2.49670       -1.84416       -5.73570
|  5> H          1.62642       -2.21743       -6.30895
|  6> H          2.48182       -2.45607       -4.79341
|  7> O          2.45973       -0.50920       -5.50576
|  8> H          3.82914       -1.70941       -7.42340
|  9> H          3.71764       -3.31144       -6.73483
| 10> H          4.63199       -2.06931       -5.91377
| 11> *
| 12>
| 13> %MaxCore 64000
| 14>
| 15> %pal nprocs 4
| 16> end
| 17>
| 18> %scf
| 19>   MaxIter 150
| 20> end
| 21>
| 22>
| 23>                          ****END OF INPUT****

CARTESIAN COORDINATES (ANGSTROEM)
---------------------------------
  C      3.766780   -2.266110   -6.511750
  C      2.496700   -1.844160   -5.735700
  H      1.626420   -2.217430   -6.308950
  H      2.481820   -2.456070   -4.793410
  O      2.459730   -0.509200   -5.505760
  H      3.829140   -1.709410   -7.423400
  H      3.717640   -3.311440   -6.734830
  H      4.631990   -2.069310   -5.913770

 Total Charge           Charge          ....   -1
 Multiplicity           Mult            ....    1
 Number of Electrons    NEL             ....   26
 Basis Dimension        Dim             ....   67

ORBITAL ENERGIES
----------------

  NO   OCC          E(Eh)            E(eV)
   0   2.0000     -18.407695      -500.8989
   1   2.0000      -9.710532      -264.2370
   2   2.0000      -9.695984      -263.8411
   3   2.0000      -0.545332       -14.8392
   4   2.0000      -0.418992       -11.4013
   5   2.0000      -0.277366        -7.5475
   6   2.0000      -0.175141        -4.7658
   7   2.0000      -0.154038        -4.1916
   8   2.0000      -0.101534        -2.7629
   9   2.0000      -0.085967        -2.3393
  10   2.0000      -0.023684        -0.6445
  11   2.0000       0.118139         3.2147
  12   2.0000       0.122136         3.3235
  13   0.0000       0.233746         6.3605
  14   0.0000       0.273666         7.4468
  15   0.0000       0.286289         7.7903
  16   0.0000       0.296803         8.0764
  17   0.0000       0.336585         9.1589

MULLIKEN ATOMIC CHARGES
-----------------------
   0 C :    0.174368
   1 C :    0.276919
   2 H :   -0.213959
   3 H :   -0.220627
   4 O :   -0.616921
   5 H :   -0.113067
   6 H :   -0.177770
   7 H :   -0.108942
Sum of atomic charges:   -1.0000000

LOEWDIN ATOMIC CHARGES
----------------------
   0 C :   -0.099151
   1 C :    0.007323
   2 H :   -0.098091
   3 H :   -0.100913
   4 O :   -0.597404
   5 H :   -0.029421
   6 H :   -0.054931
   7 H :   -0.027413

  Mayer bond orders larger than 0.100000
B(  0-C ,  1-C ) :   1.0081 B(  0-C ,  4-O ) :  -0.1127 B(  0-C ,  5-H ) :   0.9324
B(  0-C ,  6-H ) :   0.8693 B(  0-C ,  7-H ) :   0.9385 B(  1-C ,  2-H ) :   0.8264
B(  1-C ,  3-H ) :   0.8125 B(  1-C ,  4-O ) :   1.5799 B(  4-O ,  6-H ) :   0.1139

Dispersion correction           -0.007746066
FINAL SINGLE POINT ENERGY      -154.216721865228

DIPOLE MOMENT
-------------
                                X             Y             Z
Electronic contribution:     -1.15193       3.13070       1.10290
Nuclear contribution   :      1.63615      -3.79938      -1.48621
                        -----------------------------------------
Total Dipole Moment    :      0.48422      -0.66868      -0.38331
                        -----------------------------------------
Magnitude (a.u.)       :      0.91024
Magnitude (Debye)      :      2.31364

Rotational constants in cm-1:     1.265582     0.329289     0.289024
Rotational constants in MHz : 37941.194363  9871.829581  8664.719106

                             ****ORCA TERMINATED NORMALLY****
TOTAL RUN TIME: 0 days 0 hours 0 minutes 5 seconds 716 msec
