                         Program Version 5.0.0 -  RELEASE  -
|  1> !BLYP D3BJ RIJCOSX def2-SVP def2/J TightSCF
|  2> *xyz 1 1
|  3> C          4.99986       -1.59613       -5.92488
|  4> N          5.28156       -1.97413       -4.53576
|  5> C          3.76678       -2.26611       -6.51175
|  6> C          4.79250       -1.36132       -3.45730
|  7> N          3.93990       -0.37492       -3.55736
|  8> N          5.25986       -1.75422       -2.23913
|  9> H          5.92282       -2.52145       -2.18672
| 10> H          4.65468       -1.64040       -1.44202
| 11> H          5.70914       -2.87560       -4.38702
| 12> H          3.33010       -0.31764       -4.36125
| 13> H          3.69849        0.11447       -2.70833
| 14> H          4.84333       -0.51793       -5.94302
| 15> H          5.90170       -1.82250       -6.49647
| 16> H          3.63046       -1.94025       -7.52177
| 17> H          2.90710       -2.00116       -5.93240
| 18> H          3.89538       -3.32820       -6.49392
| 19> *
| 20>
| 21> %MaxCore 64000
| 22>
| 23> %pal nprocs 4
| 24> end
| 25>
| 26> %scf
| 27>   MaxIter 150
| 28> end
| 29>
| 30>
| 31>                          ****END OF INPUT****

CARTESIAN COORDINATES (ANGSTROEM)
---------------------------------
  C      4.999860   -1.596130   -5.924880
  N      5.281560   -1.974130   -4.535760
  C      3.766780   -2.266110   -6.511750
  C      4.792500   -1.361320   -3.457300
  N      3.939900   -0.374920   -3.557360
  N      5.259860   -1.754220   -2.239130
  H      5.922820   -2.521450   -2.186720
  H      4.654680   -1.640400   -1.442020
  H      5.709140   -2.875600   -4.387020
  H      3.330100   -0.317640   -4.361250
  H      3.698490    0.114470   -2.708330
  H      4.843330   -0.517930   -5.943020
  H      5.901700   -1.822500   -6.496470
  H      3.630460   -1.940250   -7.521770
  H      2.907100   -2.001160   -5.932400
  H      3.895380   -3.328200   -6.493920

 Total Charge           Charge          ....    1
 Multiplicity           Mult            ....    1
 Number of Electrons    NEL             ....   48
 Basis Dimension        Dim             ....  134

ORBITAL ENERGIES
----------------

  NO   OCC          E(Eh)            E(eV)
   0   2.0000     -14.246744      -387.6736
   1   2.0000     -14.239954      -387.4889
   2   2.0000     -14.237459      -387.4210
   3   2.0000     -10.243514      -278.7402
   4   2.0000     -10.125346      -275.5247
   5   2.0000     -10.062961      -273.8271
   6   2.0000      -1.109804       -30.1993
   7   2.0000      -1.008559       -27.4443
   8   2.0000      -0.993880       -27.0449
   9   2.0000      -0.846196       -23.0262
  10   2.0000      -0.767742       -20.8913
  11   2.0000      -0.731888       -19.9157
  12   2.0000      -0.724482       -19.7141
  13   2.0000      -0.676414       -18.4062
  14   2.0000      -0.639020       -17.3886
  15   2.0000      -0.636141       -17.3103
  16   2.0000      -0.587377       -15.9833
  17   2.0000      -0.570534       -15.5250
  18   2.0000      -0.551874       -15.0173
  19   2.0000      -0.509112       -13.8537
  20   2.0000      -0.483588       -13.1591
  21   2.0000      -0.466266       -12.6878
  22   2.0000      -0.428495       -11.6599
  23   2.0000      -0.404342       -11.0027
  24   0.0000      -0.194731        -5.2989
  25   0.0000      -0.158792        -4.3210
  26   0.0000      -0.129447        -3.5224
  27   0.0000      -0.117058        -3.1853
  28   0.0000      -0.104024        -2.8306

MULLIKEN ATOMIC CHARGES
-----------------------
   0 C :    0.060436
   1 N :   -0.031052
   2 C :    0.085211
   3 C :   -0.107405
   4 N :    0.086453
   5 N :    0.035979
   6 H :    0.145890
   7 H :    0.148693
   8 H :    0.139819
   9 H :    0.154021
  10 H :    0.151067
  11 H :    0.023120
  12 H :    0.046718
  13 H :    0.045839
  14 H :   -0.006792
  15 H :    0.022004
Sum of atomic charges:    1.0000000

LOEWDIN ATOMIC CHARGES
----------------------
   0 C :    0.046729
   1 N :    0.053750
   2 C :   -0.034843
   3 C :    0.109555
   4 N :    0.087051
   5 N :    0.049141
   6 H :    0.104613
   7 H :    0.098986
   8 H :    0.097682
   9 H :    0.106306
  10 H :    0.109543
  11 H :    0.030122
  12 H :    0.045216
  13 H :    0.047071
  14 H :    0.017338
  15 H :    0.031741

  Mayer bond orders larger than 0.100000
B(  0-C ,  1-N ) :   0.9664 B(  0-C ,  2-C ) :   1.1290 B(  0-C , 11-H ) :   0.9385
B(  0-C , 12-H ) :   0.9374 B(  1-N ,  3-C ) :   1.3784 B(  1-N ,  8-H ) :   0.9100
B(  2-C , 13-H ) :   0.9536 B(  2-C , 14-H ) :   0.9563 B(  2-C , 15-H ) :   0.9604
B(  3-C ,  4-N ) :   1.4229 B(  3-C ,  5-N ) :   1.3590 B(  4-N ,  9-H ) :   0.9192
B(  4-N , 10-H ) :   0.9224 B(  5-N ,  6-H ) :   0.9267 B(  5-N ,  7-H ) :   0.9317

Dispersion correction           -0.024975237
FINAL SINGLE POINT ENERGY      -284.078568982022

DIPOLE MOMENT
-------------
                                X             Y             Z
Electronic contribution:      1.75889       1.09393       4.82004
Nuclear contribution   :     -1.95709      -1.20097      -3.70214
                        -----------------------------------------
Total Dipole Moment    :     -0.19820      -0.10705       1.11790
                        -----------------------------------------
Magnitude (a.u.)       :      1.14037
Magnitude (Debye)      :      2.89860

Rotational constants in cm-1:     0.241661     0.071598     0.061743
Rotational constants in MHz :  7244.800091  2146.442409  1851.001864

                             ****ORCA TERMINATED NORMALLY****
TOTAL RUN TIME: 0 days 0 hours 0 minutes 9 seconds 52 msec
