                         Program Version 5.0.0 -  RELEASE  -
|  1> !BLYP D3BJ RIJCOSX def2-TZVP def2/J TightSCF xyzfile
|  2>
|  3> *xyzfile 0 1 B.xyz
|  4>
|  5> %MaxCore 64000
|  6>
|  7> %pal nprocs 18
|  8> end
|  9>
| 10> %scf
| 11>   MaxIter 150
| 12> end
| 13>
| 14>
| 15>                          ****END OF INPUT****

CARTESIAN COORDINATES (ANGSTROEM)
---------------------------------
  C      4.999862   -1.596133   -5.924876
  N      5.281560   -1.974132   -4.535764
  C      3.766779   -2.266110   -6.511752
  C      2.496702   -1.844161   -5.735704
  H      1.626416   -2.217434   -6.308950
  H      2.481824   -2.456069   -4.793414
  O      2.459729   -0.509204   -5.505757
  C      4.792500   -1.361316   -3.457295
  N      3.939898   -0.374925   -3.557359
  N      5.259860   -1.754224   -2.239133
  H      5.922824   -2.521451   -2.186720
  H      4.654678   -1.640404   -1.442016
  H      5.709139   -2.875599   -4.387021
  H      3.330101   -0.317639   -4.361247
  H      3.698494    0.114468   -2.708333
  H      4.843333   -0.517930   -5.943019
  H      5.901695   -1.822503   -6.496467
  H      3.886191   -3.357076   -6.533604
  H      3.685602   -1.922168   -7.547128

 Total Charge           Charge          ....    0
 Multiplicity           Mult            ....    1
 Number of Electrons    NEL             ....   64
 Basis Dimension        Dim             ....  314

ORBITAL ENERGIES
----------------

  NO   OCC          E(Eh)            E(eV)
   0   2.0000     -18.629021      -506.9214
   1   2.0000     -14.063244      -382.6803
   2   2.0000     -14.056090      -382.4856
   3   2.0000     -14.014903      -381.3649
   4   2.0000     -10.048503      -273.4337
   5   2.0000      -9.934627      -270.3349
   6   2.0000      -9.885616      -269.0013
   7   2.0000      -9.871629      -268.6207
   8   2.0000      -0.944448       -25.6997
   9   2.0000      -0.846780       -23.0421
  10   2.0000      -0.830494       -22.5989
  11   2.0000      -0.791143       -21.5281
  12   2.0000      -0.678351       -18.4589
  13   2.0000      -0.605715       -16.4823
  14   2.0000      -0.565887       -15.3986
  15   2.0000      -0.548637       -14.9292
  16   2.0000      -0.523540       -14.2462
  17   2.0000      -0.479817       -13.0565
  18   2.0000      -0.465698       -12.6723
  19   2.0000      -0.444915       -12.1067
  20   2.0000      -0.415435       -11.3046
  21   2.0000      -0.401380       -10.9221
  22   2.0000      -0.381104       -10.3704
  23   2.0000      -0.352627        -9.5955
  24   2.0000      -0.313404        -8.5282
  25   2.0000      -0.292730        -7.9656
  26   2.0000      -0.282546        -7.6885
  27   2.0000      -0.259887        -7.0719
  28   2.0000      -0.251039        -6.8311
  29   2.0000      -0.233273        -6.3477
  30   2.0000      -0.122080        -3.3220
  31   2.0000      -0.115169        -3.1339
  32   0.0000      -0.039632        -1.0784
  33   0.0000      -0.020802        -0.5660
  34   0.0000       0.001633         0.0444
  35   0.0000       0.019036         0.5180
  36   0.0000       0.051366         1.3977

MULLIKEN ATOMIC CHARGES
-----------------------
   0 C :   -0.084836
   1 N :   -0.261244
   2 C :   -0.047871
   3 C :    0.015841
   4 H :    0.030475
   5 H :   -0.021710
   6 O :   -0.621580
   7 C :    0.380402
   8 N :   -0.335618
   9 N :   -0.419579
  10 H :    0.216828
  11 H :    0.230027
  12 H :    0.190168
  13 H :    0.269161
  14 H :    0.189047
  15 H :    0.111137
  16 H :    0.089969
  17 H :    0.018860
  18 H :    0.050521
Sum of atomic charges:   -0.0000000

LOEWDIN ATOMIC CHARGES
----------------------
   0 C :   -0.273436
   1 N :    0.160636
   2 C :   -0.285572
   3 C :   -0.496431
   4 H :    0.099855
   5 H :    0.075475
   6 O :   -0.242180
   7 C :   -0.448080
   8 N :    0.100619
   9 N :   -0.000921
  10 H :    0.168161
  11 H :    0.169804
  12 H :    0.182649
  13 H :    0.105861
  14 H :    0.168287
  15 H :    0.143180
  16 H :    0.125834
  17 H :    0.113520
  18 H :    0.132740

  Mayer bond orders larger than 0.100000
B(  0-C ,  1-N ) :   0.8678 B(  0-C ,  2-C ) :   0.9794 B(  0-C , 15-H ) :   0.9423
B(  0-C , 16-H ) :   0.9638 B(  1-N ,  7-C ) :   1.3127 B(  1-N , 12-H ) :   0.9242
B(  2-C ,  3-C ) :   0.9052 B(  2-C ,  6-O ) :  -0.1444 B(  2-C , 17-H ) :   0.9287
B(  2-C , 18-H ) :   0.9334 B(  3-C ,  4-H ) :   0.9430 B(  3-C ,  5-H ) :   0.9329
B(  3-C ,  6-O ) :   1.3374 B(  6-O , 13-H ) :   0.3723 B(  7-C ,  8-N ) :   1.4850
B(  7-C ,  9-N ) :   1.1795 B(  8-N , 13-H ) :   0.6566 B(  8-N , 14-H ) :   0.9224
B(  9-N , 10-H ) :   0.9197 B(  9-N , 11-H ) :   0.9168

Dispersion correction           -0.035597055
FINAL SINGLE POINT ENERGY      -398.530746499967

DIPOLE MOMENT
-------------
                                X             Y             Z
Electronic contribution:      1.77204       2.09193       3.62490
Nuclear contribution   :      0.51577      -3.31768      -1.36804
                        -----------------------------------------
Total Dipole Moment    :      2.28781      -1.22575       2.25687
                        -----------------------------------------
Magnitude (a.u.)       :      3.43947
Magnitude (Debye)      :      8.74244

Rotational constants in cm-1:     0.111492     0.050787     0.040163
Rotational constants in MHz :  3342.457536  1522.560798  1204.057148

                             ****ORCA TERMINATED NORMALLY****
TOTAL RUN TIME: 0 days 0 hours 0 minutes 9 seconds 371 msec
