                         Program Version 5.0.0 -  RELEASE  -
|  1> !BLYP D3BJ RIJCOSX def2-SVP def2/J TightSCF
|  2> *xyz 0 1
|  3> C          3.76678       -2.26611       -6.51175
|  4> C          2.49670       -1.84416       -5.73570
|  5> H          1.62642       -2.21743       -6.30895
|  6> H          2.48182       -2.45607       -4.79341
|  7> F          2.45973       -0.50920       -5.50576
|  8> H          3.82914       -1.70941       -7.42340
|  9> H          3.71764       -3.31144       -6.73483
| 10> H          4.63199       -2.06931       -5.91377
| 11> *
| 12>
| 13> %MaxCore 64000
| 14>
| 15> %pal nprocs 4
| 16> end
| 17>
| 18> %scf
| 19>   MaxIter 150
| 20> end
| 21>
| 22>
| 23>                          ****END OF INPUT****

CARTESIAN COORDINATES (ANGSTROEM)
---------------------------------
  C      3.766780   -2.266110   -6.511750
  C      2.496700   -1.844160   -5.735700
  H      1.626420   -2.217430   -6.308950
  H      2.481820   -2.456070   -4.793410
  F      2.459730   -0.509200   -5.505760
  H      3.829140   -1.709410   -7.423400
  H      3.717640   -3.311440   -6.734830
  H      4.631990   -2.069310   -5.913770

 Total Charge           Charge          ....    0
 Multiplicity           Mult            ....    1
 Number of Electrons    NEL             ....   26
 Basis Dimension        Dim             ....   67

ORBITAL ENERGIES
----------------

  NO   OCC          E(Eh)            E(eV)
   0   2.0000     -24.270276      -660.4278
   1   2.0000      -9.993671      -271.9416
   2   2.0000      -9.915386      -269.8114
   3   2.0000      -1.065039       -28.9812
   4   2.0000      -0.670973       -18.2581
   5   2.0000      -0.549682       -14.9576
   6   2.0000      -0.441092       -12.0027
   7   2.0000      -0.426801       -11.6138
   8   2.0000      -0.389428       -10.5969
   9   2.0000      -0.345898        -9.4124
  10   2.0000      -0.341786        -9.3005
  11   2.0000      -0.270755        -7.3676
  12   2.0000      -0.268231        -7.2989
  13   0.0000       0.042488         1.1562
  14   0.0000       0.085751         2.3334
  15   0.0000       0.091009         2.4765
  16   0.0000       0.107435         2.9235
  17   0.0000       0.121290         3.3005

MULLIKEN ATOMIC CHARGES
-----------------------
   0 C :    0.033415
   1 C :    0.236935
   2 H :   -0.020608
   3 H :   -0.019960
   4 F :   -0.216093
   5 H :   -0.000514
   6 H :   -0.012890
   7 H :   -0.000285
Sum of atomic charges:    0.0000000

LOEWDIN ATOMIC CHARGES
----------------------
   0 C :   -0.061122
   1 C :    0.098983
   2 H :    0.000990
   3 H :    0.003066
   4 F :   -0.103387
   5 H :    0.019237
   6 H :    0.023446
   7 H :    0.018786

  Mayer bond orders larger than 0.100000
B(  0-C ,  1-C ) :   1.1157 B(  0-C ,  5-H ) :   0.9650 B(  0-C ,  6-H ) :   0.9519
B(  0-C ,  7-H ) :   0.9672 B(  1-C ,  2-H ) :   0.9463 B(  1-C ,  3-H ) :   0.9429
B(  1-C ,  4-F ) :   1.0609

Dispersion correction           -0.007135539
FINAL SINGLE POINT ENERGY      -178.858211582970

DIPOLE MOMENT
-------------
                                X             Y             Z
Electronic contribution:     -2.09552       4.45761       1.84026
Nuclear contribution   :      2.16248      -5.01128      -1.96962
                        -----------------------------------------
Total Dipole Moment    :      0.06695      -0.55368      -0.12936
                        -----------------------------------------
Magnitude (a.u.)       :      0.57251
Magnitude (Debye)      :      1.45522

Rotational constants in cm-1:     1.244010     0.306580     0.270375
Rotational constants in MHz : 37294.476802  9191.037795  8105.639967

                             ****ORCA TERMINATED NORMALLY****
TOTAL RUN TIME: 0 days 0 hours 0 minutes 5 seconds 882 msec
