                         Program Version 5.0.0 -  RELEASE  -
|  1> !BLYP D3BJ RIJCOSX def2-SVP def2/J TightSCF
|  2> *xyz 0 1
|  3> C          4.99986       -1.59613       -5.92488
|  4> C          5.28156       -1.97413       -4.53576
|  5> C          3.76678       -2.26611       -6.51175
|  6> C          4.79250       -1.36132       -3.45730
|  7> N          3.93990       -0.37492       -3.55736
|  8> N          5.25986       -1.75422       -2.23913
|  9> H          5.92282       -2.52145       -2.18672
| 10> H          4.65468       -1.64040       -1.44202
| 11> H          5.70914       -2.87560       -4.38702
| 12> H          3.33010       -0.31764       -4.36125
| 13> H          3.69849        0.11447       -2.70833
| 14> H          4.84333       -0.51793       -5.94302
| 15> H          5.90170       -1.82250       -6.49647
| 16> H          3.63046       -1.94025       -7.52177
| 17> H          2.90710       -2.00116       -5.93240
| 18> H          3.89538       -3.32820       -6.49392
| 19> *
| 20>
| 21> %MaxCore 64000
| 22>
| 23> %pal nprocs 4
| 24> end
| 25>
| 26> %scf
| 27>   MaxIter 150
| 28> end
| 29>
| 30>
| 31>                          ****END OF INPUT****

CARTESIAN COORDINATES (ANGSTROEM)
---------------------------------
  C      4.999860   -1.596130   -5.924880
  C      5.281560   -1.974130   -4.535760
  C      3.766780   -2.266110   -6.511750
  C      4.792500   -1.361320   -3.457300
  N      3.939900   -0.374920   -3.557360
  N      5.259860   -1.754220   -2.239130
  H      5.922820   -2.521450   -2.186720
  H      4.654680   -1.640400   -1.442020
  H      5.709140   -2.875600   -4.387020
  H      3.330100   -0.317640   -4.361250
  H      3.698490    0.114470   -2.708330
  H      4.843330   -0.517930   -5.943020
  H      5.901700   -1.822500   -6.496470
  H      3.630460   -1.940250   -7.521770
  H      2.907100   -2.001160   -5.932400
  H      3.895380   -3.328200   -6.493920

 Total Charge           Charge          ....    0
 Multiplicity           Mult            ....    1
 Number of Electrons    NEL             ....   48
 Basis Dimension        Dim             ....  134

ORBITAL ENERGIES
----------------

  NO   OCC          E(Eh)            E(eV)
   0   2.0000     -14.018073      -381.4512
   1   2.0000     -14.008321      -381.1858
   2   2.0000      -9.949450      -270.7383
   3   2.0000      -9.888015      -269.0666
   4   2.0000      -9.887491      -269.0523
   5   2.0000      -9.835313      -267.6325
   6   2.0000      -0.852619       -23.2010
   7   2.0000      -0.768193       -20.9036
   8   2.0000      -0.676551       -18.4099
   9   2.0000      -0.604739       -16.4558
  10   2.0000      -0.535768       -14.5790
  11   2.0000      -0.504146       -13.7185
  12   2.0000      -0.478100       -13.0098
  13   2.0000      -0.436046       -11.8654
  14   2.0000      -0.416476       -11.3329
  15   2.0000      -0.381479       -10.3806
  16   2.0000      -0.355423        -9.6715
  17   2.0000      -0.332656        -9.0520
  18   2.0000      -0.322644        -8.7796
  19   2.0000      -0.294512        -8.0141
  20   2.0000      -0.272285        -7.4092
  21   2.0000      -0.265543        -7.2258
  22   2.0000      -0.204634        -5.5684
  23   2.0000      -0.113487        -3.0881
  24   0.0000       0.018698         0.5088
  25   0.0000       0.050180         1.3655
  26   0.0000       0.066501         1.8096
  27   0.0000       0.077008         2.0955
  28   0.0000       0.088796         2.4163

MULLIKEN ATOMIC CHARGES
-----------------------
   0 C :    0.128609
   1 C :   -0.128177
   2 C :    0.132412
   3 C :   -0.162396
   4 N :    0.053382
   5 N :    0.002611
   6 H :    0.087601
   7 H :    0.065647
   8 H :   -0.136167
   9 H :    0.103534
  10 H :    0.075891
  11 H :   -0.061298
  12 H :   -0.046777
  13 H :   -0.034485
  14 H :   -0.047285
  15 H :   -0.033102
Sum of atomic charges:   -0.0000000

LOEWDIN ATOMIC CHARGES
----------------------
   0 C :   -0.031374
   1 C :   -0.196909
   2 C :   -0.043078
   3 C :   -0.002035
   4 N :    0.017061
   5 N :   -0.020544
   6 H :    0.074436
   7 H :    0.046010
   8 H :   -0.019663
   9 H :    0.075966
  10 H :    0.060834
  11 H :    0.002936
  12 H :    0.015728
  13 H :    0.006591
  14 H :    0.002563
  15 H :    0.011479

  Mayer bond orders larger than 0.100000
B(  0-C ,  1-C ) :   1.1047 B(  0-C ,  2-C ) :   1.1174 B(  0-C , 11-H ) :   0.9076
B(  0-C , 12-H ) :   0.8947 B(  1-C ,  3-C ) :   1.6546 B(  1-C ,  8-H ) :   0.9257
B(  2-C , 13-H ) :   0.9479 B(  2-C , 14-H ) :   0.9575 B(  2-C , 15-H ) :   0.9549
B(  3-C ,  4-N ) :   1.2775 B(  3-C ,  5-N ) :   1.2329 B(  4-N ,  9-H ) :   0.9331
B(  4-N , 10-H ) :   0.9392 B(  5-N ,  6-H ) :   0.9393 B(  5-N ,  7-H ) :   0.9406

Dispersion correction           -0.026108405
FINAL SINGLE POINT ENERGY      -267.592416458942

DIPOLE MOMENT
-------------
                                X             Y             Z
Electronic contribution:      1.20567       1.46651       4.68676
Nuclear contribution   :     -1.82485      -1.28952      -3.74132
                        -----------------------------------------
Total Dipole Moment    :     -0.61918       0.17699       0.94545
                        -----------------------------------------
Magnitude (a.u.)       :      1.14393
Magnitude (Debye)      :      2.90764

Rotational constants in cm-1:     0.245790     0.071632     0.062004
Rotational constants in MHz :  7368.599517  2147.482078  1858.844841

                             ****ORCA TERMINATED NORMALLY****
TOTAL RUN TIME: 0 days 0 hours 0 minutes 8 seconds 475 msec
