                         Program Version 5.0.0 -  RELEASE  -
|  1> !BLYP D3BJ RIJCOSX def2-SVP def2/J TightSCF
|  2> *xyz 0 1
|  3> C          4.99986       -1.59613       -5.92488
|  4> N          5.28156       -1.97413       -4.53576
|  5> C          3.76678       -2.26611       -6.51175
|  6> C          4.79250       -1.36132       -3.45730
|  7> C          3.93990       -0.37492       -3.55736
|  8> N          5.25986       -1.75422       -2.23913
|  9> H          5.92282       -2.52145       -2.18672
| 10> H          4.65468       -1.64040       -1.44202
| 11> H          5.70914       -2.87560       -4.38702
| 12> H          3.33010       -0.31764       -4.36125
| 13> H          3.69849        0.11447       -2.70833
| 14> H          4.84333       -0.51793       -5.94302
| 15> H          5.90170       -1.82250       -6.49647
| 16> H          3.63046       -1.94025       -7.52177
| 17> H          2.90710       -2.00116       -5.93240
| 18> H          3.89538       -3.32820       -6.49392
| 19> *
| 20>
| 21> %MaxCore 64000
| 22>
| 23> %pal nprocs 4
| 24> end
| 25>
| 26> %scf
| 27>   MaxIter 150
| 28> end
| 29>
| 30>
| 31>                          ****END OF INPUT****

CARTESIAN COORDINATES (ANGSTROEM)
---------------------------------
  C      4.999860   -1.596130   -5.924880
  N      5.281560   -1.974130   -4.535760
  C      3.766780   -2.266110   -6.511750
  C      4.792500   -1.361320   -3.457300
  C      3.939900   -0.374920   -3.557360
  N      5.259860   -1.754220   -2.239130
  H      5.922820   -2.521450   -2.186720
  H      4.654680   -1.640400   -1.442020
  H      5.709140   -2.875600   -4.387020
  H      3.330100   -0.317640   -4.361250
  H      3.698490    0.114470   -2.708330
  H      4.843330   -0.517930   -5.943020
  H      5.901700   -1.822500   -6.496470
  H      3.630460   -1.940250   -7.521770
  H      2.907100   -2.001160   -5.932400
  H      3.895380   -3.328200   -6.493920

 Total Charge           Charge          ....    0
 Multiplicity           Mult            ....    1
 Number of Electrons    NEL             ....   48
 Basis Dimension        Dim             ....  134

ORBITAL ENERGIES
----------------

  NO   OCC          E(Eh)            E(eV)
   0   2.0000     -14.012912      -381.3107
   1   2.0000     -14.010117      -381.2347
   2   2.0000      -9.951029      -270.7813
   3   2.0000      -9.946537      -270.6590
   4   2.0000      -9.905452      -269.5410
   5   2.0000      -9.828869      -267.4571
   6   2.0000      -0.853138       -23.2151
   7   2.0000      -0.776458       -21.1285
   8   2.0000      -0.665761       -18.1163
   9   2.0000      -0.624060       -16.9815
  10   2.0000      -0.558507       -15.1977
  11   2.0000      -0.492038       -13.3890
  12   2.0000      -0.475206       -12.9310
  13   2.0000      -0.445988       -12.1359
  14   2.0000      -0.398401       -10.8410
  15   2.0000      -0.386415       -10.5149
  16   2.0000      -0.363383        -9.8882
  17   2.0000      -0.339561        -9.2399
  18   2.0000      -0.326280        -8.8785
  19   2.0000      -0.317291        -8.6339
  20   2.0000      -0.300209        -8.1691
  21   2.0000      -0.288414        -7.8481
  22   2.0000      -0.192789        -5.2460
  23   2.0000      -0.123489        -3.3603
  24   0.0000       0.022193         0.6039
  25   0.0000       0.053025         1.4429
  26   0.0000       0.061233         1.6662
  27   0.0000       0.079259         2.1567
  28   0.0000       0.090690         2.4678

MULLIKEN ATOMIC CHARGES
-----------------------
   0 C :    0.124117
   1 N :   -0.067214
   2 C :    0.099881
   3 C :   -0.081217
   4 C :   -0.029527
   5 N :   -0.019796
   6 H :    0.068596
   7 H :    0.097846
   8 H :    0.066548
   9 H :   -0.075220
  10 H :   -0.101361
  11 H :   -0.007808
  12 H :   -0.026486
  13 H :   -0.017971
  14 H :   -0.002178
  15 H :   -0.028209
Sum of atomic charges:   -0.0000000

LOEWDIN ATOMIC CHARGES
----------------------
   0 C :    0.046166
   1 N :   -0.008003
   2 C :   -0.049774
   3 C :    0.019456
   4 C :   -0.228001
   5 N :   -0.017891
   6 H :    0.055279
   7 H :    0.069391
   8 H :    0.052446
   9 H :   -0.011079
  10 H :   -0.012474
  11 H :    0.022557
  12 H :    0.012168
  13 H :    0.018631
  14 H :    0.020522
  15 H :    0.010603

  Mayer bond orders larger than 0.100000
B(  0-C ,  1-N ) :   1.0332 B(  0-C ,  2-C ) :   1.1335 B(  0-C , 11-H ) :   0.9159
B(  0-C , 12-H ) :   0.9418 B(  1-N ,  3-C ) :   1.1958 B(  1-N ,  8-H ) :   0.9250
B(  2-C , 13-H ) :   0.9496 B(  2-C , 14-H ) :   0.9595 B(  2-C , 15-H ) :   0.9563
B(  3-C ,  4-C ) :   1.7652 B(  3-C ,  5-N ) :   1.2087 B(  4-C ,  9-H ) :   0.9084
B(  4-C , 10-H ) :   0.9108 B(  5-N ,  6-H ) :   0.9485 B(  5-N ,  7-H ) :   0.9490

Dispersion correction           -0.025979641
FINAL SINGLE POINT ENERGY      -267.586932779532

DIPOLE MOMENT
-------------
                                X             Y             Z
Electronic contribution:      2.48900      -0.14365       3.61725
Nuclear contribution   :     -2.10948      -0.95026      -3.53375
                        -----------------------------------------
Total Dipole Moment    :      0.37953      -1.09391       0.08349
                        -----------------------------------------
Magnitude (a.u.)       :      1.16088
Magnitude (Debye)      :      2.95073

Rotational constants in cm-1:     0.255209     0.072067     0.062929
Rotational constants in MHz :  7650.964615  2160.525743  1886.569524

                             ****ORCA TERMINATED NORMALLY****
TOTAL RUN TIME: 0 days 0 hours 0 minutes 8 seconds 429 msec
