                         Program Version 5.0.0 -  RELEASE  -
|  1> !BLYP D3BJ RIJCOSX def2-SVP def2/J TightSCF
|  2> *xyz 0 1
|  3> C          4.99986       -1.59613       -5.92488
|  4> N          5.28156       -1.97413       -4.53576
|  5> C          3.76678       -2.26611       -6.51175
|  6> C          4.79250       -1.36132       -3.45730
|  7> N          3.93990       -0.37492       -3.55736
|  8> C          5.25986       -1.75422       -2.23913
|  9> H          5.92282       -2.52145       -2.18672
| 10> H          4.65468       -1.64040       -1.44202
| 11> H          5.70914       -2.87560       -4.38702
| 12> H          3.33010       -0.31764       -4.36125
| 13> H          3.69849        0.11447       -2.70833
| 14> H          4.84333       -0.51793       -5.94302
| 15> H          5.90170       -1.82250       -6.49647
| 16> H          3.63046       -1.94025       -7.52177
| 17> H          2.90710       -2.00116       -5.93240
| 18> H          3.89538       -3.32820       -6.49392
| 19> *
| 20>
| 21> %MaxCore 64000
| 22>
| 23> %pal nprocs 4
| 24> end
| 25>
| 26> %scf
| 27>   MaxIter 150
| 28> end
| 29>
| 30>
| 31>                          ****END OF INPUT****

CARTESIAN COORDINATES (ANGSTROEM)
---------------------------------
  C      4.999860   -1.596130   -5.924880
  N      5.281560   -1.974130   -4.535760
  C      3.766780   -2.266110   -6.511750
  C      4.792500   -1.361320   -3.457300
  N      3.939900   -0.374920   -3.557360
  C      5.259860   -1.754220   -2.239130
  H      5.922820   -2.521450   -2.186720
  H      4.654680   -1.640400   -1.442020
  H      5.709140   -2.875600   -4.387020
  H      3.330100   -0.317640   -4.361250
  H      3.698490    0.114470   -2.708330
  H      4.843330   -0.517930   -5.943020
  H      5.901700   -1.822500   -6.496470
  H      3.630460   -1.940250   -7.521770
  H      2.907100   -2.001160   -5.932400
  H      3.895380   -3.328200   -6.493920

 Total Charge           Charge          ....    0
 Multiplicity           Mult            ....    1
 Number of Electrons    NEL             ....   48
 Basis Dimension        Dim             ....  134

ORBITAL ENERGIES
----------------

  NO   OCC          E(Eh)            E(eV)
   0   2.0000     -14.018483      -381.4623
   1   2.0000     -14.013454      -381.3255
   2   2.0000      -9.956330      -270.9255
   3   2.0000      -9.954412      -270.8733
   4   2.0000      -9.916896      -269.8524
   5   2.0000      -9.826176      -267.3838
   6   2.0000      -0.863111       -23.4865
   7   2.0000      -0.787473       -21.4282
   8   2.0000      -0.682585       -18.5741
   9   2.0000      -0.607939       -16.5429
  10   2.0000      -0.549739       -14.9592
  11   2.0000      -0.530949       -14.4479
  12   2.0000      -0.478060       -13.0087
  13   2.0000      -0.436567       -11.8796
  14   2.0000      -0.422499       -11.4968
  15   2.0000      -0.388542       -10.5728
  16   2.0000      -0.371340       -10.1047
  17   2.0000      -0.347641        -9.4598
  18   2.0000      -0.327720        -8.9177
  19   2.0000      -0.313126        -8.5206
  20   2.0000      -0.312819        -8.5122
  21   2.0000      -0.290223        -7.8974
  22   2.0000      -0.200358        -5.4520
  23   2.0000      -0.112385        -3.0582
  24   0.0000       0.017391         0.4732
  25   0.0000       0.050461         1.3731
  26   0.0000       0.059906         1.6301
  27   0.0000       0.069613         1.8943
  28   0.0000       0.084939         2.3113

MULLIKEN ATOMIC CHARGES
-----------------------
   0 C :    0.096636
   1 N :   -0.056487
   2 C :    0.108709
   3 C :   -0.150244
   4 N :    0.044495
   5 C :   -0.025436
   6 H :   -0.103566
   7 H :   -0.087309
   8 H :    0.095241
   9 H :    0.077734
  10 H :    0.096225
  11 H :   -0.021344
  12 H :   -0.017070
  13 H :   -0.016681
  14 H :   -0.024626
  15 H :   -0.016277
Sum of atomic charges:    0.0000000

LOEWDIN ATOMIC CHARGES
----------------------
   0 C :    0.033230
   1 N :   -0.002312
   2 C :   -0.052444
   3 C :    0.011495
   4 N :    0.018795
   5 C :   -0.255263
   6 H :   -0.018609
   7 H :   -0.020515
   8 H :    0.074442
   9 H :    0.057018
  10 H :    0.080269
  11 H :    0.013215
  12 H :    0.016563
  13 H :    0.018364
  14 H :    0.010072
  15 H :    0.015681

  Mayer bond orders larger than 0.100000
B(  0-C ,  1-N ) :   1.0448 B(  0-C ,  2-C ) :   1.1185 B(  0-C , 11-H ) :   0.9311
B(  0-C , 12-H ) :   0.9395 B(  1-N ,  3-C ) :   1.2094 B(  1-N ,  8-H ) :   0.9257
B(  2-C , 13-H ) :   0.9471 B(  2-C , 14-H ) :   0.9548 B(  2-C , 15-H ) :   0.9567
B(  3-C ,  4-N ) :   1.2802 B(  3-C ,  5-C ) :   1.6912 B(  4-N ,  9-H ) :   0.9351
B(  4-N , 10-H ) :   0.9359 B(  5-C ,  6-H ) :   0.9172 B(  5-C ,  7-H ) :   0.9242

Dispersion correction           -0.025791016
FINAL SINGLE POINT ENERGY      -267.583315162756

DIPOLE MOMENT
-------------
                                X             Y             Z
Electronic contribution:      1.16341       1.30479       2.21791
Nuclear contribution   :     -1.82946      -1.24287      -3.25410
                        -----------------------------------------
Total Dipole Moment    :     -0.66604       0.06192      -1.03619
                        -----------------------------------------
Magnitude (a.u.)       :      1.23334
Magnitude (Debye)      :      3.13491

Rotational constants in cm-1:     0.244672     0.074506     0.064043
Rotational constants in MHz :  7335.067153  2233.624025  1919.970379

                             ****ORCA TERMINATED NORMALLY****
TOTAL RUN TIME: 0 days 0 hours 0 minutes 8 seconds 217 msec
