                         Program Version 5.0.0 -  RELEASE  -
|  1> !BLYP D3BJ RIJCOSX def2-TZVP def2/J TightSCF xyzfile
|  2>
|  3> *xyzfile 0 1 D3.xyz
|  4>
|  5> %MaxCore 64000
|  6>
|  7> %pal nprocs 18
|  8> end
|  9>
| 10> %scf
| 11>   MaxIter 150
| 12> end
| 13>
| 14>
| 15>                          ****END OF INPUT****

CARTESIAN COORDINATES (ANGSTROEM)
---------------------------------
  C      4.999862   -1.596133   -5.924876
  N      5.281560   -1.974132   -4.535764
  C      3.766779   -2.266110   -6.511752
  C      2.496702   -1.844161   -5.735704
  H      1.626416   -2.217434   -6.308950
  H      2.481824   -2.456069   -4.793414
  F      2.459729   -0.509204   -5.505757
  C      4.792500   -1.361316   -3.457295
  N      3.939898   -0.374925   -3.557359
  C      5.259860   -1.754224   -2.239133
  H      5.922824   -2.521451   -2.186720
  H      4.654678   -1.640404   -1.442016
  H      5.709139   -2.875599   -4.387021
  H      3.330101   -0.317639   -4.361247
  H      3.698494    0.114468   -2.708333
  H      4.843333   -0.517930   -5.943019
  H      5.901695   -1.822503   -6.496467
  H      3.886191   -3.357076   -6.533604
  H      3.685602   -1.922168   -7.547128

 Total Charge           Charge          ....    0
 Multiplicity           Mult            ....    1
 Number of Electrons    NEL             ....   64
 Basis Dimension        Dim             ....  314

ORBITAL ENERGIES
----------------

  NO   OCC          E(Eh)            E(eV)
   0   2.0000     -24.319678      -661.7721
   1   2.0000     -14.002853      -381.0370
   2   2.0000     -13.977874      -380.3573
   3   2.0000     -10.002724      -272.1880
   4   2.0000      -9.943807      -270.5848
   5   2.0000      -9.935020      -270.3456
   6   2.0000      -9.924660      -270.0637
   7   2.0000      -9.803865      -266.7767
   8   2.0000      -1.151909       -31.3450
   9   2.0000      -0.871286       -23.7089
  10   2.0000      -0.795235       -21.6395
  11   2.0000      -0.719514       -19.5790
  12   2.0000      -0.653041       -17.7701
  13   2.0000      -0.597727       -16.2650
  14   2.0000      -0.554659       -15.0930
  15   2.0000      -0.533758       -14.5243
  16   2.0000      -0.509583       -13.8665
  17   2.0000      -0.485298       -13.2056
  18   2.0000      -0.455987       -12.4080
  19   2.0000      -0.445442       -12.1211
  20   2.0000      -0.418662       -11.3924
  21   2.0000      -0.416003       -11.3200
  22   2.0000      -0.381635       -10.3848
  23   2.0000      -0.371675       -10.1138
  24   2.0000      -0.337425        -9.1818
  25   2.0000      -0.330139        -8.9835
  26   2.0000      -0.323414        -8.8005
  27   2.0000      -0.307852        -8.3771
  28   2.0000      -0.297726        -8.1015
  29   2.0000      -0.290366        -7.9013
  30   2.0000      -0.202106        -5.4996
  31   2.0000      -0.115345        -3.1387
  32   0.0000       0.001247         0.0339
  33   0.0000       0.026400         0.7184
  34   0.0000       0.035743         0.9726
  35   0.0000       0.038830         1.0566
  36   0.0000       0.052805         1.4369

MULLIKEN ATOMIC CHARGES
-----------------------
   0 C :   -0.145938
   1 N :   -0.284664
   2 C :   -0.111436
   3 C :    0.003455
   4 H :    0.104285
   5 H :    0.117189
   6 F :   -0.198719
   7 C :    0.348208
   8 N :   -0.439841
   9 C :   -0.510051
  10 H :    0.039120
  11 H :    0.058214
  12 H :    0.190542
  13 H :    0.241349
  14 H :    0.203720
  15 H :    0.123632
  16 H :    0.104953
  17 H :    0.082110
  18 H :    0.073874
Sum of atomic charges:   -0.0000000

LOEWDIN ATOMIC CHARGES
----------------------
   0 C :   -0.288866
   1 N :    0.129411
   2 C :   -0.273291
   3 C :   -0.360636
   4 H :    0.123767
   5 H :    0.133599
   6 F :    0.179979
   7 C :   -0.480907
   8 N :    0.019020
   9 C :   -0.371676
  10 H :    0.087060
  11 H :    0.086923
  12 H :    0.183860
  13 H :    0.120134
  14 H :    0.172431
  15 H :    0.137665
  16 H :    0.130568
  17 H :    0.136983
  18 H :    0.133977

  Mayer bond orders larger than 0.100000
B(  0-C ,  1-N ) :   0.9505 B(  0-C ,  2-C ) :   0.9411 B(  0-C , 15-H ) :   0.9716
B(  0-C , 16-H ) :   0.9745 B(  1-N ,  7-C ) :   1.1464 B(  1-N , 12-H ) :   0.9313
B(  2-C ,  3-C ) :   0.9766 B(  2-C , 17-H ) :   0.9395 B(  2-C , 18-H ) :   0.9468
B(  3-C ,  4-H ) :   0.9618 B(  3-C ,  5-H ) :   0.9748 B(  3-C ,  6-F ) :   0.9393
B(  6-F , 13-H ) :   0.1163 B(  7-C ,  8-N ) :   1.2021 B(  7-C ,  9-C ) :   1.5504
B(  8-N , 13-H ) :   0.8568 B(  8-N , 14-H ) :   0.9326 B(  9-C , 10-H ) :   1.0167
B(  9-C , 11-H ) :   0.9843

Dispersion correction           -0.035234382
FINAL SINGLE POINT ENERGY      -406.468773182014

DIPOLE MOMENT
-------------
                                X             Y             Z
Electronic contribution:     -3.48663       3.92549      -1.47908
Nuclear contribution   :      2.63642      -4.47741       0.00296
                        -----------------------------------------
Total Dipole Moment    :     -0.85021      -0.55192      -1.47612
                        -----------------------------------------
Magnitude (a.u.)       :      1.79064
Magnitude (Debye)      :      4.55146

Rotational constants in cm-1:     0.108041     0.051979     0.040387
Rotational constants in MHz :  3238.993235  1558.297571  1210.782552

                             ****ORCA TERMINATED NORMALLY****
TOTAL RUN TIME: 0 days 0 hours 0 minutes 8 seconds 618 msec
