                         Program Version 5.0.0 -  RELEASE  -
|  1> !M062X D3Zero RIJCOSX def2-SVPD def2/J TightSCF
|  2> *xyz -1 1
|  3> C          2.09343        1.86104       -4.65684
|  4> S          1.87964        0.07859       -4.46297
|  5> O          3.20757       -0.46611       -4.42026
|  6> O          1.07506       -0.05616       -3.26876
|  7> O          1.13166       -0.31996       -5.67903
|  8> H          2.68437        2.05681       -5.52711
|  9> H          2.58708        2.25699       -3.79404
| 10> H          1.13553        2.32556       -4.76426
| 11> *
| 12>
| 13> %MaxCore 64000
| 14>
| 15> %pal nprocs 8
| 16> end
| 17>
| 18> %scf
| 19>   MaxIter 150
| 20> end
| 21>
| 22>
| 23>                          ****END OF INPUT****

CARTESIAN COORDINATES (ANGSTROEM)
---------------------------------
  C      2.093430    1.861040   -4.656840
  S      1.879640    0.078590   -4.462970
  O      3.207570   -0.466110   -4.420260
  O      1.075060   -0.056160   -3.268760
  O      1.131660   -0.319960   -5.679030
  H      2.684370    2.056810   -5.527110
  H      2.587080    2.256990   -3.794040
  H      1.135530    2.325560   -4.764260

 Total Charge           Charge          ....   -1
 Multiplicity           Mult            ....    1
 Number of Electrons    NEL             ....   50
 Basis Dimension        Dim             ....  140

ORBITAL ENERGIES
----------------

  NO   OCC          E(Eh)            E(eV)
   0   2.0000     -89.937147     -2447.3142
   1   2.0000     -19.419216      -528.4237
   2   2.0000     -19.415021      -528.3096
   3   2.0000     -19.403856      -528.0058
   4   2.0000     -10.399017      -282.9716
   5   2.0000      -8.260352      -224.7756
   6   2.0000      -6.185664      -168.3205
   7   2.0000      -6.185515      -168.3164
   8   2.0000      -6.185329      -168.3114
   9   2.0000      -1.050219       -28.5779
  10   2.0000      -0.908051       -24.7093
  11   2.0000      -0.881245       -23.9799
  12   2.0000      -0.666462       -18.1353
  13   2.0000      -0.467914       -12.7326
  14   2.0000      -0.383521       -10.4361
  15   2.0000      -0.363013        -9.8781
  16   2.0000      -0.362582        -9.8664
  17   2.0000      -0.321906        -8.7595
  18   2.0000      -0.319666        -8.6985
  19   2.0000      -0.227796        -6.1986
  20   2.0000      -0.225698        -6.1416
  21   2.0000      -0.188919        -5.1407
  22   2.0000      -0.176463        -4.8018
  23   2.0000      -0.167058        -4.5459
  24   2.0000      -0.136929        -3.7260
  25   0.0000       0.164870         4.4863
  26   0.0000       0.186451         5.0736
  27   0.0000       0.186943         5.0870
  28   0.0000       0.192136         5.2283
  29   0.0000       0.226074         6.1518

MULLIKEN ATOMIC CHARGES
-----------------------
   0 C :    0.452672
   1 S :    1.210879
   2 O :   -0.793981
   3 O :   -0.806409
   4 O :   -0.836159
   5 H :   -0.078245
   6 H :   -0.077651
   7 H :   -0.071106
Sum of atomic charges:   -1.0000000

LOEWDIN ATOMIC CHARGES
----------------------
   0 C :    0.056701
   1 S :    0.872191
   2 O :   -0.591985
   3 O :   -0.599408
   4 O :   -0.618016
   5 H :   -0.039751
   6 H :   -0.041132
   7 H :   -0.038600

  Mayer bond orders larger than 0.100000
B(  0-C ,  1-S ) :   0.9238 B(  0-C ,  5-H ) :   0.9344 B(  0-C ,  6-H ) :   0.9315
B(  0-C ,  7-H ) :   0.9335 B(  1-S ,  2-O ) :   1.3091 B(  1-S ,  3-O ) :   1.3011
B(  1-S ,  4-O ) :   1.2788 B(  1-S ,  5-H ) :   0.1158 B(  1-S ,  6-H ) :   0.1085
B(  1-S ,  7-H ) :   0.1177

Dispersion correction           -0.000042111
FINAL SINGLE POINT ENERGY      -663.359696653598

DIPOLE MOMENT
-------------
                                X             Y             Z
Electronic contribution:     -0.42011      -4.27133       0.56567
Nuclear contribution   :      0.72475       5.67579      -0.57287
                        -----------------------------------------
Total Dipole Moment    :      0.30464       1.40446      -0.00720
                        -----------------------------------------
Magnitude (a.u.)       :      1.43714
Magnitude (Debye)      :      3.65292

Rotational constants in cm-1:     0.171646     0.157781     0.155534
Rotational constants in MHz :  5145.813281  4730.160232  4662.792719

                             ****ORCA TERMINATED NORMALLY****
TOTAL RUN TIME: 0 days 0 hours 0 minutes 8 seconds 227 msec
