                         Program Version 5.0.0 -  RELEASE  -
|  1> !M062X D3Zero RIJCOSX def2-SVPD def2/J TightSCF
|  2> *xyz 1 1
|  3> C         -0.46129        2.23469       -4.98962
|  4> C         -0.42384        2.39877       -6.47432
|  5> N         -0.95947        3.49265       -7.00740
|  6> N          0.14558        1.48689       -7.20399
|  7> H          0.56537        0.69681       -6.72386
|  8> H          0.22068        1.58177       -8.20752
|  9> H         -1.40624        4.18151       -6.40326
| 10> H         -0.93421        3.68160       -7.99947
| 11> H          0.00645        1.31059       -4.72100
| 12> H         -1.47822        2.22967       -4.65687
| 13> H          0.06109        3.04632       -4.52779
| 14> *
| 15>
| 16> %MaxCore 64000
| 17>
| 18> %pal nprocs 8
| 19> end
| 20>
| 21> %scf
| 22>   MaxIter 150
| 23> end
| 24>
| 25>
| 26>                          ****END OF INPUT****

CARTESIAN COORDINATES (ANGSTROEM)
---------------------------------
  C     -0.461290    2.234690   -4.989620
  C     -0.423840    2.398770   -6.474320
  N     -0.959470    3.492650   -7.007400
  N      0.145580    1.486890   -7.203990
  H      0.565370    0.696810   -6.723860
  H      0.220680    1.581770   -8.207520
  H     -1.406240    4.181510   -6.403260
  H     -0.934210    3.681600   -7.999470
  H      0.006450    1.310590   -4.721000
  H     -1.478220    2.229670   -4.656870
  H      0.061090    3.046320   -4.527790

 Total Charge           Charge          ....    1
 Multiplicity           Mult            ....    1
 Number of Electrons    NEL             ....   32
 Basis Dimension        Dim             ....  136

ORBITAL ENERGIES
----------------

  NO   OCC          E(Eh)            E(eV)
   0   2.0000     -15.019247      -408.6945
   1   2.0000     -15.011426      -408.4817
   2   2.0000     -10.887821      -296.2727
   3   2.0000     -10.750977      -292.5490
   4   2.0000      -1.312789       -35.7228
   5   2.0000      -1.209099       -32.9013
   6   2.0000      -1.045075       -28.4379
   7   2.0000      -0.924216       -25.1492
   8   2.0000      -0.862261       -23.4633
   9   2.0000      -0.847287       -23.0558
  10   2.0000      -0.777668       -21.1614
  11   2.0000      -0.737622       -20.0717
  12   2.0000      -0.684019       -18.6131
  13   2.0000      -0.670263       -18.2388
  14   2.0000      -0.645384       -17.5618
  15   2.0000      -0.561749       -15.2860
  16   0.0000      -0.174576        -4.7505
  17   0.0000      -0.141443        -3.8489
  18   0.0000      -0.097155        -2.6437
  19   0.0000      -0.095096        -2.5877
  20   0.0000      -0.071108        -1.9349

MULLIKEN ATOMIC CHARGES
-----------------------
   0 C :    0.523978
   1 C :    0.457489
   2 N :    0.014232
   3 N :   -0.040390
   4 H :    0.106650
   5 H :   -0.132638
   6 H :    0.043880
   7 H :   -0.150547
   8 H :    0.068428
   9 H :    0.060058
  10 H :    0.048859
Sum of atomic charges:    1.0000000

LOEWDIN ATOMIC CHARGES
----------------------
   0 C :    0.236428
   1 C :   -0.060517
   2 N :    0.267649
   3 N :    0.276298
   4 H :    0.058287
   5 H :    0.056783
   6 H :    0.060892
   7 H :    0.045632
   8 H :    0.007569
   9 H :    0.025200
  10 H :    0.025779

  Mayer bond orders larger than 0.100000
B(  0-C ,  1-C ) :   1.2847 B(  0-C ,  8-H ) :   0.7859 B(  0-C ,  9-H ) :   0.7689
B(  0-C , 10-H ) :   0.7876 B(  1-C ,  2-N ) :   1.0822 B(  1-C ,  3-N ) :   1.0231
B(  1-C ,  5-H ) :  -0.2565 B(  1-C ,  7-H ) :  -0.1910 B(  1-C ,  8-H ) :   0.2414
B(  1-C ,  9-H ) :   0.1730 B(  1-C , 10-H ) :   0.1624 B(  2-N ,  3-N ) :   0.1511
B(  2-N ,  6-H ) :   1.1050 B(  2-N ,  7-H ) :   1.2824 B(  3-N ,  4-H ) :   1.0280
B(  3-N ,  5-H ) :   1.3799 B(  4-H ,  5-H ) :  -0.1881 B(  6-H ,  7-H ) :  -0.1745

Dispersion correction           -0.000088614
FINAL SINGLE POINT ENERGY      -189.491556661923

DIPOLE MOMENT
-------------
                                X             Y             Z
Electronic contribution:      0.06551       0.17002      -2.16595
Nuclear contribution   :     -0.00094      -0.11553       1.69525
                        -----------------------------------------
Total Dipole Moment    :      0.06457       0.05448      -0.47069
                        -----------------------------------------
Magnitude (a.u.)       :      0.47821
Magnitude (Debye)      :      1.21552

Rotational constants in cm-1:     0.329971     0.303414     0.162776
Rotational constants in MHz :  9892.292308  9096.128349  4879.901854

                             ****ORCA TERMINATED NORMALLY****
TOTAL RUN TIME: 0 days 0 hours 0 minutes 7 seconds 314 msec
