                         Program Version 5.0.0 -  RELEASE  -
|  1> !M062X D3Zero RIJCOSX def2-SVPD def2/J TightSCF xyzfile
|  2>
|  3> *xyzfile 0 1 B.xyz
|  4>
|  5> %MaxCore 64000
|  6>
|  7> %pal nprocs 4
|  8> end
|  9>
| 10> %scf
| 11>   MaxIter 150
| 12> end
| 13>
| 14>
| 15>                          ****END OF INPUT****

CARTESIAN COORDINATES (ANGSTROEM)
---------------------------------
  C     -0.461293    2.234686   -4.989619
  C      0.848883    2.667967   -4.302351
  C      2.093434    1.861037   -4.656845
  H      2.444814    2.041567   -5.674990
  H      2.901748    2.137864   -3.980338
  S      1.879644    0.078594   -4.462965
  C     -0.423841    2.398772   -6.474317
  N     -0.959467    3.492647   -7.007401
  N      0.145585    1.486891   -7.203987
  H      0.565371    0.696807   -6.723858
  H      0.220682    1.581768   -8.207520
  H     -1.406243    4.181507   -6.403261
  H     -0.934215    3.681601   -7.999468
  O      3.207574   -0.466111   -4.420259
  O      1.075064   -0.056160   -3.268758
  O      1.131661   -0.319960   -5.679031
  H      0.668432    2.559427   -3.232850
  H      1.034074    3.729426   -4.497081
  H     -1.288884    2.826737   -4.594997
  H     -0.651696    1.186343   -4.756552

 Total Charge           Charge          ....    0
 Multiplicity           Mult            ....    1
 Number of Electrons    NEL             ....   88
 Basis Dimension        Dim             ....  296

ORBITAL ENERGIES
----------------

  NO   OCC          E(Eh)            E(eV)
   0   2.0000     -90.090902     -2451.4981
   1   2.0000     -19.578014      -532.7449
   2   2.0000     -19.563442      -532.3483
   3   2.0000     -19.561299      -532.2900
   4   2.0000     -14.874343      -404.7514
   5   2.0000     -14.842119      -403.8746
   6   2.0000     -10.731546      -292.0202
   7   2.0000     -10.604098      -288.5522
   8   2.0000     -10.584749      -288.0257
   9   2.0000     -10.559792      -287.3465
  10   2.0000      -8.413485      -228.9426
  11   2.0000      -6.339287      -172.5008
  12   2.0000      -6.338616      -172.4825
  13   2.0000      -6.338150      -172.4698
  14   2.0000      -1.204804       -32.7844
  15   2.0000      -1.160686       -31.5839
  16   2.0000      -1.063661       -28.9437
  17   2.0000      -1.052799       -28.6481
  18   2.0000      -1.046567       -28.4785
  19   2.0000      -0.927773       -25.2460
  20   2.0000      -0.845451       -23.0059
  21   2.0000      -0.776936       -21.1415
  22   2.0000      -0.732969       -19.9451
  23   2.0000      -0.710432       -19.3318
  24   2.0000      -0.684318       -18.6212
  25   2.0000      -0.640513       -17.4293
  26   2.0000      -0.601325       -16.3629
  27   2.0000      -0.590164       -16.0592
  28   2.0000      -0.560695       -15.2573
  29   2.0000      -0.545957       -14.8562
  30   2.0000      -0.521067       -14.1790
  31   2.0000      -0.514790       -14.0081
  32   2.0000      -0.494662       -13.4604
  33   2.0000      -0.489875       -13.3302
  34   2.0000      -0.457983       -12.4624
  35   2.0000      -0.441428       -12.0119
  36   2.0000      -0.424959       -11.5637
  37   2.0000      -0.410055       -11.1582
  38   2.0000      -0.381878       -10.3914
  39   2.0000      -0.376541       -10.2462
  40   2.0000      -0.343670        -9.3517
  41   2.0000      -0.333442        -9.0734
  42   2.0000      -0.315803        -8.5934
  43   2.0000      -0.294088        -8.0025
  44   0.0000      -0.028960        -0.7880
  45   0.0000      -0.020227        -0.5504
  46   0.0000       0.016445         0.4475
  47   0.0000       0.035834         0.9751
  48   0.0000       0.046449         1.2639

MULLIKEN ATOMIC CHARGES
-----------------------
   0 C :    0.127477
   1 C :    0.191059
   2 C :    0.162215
   3 H :    0.087922
   4 H :   -0.151602
   5 S :    1.526779
   6 C :    0.849314
   7 N :   -0.101937
   8 N :    0.322264
   9 H :   -0.155205
  10 H :   -0.173268
  11 H :    0.018167
  12 H :   -0.164723
  13 O :   -0.821382
  14 O :   -0.820358
  15 O :   -0.915079
  16 H :    0.161269
  17 H :   -0.213438
  18 H :   -0.092792
  19 H :    0.163320
Sum of atomic charges:    0.0000000

LOEWDIN ATOMIC CHARGES
----------------------
   0 C :    0.058399
   1 C :   -0.012671
   2 C :   -0.064292
   3 H :    0.009086
   4 H :    0.019208
   5 S :    0.971364
   6 C :   -0.033392
   7 N :    0.242100
   8 N :    0.304837
   9 H :   -0.116222
  10 H :    0.046167
  11 H :    0.037702
  12 H :    0.027943
  13 O :   -0.527726
  14 O :   -0.539018
  15 O :   -0.544173
  16 H :    0.034541
  17 H :    0.023294
  18 H :    0.031111
  19 H :    0.031743

  Mayer bond orders larger than 0.100000
B(  0-C ,  1-C ) :   1.2041 B(  0-C ,  6-C ) :   1.1026 B(  0-C , 16-H ) :   0.1423
B(  0-C , 18-H ) :   0.8151 B(  0-C , 19-H ) :   0.8324 B(  1-C ,  2-C ) :   1.3295
B(  1-C ,  3-H ) :   0.1176 B(  1-C ,  4-H ) :   0.1750 B(  1-C , 16-H ) :   0.7939
B(  1-C , 17-H ) :   0.9027 B(  1-C , 18-H ) :   0.1477 B(  1-C , 19-H ) :   0.1232
B(  2-C ,  3-H ) :   0.8881 B(  2-C ,  4-H ) :   0.8503 B(  2-C ,  5-S ) :   0.8608
B(  2-C , 15-O ) :   0.1221 B(  2-C , 16-H ) :   0.1386 B(  2-C , 17-H ) :   0.1089
B(  4-H ,  5-S ) :   0.1065 B(  5-S , 13-O ) :   1.3641 B(  5-S , 14-O ) :   1.3075
B(  5-S , 15-O ) :   1.1081 B(  6-C ,  7-N ) :   0.8859 B(  6-C ,  8-N ) :   1.1230
B(  6-C , 10-H ) :  -0.2580 B(  6-C , 11-H ) :  -0.1357 B(  6-C , 12-H ) :  -0.1865
B(  6-C , 18-H ) :   0.1229 B(  7-N ,  8-N ) :   0.1478 B(  7-N , 11-H ) :   1.1496
B(  7-N , 12-H ) :   1.3367 B(  8-N ,  9-H ) :   1.1424 B(  8-N , 10-H ) :   1.3244
B(  9-H , 10-H ) :  -0.2426 B(  9-H , 15-O ) :   0.1782 B( 11-H , 12-H ) :  -0.1935
B( 16-H , 17-H ) :  -0.1071

Dispersion correction           -0.000728393
FINAL SINGLE POINT ENERGY      -891.085335075003

DIPOLE MOMENT
-------------
                                X             Y             Z
Electronic contribution:      3.07680      -7.57443       1.06655
Nuclear contribution   :     -5.91573      12.15027      -4.18945
                        -----------------------------------------
Total Dipole Moment    :     -2.83893       4.57585      -3.12290
                        -----------------------------------------
Magnitude (a.u.)       :      6.22498
Magnitude (Debye)      :     15.82265

Rotational constants in cm-1:     0.082044     0.024757     0.022371
Rotational constants in MHz :  2459.631375   742.181961   670.660570

                             ****ORCA TERMINATED NORMALLY****
TOTAL RUN TIME: 0 days 0 hours 1 minutes 15 seconds 338 msec
