                         Program Version 5.0.0 -  RELEASE  -
|  1> !M062X D3Zero RIJCOSX def2-SVPD def2/J TightSCF
|  2> *xyz 0 1
|  3> C          2.09343        1.86104       -4.65684
|  4> S          1.87964        0.07859       -4.46297
|  5> F          3.20757       -0.46611       -4.42026
|  6> O          1.07506       -0.05616       -3.26876
|  7> O          1.13166       -0.31996       -5.67903
|  8> H          2.68437        2.05681       -5.52711
|  9> H          2.58708        2.25699       -3.79404
| 10> H          1.13553        2.32556       -4.76426
| 11> *
| 12>
| 13> %MaxCore 64000
| 14>
| 15> %pal nprocs 8
| 16> end
| 17>
| 18> %scf
| 19>   MaxIter 150
| 20> end
| 21>
| 22>
| 23>                          ****END OF INPUT****

CARTESIAN COORDINATES (ANGSTROEM)
---------------------------------
  C      2.093430    1.861040   -4.656840
  S      1.879640    0.078590   -4.462970
  F      3.207570   -0.466110   -4.420260
  O      1.075060   -0.056160   -3.268760
  O      1.131660   -0.319960   -5.679030
  H      2.684370    2.056810   -5.527110
  H      2.587080    2.256990   -3.794040
  H      1.135530    2.325560   -4.764260

 Total Charge           Charge          ....    0
 Multiplicity           Mult            ....    1
 Number of Electrons    NEL             ....   50
 Basis Dimension        Dim             ....  140

ORBITAL ENERGIES
----------------

  NO   OCC          E(Eh)            E(eV)
   0   2.0000     -90.206212     -2454.6358
   1   2.0000     -25.389183      -690.8748
   2   2.0000     -19.656830      -534.8895
   3   2.0000     -19.645231      -534.5739
   4   2.0000     -10.611652      -288.7577
   5   2.0000      -8.530280      -232.1207
   6   2.0000      -6.458783      -175.7524
   7   2.0000      -6.453275      -175.6026
   8   2.0000      -6.452510      -175.5817
   9   2.0000      -1.530091       -41.6359
  10   2.0000      -1.230918       -33.4950
  11   2.0000      -1.122059       -30.5328
  12   2.0000      -0.895972       -24.3806
  13   2.0000      -0.824497       -22.4357
  14   2.0000      -0.708730       -19.2855
  15   2.0000      -0.700266       -19.0552
  16   2.0000      -0.646159       -17.5829
  17   2.0000      -0.560010       -15.2387
  18   2.0000      -0.553950       -15.0737
  19   2.0000      -0.538541       -14.6544
  20   2.0000      -0.515675       -14.0322
  21   2.0000      -0.467362       -12.7176
  22   2.0000      -0.412443       -11.2232
  23   2.0000      -0.399535       -10.8719
  24   2.0000      -0.385548       -10.4913
  25   0.0000       0.004680         0.1273
  26   0.0000       0.038802         1.0559
  27   0.0000       0.044773         1.2183
  28   0.0000       0.046743         1.2719
  29   0.0000       0.068188         1.8555

MULLIKEN ATOMIC CHARGES
-----------------------
   0 C :    0.368449
   1 S :    1.356474
   2 F :   -0.395271
   3 O :   -0.664590
   4 O :   -0.694192
   5 H :    0.008752
   6 H :    0.012665
   7 H :    0.007713
Sum of atomic charges:   -0.0000000

LOEWDIN ATOMIC CHARGES
----------------------
   0 C :    0.128108
   1 S :    1.141405
   2 F :   -0.264050
   3 O :   -0.481056
   4 O :   -0.498629
   5 H :   -0.013316
   6 H :   -0.013851
   7 H :    0.001388

  Mayer bond orders larger than 0.100000
B(  0-C ,  1-S ) :   0.9915 B(  0-C ,  5-H ) :   0.9370 B(  0-C ,  6-H ) :   0.9344
B(  0-C ,  7-H ) :   0.9354 B(  1-S ,  2-F ) :   0.6649 B(  1-S ,  3-O ) :   1.5201
B(  1-S ,  4-O ) :   1.4953 B(  1-S ,  7-H ) :   0.1136

Dispersion correction           -0.000047141
FINAL SINGLE POINT ENERGY      -687.836104862328

DIPOLE MOMENT
-------------
                                X             Y             Z
Electronic contribution:      1.82942      -5.13858       0.65720
Nuclear contribution   :     -0.60459       6.33153      -0.64388
                        -----------------------------------------
Total Dipole Moment    :      1.22483       1.19295       0.01332
                        -----------------------------------------
Magnitude (a.u.)       :      1.70983
Magnitude (Debye)      :      4.34604

Rotational constants in cm-1:     0.163601     0.155191     0.147098
Rotational constants in MHz :  4904.622287  4652.507792  4409.891356

                             ****ORCA TERMINATED NORMALLY****
TOTAL RUN TIME: 0 days 0 hours 0 minutes 7 seconds 730 msec
