                         Program Version 5.0.0 -  RELEASE  -
|  1> !M062X D3Zero RIJCOSX def2-SVPD def2/J TightSCF
|  2> *xyz 0 1
|  3> C         -0.46129        2.23469       -4.98962
|  4> C         -0.42384        2.39877       -6.47432
|  5> C         -0.95947        3.49265       -7.00740
|  6> N          0.14558        1.48689       -7.20399
|  7> H          0.56537        0.69681       -6.72386
|  8> H          0.22068        1.58177       -8.20752
|  9> H         -1.40624        4.18151       -6.40326
| 10> H         -0.93421        3.68160       -7.99947
| 11> H          0.00645        1.31059       -4.72100
| 12> H         -1.47822        2.22967       -4.65687
| 13> H          0.06109        3.04632       -4.52779
| 14> *
| 15>
| 16> %MaxCore 64000
| 17>
| 18> %pal nprocs 8
| 19> end
| 20>
| 21> %scf
| 22>   MaxIter 150
| 23> end
| 24>
| 25>
| 26>                          ****END OF INPUT****

CARTESIAN COORDINATES (ANGSTROEM)
---------------------------------
  C     -0.461290    2.234690   -4.989620
  C     -0.423840    2.398770   -6.474320
  C     -0.959470    3.492650   -7.007400
  N      0.145580    1.486890   -7.203990
  H      0.565370    0.696810   -6.723860
  H      0.220680    1.581770   -8.207520
  H     -1.406240    4.181510   -6.403260
  H     -0.934210    3.681600   -7.999470
  H      0.006450    1.310590   -4.721000
  H     -1.478220    2.229670   -4.656870
  H      0.061090    3.046320   -4.527790

 Total Charge           Charge          ....    0
 Multiplicity           Mult            ....    1
 Number of Electrons    NEL             ....   32
 Basis Dimension        Dim             ....  136

ORBITAL ENERGIES
----------------

  NO   OCC          E(Eh)            E(eV)
   0   2.0000     -14.765954      -401.8020
   1   2.0000     -10.572666      -287.6969
   2   2.0000     -10.541583      -286.8510
   3   2.0000     -10.478840      -285.1437
   4   2.0000      -1.034415       -28.1479
   5   2.0000      -0.844666       -22.9845
   6   2.0000      -0.770652       -20.9705
   7   2.0000      -0.651506       -17.7284
   8   2.0000      -0.605734       -16.4829
   9   2.0000      -0.544292       -14.8109
  10   2.0000      -0.501578       -13.6486
  11   2.0000      -0.462585       -12.5876
  12   2.0000      -0.454059       -12.3556
  13   2.0000      -0.415550       -11.3077
  14   2.0000      -0.408335       -11.1114
  15   2.0000      -0.237127        -6.4526
  16   0.0000       0.037846         1.0298
  17   0.0000       0.070622         1.9217
  18   0.0000       0.076842         2.0910
  19   0.0000       0.081080         2.2063
  20   0.0000       0.108381         2.9492

MULLIKEN ATOMIC CHARGES
-----------------------
   0 C :    0.793377
   1 C :   -0.332648
   2 C :    0.358456
   3 N :    0.113858
   4 H :   -0.045490
   5 H :   -0.181467
   6 H :   -0.217882
   7 H :   -0.450169
   8 H :   -0.098310
   9 H :    0.040705
  10 H :    0.019571
Sum of atomic charges:   -0.0000000

LOEWDIN ATOMIC CHARGES
----------------------
   0 C :    0.167707
   1 C :   -0.295486
   2 C :    0.163481
   3 N :    0.153732
   4 H :    0.003016
   5 H :    0.015813
   6 H :   -0.080047
   7 H :   -0.094058
   8 H :   -0.026739
   9 H :   -0.003836
  10 H :   -0.003583

  Mayer bond orders larger than 0.100000
B(  0-C ,  1-C ) :   1.0706 B(  0-C ,  8-H ) :   0.7208 B(  0-C ,  9-H ) :   0.7270
B(  0-C , 10-H ) :   0.7502 B(  1-C ,  2-C ) :   1.7620 B(  1-C ,  3-N ) :   1.0572
B(  1-C ,  5-H ) :  -0.1613 B(  1-C ,  7-H ) :   0.1598 B(  1-C ,  8-H ) :   0.2908
B(  1-C ,  9-H ) :   0.1935 B(  1-C , 10-H ) :   0.1815 B(  2-C ,  3-N ) :   0.2344
B(  2-C ,  6-H ) :   0.8808 B(  2-C ,  7-H ) :   0.8260 B(  3-N ,  4-H ) :   1.0731
B(  3-N ,  5-H ) :   1.3195 B(  4-H ,  5-H ) :  -0.1665

Dispersion correction           -0.000087454
FINAL SINGLE POINT ENERGY      -173.037839065053

DIPOLE MOMENT
-------------
                                X             Y             Z
Electronic contribution:      0.54012      -0.81602      -1.53055
Nuclear contribution   :     -0.12116       0.12783       1.56719
                        -----------------------------------------
Total Dipole Moment    :      0.41895      -0.68819       0.03664
                        -----------------------------------------
Magnitude (a.u.)       :      0.80652
Magnitude (Debye)      :      2.05000

Rotational constants in cm-1:     0.350065     0.307664     0.168807
Rotational constants in MHz : 10494.676477  9223.531181  5060.697310

                             ****ORCA TERMINATED NORMALLY****
TOTAL RUN TIME: 0 days 0 hours 0 minutes 7 seconds 738 msec
