                         Program Version 5.0.0 -  RELEASE  -
|  1> !M062X D3Zero RIJCOSX def2-SVPD def2/J TightSCF
|  2> *xyz 0 1
|  3> C          2.09343        1.86104       -4.65684
|  4> S          1.87964        0.07859       -4.46297
|  5> O          3.20757       -0.46611       -4.42026
|  6> F          1.07506       -0.05616       -3.26876
|  7> O          1.13166       -0.31996       -5.67903
|  8> H          2.68437        2.05681       -5.52711
|  9> H          2.58708        2.25699       -3.79404
| 10> H          1.13553        2.32556       -4.76426
| 11> *
| 12>
| 13> %MaxCore 64000
| 14>
| 15> %pal nprocs 8
| 16> end
| 17>
| 18> %scf
| 19>   MaxIter 150
| 20> end
| 21>
| 22>
| 23>                          ****END OF INPUT****

CARTESIAN COORDINATES (ANGSTROEM)
---------------------------------
  C      2.093430    1.861040   -4.656840
  S      1.879640    0.078590   -4.462970
  O      3.207570   -0.466110   -4.420260
  F      1.075060   -0.056160   -3.268760
  O      1.131660   -0.319960   -5.679030
  H      2.684370    2.056810   -5.527110
  H      2.587080    2.256990   -3.794040
  H      1.135530    2.325560   -4.764260

 Total Charge           Charge          ....    0
 Multiplicity           Mult            ....    1
 Number of Electrons    NEL             ....   50
 Basis Dimension        Dim             ....  140

ORBITAL ENERGIES
----------------

  NO   OCC          E(Eh)            E(eV)
   0   2.0000     -90.205799     -2454.6246
   1   2.0000     -25.383349      -690.7160
   2   2.0000     -19.660953      -535.0017
   3   2.0000     -19.645073      -534.5696
   4   2.0000     -10.611426      -288.7516
   5   2.0000      -8.529815      -232.1081
   6   2.0000      -6.458277      -175.7387
   7   2.0000      -6.452900      -175.5923
   8   2.0000      -6.452077      -175.5699
   9   2.0000      -1.520401       -41.3722
  10   2.0000      -1.235863       -33.6296
  11   2.0000      -1.125617       -30.6296
  12   2.0000      -0.895529       -24.3686
  13   2.0000      -0.819396       -22.2969
  14   2.0000      -0.702943       -19.1280
  15   2.0000      -0.693395       -18.8682
  16   2.0000      -0.646293       -17.5865
  17   2.0000      -0.562061       -15.2945
  18   2.0000      -0.554549       -15.0900
  19   2.0000      -0.537815       -14.6347
  20   2.0000      -0.517773       -14.0893
  21   2.0000      -0.470107       -12.7923
  22   2.0000      -0.416645       -11.3375
  23   2.0000      -0.400253       -10.8914
  24   2.0000      -0.388329       -10.5670
  25   0.0000       0.005518         0.1502
  26   0.0000       0.039142         1.0651
  27   0.0000       0.044962         1.2235
  28   0.0000       0.046726         1.2715
  29   0.0000       0.069020         1.8781

MULLIKEN ATOMIC CHARGES
-----------------------
   0 C :    0.366880
   1 S :    1.357518
   2 O :   -0.655404
   3 F :   -0.400178
   4 O :   -0.697234
   5 H :    0.001753
   6 H :    0.011210
   7 H :    0.015455
Sum of atomic charges:    0.0000000

LOEWDIN ATOMIC CHARGES
----------------------
   0 C :    0.128136
   1 S :    1.140272
   2 O :   -0.474135
   3 F :   -0.269813
   4 O :   -0.498715
   5 H :    0.000556
   6 H :   -0.014359
   7 H :   -0.011942

  Mayer bond orders larger than 0.100000
B(  0-C ,  1-S ) :   0.9905 B(  0-C ,  5-H ) :   0.9374 B(  0-C ,  6-H ) :   0.9340
B(  0-C ,  7-H ) :   0.9368 B(  1-S ,  2-O ) :   1.5279 B(  1-S ,  3-F ) :   0.6576
B(  1-S ,  4-O ) :   1.4953 B(  1-S ,  5-H ) :   0.1127

Dispersion correction           -0.000047034
FINAL SINGLE POINT ENERGY      -687.841273468307

DIPOLE MOMENT
-------------
                                X             Y             Z
Electronic contribution:     -1.73849      -4.45516       2.58838
Nuclear contribution   :      1.52593       5.92196      -1.79430
                        -----------------------------------------
Total Dipole Moment    :     -0.21256       1.46680       0.79408
                        -----------------------------------------
Magnitude (a.u.)       :      1.68145
Magnitude (Debye)      :      4.27390

Rotational constants in cm-1:     0.162837     0.155564     0.147443
Rotational constants in MHz :  4881.731197  4663.686927  4420.233103

                             ****ORCA TERMINATED NORMALLY****
TOTAL RUN TIME: 0 days 0 hours 0 minutes 7 seconds 807 msec
