                         Program Version 5.0.0 -  RELEASE  -
|  1> !M062X D3Zero RIJCOSX def2-SVPD def2/J TightSCF
|  2> *xyz 0 1
|  3> C         -0.46129        2.23469       -4.98962
|  4> C         -0.42384        2.39877       -6.47432
|  5> N         -0.95947        3.49265       -7.00740
|  6> C          0.14558        1.48689       -7.20399
|  7> H          0.56537        0.69681       -6.72386
|  8> H          0.22068        1.58177       -8.20752
|  9> H         -1.40624        4.18151       -6.40326
| 10> H         -0.93421        3.68160       -7.99947
| 11> H          0.00645        1.31059       -4.72100
| 12> H         -1.47822        2.22967       -4.65687
| 13> H          0.06109        3.04632       -4.52779
| 14> *
| 15>
| 16> %MaxCore 64000
| 17>
| 18> %pal nprocs 8
| 19> end
| 20>
| 21> %scf
| 22>   MaxIter 150
| 23> end
| 24>
| 25>
| 26>                          ****END OF INPUT****

CARTESIAN COORDINATES (ANGSTROEM)
---------------------------------
  C     -0.461290    2.234690   -4.989620
  C     -0.423840    2.398770   -6.474320
  N     -0.959470    3.492650   -7.007400
  C      0.145580    1.486890   -7.203990
  H      0.565370    0.696810   -6.723860
  H      0.220680    1.581770   -8.207520
  H     -1.406240    4.181510   -6.403260
  H     -0.934210    3.681600   -7.999470
  H      0.006450    1.310590   -4.721000
  H     -1.478220    2.229670   -4.656870
  H      0.061090    3.046320   -4.527790

 Total Charge           Charge          ....    0
 Multiplicity           Mult            ....    1
 Number of Electrons    NEL             ....   32
 Basis Dimension        Dim             ....  136

ORBITAL ENERGIES
----------------

  NO   OCC          E(Eh)            E(eV)
   0   2.0000     -14.760985      -401.6668
   1   2.0000     -10.571139      -287.6553
   2   2.0000     -10.540052      -286.8094
   3   2.0000     -10.483294      -285.2649
   4   2.0000      -1.020923       -27.7807
   5   2.0000      -0.849183       -23.1074
   6   2.0000      -0.774816       -21.0838
   7   2.0000      -0.647001       -17.6058
   8   2.0000      -0.595353       -16.2004
   9   2.0000      -0.547315       -14.8932
  10   2.0000      -0.501373       -13.6430
  11   2.0000      -0.460849       -12.5403
  12   2.0000      -0.459689       -12.5088
  13   2.0000      -0.415928       -11.3180
  14   2.0000      -0.400234       -10.8909
  15   2.0000      -0.248039        -6.7495
  16   0.0000       0.038325         1.0429
  17   0.0000       0.072169         1.9638
  18   0.0000       0.077297         2.1033
  19   0.0000       0.087020         2.3679
  20   0.0000       0.112885         3.0718

MULLIKEN ATOMIC CHARGES
-----------------------
   0 C :    0.824966
   1 C :   -0.438739
   2 N :    0.141949
   3 C :    0.359657
   4 H :   -0.098816
   5 H :   -0.439114
   6 H :   -0.131284
   7 H :   -0.202423
   8 H :    0.054618
   9 H :   -0.029984
  10 H :   -0.040829
Sum of atomic charges:    0.0000000

LOEWDIN ATOMIC CHARGES
----------------------
   0 C :    0.164149
   1 C :   -0.298633
   2 N :    0.151629
   3 C :    0.168290
   4 H :   -0.080032
   5 H :   -0.079823
   6 H :    0.004449
   7 H :    0.003985
   8 H :   -0.013769
   9 H :   -0.010563
  10 H :   -0.009681

  Mayer bond orders larger than 0.100000
B(  0-C ,  1-C ) :   1.2774 B(  0-C ,  8-H ) :   0.7873 B(  0-C ,  9-H ) :   0.6734
B(  0-C , 10-H ) :   0.6677 B(  1-C ,  2-N ) :   1.1090 B(  1-C ,  3-C ) :   1.7562
B(  1-C ,  5-H ) :   0.1576 B(  1-C ,  8-H ) :   0.2260 B(  1-C ,  9-H ) :   0.2782
B(  1-C , 10-H ) :   0.2874 B(  2-N ,  3-C ) :   0.2413 B(  2-N ,  6-H ) :   1.1690
B(  2-N ,  7-H ) :   1.2337 B(  3-C ,  4-H ) :   0.9482 B(  3-C ,  5-H ) :   0.7730
B(  6-H ,  7-H ) :  -0.1534

Dispersion correction           -0.000087475
FINAL SINGLE POINT ENERGY      -173.042001365728

DIPOLE MOMENT
-------------
                                X             Y             Z
Electronic contribution:     -0.43808       0.94250      -1.39406
Nuclear contribution   :      0.12666      -0.32199       1.52310
                        -----------------------------------------
Total Dipole Moment    :     -0.31142       0.62050       0.12905
                        -----------------------------------------
Magnitude (a.u.)       :      0.70616
Magnitude (Debye)      :      1.79491

Rotational constants in cm-1:     0.352483     0.305471     0.168700
Rotational constants in MHz : 10567.165953  9157.779739  5057.501411

                             ****ORCA TERMINATED NORMALLY****
TOTAL RUN TIME: 0 days 0 hours 0 minutes 7 seconds 695 msec
