                         Program Version 5.0.0 -  RELEASE  -
|  1> !M062X D3Zero RIJCOSX def2-SVPD def2/J TightSCF
|  2> *xyz 0 1
|  3> C          2.09343        1.86104       -4.65684
|  4> S          1.87964        0.07859       -4.46297
|  5> O          3.20757       -0.46611       -4.42026
|  6> O          1.07506       -0.05616       -3.26876
|  7> F          1.13166       -0.31996       -5.67903
|  8> H          2.68437        2.05681       -5.52711
|  9> H          2.58708        2.25699       -3.79404
| 10> H          1.13553        2.32556       -4.76426
| 11> *
| 12>
| 13> %MaxCore 64000
| 14>
| 15> %pal nprocs 8
| 16> end
| 17>
| 18> %scf
| 19>   MaxIter 150
| 20> end
| 21>
| 22>
| 23>                          ****END OF INPUT****

CARTESIAN COORDINATES (ANGSTROEM)
---------------------------------
  C      2.093430    1.861040   -4.656840
  S      1.879640    0.078590   -4.462970
  O      3.207570   -0.466110   -4.420260
  O      1.075060   -0.056160   -3.268760
  F      1.131660   -0.319960   -5.679030
  H      2.684370    2.056810   -5.527110
  H      2.587080    2.256990   -3.794040
  H      1.135530    2.325560   -4.764260

 Total Charge           Charge          ....    0
 Multiplicity           Mult            ....    1
 Number of Electrons    NEL             ....   50
 Basis Dimension        Dim             ....  140

ORBITAL ENERGIES
----------------

  NO   OCC          E(Eh)            E(eV)
   0   2.0000     -90.204256     -2454.5826
   1   2.0000     -25.365072      -690.2187
   2   2.0000     -19.660583      -534.9916
   3   2.0000     -19.656203      -534.8725
   4   2.0000     -10.610590      -288.7288
   5   2.0000      -8.528104      -232.0615
   6   2.0000      -6.456362      -175.6865
   7   2.0000      -6.451396      -175.5514
   8   2.0000      -6.450582      -175.5292
   9   2.0000      -1.489403       -40.5287
  10   2.0000      -1.244174       -33.8557
  11   2.0000      -1.145010       -31.1573
  12   2.0000      -0.892181       -24.2775
  13   2.0000      -0.803616       -21.8675
  14   2.0000      -0.685785       -18.6612
  15   2.0000      -0.671715       -18.2783
  16   2.0000      -0.645286       -17.5591
  17   2.0000      -0.564770       -15.3682
  18   2.0000      -0.556372       -15.1397
  19   2.0000      -0.536870       -14.6090
  20   2.0000      -0.522851       -14.2275
  21   2.0000      -0.474830       -12.9208
  22   2.0000      -0.423015       -11.5108
  23   2.0000      -0.408763       -11.1230
  24   2.0000      -0.401465       -10.9244
  25   0.0000       0.007789         0.2119
  26   0.0000       0.040309         1.0969
  27   0.0000       0.045840         1.2474
  28   0.0000       0.046202         1.2572
  29   0.0000       0.068689         1.8691

MULLIKEN ATOMIC CHARGES
-----------------------
   0 C :    0.365333
   1 S :    1.369056
   2 O :   -0.665937
   3 O :   -0.678420
   4 F :   -0.416593
   5 H :    0.009047
   6 H :    0.003108
   7 H :    0.014407
Sum of atomic charges:    0.0000000

LOEWDIN ATOMIC CHARGES
----------------------
   0 C :    0.128431
   1 S :    1.138182
   2 O :   -0.474298
   3 O :   -0.481614
   4 F :   -0.284829
   5 H :   -0.013032
   6 H :   -0.000441
   7 H :   -0.012398

  Mayer bond orders larger than 0.100000
B(  0-C ,  1-S ) :   0.9916 B(  0-C ,  5-H ) :   0.9394 B(  0-C ,  6-H ) :   0.9331
B(  0-C ,  7-H ) :   0.9365 B(  1-S ,  2-O ) :   1.5254 B(  1-S ,  3-O ) :   1.5178
B(  1-S ,  4-F ) :   0.6203 B(  1-S ,  6-H ) :   0.1072

Dispersion correction           -0.000047060
FINAL SINGLE POINT ENERGY      -687.856658053254

DIPOLE MOMENT
-------------
                                X             Y             Z
Electronic contribution:     -1.65420      -4.90058      -1.47225
Nuclear contribution   :      1.46938       6.18552       0.61372
                        -----------------------------------------
Total Dipole Moment    :     -0.18482       1.28493      -0.85853
                        -----------------------------------------
Magnitude (a.u.)       :      1.55637
Magnitude (Debye)      :      3.95598

Rotational constants in cm-1:     0.163578     0.153284     0.148718
Rotational constants in MHz :  4903.939615  4595.352658  4458.447794

                             ****ORCA TERMINATED NORMALLY****
TOTAL RUN TIME: 0 days 0 hours 0 minutes 7 seconds 783 msec
