                         Program Version 5.0.0 -  RELEASE  -
|  1> !M062X D3Zero RIJCOSX def2-SVPD def2/J TightSCF xyzfile
|  2>
|  3> *xyzfile 0 1 D1.xyz
|  4>
|  5> %MaxCore 64000
|  6>
|  7> %pal nprocs 4
|  8> end
|  9>
| 10> %scf
| 11>   MaxIter 150
| 12> end
| 13>
| 14>
| 15>                          ****END OF INPUT****

CARTESIAN COORDINATES (ANGSTROEM)
---------------------------------
  C     -0.461293    2.234686   -4.989619
  C      0.848883    2.667967   -4.302351
  C      2.093434    1.861037   -4.656845
  H      2.444814    2.041567   -5.674990
  H      2.901748    2.137864   -3.980338
  S      1.879644    0.078594   -4.462965
  C     -0.423841    2.398772   -6.474317
  C     -0.959467    3.492647   -7.007401
  N      0.145585    1.486891   -7.203987
  H      0.565371    0.696807   -6.723858
  H      0.220682    1.581768   -8.207520
  H     -1.406243    4.181507   -6.403261
  H     -0.934215    3.681601   -7.999468
  F      3.207574   -0.466111   -4.420259
  O      1.075064   -0.056160   -3.268758
  O      1.131661   -0.319960   -5.679031
  H      0.668432    2.559427   -3.232850
  H      1.034074    3.729426   -4.497081
  H     -1.288884    2.826737   -4.594997
  H     -0.651696    1.186343   -4.756552

 Total Charge           Charge          ....    0
 Multiplicity           Mult            ....    1
 Number of Electrons    NEL             ....   88
 Basis Dimension        Dim             ....  296

ORBITAL ENERGIES
----------------

  NO   OCC          E(Eh)            E(eV)
   0   2.0000     -90.219174     -2454.9885
   1   2.0000     -25.400858      -691.1925
   2   2.0000     -19.670673      -535.2662
   3   2.0000     -19.666700      -535.1581
   4   2.0000     -14.736279      -400.9946
   5   2.0000     -10.620796      -289.0065
   6   2.0000     -10.581782      -287.9449
   7   2.0000     -10.564780      -287.4823
   8   2.0000     -10.553187      -287.1668
   9   2.0000     -10.476346      -285.0759
  10   2.0000      -8.543025      -232.4675
  11   2.0000      -6.471329      -176.0938
  12   2.0000      -6.466414      -175.9601
  13   2.0000      -6.465051      -175.9230
  14   2.0000      -1.541025       -41.9334
  15   2.0000      -1.249136       -33.9907
  16   2.0000      -1.145535       -31.1716
  17   2.0000      -1.019212       -27.7342
  18   2.0000      -0.930746       -25.3269
  19   2.0000      -0.867403       -23.6032
  20   2.0000      -0.833216       -22.6730
  21   2.0000      -0.783693       -21.3254
  22   2.0000      -0.736613       -20.0443
  23   2.0000      -0.713451       -19.4140
  24   2.0000      -0.692106       -18.8332
  25   2.0000      -0.665560       -18.1108
  26   2.0000      -0.636781       -17.3277
  27   2.0000      -0.604423       -16.4472
  28   2.0000      -0.580085       -15.7849
  29   2.0000      -0.571075       -15.5397
  30   2.0000      -0.550760       -14.9870
  31   2.0000      -0.533233       -14.5100
  32   2.0000      -0.518904       -14.1201
  33   2.0000      -0.488381       -13.2895
  34   2.0000      -0.469239       -12.7686
  35   2.0000      -0.462159       -12.5760
  36   2.0000      -0.450159       -12.2494
  37   2.0000      -0.429329       -11.6826
  38   2.0000      -0.423546       -11.5253
  39   2.0000      -0.413820       -11.2606
  40   2.0000      -0.405200       -11.0261
  41   2.0000      -0.391537       -10.6543
  42   2.0000      -0.384363       -10.4590
  43   2.0000      -0.230739        -6.2787
  44   0.0000       0.002345         0.0638
  45   0.0000       0.029619         0.8060
  46   0.0000       0.032635         0.8880
  47   0.0000       0.042932         1.1682
  48   0.0000       0.061064         1.6616

MULLIKEN ATOMIC CHARGES
-----------------------
   0 C :    0.477505
   1 C :    0.152187
   2 C :    0.081851
   3 H :    0.164154
   4 H :   -0.113236
   5 S :    1.700775
   6 C :   -0.038051
   7 C :    0.298966
   8 N :    0.576787
   9 H :   -0.402693
  10 H :   -0.226944
  11 H :   -0.117864
  12 H :   -0.441973
  13 F :   -0.488367
  14 O :   -0.704639
  15 O :   -0.839124
  16 H :    0.168363
  17 H :   -0.217372
  18 H :    0.007804
  19 H :   -0.038129
Sum of atomic charges:   -0.0000000

LOEWDIN ATOMIC CHARGES
----------------------
   0 C :    0.032616
   1 C :   -0.001917
   2 C :   -0.036383
   3 H :    0.025544
   4 H :    0.017929
   5 S :    1.208473
   6 C :   -0.249447
   7 C :    0.173669
   8 N :    0.192402
   9 H :   -0.135525
  10 H :    0.020287
  11 H :   -0.088061
  12 H :   -0.091962
  13 F :   -0.252646
  14 O :   -0.458416
  15 O :   -0.469879
  16 H :    0.026968
  17 H :    0.040198
  18 H :    0.032261
  19 H :    0.013886

  Mayer bond orders larger than 0.100000
B(  0-C ,  1-C ) :   1.1681 B(  0-C ,  6-C ) :   1.1386 B(  0-C ,  8-N ) :   0.1106
B(  0-C , 16-H ) :   0.1415 B(  0-C , 18-H ) :   0.7240 B(  0-C , 19-H ) :   0.7268
B(  1-C ,  2-C ) :   1.3809 B(  1-C ,  3-H ) :   0.1185 B(  1-C ,  4-H ) :   0.2025
B(  1-C , 16-H ) :   0.7719 B(  1-C , 17-H ) :   0.9316 B(  1-C , 18-H ) :   0.1389
B(  1-C , 19-H ) :   0.1507 B(  2-C ,  3-H ) :   0.8794 B(  2-C ,  4-H ) :   0.8176
B(  2-C ,  5-S ) :   0.9148 B(  2-C , 15-O ) :   0.1152 B(  2-C , 16-H ) :   0.1245
B(  2-C , 17-H ) :   0.1026 B(  5-S , 13-F ) :   0.6005 B(  5-S , 14-O ) :   1.5154
B(  5-S , 15-O ) :   1.3401 B(  6-C ,  7-C ) :   1.6520 B(  6-C ,  8-N ) :   1.1234
B(  6-C , 10-H ) :  -0.1475 B(  6-C , 12-H ) :   0.1503 B(  6-C , 18-H ) :   0.1657
B(  6-C , 19-H ) :   0.1820 B(  7-C ,  8-N ) :   0.1576 B(  7-C , 11-H ) :   0.9476
B(  7-C , 12-H ) :   0.6882 B(  8-N ,  9-H ) :   1.0221 B(  8-N , 10-H ) :   1.2250
B(  8-N , 15-O ) :  -0.1068 B(  9-H , 10-H ) :  -0.2210 B(  9-H , 15-O ) :   0.1176
B( 16-H , 17-H ) :  -0.1165

Dispersion correction           -0.000713233
FINAL SINGLE POINT ENERGY      -898.961674486071

DIPOLE MOMENT
-------------
                                X             Y             Z
Electronic contribution:     10.16155     -13.84694       5.45031
Nuclear contribution   :     -8.53047      14.15581      -5.17613
                        -----------------------------------------
Total Dipole Moment    :      1.63108       0.30887       0.27418
                        -----------------------------------------
Magnitude (a.u.)       :      1.68255
Magnitude (Debye)      :      4.27671

Rotational constants in cm-1:     0.081196     0.024861     0.022477
Rotational constants in MHz :  2434.181666   745.320670   673.846846

                             ****ORCA TERMINATED NORMALLY****
TOTAL RUN TIME: 0 days 0 hours 1 minutes 15 seconds 84 msec
