                         Program Version 5.0.0 -  RELEASE  -
|  1> !M062X D3Zero RIJCOSX def2-SVPD def2/J TightSCF xyzfile
|  2>
|  3> *xyzfile 0 1 D2.xyz
|  4>
|  5> %MaxCore 64000
|  6>
|  7> %pal nprocs 4
|  8> end
|  9>
| 10> %scf
| 11>   MaxIter 150
| 12> end
| 13>
| 14>
| 15>                          ****END OF INPUT****

CARTESIAN COORDINATES (ANGSTROEM)
---------------------------------
  C     -0.461293    2.234686   -4.989619
  C      0.848883    2.667967   -4.302351
  C      2.093434    1.861037   -4.656845
  H      2.444814    2.041567   -5.674990
  H      2.901748    2.137864   -3.980338
  S      1.879644    0.078594   -4.462965
  C     -0.423841    2.398772   -6.474317
  N     -0.959467    3.492647   -7.007401
  C      0.145585    1.486891   -7.203987
  H      0.565371    0.696807   -6.723858
  H      0.220682    1.581768   -8.207520
  H     -1.406243    4.181507   -6.403261
  H     -0.934215    3.681601   -7.999468
  F      3.207574   -0.466111   -4.420259
  O      1.075064   -0.056160   -3.268758
  O      1.131661   -0.319960   -5.679031
  H      0.668432    2.559427   -3.232850
  H      1.034074    3.729426   -4.497081
  H     -1.288884    2.826737   -4.594997
  H     -0.651696    1.186343   -4.756552

 Total Charge           Charge          ....    0
 Multiplicity           Mult            ....    1
 Number of Electrons    NEL             ....   88
 Basis Dimension        Dim             ....  296

ORBITAL ENERGIES
----------------

  NO   OCC          E(Eh)            E(eV)
   0   2.0000     -90.201868     -2454.5176
   1   2.0000     -25.385824      -690.7834
   2   2.0000     -19.655770      -534.8607
   3   2.0000     -19.644050      -534.5418
   4   2.0000     -14.756732      -401.5511
   5   2.0000     -10.609790      -288.7071
   6   2.0000     -10.579303      -287.8775
   7   2.0000     -10.560807      -287.3742
   8   2.0000     -10.553237      -287.1682
   9   2.0000     -10.459468      -284.6166
  10   2.0000      -8.525691      -231.9958
  11   2.0000      -6.454083      -175.6245
  12   2.0000      -6.449035      -175.4872
  13   2.0000      -6.447695      -175.4507
  14   2.0000      -1.526083       -41.5268
  15   2.0000      -1.231826       -33.5197
  16   2.0000      -1.126063       -30.6417
  17   2.0000      -1.017088       -27.6764
  18   2.0000      -0.923169       -25.1207
  19   2.0000      -0.863582       -23.4993
  20   2.0000      -0.820456       -22.3257
  21   2.0000      -0.790340       -21.5062
  22   2.0000      -0.727808       -19.8046
  23   2.0000      -0.698402       -19.0045
  24   2.0000      -0.682296       -18.5662
  25   2.0000      -0.647480       -17.6188
  26   2.0000      -0.640278       -17.4229
  27   2.0000      -0.589161       -16.0319
  28   2.0000      -0.575113       -15.6496
  29   2.0000      -0.562797       -15.3145
  30   2.0000      -0.547843       -14.9076
  31   2.0000      -0.534229       -14.5371
  32   2.0000      -0.513577       -13.9751
  33   2.0000      -0.478733       -13.0270
  34   2.0000      -0.468159       -12.7392
  35   2.0000      -0.458707       -12.4820
  36   2.0000      -0.444984       -12.1086
  37   2.0000      -0.425907       -11.5895
  38   2.0000      -0.406791       -11.0693
  39   2.0000      -0.402560       -10.9542
  40   2.0000      -0.389408       -10.5963
  41   2.0000      -0.386028       -10.5044
  42   2.0000      -0.362056        -9.8520
  43   2.0000      -0.237610        -6.4657
  44   0.0000       0.011350         0.3088
  45   0.0000       0.031955         0.8695
  46   0.0000       0.040077         1.0906
  47   0.0000       0.044414         1.2086
  48   0.0000       0.065069         1.7706

MULLIKEN ATOMIC CHARGES
-----------------------
   0 C :    0.381055
   1 C :    0.177987
   2 C :    0.050025
   3 H :    0.236386
   4 H :   -0.161478
   5 S :    1.677402
   6 C :    0.176917
   7 N :   -0.076406
   8 C :    0.871686
   9 H :   -0.237644
  10 H :   -0.687988
  11 H :   -0.083607
  12 H :   -0.186790
  13 F :   -0.491257
  14 O :   -0.721130
  15 O :   -0.827130
  16 H :    0.151927
  17 H :   -0.215943
  18 H :   -0.188916
  19 H :    0.154903
Sum of atomic charges:   -0.0000000

LOEWDIN ATOMIC CHARGES
----------------------
   0 C :    0.032937
   1 C :   -0.005794
   2 C :   -0.036379
   3 H :    0.023958
   4 H :    0.016092
   5 S :    1.203065
   6 C :   -0.237454
   7 N :    0.153415
   8 C :    0.205116
   9 H :   -0.186934
  10 H :   -0.070240
  11 H :   -0.002604
  12 H :    0.003904
  13 F :   -0.258040
  14 O :   -0.468733
  15 O :   -0.476930
  16 H :    0.026059
  17 H :    0.036714
  18 H :    0.022604
  19 H :    0.019242

  Mayer bond orders larger than 0.100000
B(  0-C ,  1-C ) :   1.1781 B(  0-C ,  6-C ) :   1.0749 B(  0-C ,  7-N ) :   0.1119
B(  0-C ,  8-C ) :   0.1677 B(  0-C , 16-H ) :   0.1287 B(  0-C , 18-H ) :   0.7522
B(  0-C , 19-H ) :   0.8265 B(  1-C ,  2-C ) :   1.3800 B(  1-C ,  3-H ) :   0.1105
B(  1-C ,  4-H ) :   0.1985 B(  1-C , 16-H ) :   0.7582 B(  1-C , 17-H ) :   0.9115
B(  1-C , 18-H ) :   0.1636 B(  1-C , 19-H ) :   0.1344 B(  2-C ,  3-H ) :   0.8589
B(  2-C ,  4-H ) :   0.8377 B(  2-C ,  5-S ) :   0.9253 B(  2-C ,  9-H ) :   0.1210
B(  2-C , 15-O ) :   0.1406 B(  2-C , 16-H ) :   0.1178 B(  3-H ,  9-H ) :   0.1016
B(  4-H ,  9-H ) :  -0.1270 B(  5-S , 13-F ) :   0.5958 B(  5-S , 14-O ) :   1.4971
B(  5-S , 15-O ) :   1.3812 B(  6-C ,  7-N ) :   0.8833 B(  6-C ,  8-C ) :   1.8681
B(  6-C ,  9-H ) :   0.3665 B(  6-C , 10-H ) :   0.2279 B(  6-C , 12-H ) :  -0.1516
B(  6-C , 18-H ) :   0.1616 B(  7-N ,  8-C ) :   0.3086 B(  7-N , 11-H ) :   1.1693
B(  7-N , 12-H ) :   1.3473 B(  8-C ,  9-H ) :   0.5728 B(  8-C , 10-H ) :   0.7020
B(  9-H , 10-H ) :  -0.3261 B( 11-H , 12-H ) :  -0.1733 B( 16-H , 17-H ) :  -0.1024

Dispersion correction           -0.000709921
FINAL SINGLE POINT ENERGY      -898.941402307547

DIPOLE MOMENT
-------------
                                X             Y             Z
Electronic contribution:      9.26940     -12.39449       5.39256
Nuclear contribution   :     -8.42493      13.96425      -5.19491
                        -----------------------------------------
Total Dipole Moment    :      0.84447       1.56977       0.19765
                        -----------------------------------------
Magnitude (a.u.)       :      1.79342
Magnitude (Debye)      :      4.55851

Rotational constants in cm-1:     0.082815     0.024151     0.022015
Rotational constants in MHz :  2482.732265   724.035221   660.002136

                             ****ORCA TERMINATED NORMALLY****
TOTAL RUN TIME: 0 days 0 hours 1 minutes 21 seconds 133 msec
