                         Program Version 5.0.0 -  RELEASE  -
|  1> !M062X D3Zero RIJCOSX def2-SVPD def2/J TightSCF xyzfile
|  2>
|  3> *xyzfile 0 1 D5.xyz
|  4>
|  5> %MaxCore 64000
|  6>
|  7> %pal nprocs 4
|  8> end
|  9>
| 10> %scf
| 11>   MaxIter 150
| 12> end
| 13>
| 14>
| 15>                          ****END OF INPUT****

CARTESIAN COORDINATES (ANGSTROEM)
---------------------------------
  C     -0.461293    2.234686   -4.989619
  C      0.848883    2.667967   -4.302351
  C      2.093434    1.861037   -4.656845
  H      2.444814    2.041567   -5.674990
  H      2.901748    2.137864   -3.980338
  S      1.879644    0.078594   -4.462965
  C     -0.423841    2.398772   -6.474317
  C     -0.959467    3.492647   -7.007401
  N      0.145585    1.486891   -7.203987
  H      0.565371    0.696807   -6.723858
  H      0.220682    1.581768   -8.207520
  H     -1.406243    4.181507   -6.403261
  H     -0.934215    3.681601   -7.999468
  O      3.207574   -0.466111   -4.420259
  O      1.075064   -0.056160   -3.268758
  F      1.131661   -0.319960   -5.679031
  H      0.668432    2.559427   -3.232850
  H      1.034074    3.729426   -4.497081
  H     -1.288884    2.826737   -4.594997
  H     -0.651696    1.186343   -4.756552

 Total Charge           Charge          ....    0
 Multiplicity           Mult            ....    1
 Number of Electrons    NEL             ....   88
 Basis Dimension        Dim             ....  296

ORBITAL ENERGIES
----------------

  NO   OCC          E(Eh)            E(eV)
   0   2.0000     -90.209523     -2454.7259
   1   2.0000     -25.385992      -690.7880
   2   2.0000     -19.668269      -535.2008
   3   2.0000     -19.664433      -535.0964
   4   2.0000     -14.767877      -401.8544
   5   2.0000     -10.617115      -288.9064
   6   2.0000     -10.582574      -287.9665
   7   2.0000     -10.582551      -287.9659
   8   2.0000     -10.567612      -287.5593
   9   2.0000     -10.494055      -285.5578
  10   2.0000      -8.533513      -232.2087
  11   2.0000      -6.462086      -175.8423
  12   2.0000      -6.456697      -175.6957
  13   2.0000      -6.455489      -175.6628
  14   2.0000      -1.513693       -41.1897
  15   2.0000      -1.253291       -34.1038
  16   2.0000      -1.152660       -31.3655
  17   2.0000      -1.046092       -28.4656
  18   2.0000      -0.932731       -25.3809
  19   2.0000      -0.864425       -23.5222
  20   2.0000      -0.845182       -22.9986
  21   2.0000      -0.789548       -21.4847
  22   2.0000      -0.747291       -20.3348
  23   2.0000      -0.695569       -18.9274
  24   2.0000      -0.694018       -18.8852
  25   2.0000      -0.659083       -17.9345
  26   2.0000      -0.639389       -17.3987
  27   2.0000      -0.616008       -16.7624
  28   2.0000      -0.582057       -15.8386
  29   2.0000      -0.562633       -15.3100
  30   2.0000      -0.555241       -15.1089
  31   2.0000      -0.551850       -15.0166
  32   2.0000      -0.522089       -14.2068
  33   2.0000      -0.497737       -13.5441
  34   2.0000      -0.477485       -12.9930
  35   2.0000      -0.467410       -12.7189
  36   2.0000      -0.459092       -12.4925
  37   2.0000      -0.446077       -12.1384
  38   2.0000      -0.426368       -11.6021
  39   2.0000      -0.419839       -11.4244
  40   2.0000      -0.408564       -11.1176
  41   2.0000      -0.405485       -11.0338
  42   2.0000      -0.397362       -10.8128
  43   2.0000      -0.251081        -6.8323
  44   0.0000       0.011859         0.3227
  45   0.0000       0.030874         0.8401
  46   0.0000       0.034053         0.9266
  47   0.0000       0.041833         1.1383
  48   0.0000       0.061610         1.6765

MULLIKEN ATOMIC CHARGES
-----------------------
   0 C :    0.457718
   1 C :    0.202816
   2 C :    0.121283
   3 H :    0.155928
   4 H :   -0.129681
   5 S :    1.566929
   6 C :    0.020208
   7 C :    0.299386
   8 N :    0.577598
   9 H :   -0.391528
  10 H :   -0.211209
  11 H :   -0.106659
  12 H :   -0.442445
  13 O :   -0.720480
  14 O :   -0.723338
  15 F :   -0.558882
  16 H :    0.175168
  17 H :   -0.212791
  18 H :    0.010675
  19 H :   -0.090696
Sum of atomic charges:    0.0000000

LOEWDIN ATOMIC CHARGES
----------------------
   0 C :    0.028847
   1 C :   -0.011180
   2 C :   -0.030096
   3 H :    0.023177
   4 H :    0.031581
   5 S :    1.165914
   6 C :   -0.250230
   7 C :    0.184101
   8 N :    0.190447
   9 H :   -0.091349
  10 H :    0.025259
  11 H :   -0.081160
  12 H :   -0.087297
  13 O :   -0.459498
  14 O :   -0.461866
  15 F :   -0.287271
  16 H :    0.027969
  17 H :    0.037698
  18 H :    0.034353
  19 H :    0.010600

  Mayer bond orders larger than 0.100000
B(  0-C ,  1-C ) :   1.1728 B(  0-C ,  6-C ) :   1.1308 B(  0-C ,  8-N ) :   0.1046
B(  0-C , 16-H ) :   0.1381 B(  0-C , 17-H ) :   0.1016 B(  0-C , 18-H ) :   0.7383
B(  0-C , 19-H ) :   0.7329 B(  1-C ,  2-C ) :   1.3609 B(  1-C ,  3-H ) :   0.1195
B(  1-C ,  4-H ) :   0.1720 B(  1-C , 16-H ) :   0.7730 B(  1-C , 17-H ) :   0.9134
B(  1-C , 18-H ) :   0.1350 B(  1-C , 19-H ) :   0.1539 B(  2-C ,  3-H ) :   0.8818
B(  2-C ,  4-H ) :   0.8587 B(  2-C ,  5-S ) :   0.9646 B(  2-C , 16-H ) :   0.1338
B(  5-S , 13-O ) :   1.5299 B(  5-S , 14-O ) :   1.5241 B(  5-S , 15-F ) :   0.6001
B(  6-C ,  7-C ) :   1.6536 B(  6-C ,  8-N ) :   1.1038 B(  6-C , 10-H ) :  -0.1501
B(  6-C , 12-H ) :   0.1410 B(  6-C , 18-H ) :   0.1752 B(  6-C , 19-H ) :   0.1651
B(  7-C ,  8-N ) :   0.1627 B(  7-C , 11-H ) :   0.9547 B(  7-C , 12-H ) :   0.6891
B(  8-N ,  9-H ) :   1.0275 B(  8-N , 10-H ) :   1.2298 B(  9-H , 10-H ) :  -0.2033
B( 16-H , 17-H ) :  -0.1170

Dispersion correction           -0.000725959
FINAL SINGLE POINT ENERGY      -898.970423950398

DIPOLE MOMENT
-------------
                                X             Y             Z
Electronic contribution:      6.39038     -13.33647       3.12894
Nuclear contribution   :     -6.26130      13.99605      -3.80018
                        -----------------------------------------
Total Dipole Moment    :      0.12908       0.65958      -0.67124
                        -----------------------------------------
Magnitude (a.u.)       :      0.94987
Magnitude (Debye)      :      2.41439

Rotational constants in cm-1:     0.079895     0.025630     0.022948
Rotational constants in MHz :  2395.188639   768.373696   687.955250

                             ****ORCA TERMINATED NORMALLY****
TOTAL RUN TIME: 0 days 0 hours 1 minutes 16 seconds 239 msec
