                         Program Version 5.0.0 -  RELEASE  -
|  1> !M062X D3Zero RIJCOSX def2-SVPD def2/J TightSCF xyzfile
|  2>
|  3> *xyzfile 0 1 D6.xyz
|  4>
|  5> %MaxCore 64000
|  6>
|  7> %pal nprocs 4
|  8> end
|  9>
| 10> %scf
| 11>   MaxIter 150
| 12> end
| 13>
| 14>
| 15>                          ****END OF INPUT****

CARTESIAN COORDINATES (ANGSTROEM)
---------------------------------
  C     -0.461293    2.234686   -4.989619
  C      0.848883    2.667967   -4.302351
  C      2.093434    1.861037   -4.656845
  H      2.444814    2.041567   -5.674990
  H      2.901748    2.137864   -3.980338
  S      1.879644    0.078594   -4.462965
  C     -0.423841    2.398772   -6.474317
  N     -0.959467    3.492647   -7.007401
  C      0.145585    1.486891   -7.203987
  H      0.565371    0.696807   -6.723858
  H      0.220682    1.581768   -8.207520
  H     -1.406243    4.181507   -6.403261
  H     -0.934215    3.681601   -7.999468
  O      3.207574   -0.466111   -4.420259
  O      1.075064   -0.056160   -3.268758
  F      1.131661   -0.319960   -5.679031
  H      0.668432    2.559427   -3.232850
  H      1.034074    3.729426   -4.497081
  H     -1.288884    2.826737   -4.594997
  H     -0.651696    1.186343   -4.756552

 Total Charge           Charge          ....    0
 Multiplicity           Mult            ....    1
 Number of Electrons    NEL             ....   88
 Basis Dimension        Dim             ....  296

ORBITAL ENERGIES
----------------

  NO   OCC          E(Eh)            E(eV)
   0   2.0000     -90.196985     -2454.3847
   1   2.0000     -25.361022      -690.1085
   2   2.0000     -19.655513      -534.8537
   3   2.0000     -19.652695      -534.7770
   4   2.0000     -14.773476      -402.0067
   5   2.0000     -10.606943      -288.6296
   6   2.0000     -10.581948      -287.9494
   7   2.0000     -10.581142      -287.9275
   8   2.0000     -10.568013      -287.5703
   9   2.0000     -10.486720      -285.3582
  10   2.0000      -8.520567      -231.8564
  11   2.0000      -6.448977      -175.4856
  12   2.0000      -6.443913      -175.3478
  13   2.0000      -6.442775      -175.3168
  14   2.0000      -1.490174       -40.5497
  15   2.0000      -1.240245       -33.7488
  16   2.0000      -1.140772       -31.0420
  17   2.0000      -1.034341       -28.1459
  18   2.0000      -0.927634       -25.2422
  19   2.0000      -0.865223       -23.5439
  20   2.0000      -0.815983       -22.2040
  21   2.0000      -0.807393       -21.9703
  22   2.0000      -0.726351       -19.7650
  23   2.0000      -0.689900       -18.7731
  24   2.0000      -0.671293       -18.2668
  25   2.0000      -0.644060       -17.5258
  26   2.0000      -0.633858       -17.2482
  27   2.0000      -0.609903       -16.5963
  28   2.0000      -0.577351       -15.7105
  29   2.0000      -0.564737       -15.3673
  30   2.0000      -0.545743       -14.8504
  31   2.0000      -0.539184       -14.6719
  32   2.0000      -0.524833       -14.2814
  33   2.0000      -0.485268       -13.2048
  34   2.0000      -0.474321       -12.9069
  35   2.0000      -0.464562       -12.6414
  36   2.0000      -0.450068       -12.2470
  37   2.0000      -0.443169       -12.0592
  38   2.0000      -0.418694       -11.3932
  39   2.0000      -0.409271       -11.1368
  40   2.0000      -0.403893       -10.9905
  41   2.0000      -0.396616       -10.7925
  42   2.0000      -0.391889       -10.6639
  43   2.0000      -0.258346        -7.0299
  44   0.0000       0.020216         0.5501
  45   0.0000       0.033929         0.9232
  46   0.0000       0.039309         1.0697
  47   0.0000       0.040814         1.1106
  48   0.0000       0.065811         1.7908

MULLIKEN ATOMIC CHARGES
-----------------------
   0 C :    0.372090
   1 C :    0.215256
   2 C :    0.114040
   3 H :    0.237604
   4 H :   -0.188839
   5 S :    1.558586
   6 C :    0.244023
   7 N :   -0.071538
   8 C :    0.943365
   9 H :   -0.289435
  10 H :   -0.678526
  11 H :   -0.076774
  12 H :   -0.185492
  13 O :   -0.733243
  14 O :   -0.740794
  15 F :   -0.592850
  16 H :    0.159174
  17 H :   -0.210152
  18 H :   -0.184578
  19 H :    0.108085
Sum of atomic charges:    0.0000000

LOEWDIN ATOMIC CHARGES
----------------------
   0 C :    0.029477
   1 C :   -0.014144
   2 C :   -0.029243
   3 H :    0.022552
   4 H :    0.029880
   5 S :    1.166688
   6 C :   -0.234883
   7 N :    0.162252
   8 C :    0.203064
   9 H :   -0.150355
  10 H :   -0.067921
  11 H :    0.003058
  12 H :    0.007866
  13 O :   -0.464477
  14 O :   -0.468871
  15 F :   -0.297957
  16 H :    0.027363
  17 H :    0.034345
  18 H :    0.024977
  19 H :    0.016329

  Mayer bond orders larger than 0.100000
B(  0-C ,  1-C ) :   1.1777 B(  0-C ,  6-C ) :   1.0667 B(  0-C ,  7-N ) :   0.1136
B(  0-C ,  8-C ) :   0.1410 B(  0-C , 16-H ) :   0.1249 B(  0-C , 18-H ) :   0.7736
B(  0-C , 19-H ) :   0.8340 B(  1-C ,  2-C ) :   1.3563 B(  1-C ,  3-H ) :   0.1162
B(  1-C ,  4-H ) :   0.1693 B(  1-C , 16-H ) :   0.7582 B(  1-C , 17-H ) :   0.9009
B(  1-C , 18-H ) :   0.1608 B(  1-C , 19-H ) :   0.1357 B(  2-C ,  3-H ) :   0.8562
B(  2-C ,  4-H ) :   0.8723 B(  2-C ,  5-S ) :   0.9780 B(  2-C ,  9-H ) :   0.1074
B(  2-C , 15-F ) :   0.1128 B(  2-C , 16-H ) :   0.1262 B(  4-H ,  5-S ) :   0.1007
B(  4-H ,  9-H ) :  -0.1368 B(  5-S , 13-O ) :   1.5118 B(  5-S , 14-O ) :   1.5059
B(  5-S , 15-F ) :   0.6395 B(  6-C ,  7-N ) :   0.8971 B(  6-C ,  8-C ) :   1.8311
B(  6-C ,  9-H ) :   0.3743 B(  6-C , 10-H ) :   0.2405 B(  6-C , 12-H ) :  -0.1535
B(  6-C , 18-H ) :   0.1625 B(  7-N ,  8-C ) :   0.2945 B(  7-N , 11-H ) :   1.1628
B(  7-N , 12-H ) :   1.3478 B(  8-C ,  9-H ) :   0.4153 B(  8-C , 10-H ) :   0.7138
B(  9-H , 10-H ) :  -0.3549 B( 11-H , 12-H ) :  -0.1740 B( 16-H , 17-H ) :  -0.1010

Dispersion correction           -0.000721408
FINAL SINGLE POINT ENERGY      -898.962339257768

DIPOLE MOMENT
-------------
                                X             Y             Z
Electronic contribution:      5.52692     -11.90952       3.14721
Nuclear contribution   :     -6.15577      13.80449      -3.81895
                        -----------------------------------------
Total Dipole Moment    :     -0.62885       1.89498      -0.67174
                        -----------------------------------------
Magnitude (a.u.)       :      2.10657
Magnitude (Debye)      :      5.35446

Rotational constants in cm-1:     0.081431     0.024887     0.022470
Rotational constants in MHz :  2441.231544   746.086417   673.646914

                             ****ORCA TERMINATED NORMALLY****
TOTAL RUN TIME: 0 days 0 hours 1 minutes 11 seconds 121 msec
