                         Program Version 5.0.0 -  RELEASE  -
|  1> !TPSS D3BJ RIJCOSX def2-SVP def2/J TightSCF
|  2> *xyz -1 1
|  3> C         -0.91495        0.61511        2.50554
|  4> C         -0.05915        1.50352        3.41058
|  5> H          0.36536        2.34431        2.86116
|  6> H         -0.69226        1.92021        4.19898
|  7> C          1.08303        0.74964        4.08571
|  8> O          2.22817        1.26348        4.01983
|  9> O          0.81003       -0.34541        4.63627
| 10> H         -0.30401        0.20228        1.73015
| 11> H         -1.69811        1.19946        2.06954
| 12> H         -1.34124       -0.17772        3.08397
| 13> *
| 14>
| 15> %MaxCore 64000
| 16>
| 17> %pal nprocs 4
| 18> end
| 19>
| 20> %scf
| 21>   MaxIter 150
| 22> end
| 23>
| 24>
| 25>                          ****END OF INPUT****

CARTESIAN COORDINATES (ANGSTROEM)
---------------------------------
  C     -0.914950    0.615110    2.505540
  C     -0.059150    1.503520    3.410580
  H      0.365360    2.344310    2.861160
  H     -0.692260    1.920210    4.198980
  C      1.083030    0.749640    4.085710
  O      2.228170    1.263480    4.019830
  O      0.810030   -0.345410    4.636270
  H     -0.304010    0.202280    1.730150
  H     -1.698110    1.199460    2.069540
  H     -1.341240   -0.177720    3.083970

 Total Charge           Charge          ....   -1
 Multiplicity           Mult            ....    1
 Number of Electrons    NEL             ....   40
 Basis Dimension        Dim             ....   95

ORBITAL ENERGIES
----------------

  NO   OCC          E(Eh)            E(eV)
   0   2.0000     -18.593173      -505.9460
   1   2.0000     -18.590922      -505.8847
   2   2.0000      -9.839391      -267.7434
   3   2.0000      -9.827722      -267.4259
   4   2.0000      -9.805520      -266.8218
   5   2.0000      -0.701086       -19.0775
   6   2.0000      -0.611007       -16.6264
   7   2.0000      -0.525746       -14.3063
   8   2.0000      -0.400754       -10.9051
   9   2.0000      -0.251357        -6.8398
  10   2.0000      -0.235827        -6.4172
  11   2.0000      -0.190591        -5.1862
  12   2.0000      -0.166507        -4.5309
  13   2.0000      -0.153869        -4.1870
  14   2.0000      -0.132403        -3.6029
  15   2.0000      -0.100154        -2.7253
  16   2.0000      -0.091894        -2.5006
  17   2.0000       0.027306         0.7430
  18   2.0000       0.036954         1.0056
  19   2.0000       0.055607         1.5132
  20   0.0000       0.206353         5.6152
  21   0.0000       0.252282         6.8649
  22   0.0000       0.258859         7.0439
  23   0.0000       0.271634         7.3915
  24   0.0000       0.273956         7.4547

MULLIKEN ATOMIC CHARGES
-----------------------
   0 C :    0.031722
   1 C :    0.004460
   2 H :   -0.060628
   3 H :   -0.042912
   4 C :    0.017295
   5 O :   -0.427282
   6 O :   -0.429632
   7 H :   -0.018818
   8 H :   -0.058124
   9 H :   -0.016082
Sum of atomic charges:   -1.0000000

LOEWDIN ATOMIC CHARGES
----------------------
   0 C :   -0.053382
   1 C :   -0.088001
   2 H :   -0.010820
   3 H :   -0.000796
   4 C :   -0.072848
   5 O :   -0.382357
   6 O :   -0.384670
   7 H :    0.004471
   8 H :   -0.014395
   9 H :    0.002798

  Mayer bond orders larger than 0.100000
B(  0-C ,  1-C ) :   1.0860 B(  0-C ,  7-H ) :   0.9716 B(  0-C ,  8-H ) :   0.9544
B(  0-C ,  9-H ) :   0.9560 B(  1-C ,  2-H ) :   0.9299 B(  1-C ,  3-H ) :   0.9286
B(  1-C ,  4-C ) :   0.9101 B(  4-C ,  5-O ) :   1.8541 B(  4-C ,  6-O ) :   1.8191
B(  5-O ,  6-O ) :   0.1343

Dispersion correction           -0.008050693
FINAL SINGLE POINT ENERGY      -267.661194057483

DIPOLE MOMENT
-------------
                                X             Y             Z
Electronic contribution:      5.00855      -1.13266       3.52978
Nuclear contribution   :     -6.38408       1.63097      -4.40540
                        -----------------------------------------
Total Dipole Moment    :     -1.37552       0.49831      -0.87563
                        -----------------------------------------
Magnitude (a.u.)       :      1.70502
Magnitude (Debye)      :      4.33382

Rotational constants in cm-1:     0.319732     0.134414     0.104753
Rotational constants in MHz :  9585.336550  4029.633034  3140.404334

                             ****ORCA TERMINATED NORMALLY****
TOTAL RUN TIME: 0 days 0 hours 0 minutes 8 seconds 4 msec
