                         Program Version 5.0.0 -  RELEASE  -
|  1> !TPSS D3BJ RIJCOSX def2-SVP def2/J TightSCF
|  2> *xyz 1 1
|  3> C          4.60295       -2.44010        2.63478
|  4> C          3.86085       -1.59157        3.62289
|  5> N          2.75650       -2.04616        4.16633
|  6> N          4.25433       -0.36291        3.86046
|  7> H          3.56526        0.31099        4.16898
|  8> H          5.05429       -0.01606        3.33784
|  9> H          2.43970       -2.97389        3.89740
| 10> H          2.06687       -1.41253        4.54981
| 11> C          3.74469       -2.58056        1.36188
| 12> H          5.56156       -1.97135        2.40708
| 13> H          4.81050       -3.42255        3.06310
| 14> H          4.26314       -3.18477        0.64702
| 15> H          3.56325       -1.61180        0.94535
| 16> H          2.81197       -3.04259        1.60980
| 17> *
| 18>
| 19> %MaxCore 64000
| 20>
| 21> %pal nprocs 4
| 22> end
| 23>
| 24> %scf
| 25>   MaxIter 150
| 26> end
| 27>
| 28>
| 29>                          ****END OF INPUT****

CARTESIAN COORDINATES (ANGSTROEM)
---------------------------------
  C      4.602950   -2.440100    2.634780
  C      3.860850   -1.591570    3.622890
  N      2.756500   -2.046160    4.166330
  N      4.254330   -0.362910    3.860460
  H      3.565260    0.310990    4.168980
  H      5.054290   -0.016060    3.337840
  H      2.439700   -2.973890    3.897400
  H      2.066870   -1.412530    4.549810
  C      3.744690   -2.580560    1.361880
  H      5.561560   -1.971350    2.407080
  H      4.810500   -3.422550    3.063100
  H      4.263140   -3.184770    0.647020
  H      3.563250   -1.611800    0.945350
  H      2.811970   -3.042590    1.609800

 Total Charge           Charge          ....    1
 Multiplicity           Mult            ....    1
 Number of Electrons    NEL             ....   40
 Basis Dimension        Dim             ....  115

ORBITAL ENERGIES
----------------

  NO   OCC          E(Eh)            E(eV)
   0   2.0000     -14.362710      -390.8292
   1   2.0000     -14.362104      -390.8127
   2   2.0000     -10.310370      -280.5594
   3   2.0000     -10.201787      -277.6047
   4   2.0000     -10.165028      -276.6045
   5   2.0000      -1.133852       -30.8537
   6   2.0000      -1.041781       -28.3483
   7   2.0000      -0.908801       -24.7297
   8   2.0000      -0.805687       -21.9239
   9   2.0000      -0.765133       -20.8203
  10   2.0000      -0.726122       -19.7588
  11   2.0000      -0.705930       -19.2093
  12   2.0000      -0.655827       -17.8460
  13   2.0000      -0.620142       -16.8749
  14   2.0000      -0.585446       -15.9308
  15   2.0000      -0.560408       -15.2495
  16   2.0000      -0.512066       -13.9340
  17   2.0000      -0.506702       -13.7881
  18   2.0000      -0.495610       -13.4862
  19   2.0000      -0.457440       -12.4476
  20   0.0000      -0.238886        -6.5004
  21   0.0000      -0.158523        -4.3136
  22   0.0000      -0.115755        -3.1499
  23   0.0000      -0.113973        -3.1014
  24   0.0000      -0.086787        -2.3616

MULLIKEN ATOMIC CHARGES
-----------------------
   0 C :    0.011699
   1 C :   -0.089104
   2 N :    0.019258
   3 N :    0.024572
   4 H :    0.170841
   5 H :    0.183763
   6 H :    0.182034
   7 H :    0.172643
   8 C :    0.010960
   9 H :    0.058428
  10 H :    0.089910
  11 H :    0.082205
  12 H :    0.047032
  13 H :    0.035758
Sum of atomic charges:    1.0000000

LOEWDIN ATOMIC CHARGES
----------------------
   0 C :   -0.020744
   1 C :    0.127456
   2 N :    0.110368
   3 N :    0.111655
   4 H :    0.110524
   5 H :    0.119939
   6 H :    0.118449
   7 H :    0.111302
   8 C :   -0.008484
   9 H :    0.049203
  10 H :    0.060312
  11 H :    0.051628
  12 H :    0.033435
  13 H :    0.024958

  Mayer bond orders larger than 0.100000
B(  0-C ,  1-C ) :   1.0355 B(  0-C ,  8-C ) :   1.0639 B(  0-C ,  9-H ) :   0.9212
B(  0-C , 10-H ) :   0.9180 B(  1-C ,  2-N ) :   1.5038 B(  1-C ,  3-N ) :   1.5092
B(  2-N ,  6-H ) :   0.9232 B(  2-N ,  7-H ) :   0.9306 B(  3-N ,  4-H ) :   0.9303
B(  3-N ,  5-H ) :   0.9197 B(  8-C , 11-H ) :   0.9589 B(  8-C , 12-H ) :   0.9661
B(  8-C , 13-H ) :   0.9716

Dispersion correction           -0.012633791
FINAL SINGLE POINT ENERGY      -228.908043391997

DIPOLE MOMENT
-------------
                                X             Y             Z
Electronic contribution:     -0.27220       1.83294       3.76905
Nuclear contribution   :     -0.22400      -1.16268      -3.30447
                        -----------------------------------------
Total Dipole Moment    :     -0.49620       0.67026       0.46457
                        -----------------------------------------
Magnitude (a.u.)       :      0.95462
Magnitude (Debye)      :      2.42645

Rotational constants in cm-1:     0.258103     0.130571     0.102508
Rotational constants in MHz :  7737.732062  3914.431392  3073.119154

                             ****ORCA TERMINATED NORMALLY****
TOTAL RUN TIME: 0 days 0 hours 0 minutes 9 seconds 601 msec
