                         Program Version 5.0.0 -  RELEASE  -
|  1> !TPSS D3BJ RIJCOSX def2-SVP def2/J TightSCF
|  2> *xyz 0 1
|  3> C         -0.91495        0.61511        2.50554
|  4> C         -0.05915        1.50352        3.41058
|  5> H          0.36536        2.34431        2.86116
|  6> H         -0.69226        1.92021        4.19898
|  7> C          1.08303        0.74964        4.08571
|  8> F          2.22817        1.26348        4.01983
|  9> O          0.81003       -0.34541        4.63627
| 10> H         -0.30401        0.20228        1.73015
| 11> H         -1.69811        1.19946        2.06954
| 12> H         -1.34124       -0.17772        3.08397
| 13> *
| 14>
| 15> %MaxCore 64000
| 16>
| 17> %pal nprocs 4
| 18> end
| 19>
| 20> %scf
| 21>   MaxIter 150
| 22> end
| 23>
| 24>
| 25>                          ****END OF INPUT****

CARTESIAN COORDINATES (ANGSTROEM)
---------------------------------
  C     -0.914950    0.615110    2.505540
  C     -0.059150    1.503520    3.410580
  H      0.365360    2.344310    2.861160
  H     -0.692260    1.920210    4.198980
  C      1.083030    0.749640    4.085710
  F      2.228170    1.263480    4.019830
  O      0.810030   -0.345410    4.636270
  H     -0.304010    0.202280    1.730150
  H     -1.698110    1.199460    2.069540
  H     -1.341240   -0.177720    3.083970

 Total Charge           Charge          ....    0
 Multiplicity           Mult            ....    1
 Number of Electrons    NEL             ....   40
 Basis Dimension        Dim             ....   95

ORBITAL ENERGIES
----------------

  NO   OCC          E(Eh)            E(eV)
   0   2.0000     -24.477736      -666.0731
   1   2.0000     -18.889709      -514.0151
   2   2.0000     -10.156605      -276.3753
   3   2.0000     -10.026718      -272.8409
   4   2.0000     -10.004484      -272.2359
   5   2.0000      -1.211466       -32.9657
   6   2.0000      -0.942692       -25.6520
   7   2.0000      -0.731661       -19.9095
   8   2.0000      -0.623627       -16.9697
   9   2.0000      -0.570889       -15.5347
  10   2.0000      -0.485390       -13.2081
  11   2.0000      -0.471987       -12.8434
  12   2.0000      -0.445352       -12.1186
  13   2.0000      -0.417378       -11.3574
  14   2.0000      -0.381814       -10.3897
  15   2.0000      -0.352546        -9.5933
  16   2.0000      -0.334710        -9.1079
  17   2.0000      -0.327349        -8.9076
  18   2.0000      -0.301046        -8.1919
  19   2.0000      -0.237840        -6.4720
  20   0.0000      -0.051511        -1.4017
  21   0.0000       0.050756         1.3811
  22   0.0000       0.091281         2.4839
  23   0.0000       0.097677         2.6579
  24   0.0000       0.112601         3.0640

MULLIKEN ATOMIC CHARGES
-----------------------
   0 C :    0.014151
   1 C :   -0.080716
   2 H :    0.022138
   3 H :    0.058011
   4 C :    0.224366
   5 F :   -0.064830
   6 O :   -0.257585
   7 H :    0.022837
   8 H :    0.020472
   9 H :    0.041156
Sum of atomic charges:    0.0000000

LOEWDIN ATOMIC CHARGES
----------------------
   0 C :   -0.026302
   1 C :   -0.066557
   2 H :    0.022889
   3 H :    0.047646
   4 C :    0.083141
   5 F :    0.052884
   6 O :   -0.186883
   7 H :    0.022350
   8 H :    0.023363
   9 H :    0.027469

  Mayer bond orders larger than 0.100000
B(  0-C ,  1-C ) :   1.0942 B(  0-C ,  7-H ) :   0.9770 B(  0-C ,  8-H ) :   0.9649
B(  0-C ,  9-H ) :   0.9675 B(  1-C ,  2-H ) :   0.9362 B(  1-C ,  3-H ) :   0.9241
B(  1-C ,  4-C ) :   0.9966 B(  4-C ,  5-F ) :   1.2043 B(  4-C ,  6-O ) :   2.0484

Dispersion correction           -0.007641491
FINAL SINGLE POINT ENERGY      -292.219293819726

DIPOLE MOMENT
-------------
                                X             Y             Z
Electronic contribution:      7.80649      -0.24942       4.16974
Nuclear contribution   :     -8.12386       1.06915      -4.71960
                        -----------------------------------------
Total Dipole Moment    :     -0.31737       0.81973      -0.54985
                        -----------------------------------------
Magnitude (a.u.)       :      1.03683
Magnitude (Debye)      :      2.63542

Rotational constants in cm-1:     0.309513     0.127560     0.099675
Rotational constants in MHz :  9278.979128  3824.146597  2988.174827

                             ****ORCA TERMINATED NORMALLY****
TOTAL RUN TIME: 0 days 0 hours 0 minutes 8 seconds 84 msec
