                         Program Version 5.0.0 -  RELEASE  -
|  1> !TPSS D3BJ RIJCOSX def2-SVP def2/J TightSCF
|  2> *xyz 0 1
|  3> C          4.60295       -2.44010        2.63478
|  4> C          3.86085       -1.59157        3.62289
|  5> C          2.75650       -2.04616        4.16633
|  6> N          4.25433       -0.36291        3.86046
|  7> H          3.56526        0.31099        4.16898
|  8> H          5.05429       -0.01606        3.33784
|  9> H          2.43970       -2.97389        3.89740
| 10> H          2.06687       -1.41253        4.54981
| 11> C          3.74469       -2.58056        1.36188
| 12> H          5.56156       -1.97135        2.40708
| 13> H          4.81050       -3.42255        3.06310
| 14> H          4.26314       -3.18477        0.64702
| 15> H          3.56325       -1.61180        0.94535
| 16> H          2.81197       -3.04259        1.60980
| 17> *
| 18>
| 19> %MaxCore 64000
| 20>
| 21> %pal nprocs 4
| 22> end
| 23>
| 24> %scf
| 25>   MaxIter 150
| 26> end
| 27>
| 28>
| 29>                          ****END OF INPUT****

CARTESIAN COORDINATES (ANGSTROEM)
---------------------------------
  C      4.602950   -2.440100    2.634780
  C      3.860850   -1.591570    3.622890
  C      2.756500   -2.046160    4.166330
  N      4.254330   -0.362910    3.860460
  H      3.565260    0.310990    4.168980
  H      5.054290   -0.016060    3.337840
  H      2.439700   -2.973890    3.897400
  H      2.066870   -1.412530    4.549810
  C      3.744690   -2.580560    1.361880
  H      5.561560   -1.971350    2.407080
  H      4.810500   -3.422550    3.063100
  H      4.263140   -3.184770    0.647020
  H      3.563250   -1.611800    0.945350
  H      2.811970   -3.042590    1.609800

 Total Charge           Charge          ....    0
 Multiplicity           Mult            ....    1
 Number of Electrons    NEL             ....   40
 Basis Dimension        Dim             ....  115

ORBITAL ENERGIES
----------------

  NO   OCC          E(Eh)            E(eV)
   0   2.0000     -14.112145      -384.0110
   1   2.0000     -10.004506      -272.2365
   2   2.0000      -9.999401      -272.0975
   3   2.0000      -9.986930      -271.7582
   4   2.0000      -9.924561      -270.0610
   5   2.0000      -0.854128       -23.2420
   6   2.0000      -0.713630       -19.4189
   7   2.0000      -0.644589       -17.5401
   8   2.0000      -0.580555       -15.7977
   9   2.0000      -0.507030       -13.7970
  10   2.0000      -0.474336       -12.9073
  11   2.0000      -0.432468       -11.7681
  12   2.0000      -0.402510       -10.9529
  13   2.0000      -0.366509        -9.9732
  14   2.0000      -0.343848        -9.3566
  15   2.0000      -0.335054        -9.1173
  16   2.0000      -0.313447        -8.5293
  17   2.0000      -0.301189        -8.1958
  18   2.0000      -0.282291        -7.6815
  19   2.0000      -0.149676        -4.0729
  20   0.0000       0.029309         0.7975
  21   0.0000       0.039214         1.0671
  22   0.0000       0.083873         2.2823
  23   0.0000       0.086645         2.3577
  24   0.0000       0.108110         2.9418

MULLIKEN ATOMIC CHARGES
-----------------------
   0 C :    0.054668
   1 C :   -0.171053
   2 C :   -0.038317
   3 N :   -0.058803
   4 H :    0.113211
   5 H :    0.103766
   6 H :   -0.033359
   7 H :   -0.045550
   8 C :    0.027989
   9 H :   -0.013795
  10 H :    0.026116
  11 H :    0.007213
  12 H :    0.008073
  13 H :    0.019840
Sum of atomic charges:   -0.0000000

LOEWDIN ATOMIC CHARGES
----------------------
   0 C :   -0.021275
   1 C :   -0.012417
   2 C :   -0.166325
   3 N :    0.008000
   4 H :    0.074969
   5 H :    0.066030
   6 H :   -0.004577
   7 H :   -0.009668
   8 C :   -0.029222
   9 H :    0.011913
  10 H :    0.031793
  11 H :    0.014148
  12 H :    0.016616
  13 H :    0.020016

  Mayer bond orders larger than 0.100000
B(  0-C ,  1-C ) :   1.0210 B(  0-C ,  8-C ) :   1.0949 B(  0-C ,  9-H ) :   0.9290
B(  0-C , 10-H ) :   0.9310 B(  1-C ,  2-C ) :   1.8439 B(  1-C ,  3-N ) :   1.2769
B(  2-C ,  6-H ) :   0.9413 B(  2-C ,  7-H ) :   0.9544 B(  3-N ,  4-H ) :   0.9464
B(  3-N ,  5-H ) :   0.9469 B(  8-C , 11-H ) :   0.9622 B(  8-C , 12-H ) :   0.9669
B(  8-C , 13-H ) :   0.9733

Dispersion correction           -0.013156218
FINAL SINGLE POINT ENERGY      -212.442766457539

DIPOLE MOMENT
-------------
                                X             Y             Z
Electronic contribution:      0.83942       1.84995       2.58386
Nuclear contribution   :     -0.47010      -1.22282      -3.06417
                        -----------------------------------------
Total Dipole Moment    :      0.36932       0.62714      -0.48031
                        -----------------------------------------
Magnitude (a.u.)       :      0.87200
Magnitude (Debye)      :      2.21646

Rotational constants in cm-1:     0.271862     0.131962     0.105499
Rotational constants in MHz :  8150.219120  3956.123671  3162.785522

                             ****ORCA TERMINATED NORMALLY****
TOTAL RUN TIME: 0 days 0 hours 0 minutes 9 seconds 848 msec
