                         Program Version 5.0.0 -  RELEASE  -
|  1> !TPSS D3BJ RIJCOSX def2-SVP def2/J TightSCF
|  2> *xyz 0 1
|  3> C         -0.91495        0.61511        2.50554
|  4> C         -0.05915        1.50352        3.41058
|  5> H          0.36536        2.34431        2.86116
|  6> H         -0.69226        1.92021        4.19898
|  7> C          1.08303        0.74964        4.08571
|  8> O          2.22817        1.26348        4.01983
|  9> F          0.81003       -0.34541        4.63627
| 10> H         -0.30401        0.20228        1.73015
| 11> H         -1.69811        1.19946        2.06954
| 12> H         -1.34124       -0.17772        3.08397
| 13> *
| 14>
| 15> %MaxCore 64000
| 16>
| 17> %pal nprocs 4
| 18> end
| 19>
| 20> %scf
| 21>   MaxIter 150
| 22> end
| 23>
| 24>
| 25>                          ****END OF INPUT****

CARTESIAN COORDINATES (ANGSTROEM)
---------------------------------
  C     -0.914950    0.615110    2.505540
  C     -0.059150    1.503520    3.410580
  H      0.365360    2.344310    2.861160
  H     -0.692260    1.920210    4.198980
  C      1.083030    0.749640    4.085710
  O      2.228170    1.263480    4.019830
  F      0.810030   -0.345410    4.636270
  H     -0.304010    0.202280    1.730150
  H     -1.698110    1.199460    2.069540
  H     -1.341240   -0.177720    3.083970

 Total Charge           Charge          ....    0
 Multiplicity           Mult            ....    1
 Number of Electrons    NEL             ....   40
 Basis Dimension        Dim             ....   95

ORBITAL ENERGIES
----------------

  NO   OCC          E(Eh)            E(eV)
   0   2.0000     -24.479482      -666.1206
   1   2.0000     -18.887864      -513.9649
   2   2.0000     -10.155668      -276.3498
   3   2.0000     -10.025847      -272.8172
   4   2.0000     -10.009447      -272.3709
   5   2.0000      -1.213362       -33.0173
   6   2.0000      -0.940110       -25.5817
   7   2.0000      -0.735678       -20.0188
   8   2.0000      -0.620007       -16.8712
   9   2.0000      -0.577373       -15.7111
  10   2.0000      -0.488312       -13.2876
  11   2.0000      -0.477119       -12.9831
  12   2.0000      -0.439039       -11.9469
  13   2.0000      -0.416424       -11.3315
  14   2.0000      -0.385661       -10.4944
  15   2.0000      -0.355209        -9.6657
  16   2.0000      -0.339612        -9.2413
  17   2.0000      -0.331192        -9.0122
  18   2.0000      -0.302282        -8.2255
  19   2.0000      -0.232342        -6.3223
  20   0.0000      -0.048675        -1.3245
  21   0.0000       0.045478         1.2375
  22   0.0000       0.090215         2.4549
  23   0.0000       0.098452         2.6790
  24   0.0000       0.115574         3.1449

MULLIKEN ATOMIC CHARGES
-----------------------
   0 C :   -0.008910
   1 C :   -0.072945
   2 H :    0.048781
   3 H :    0.046992
   4 C :    0.222846
   5 O :   -0.253292
   6 F :   -0.067403
   7 H :    0.030603
   8 H :    0.026577
   9 H :    0.026751
Sum of atomic charges:   -0.0000000

LOEWDIN ATOMIC CHARGES
----------------------
   0 C :   -0.037056
   1 C :   -0.062336
   2 H :    0.039997
   3 H :    0.039957
   4 C :    0.081939
   5 O :   -0.184782
   6 F :    0.052649
   7 H :    0.023318
   8 H :    0.025864
   9 H :    0.020448

  Mayer bond orders larger than 0.100000
B(  0-C ,  1-C ) :   1.0733 B(  0-C ,  7-H ) :   0.9770 B(  0-C ,  8-H ) :   0.9650
B(  0-C ,  9-H ) :   0.9706 B(  1-C ,  2-H ) :   0.9482 B(  1-C ,  3-H ) :   0.9240
B(  1-C ,  4-C ) :   1.0051 B(  4-C ,  5-O ) :   2.0648 B(  4-C ,  6-F ) :   1.1929

Dispersion correction           -0.007585793
FINAL SINGLE POINT ENERGY      -292.218055449881

DIPOLE MOMENT
-------------
                                X             Y             Z
Electronic contribution:      5.47745      -2.87212       5.16135
Nuclear contribution   :     -6.57765       2.82334      -5.39171
                        -----------------------------------------
Total Dipole Moment    :     -1.10020      -0.04878      -0.23035
                        -----------------------------------------
Magnitude (a.u.)       :      1.12512
Magnitude (Debye)      :      2.85982

Rotational constants in cm-1:     0.294245     0.132994     0.101060
Rotational constants in MHz :  8821.228602  3987.049251  3029.696815

                             ****ORCA TERMINATED NORMALLY****
TOTAL RUN TIME: 0 days 0 hours 0 minutes 7 seconds 703 msec
