                         Program Version 5.0.0 -  RELEASE  -
|  1> !TPSS D3BJ RIJCOSX def2-SVP def2/J TightSCF
|  2> *xyz 0 1
|  3> C          4.60295       -2.44010        2.63478
|  4> C          3.86085       -1.59157        3.62289
|  5> N          2.75650       -2.04616        4.16633
|  6> C          4.25433       -0.36291        3.86046
|  7> H          3.56526        0.31099        4.16898
|  8> H          5.05429       -0.01606        3.33784
|  9> H          2.43970       -2.97389        3.89740
| 10> H          2.06687       -1.41253        4.54981
| 11> C          3.74469       -2.58056        1.36188
| 12> H          5.56156       -1.97135        2.40708
| 13> H          4.81050       -3.42255        3.06310
| 14> H          4.26314       -3.18477        0.64702
| 15> H          3.56325       -1.61180        0.94535
| 16> H          2.81197       -3.04259        1.60980
| 17> *
| 18>
| 19> %MaxCore 64000
| 20>
| 21> %pal nprocs 4
| 22> end
| 23>
| 24> %scf
| 25>   MaxIter 150
| 26> end
| 27>
| 28>
| 29>                          ****END OF INPUT****

CARTESIAN COORDINATES (ANGSTROEM)
---------------------------------
  C      4.602950   -2.440100    2.634780
  C      3.860850   -1.591570    3.622890
  N      2.756500   -2.046160    4.166330
  C      4.254330   -0.362910    3.860460
  H      3.565260    0.310990    4.168980
  H      5.054290   -0.016060    3.337840
  H      2.439700   -2.973890    3.897400
  H      2.066870   -1.412530    4.549810
  C      3.744690   -2.580560    1.361880
  H      5.561560   -1.971350    2.407080
  H      4.810500   -3.422550    3.063100
  H      4.263140   -3.184770    0.647020
  H      3.563250   -1.611800    0.945350
  H      2.811970   -3.042590    1.609800

 Total Charge           Charge          ....    0
 Multiplicity           Mult            ....    1
 Number of Electrons    NEL             ....   40
 Basis Dimension        Dim             ....  115

ORBITAL ENERGIES
----------------

  NO   OCC          E(Eh)            E(eV)
   0   2.0000     -14.112768      -384.0279
   1   2.0000     -10.005581      -272.2657
   2   2.0000      -9.998829      -272.0820
   3   2.0000      -9.991209      -271.8746
   4   2.0000      -9.925949      -270.0988
   5   2.0000      -0.854173       -23.2432
   6   2.0000      -0.712310       -19.3829
   7   2.0000      -0.652351       -17.7514
   8   2.0000      -0.576169       -15.6784
   9   2.0000      -0.514113       -13.9897
  10   2.0000      -0.475623       -12.9424
  11   2.0000      -0.428075       -11.6485
  12   2.0000      -0.395283       -10.7562
  13   2.0000      -0.382528       -10.4091
  14   2.0000      -0.342364        -9.3162
  15   2.0000      -0.338145        -9.2014
  16   2.0000      -0.317848        -8.6491
  17   2.0000      -0.297431        -8.0935
  18   2.0000      -0.280097        -7.6218
  19   2.0000      -0.152606        -4.1526
  20   0.0000       0.031083         0.8458
  21   0.0000       0.036464         0.9922
  22   0.0000       0.085335         2.3221
  23   0.0000       0.087601         2.3837
  24   0.0000       0.103917         2.8277

MULLIKEN ATOMIC CHARGES
-----------------------
   0 C :    0.055780
   1 C :   -0.168784
   2 N :   -0.060871
   3 C :   -0.030705
   4 H :   -0.045647
   5 H :   -0.036549
   6 H :    0.104735
   7 H :    0.113937
   8 C :    0.027009
   9 H :    0.009942
  10 H :    0.005201
  11 H :    0.014649
  12 H :    0.015840
  13 H :   -0.004537
Sum of atomic charges:    0.0000000

LOEWDIN ATOMIC CHARGES
----------------------
   0 C :   -0.020062
   1 C :   -0.009787
   2 N :    0.008107
   3 C :   -0.167407
   4 H :   -0.009779
   5 H :   -0.003910
   6 H :    0.066163
   7 H :    0.075340
   8 C :   -0.033968
   9 H :    0.030063
  10 H :    0.016061
  11 H :    0.018580
  12 H :    0.021578
  13 H :    0.009021

  Mayer bond orders larger than 0.100000
B(  0-C ,  1-C ) :   1.0437 B(  0-C ,  8-C ) :   1.0879 B(  0-C ,  9-H ) :   0.9265
B(  0-C , 10-H ) :   0.9253 B(  1-C ,  2-N ) :   1.2770 B(  1-C ,  3-C ) :   1.8427
B(  2-N ,  6-H ) :   0.9508 B(  2-N ,  7-H ) :   0.9463 B(  3-C ,  4-H ) :   0.9542
B(  3-C ,  5-H ) :   0.9351 B(  8-C , 11-H ) :   0.9651 B(  8-C , 12-H ) :   0.9670
B(  8-C , 13-H ) :   0.9691

Dispersion correction           -0.013135348
FINAL SINGLE POINT ENERGY      -212.443593172343

DIPOLE MOMENT
-------------
                                X             Y             Z
Electronic contribution:     -0.55147       0.28805       2.88166
Nuclear contribution   :     -0.12319      -0.83296      -3.13501
                        -----------------------------------------
Total Dipole Moment    :     -0.67466      -0.54492      -0.25335
                        -----------------------------------------
Magnitude (a.u.)       :      0.90348
Magnitude (Debye)      :      2.29647

Rotational constants in cm-1:     0.266453     0.134423     0.106086
Rotational constants in MHz :  7988.053142  4029.892766  3180.375228

                             ****ORCA TERMINATED NORMALLY****
TOTAL RUN TIME: 0 days 0 hours 0 minutes 9 seconds 351 msec
