                         Program Version 5.0.0 -  RELEASE  -
|  1> !TPSS D3BJ RIJCOSX def2-TZVP def2/J TightSCF xyzfile
|  2>
|  3> *xyzfile 0 1 D1.xyz
|  4>
|  5> %MaxCore 64000
|  6>
|  7> %pal nprocs 18
|  8> end
|  9>
| 10> %scf
| 11>   MaxIter 150
| 12> end
| 13>
| 14>
| 15>                          ****END OF INPUT****

CARTESIAN COORDINATES (ANGSTROEM)
---------------------------------
  C      4.602954   -2.440100    2.634780
  C     -0.914947    0.615112    2.505538
  C     -0.059146    1.503524    3.410578
  H      0.365364    2.344315    2.861161
  H     -0.692261    1.920207    4.198985
  C      1.083027    0.749640    4.085705
  C      3.860851   -1.591565    3.622893
  C      2.756502   -2.046159    4.166333
  N      4.254325   -0.362905    3.860455
  H      3.565256    0.310994    4.168983
  H      5.054292   -0.016059    3.337838
  H      2.439696   -2.973894    3.897395
  H      2.066869   -1.412532    4.549813
  F      2.228167    1.263475    4.019826
  O      0.810034   -0.345411    4.636269
  C      3.744685   -2.580557    1.361882
  C      0.772139    0.636882    0.562129
  C     -0.130740   -0.193985    1.470763
  H     -0.840563   -0.760165    0.856377
  H      0.466691   -0.938942    2.006959
  H     -1.647961    1.245963    1.991076
  H     -1.478180   -0.081046    3.130424
  C      3.203721   -1.256004    0.826211
  H      2.898939   -3.239289    1.583074
  H      4.334962   -3.095523    0.600188
  C      2.107815   -1.442385   -0.216865
  H      2.786775   -0.672760    1.650711
  H      4.021008   -0.652993    0.414046
  C      1.390662   -0.145912   -0.602422
  H      1.372179   -2.152184    0.176151
  H      2.523302   -1.906787   -1.117115
  H      1.561361    1.100094    1.161831
  H      0.195516    1.468325    0.142758
  H      0.602893   -0.398214   -1.319716
  H      2.087247    0.508272   -1.137335
  H      5.561557   -1.971347    2.407084
  H      4.810498   -3.422552    3.063099

 Total Charge           Charge          ....    0
 Multiplicity           Mult            ....    1
 Number of Electrons    NEL             ....  118
 Basis Dimension        Dim             ....  597

ORBITAL ENERGIES
----------------

  NO   OCC          E(Eh)            E(eV)
   0   2.0000     -24.500925      -666.7041
   1   2.0000     -18.898691      -514.2595
   2   2.0000     -14.078749      -383.1022
   3   2.0000     -10.163904      -276.5739
   4   2.0000     -10.021217      -272.6912
   5   2.0000     -10.000423      -272.1254
   6   2.0000      -9.985116      -271.7088
   7   2.0000      -9.984967      -271.7048
   8   2.0000      -9.980275      -271.5771
   9   2.0000      -9.975050      -271.4349
  10   2.0000      -9.974054      -271.4078
  11   2.0000      -9.972184      -271.3569
  12   2.0000      -9.972080      -271.3541
  13   2.0000      -9.970147      -271.3015
  14   2.0000      -9.880727      -268.8683
  15   2.0000      -1.264738       -34.4153
  16   2.0000      -0.981026       -26.6951
  17   2.0000      -0.852648       -23.2017
  18   2.0000      -0.771217       -20.9859
  19   2.0000      -0.747136       -20.3306
  20   2.0000      -0.723153       -19.6780
  21   2.0000      -0.688176       -18.7262
  22   2.0000      -0.663633       -18.0584
  23   2.0000      -0.635494       -17.2927
  24   2.0000      -0.621585       -16.9142
  25   2.0000      -0.595770       -16.2117
  26   2.0000      -0.561675       -15.2840
  27   2.0000      -0.542327       -14.7575
  28   2.0000      -0.519083       -14.1250
  29   2.0000      -0.513293       -13.9674
  30   2.0000      -0.502908       -13.6848
  31   2.0000      -0.490365       -13.3435
  32   2.0000      -0.478309       -13.0154
  33   2.0000      -0.453082       -12.3290
  34   2.0000      -0.438210       -11.9243
  35   2.0000      -0.435255       -11.8439
  36   2.0000      -0.427135       -11.6229
  37   2.0000      -0.409048       -11.1308
  38   2.0000      -0.399467       -10.8701
  39   2.0000      -0.385079       -10.4785
  40   2.0000      -0.382906       -10.4194
  41   2.0000      -0.365824        -9.9546
  42   2.0000      -0.362460        -9.8630
  43   2.0000      -0.350636        -9.5413
  44   2.0000      -0.347984        -9.4691
  45   2.0000      -0.333806        -9.0833
  46   2.0000      -0.330206        -8.9854
  47   2.0000      -0.321002        -8.7349
  48   2.0000      -0.314386        -8.5549
  49   2.0000      -0.307786        -8.3753
  50   2.0000      -0.305015        -8.2999
  51   2.0000      -0.295018        -8.0279
  52   2.0000      -0.287541        -7.8244
  53   2.0000      -0.284268        -7.7353
  54   2.0000      -0.278220        -7.5707
  55   2.0000      -0.273863        -7.4522
  56   2.0000      -0.265003        -7.2111
  57   2.0000      -0.234785        -6.3888
  58   2.0000      -0.139157        -3.7867
  59   0.0000      -0.075822        -2.0632
  60   0.0000       0.013031         0.3546
  61   0.0000       0.028969         0.7883
  62   0.0000       0.032270         0.8781
  63   0.0000       0.036806         1.0015

MULLIKEN ATOMIC CHARGES
-----------------------
   0 C :   -0.107322
   1 C :   -0.118358
   2 C :   -0.189283
   3 H :    0.115828
   4 H :    0.130196
   5 C :    0.343039
   6 C :    0.046182
   7 C :   -0.382997
   8 N :   -0.416511
   9 H :    0.217190
  10 H :    0.215400
  11 H :    0.072807
  12 H :    0.144090
  13 F :   -0.111608
  14 O :   -0.292900
  15 C :   -0.156779
  16 C :   -0.252657
  17 C :   -0.259750
  18 H :    0.086003
  19 H :    0.158672
  20 H :    0.094187
  21 H :    0.106735
  22 C :   -0.232413
  23 H :    0.091423
  24 H :    0.073999
  25 C :   -0.155704
  26 H :    0.110431
  27 H :    0.062588
  28 C :   -0.086111
  29 H :    0.095371
  30 H :    0.081157
  31 H :    0.103623
  32 H :    0.084251
  33 H :    0.085645
  34 H :    0.074494
  35 H :    0.064212
  36 H :    0.104871
Sum of atomic charges:   -0.0000000

LOEWDIN ATOMIC CHARGES
----------------------
   0 C :   -0.211071
   1 C :   -0.249529
   2 C :   -0.230222
   3 H :    0.140042
   4 H :    0.157422
   5 C :   -0.502963
   6 C :   -0.397475
   7 C :   -0.269668
   8 N :    0.003567
   9 H :    0.150035
  10 H :    0.161461
  11 H :    0.101632
  12 H :    0.089234
  13 F :    0.342627
  14 O :    0.120889
  15 C :   -0.246500
  16 C :   -0.269338
  17 C :   -0.264878
  18 H :    0.137922
  19 H :    0.143889
  20 H :    0.137957
  21 H :    0.143569
  22 C :   -0.261782
  23 H :    0.136326
  24 H :    0.127262
  25 C :   -0.264390
  26 H :    0.138468
  27 H :    0.128296
  28 C :   -0.260631
  29 H :    0.135121
  30 H :    0.131791
  31 H :    0.128703
  32 H :    0.133168
  33 H :    0.133625
  34 H :    0.132370
  35 H :    0.128232
  36 H :    0.144838

  Mayer bond orders larger than 0.100000
B(  0-C ,  6-C ) :   0.9747 B(  0-C , 15-C ) :   1.0073 B(  0-C , 35-H ) :   0.9421
B(  0-C , 36-H ) :   0.9503 B(  1-C ,  2-C ) :   1.0067 B(  1-C , 17-C ) :   1.0284
B(  1-C , 20-H ) :   0.9410 B(  1-C , 21-H ) :   0.9380 B(  2-C ,  3-H ) :   0.9440
B(  2-C ,  4-H ) :   0.9146 B(  2-C ,  5-C ) :   1.0279 B(  5-C , 13-F ) :   1.0785
B(  5-C , 14-O ) :   1.9900 B(  6-C ,  7-C ) :   1.7955 B(  6-C ,  8-N ) :   1.1752
B(  7-C , 11-H ) :   0.9808 B(  7-C , 12-H ) :   0.9478 B(  8-N ,  9-H ) :   0.8928
B(  8-N , 10-H ) :   0.9236 B( 15-C , 22-C ) :   1.0363 B( 15-C , 23-H ) :   0.9497
B( 15-C , 24-H ) :   0.9378 B( 16-C , 17-C ) :   1.0122 B( 16-C , 28-C ) :   1.0317
B( 16-C , 31-H ) :   0.9542 B( 16-C , 32-H ) :   0.9404 B( 17-C , 18-H ) :   0.9417
B( 17-C , 19-H ) :   0.9497 B( 22-C , 25-C ) :   1.0406 B( 22-C , 26-H ) :   0.9512
B( 22-C , 27-H ) :   0.9431 B( 25-C , 28-C ) :   1.0119 B( 25-C , 29-H ) :   0.9480
B( 25-C , 30-H ) :   0.9446 B( 28-C , 33-H ) :   0.9463 B( 28-C , 34-H ) :   0.9456

Dispersion correction           -0.053664814
FINAL SINGLE POINT ENERGY      -700.693204913437

DIPOLE MOMENT
-------------
                                X             Y             Z
Electronic contribution:      1.22730       7.36654      15.02329
Nuclear contribution   :     -1.66567      -5.90236     -15.95042
                        -----------------------------------------
Total Dipole Moment    :     -0.43837       1.46418      -0.92714
                        -----------------------------------------
Magnitude (a.u.)       :      1.78762
Magnitude (Debye)      :      4.54376

Rotational constants in cm-1:     0.021600     0.017292     0.011381
Rotational constants in MHz :   647.565282   518.410024   341.193038

                             ****ORCA TERMINATED NORMALLY****
TOTAL RUN TIME: 0 days 0 hours 0 minutes 32 seconds 211 msec
