                         Program Version 5.0.0 -  RELEASE  -
|  1> !TPSS D3BJ RIJCOSX def2-TZVP def2/J TightSCF xyzfile
|  2>
|  3> *xyzfile 0 1 D4.xyz
|  4>
|  5> %MaxCore 64000
|  6>
|  7> %pal nprocs 18
|  8> end
|  9>
| 10> %scf
| 11>   MaxIter 150
| 12> end
| 13>
| 14>
| 15>                          ****END OF INPUT****

CARTESIAN COORDINATES (ANGSTROEM)
---------------------------------
  C      4.602954   -2.440100    2.634780
  C     -0.914947    0.615112    2.505538
  C     -0.059146    1.503524    3.410578
  H      0.365364    2.344315    2.861161
  H     -0.692261    1.920207    4.198985
  C      1.083027    0.749640    4.085705
  C      3.860851   -1.591565    3.622893
  N      2.756502   -2.046159    4.166333
  C      4.254325   -0.362905    3.860455
  H      3.565256    0.310994    4.168983
  H      5.054292   -0.016059    3.337838
  H      2.439696   -2.973894    3.897395
  H      2.066869   -1.412532    4.549813
  O      2.228167    1.263475    4.019826
  F      0.810034   -0.345411    4.636269
  C      3.744685   -2.580557    1.361882
  C      0.772139    0.636882    0.562129
  C     -0.130740   -0.193985    1.470763
  H     -0.840563   -0.760165    0.856377
  H      0.466691   -0.938942    2.006959
  H     -1.647961    1.245963    1.991076
  H     -1.478180   -0.081046    3.130424
  C      3.203721   -1.256004    0.826211
  H      2.898939   -3.239289    1.583074
  H      4.334962   -3.095523    0.600188
  C      2.107815   -1.442385   -0.216865
  H      2.786775   -0.672760    1.650711
  H      4.021008   -0.652993    0.414046
  C      1.390662   -0.145912   -0.602422
  H      1.372179   -2.152184    0.176151
  H      2.523302   -1.906787   -1.117115
  H      1.561361    1.100094    1.161831
  H      0.195516    1.468325    0.142758
  H      0.602893   -0.398214   -1.319716
  H      2.087247    0.508272   -1.137335
  H      5.561557   -1.971347    2.407084
  H      4.810498   -3.422552    3.063099

 Total Charge           Charge          ....    0
 Multiplicity           Mult            ....    1
 Number of Electrons    NEL             ....  118
 Basis Dimension        Dim             ....  597

ORBITAL ENERGIES
----------------

  NO   OCC          E(Eh)            E(eV)
   0   2.0000     -24.502468      -666.7461
   1   2.0000     -18.899084      -514.2702
   2   2.0000     -14.080492      -383.1497
   3   2.0000     -10.164667      -276.5947
   4   2.0000     -10.021627      -272.7023
   5   2.0000     -10.005797      -272.2716
   6   2.0000      -9.992054      -271.8976
   7   2.0000      -9.983413      -271.6625
   8   2.0000      -9.979180      -271.5473
   9   2.0000      -9.974341      -271.4156
  10   2.0000      -9.973720      -271.3987
  11   2.0000      -9.973501      -271.3928
  12   2.0000      -9.970014      -271.2979
  13   2.0000      -9.966208      -271.1943
  14   2.0000      -9.879460      -268.8338
  15   2.0000      -1.267017       -34.4773
  16   2.0000      -0.980523       -26.6814
  17   2.0000      -0.852510       -23.1980
  18   2.0000      -0.775464       -21.1014
  19   2.0000      -0.747213       -20.3327
  20   2.0000      -0.722572       -19.6622
  21   2.0000      -0.687751       -18.7147
  22   2.0000      -0.661870       -18.0104
  23   2.0000      -0.638089       -17.3633
  24   2.0000      -0.623838       -16.9755
  25   2.0000      -0.595750       -16.2112
  26   2.0000      -0.564070       -15.3491
  27   2.0000      -0.537850       -14.6356
  28   2.0000      -0.526610       -14.3298
  29   2.0000      -0.516446       -14.0532
  30   2.0000      -0.506039       -13.7700
  31   2.0000      -0.494164       -13.4469
  32   2.0000      -0.471476       -12.8295
  33   2.0000      -0.456466       -12.4211
  34   2.0000      -0.442321       -12.0362
  35   2.0000      -0.438392       -11.9292
  36   2.0000      -0.418569       -11.3898
  37   2.0000      -0.404376       -11.0036
  38   2.0000      -0.397264       -10.8101
  39   2.0000      -0.393977       -10.7207
  40   2.0000      -0.377887       -10.2828
  41   2.0000      -0.372176       -10.1274
  42   2.0000      -0.364584        -9.9208
  43   2.0000      -0.349393        -9.5075
  44   2.0000      -0.345826        -9.4104
  45   2.0000      -0.337393        -9.1809
  46   2.0000      -0.332731        -9.0541
  47   2.0000      -0.321275        -8.7423
  48   2.0000      -0.318169        -8.6578
  49   2.0000      -0.311561        -8.4780
  50   2.0000      -0.307773        -8.3749
  51   2.0000      -0.290432        -7.9031
  52   2.0000      -0.288352        -7.8464
  53   2.0000      -0.285752        -7.7757
  54   2.0000      -0.278370        -7.5748
  55   2.0000      -0.272301        -7.4097
  56   2.0000      -0.264029        -7.1846
  57   2.0000      -0.229809        -6.2534
  58   2.0000      -0.139804        -3.8043
  59   0.0000      -0.074686        -2.0323
  60   0.0000       0.007868         0.2141
  61   0.0000       0.023318         0.6345
  62   0.0000       0.032755         0.8913
  63   0.0000       0.038725         1.0538

MULLIKEN ATOMIC CHARGES
-----------------------
   0 C :   -0.117107
   1 C :   -0.150931
   2 C :   -0.175877
   3 H :    0.139883
   4 H :    0.123933
   5 C :    0.331224
   6 C :    0.052645
   7 N :   -0.432706
   8 C :   -0.344010
   9 H :    0.126041
  10 H :    0.066931
  11 H :    0.217687
  12 H :    0.220033
  13 O :   -0.297031
  14 F :   -0.108884
  15 C :   -0.181680
  16 C :   -0.263777
  17 C :   -0.230865
  18 H :    0.089992
  19 H :    0.111840
  20 H :    0.098657
  21 H :    0.099812
  22 C :   -0.241723
  23 H :    0.077942
  24 H :    0.086194
  25 C :   -0.142411
  26 H :    0.135972
  27 H :    0.067913
  28 C :   -0.090179
  29 H :    0.085134
  30 H :    0.080650
  31 H :    0.141999
  32 H :    0.083080
  33 H :    0.082938
  34 H :    0.078342
  35 H :    0.089691
  36 H :    0.088649
Sum of atomic charges:   -0.0000000

LOEWDIN ATOMIC CHARGES
----------------------
   0 C :   -0.212337
   1 C :   -0.260400
   2 C :   -0.225146
   3 H :    0.154890
   4 H :    0.152718
   5 C :   -0.505818
   6 C :   -0.396084
   7 N :    0.006941
   8 C :   -0.267527
   9 H :    0.088270
  10 H :    0.099923
  11 H :    0.163974
  12 H :    0.150090
  13 O :    0.118977
  14 F :    0.346377
  15 C :   -0.254631
  16 C :   -0.267194
  17 C :   -0.267285
  18 H :    0.137807
  19 H :    0.133305
  20 H :    0.139334
  21 H :    0.136605
  22 C :   -0.256802
  23 H :    0.126878
  24 H :    0.130912
  25 C :   -0.267075
  26 H :    0.143105
  27 H :    0.133685
  28 C :   -0.260282
  29 H :    0.131225
  30 H :    0.131349
  31 H :    0.138451
  32 H :    0.133534
  33 H :    0.132373
  34 H :    0.134139
  35 H :    0.144399
  36 H :    0.131323

  Mayer bond orders larger than 0.100000
B(  0-C ,  6-C ) :   1.0106 B(  0-C , 15-C ) :   0.9900 B(  0-C , 35-H ) :   0.9462
B(  0-C , 36-H ) :   0.9486 B(  1-C ,  2-C ) :   0.9833 B(  1-C , 17-C ) :   1.0124
B(  1-C , 20-H ) :   0.9389 B(  1-C , 21-H ) :   0.9516 B(  2-C ,  3-H ) :   0.9507
B(  2-C ,  4-H ) :   0.9151 B(  2-C ,  5-C ) :   1.0424 B(  5-C , 13-O ) :   1.9781
B(  5-C , 14-F ) :   1.0807 B(  6-C ,  7-N ) :   1.1644 B(  6-C ,  8-C ) :   1.8029
B(  7-N , 11-H ) :   0.9266 B(  7-N , 12-H ) :   0.8870 B(  8-C ,  9-H ) :   0.9531
B(  8-C , 10-H ) :   0.9710 B( 15-C , 22-C ) :   1.0060 B( 15-C , 23-H ) :   0.9654
B( 15-C , 24-H ) :   0.9392 B( 16-C , 17-C ) :   1.0118 B( 16-C , 28-C ) :   1.0300
B( 16-C , 31-H ) :   0.9502 B( 16-C , 32-H ) :   0.9399 B( 17-C , 18-H ) :   0.9427
B( 17-C , 19-H ) :   0.9550 B( 22-C , 25-C ) :   1.0201 B( 22-C , 26-H ) :   0.9715
B( 22-C , 27-H ) :   0.9434 B( 25-C , 28-C ) :   1.0136 B( 25-C , 29-H ) :   0.9471
B( 25-C , 30-H ) :   0.9451 B( 28-C , 33-H ) :   0.9470 B( 28-C , 34-H ) :   0.9452

Dispersion correction           -0.053607255
FINAL SINGLE POINT ENERGY      -700.691671536252

DIPOLE MOMENT
-------------
                                X             Y             Z
Electronic contribution:     -2.21296       3.55942      16.25851
Nuclear contribution   :      0.32481      -3.64700     -16.75441
                        -----------------------------------------
Total Dipole Moment    :     -1.88815      -0.08758      -0.49590
                        -----------------------------------------
Magnitude (a.u.)       :      1.95415
Magnitude (Debye)      :      4.96706

Rotational constants in cm-1:     0.021629     0.017327     0.011372
Rotational constants in MHz :   648.414821   519.443407   340.925013

                             ****ORCA TERMINATED NORMALLY****
TOTAL RUN TIME: 0 days 0 hours 0 minutes 35 seconds 270 msec
