                         Program Version 5.0.0 -  RELEASE  -
|  1> !TPSS D3BJ RIJCOSX def2-TZVPD def2/J TightSCF
|  2> *xyz -1 1
|  3> C         -0.10608        1.76991       -4.08984
|  4> C         -0.25875        1.00432       -5.40983
|  5> C          0.39596       -0.37070       -5.33994
|  6> H          0.23915        1.56939       -6.20125
|  7> H         -1.30936        0.88869       -5.68245
|  8> O         -0.32633       -1.39040       -5.49128
|  9> O          1.61941       -0.40073       -5.03683
| 10> H         -0.57627        2.72718       -4.17630
| 11> H          0.93321        1.90140       -3.87192
| 12> H         -0.56868        1.21534       -3.30031
| 13> *
| 14> %MaxCore 64000
| 15>
| 16> %pal nprocs 4
| 17> end
| 18>
| 19> %scf
| 20>   MaxIter 150
| 21> end
| 22>
| 23>
| 24>                          ****END OF INPUT****

CARTESIAN COORDINATES (ANGSTROEM)
---------------------------------
  C     -0.106080    1.769910   -4.089840
  C     -0.258750    1.004320   -5.409830
  C      0.395960   -0.370700   -5.339940
  H      0.239150    1.569390   -6.201250
  H     -1.309360    0.888690   -5.682450
  O     -0.326330   -1.390400   -5.491280
  O      1.619410   -0.400730   -5.036830
  H     -0.576270    2.727180   -4.176300
  H      0.933210    1.901400   -3.871920
  H     -0.568680    1.215340   -3.300310

 Total Charge           Charge          ....   -1
 Multiplicity           Mult            ....    1
 Number of Electrons    NEL             ....   40
 Basis Dimension        Dim             ....  236

ORBITAL ENERGIES
----------------

  NO   OCC          E(Eh)            E(eV)
   0   2.0000     -18.619452      -506.6610
   1   2.0000     -18.618324      -506.6304
   2   2.0000      -9.856906      -268.2201
   3   2.0000      -9.821344      -267.2523
   4   2.0000      -9.810330      -266.9526
   5   2.0000      -0.747750       -20.3473
   6   2.0000      -0.658598       -17.9214
   7   2.0000      -0.548560       -14.9271
   8   2.0000      -0.423950       -11.5363
   9   2.0000      -0.274669        -7.4741
  10   2.0000      -0.250666        -6.8210
  11   2.0000      -0.215678        -5.8689
  12   2.0000      -0.185900        -5.0586
  13   2.0000      -0.172510        -4.6942
  14   2.0000      -0.163398        -4.4463
  15   2.0000      -0.132965        -3.6182
  16   2.0000      -0.119915        -3.2631
  17   2.0000      -0.010735        -0.2921
  18   2.0000       0.000354         0.0096
  19   2.0000       0.017552         0.4776
  20   0.0000       0.125595         3.4176
  21   0.0000       0.151086         4.1113
  22   0.0000       0.163266         4.4427
  23   0.0000       0.172977         4.7069
  24   0.0000       0.196668         5.3516

MULLIKEN ATOMIC CHARGES
-----------------------
   0 C :   -0.921397
   1 C :   -0.053220
   2 C :    0.595208
   3 H :    0.142976
   4 H :    0.146253
   5 O :   -0.811861
   6 O :   -0.820476
   7 H :    0.215065
   8 H :    0.251961
   9 H :    0.255491
Sum of atomic charges:   -1.0000000

LOEWDIN ATOMIC CHARGES
----------------------
   0 C :   -0.125949
   1 C :   -0.208058
   2 C :   -0.771760
   3 H :    0.087544
   4 H :    0.081756
   5 O :   -0.106109
   6 O :   -0.103723
   7 H :    0.037173
   8 H :    0.051434
   9 H :    0.057691

  Mayer bond orders larger than 0.100000
B(  0-C ,  1-C ) :   0.7772 B(  0-C ,  2-C ) :   0.1652 B(  0-C ,  6-O ) :   0.1019
B(  0-C ,  7-H ) :   0.9489 B(  0-C ,  8-H ) :   0.9764 B(  0-C ,  9-H ) :   0.9473
B(  1-C ,  2-C ) :   1.0054 B(  1-C ,  3-H ) :   0.9197 B(  1-C ,  4-H ) :   0.9937
B(  2-C ,  5-O ) :   1.2146 B(  2-C ,  6-O ) :   1.1992

Dispersion correction           -0.008074690
FINAL SINGLE POINT ENERGY      -267.989824864019

DIPOLE MOMENT
-------------
                                X             Y             Z
Electronic contribution:      1.77885      -5.39071      -1.70206
Nuclear contribution   :     -2.46071       7.20791       1.95694
                        -----------------------------------------
Total Dipole Moment    :     -0.68187       1.81720       0.25488
                        -----------------------------------------
Magnitude (a.u.)       :      1.95758
Magnitude (Debye)      :      4.97578

Rotational constants in cm-1:     0.309435     0.135317     0.107436
Rotational constants in MHz :  9276.637721  4056.700783  3220.846587

                             ****ORCA TERMINATED NORMALLY****
TOTAL RUN TIME: 0 days 0 hours 0 minutes 19 seconds 8 msec
