                         Program Version 5.0.0 -  RELEASE  -
|  1> !TPSS D3BJ RIJCOSX def2-TZVPD def2/J TightSCF
|  2> *xyz 1 1
|  3> C          0.81607       -2.10149       -2.18655
|  4> H          1.69623       -2.36869       -1.60046
|  5> N          1.10055       -2.46749       -3.59927
|  6> C          0.51624       -0.61363       -2.03937
|  7> H         -0.02007       -2.71285       -1.84084
|  8> H          1.70061       -1.75723       -4.07838
|  9> H          0.29386       -2.35977       -4.25632
| 10> H          1.50132       -3.42848       -3.69491
| 11> H         -0.34841       -0.36504       -2.61858
| 12> H          1.35358       -0.04503       -2.38643
| 13> H          0.33317       -0.38682       -1.00984
| 14> *
| 15> %MaxCore 64000
| 16>
| 17> %pal nprocs 4
| 18> end
| 19>
| 20> %scf
| 21>   MaxIter 150
| 22> end
| 23>
| 24>
| 25>                          ****END OF INPUT****

CARTESIAN COORDINATES (ANGSTROEM)
---------------------------------
  C      0.816070   -2.101490   -2.186550
  H      1.696230   -2.368690   -1.600460
  N      1.100550   -2.467490   -3.599270
  C      0.516240   -0.613630   -2.039370
  H     -0.020070   -2.712850   -1.840840
  H      1.700610   -1.757230   -4.078380
  H      0.293860   -2.359770   -4.256320
  H      1.501320   -3.428480   -3.694910
  H     -0.348410   -0.365040   -2.618580
  H      1.353580   -0.045030   -2.386430
  H      0.333170   -0.386820   -1.009840

 Total Charge           Charge          ....    1
 Multiplicity           Mult            ....    1
 Number of Electrons    NEL             ....   26
 Basis Dimension        Dim             ....  183

ORBITAL ENERGIES
----------------

  NO   OCC          E(Eh)            E(eV)
   0   2.0000     -14.438002      -392.8780
   1   2.0000     -10.239806      -278.6393
   2   2.0000     -10.162321      -276.5308
   3   2.0000      -1.149455       -31.2783
   4   2.0000      -0.912252       -24.8236
   5   2.0000      -0.802348       -21.8330
   6   2.0000      -0.745064       -20.2742
   7   2.0000      -0.726994       -19.7825
   8   2.0000      -0.660873       -17.9833
   9   2.0000      -0.599398       -16.3104
  10   2.0000      -0.546338       -14.8666
  11   2.0000      -0.532647       -14.4941
  12   2.0000      -0.517218       -14.0742
  13   0.0000      -0.216430        -5.8894
  14   0.0000      -0.158882        -4.3234
  15   0.0000      -0.156326        -4.2538
  16   0.0000      -0.145554        -3.9607
  17   0.0000      -0.109230        -2.9723

MULLIKEN ATOMIC CHARGES
-----------------------
   0 C :   -0.096946
   1 H :    0.215706
   2 N :   -0.303293
   3 C :   -0.881259
   4 H :    0.215800
   5 H :    0.329773
   6 H :    0.334831
   7 H :    0.326267
   8 H :    0.310165
   9 H :    0.333071
  10 H :    0.215885
Sum of atomic charges:    1.0000000

LOEWDIN ATOMIC CHARGES
----------------------
   0 C :   -0.195098
   1 H :    0.132658
   2 N :    0.162854
   3 C :   -0.047268
   4 H :    0.134130
   5 H :    0.183718
   6 H :    0.187409
   7 H :    0.191094
   8 H :    0.079973
   9 H :    0.079789
  10 H :    0.090740

  Mayer bond orders larger than 0.100000
B(  0-C ,  1-H ) :   0.9274 B(  0-C ,  2-N ) :   0.9324 B(  0-C ,  3-C ) :   0.8966
B(  0-C ,  4-H ) :   0.9401 B(  2-N ,  5-H ) :   0.8685 B(  2-N ,  6-H ) :   0.8699
B(  2-N ,  7-H ) :   0.8695 B(  3-C ,  8-H ) :   0.9148 B(  3-C ,  9-H ) :   0.8965
B(  3-C , 10-H ) :   0.9914

Dispersion correction           -0.007428710
FINAL SINGLE POINT ENERGY      -135.610766262788

DIPOLE MOMENT
-------------
                                X             Y             Z
Electronic contribution:      0.41142      -1.41447      -1.04193
Nuclear contribution   :     -0.07506       0.54337      -0.16191
                        -----------------------------------------
Total Dipole Moment    :      0.33636      -0.87110      -1.20384
                        -----------------------------------------
Magnitude (a.u.)       :      1.52355
Magnitude (Debye)      :      3.87255

Rotational constants in cm-1:     0.999557     0.280801     0.246932
Rotational constants in MHz : 29965.963633  8418.199581  7402.841054

                             ****ORCA TERMINATED NORMALLY****
TOTAL RUN TIME: 0 days 0 hours 0 minutes 12 seconds 117 msec
