                         Program Version 5.0.0 -  RELEASE  -
|  1> !TPSS D3BJ RIJCOSX def2-TZVPD def2/J TightSCF xyzfile
|  2>
|  3> *xyzfile 0 1 B.xyz
|  4>
|  5> %MaxCore 64000
|  6>
|  7> %pal nprocs 4
|  8> end
|  9>
| 10> %scf
| 11>   MaxIter 150
| 12> end
| 13>
| 14>
| 15>                          ****END OF INPUT****

CARTESIAN COORDINATES (ANGSTROEM)
---------------------------------
  C      0.816067   -2.101491   -2.186546
  H      1.696232   -2.368691   -1.600457
  N      1.100552   -2.467492   -3.599269
  C      0.516243   -0.613634   -2.039373
  H     -0.020066   -2.712849   -1.840844
  C     -0.868621   -0.193925   -2.546303
  C     -0.984801    1.284739   -2.928686
  H     -0.764939    1.904116   -2.051568
  H     -2.032613    1.478953   -3.178952
  C     -0.106085    1.769914   -4.089836
  H     -0.347744    2.822196   -4.262942
  H      0.949683    1.745875   -3.808781
  C     -0.258747    1.004323   -5.409829
  C      0.395958   -0.370696   -5.339939
  H      0.239150    1.569393   -6.201253
  H     -1.309360    0.888694   -5.682455
  H      1.700606   -1.757225   -4.078378
  H      0.293855   -2.359766   -4.256324
  H      1.501324   -3.428479   -3.694915
  O     -0.326329   -1.390398   -5.491279
  O      1.619412   -0.400726   -5.036827
  H     -1.607271   -0.412651   -1.768955
  H     -1.157234   -0.796164   -3.409254
  H      1.299044   -0.056805   -2.558982
  H      0.612393   -0.365579   -0.979171

 Total Charge           Charge          ....    0
 Multiplicity           Mult            ....    1
 Number of Electrons    NEL             ....   80
 Basis Dimension        Dim             ....  511

ORBITAL ENERGIES
----------------

  NO   OCC          E(Eh)            E(eV)
   0   2.0000     -18.819614      -512.1077
   1   2.0000     -18.817842      -512.0595
   2   2.0000     -14.185524      -386.0077
   3   2.0000     -10.057347      -273.6743
   4   2.0000     -10.049365      -273.4571
   5   2.0000     -10.000049      -272.1152
   6   2.0000      -9.982123      -271.6274
   7   2.0000      -9.977712      -271.5073
   8   2.0000      -9.970856      -271.3208
   9   2.0000      -9.961753      -271.0731
  10   2.0000      -0.959651       -26.1134
  11   2.0000      -0.915433       -24.9102
  12   2.0000      -0.863907       -23.5081
  13   2.0000      -0.757183       -20.6040
  14   2.0000      -0.716260       -19.4904
  15   2.0000      -0.671068       -18.2607
  16   2.0000      -0.611049       -16.6275
  17   2.0000      -0.578061       -15.7298
  18   2.0000      -0.530647       -14.4396
  19   2.0000      -0.518717       -14.1150
  20   2.0000      -0.495849       -13.4927
  21   2.0000      -0.470833       -12.8120
  22   2.0000      -0.437228       -11.8976
  23   2.0000      -0.426152       -11.5962
  24   2.0000      -0.412826       -11.2336
  25   2.0000      -0.402743       -10.9592
  26   2.0000      -0.382656       -10.4126
  27   2.0000      -0.374765       -10.1979
  28   2.0000      -0.358358        -9.7514
  29   2.0000      -0.349112        -9.4998
  30   2.0000      -0.342835        -9.3290
  31   2.0000      -0.333879        -9.0853
  32   2.0000      -0.316370        -8.6089
  33   2.0000      -0.310886        -8.4596
  34   2.0000      -0.288689        -7.8556
  35   2.0000      -0.277490        -7.5509
  36   2.0000      -0.271868        -7.3979
  37   2.0000      -0.213591        -5.8121
  38   2.0000      -0.196749        -5.3538
  39   2.0000      -0.185783        -5.0554
  40   0.0000      -0.031336        -0.8527
  41   0.0000      -0.001741        -0.0474
  42   0.0000       0.007659         0.2084
  43   0.0000       0.011749         0.3197
  44   0.0000       0.016263         0.4425

MULLIKEN ATOMIC CHARGES
-----------------------
   0 C :   -0.414499
   1 H :    0.181217
   2 N :   -0.238754
   3 C :   -0.164925
   4 H :    0.189034
   5 C :   -0.578190
   6 C :   -0.301337
   7 H :    0.103365
   8 H :    0.169733
   9 C :   -0.479663
  10 H :    0.041202
  11 H :    0.289957
  12 C :   -0.123866
  13 C :    0.852179
  14 H :    0.172893
  15 H :    0.125594
  16 H :    0.308522
  17 H :    0.298063
  18 H :    0.270934
  19 O :   -0.904698
  20 O :   -0.911782
  21 H :    0.144233
  22 H :    0.500907
  23 H :    0.274938
  24 H :    0.194944
Sum of atomic charges:   -0.0000000

LOEWDIN ATOMIC CHARGES
----------------------
   0 C :   -0.160767
   1 H :    0.115889
   2 N :    0.130309
   3 C :   -0.177257
   4 H :    0.122020
   5 C :   -0.193389
   6 C :   -0.192142
   7 H :    0.105707
   8 H :    0.107436
   9 C :   -0.197342
  10 H :    0.102695
  11 H :    0.100017
  12 C :   -0.107722
  13 C :   -0.671273
  14 H :    0.112922
  15 H :    0.111167
  16 H :    0.093187
  17 H :    0.093009
  18 H :    0.170950
  19 O :   -0.050229
  20 O :   -0.040520
  21 H :    0.109363
  22 H :    0.096198
  23 H :    0.104831
  24 H :    0.114940

  Mayer bond orders larger than 0.100000
B(  0-C ,  1-H ) :   0.9054 B(  0-C ,  2-N ) :   1.0035 B(  0-C ,  3-C ) :   0.9814
B(  0-C ,  4-H ) :   0.9146 B(  0-C ,  5-C ) :   0.3097 B(  2-N , 16-H ) :   0.7653
B(  2-N , 17-H ) :   0.7628 B(  2-N , 18-H ) :   0.8901 B(  3-C ,  5-C ) :   0.6588
B(  3-C ,  6-C ) :   0.2052 B(  3-C ,  9-C ) :   0.1362 B(  3-C , 23-H ) :   0.9230
B(  3-C , 24-H ) :   0.9005 B(  5-C ,  6-C ) :   1.1878 B(  5-C , 13-C ) :   0.1226
B(  5-C , 21-H ) :   0.9347 B(  5-C , 22-H ) :   0.7471 B(  6-C ,  7-H ) :   0.9485
B(  6-C ,  8-H ) :   0.8684 B(  6-C ,  9-C ) :   1.0075 B(  9-C , 10-H ) :   0.9605
B(  9-C , 11-H ) :   0.8144 B(  9-C , 12-C ) :   0.9539 B(  9-C , 13-C ) :   0.2214
B( 12-C , 13-C ) :   1.0807 B( 12-C , 14-H ) :   0.8313 B( 12-C , 15-H ) :   0.9949
B( 13-C , 19-O ) :   0.9427 B( 13-C , 20-O ) :   0.9568 B( 16-H , 20-O ) :   0.2117
B( 17-H , 19-O ) :   0.2034 B( 19-O , 20-O ) :   0.1507

Dispersion correction           -0.033303010
FINAL SINGLE POINT ENERGY      -481.278763439205

DIPOLE MOMENT
-------------
                                X             Y             Z
Electronic contribution:      2.29520      -3.07942      -6.29956
Nuclear contribution   :     -2.02598       1.95876       8.24116
                        -----------------------------------------
Total Dipole Moment    :      0.26923      -1.12065       1.94159
                        -----------------------------------------
Magnitude (a.u.)       :      2.25790
Magnitude (Debye)      :      5.73914

Rotational constants in cm-1:     0.052900     0.041948     0.028766
Rotational constants in MHz :  1585.892512  1257.572595   862.390225

                             ****ORCA TERMINATED NORMALLY****
TOTAL RUN TIME: 0 days 0 hours 1 minutes 25 seconds 223 msec
