                         Program Version 5.0.0 -  RELEASE  -
|  1> !TPSS D3BJ RIJCOSX def2-TZVPD def2/J TightSCF
|  2> *xyz 0 1
|  3> C         -0.10608        1.76991       -4.08984
|  4> C         -0.25875        1.00432       -5.40983
|  5> C          0.39596       -0.37070       -5.33994
|  6> H          0.23915        1.56939       -6.20125
|  7> H         -1.30936        0.88869       -5.68245
|  8> F         -0.32633       -1.39040       -5.49128
|  9> O          1.61941       -0.40073       -5.03683
| 10> H         -0.57627        2.72718       -4.17630
| 11> H          0.93321        1.90140       -3.87192
| 12> H         -0.56868        1.21534       -3.30031
| 13> *
| 14> %MaxCore 64000
| 15>
| 16> %pal nprocs 4
| 17> end
| 18>
| 19> %scf
| 20>   MaxIter 150
| 21> end
| 22>
| 23>
| 24>                          ****END OF INPUT****

CARTESIAN COORDINATES (ANGSTROEM)
---------------------------------
  C     -0.106080    1.769910   -4.089840
  C     -0.258750    1.004320   -5.409830
  C      0.395960   -0.370700   -5.339940
  H      0.239150    1.569390   -6.201250
  H     -1.309360    0.888690   -5.682450
  F     -0.326330   -1.390400   -5.491280
  O      1.619410   -0.400730   -5.036830
  H     -0.576270    2.727180   -4.176300
  H      0.933210    1.901400   -3.871920
  H     -0.568680    1.215340   -3.300310

 Total Charge           Charge          ....    0
 Multiplicity           Mult            ....    1
 Number of Electrons    NEL             ....   40
 Basis Dimension        Dim             ....  236

ORBITAL ENERGIES
----------------

  NO   OCC          E(Eh)            E(eV)
   0   2.0000     -24.477430      -666.0647
   1   2.0000     -18.886414      -513.9254
   2   2.0000     -10.151401      -276.2337
   3   2.0000     -10.018083      -272.6059
   4   2.0000      -9.991412      -271.8801
   5   2.0000      -1.236652       -33.6510
   6   2.0000      -0.960453       -26.1353
   7   2.0000      -0.744302       -20.2535
   8   2.0000      -0.635417       -17.2906
   9   2.0000      -0.583826       -15.8867
  10   2.0000      -0.492714       -13.4074
  11   2.0000      -0.478858       -13.0304
  12   2.0000      -0.457945       -12.4613
  13   2.0000      -0.423651       -11.5281
  14   2.0000      -0.390189       -10.6176
  15   2.0000      -0.359121        -9.7722
  16   2.0000      -0.340632        -9.2691
  17   2.0000      -0.334845        -9.1116
  18   2.0000      -0.307174        -8.3586
  19   2.0000      -0.247547        -6.7361
  20   0.0000      -0.064231        -1.7478
  21   0.0000      -0.007596        -0.2067
  22   0.0000       0.019801         0.5388
  23   0.0000       0.029934         0.8145
  24   0.0000       0.038655         1.0519

MULLIKEN ATOMIC CHARGES
-----------------------
   0 C :   -0.895962
   1 C :    0.007438
   2 C :    0.547288
   3 H :    0.150210
   4 H :    0.172565
   5 F :   -0.201636
   6 O :   -0.536234
   7 H :    0.204158
   8 H :    0.273521
   9 H :    0.278652
Sum of atomic charges:    0.0000000

LOEWDIN ATOMIC CHARGES
----------------------
   0 C :   -0.079395
   1 C :   -0.151816
   2 C :   -0.492907
   3 H :    0.117353
   4 H :    0.104289
   5 F :    0.212586
   6 O :    0.081909
   7 H :    0.066160
   8 H :    0.070116
   9 H :    0.071704

  Mayer bond orders larger than 0.100000
B(  0-C ,  1-C ) :   0.8656 B(  0-C ,  2-C ) :   0.1615 B(  0-C ,  7-H ) :   0.9672
B(  0-C ,  8-H ) :   0.9615 B(  0-C ,  9-H ) :   0.9137 B(  1-C ,  2-C ) :   0.9748
B(  1-C ,  3-H ) :   0.9101 B(  1-C ,  4-H ) :   0.9484 B(  2-C ,  5-F ) :   0.9869
B(  2-C ,  6-O ) :   1.6065

Dispersion correction           -0.007659160
FINAL SINGLE POINT ENERGY      -292.559019220897

DIPOLE MOMENT
-------------
                                X             Y             Z
Electronic contribution:      0.87676      -8.19873      -2.55626
Nuclear contribution   :     -1.80992       8.85192       2.42184
                        -----------------------------------------
Total Dipole Moment    :     -0.93316       0.65319      -0.13442
                        -----------------------------------------
Magnitude (a.u.)       :      1.14696
Magnitude (Debye)      :      2.91534

Rotational constants in cm-1:     0.298360     0.128849     0.102271
Rotational constants in MHz :  8944.606599  3862.796179  3066.020510

                             ****ORCA TERMINATED NORMALLY****
TOTAL RUN TIME: 0 days 0 hours 0 minutes 16 seconds 170 msec
