                         Program Version 5.0.0 -  RELEASE  -
|  1> !TPSS D3BJ RIJCOSX def2-TZVPD def2/J TightSCF
|  2> *xyz 0 1
|  3> C          0.81607       -2.10149       -2.18655
|  4> H          1.69623       -2.36869       -1.60046
|  5> C          1.10055       -2.46749       -3.59927
|  6> C          0.51624       -0.61363       -2.03937
|  7> H         -0.02007       -2.71285       -1.84084
|  8> H          1.70061       -1.75723       -4.07838
|  9> H          0.29386       -2.35977       -4.25632
| 10> H          1.50132       -3.42848       -3.69491
| 11> H         -0.34841       -0.36504       -2.61858
| 12> H          1.35358       -0.04503       -2.38643
| 13> H          0.33317       -0.38682       -1.00984
| 14> *
| 15> %MaxCore 64000
| 16>
| 17> %pal nprocs 4
| 18> end
| 19>
| 20> %scf
| 21>   MaxIter 150
| 22> end
| 23>
| 24>
| 25>                          ****END OF INPUT****

CARTESIAN COORDINATES (ANGSTROEM)
---------------------------------
  C      0.816070   -2.101490   -2.186550
  H      1.696230   -2.368690   -1.600460
  C      1.100550   -2.467490   -3.599270
  C      0.516240   -0.613630   -2.039370
  H     -0.020070   -2.712850   -1.840840
  H      1.700610   -1.757230   -4.078380
  H      0.293860   -2.359770   -4.256320
  H      1.501320   -3.428480   -3.694910
  H     -0.348410   -0.365040   -2.618580
  H      1.353580   -0.045030   -2.386430
  H      0.333170   -0.386820   -1.009840

 Total Charge           Charge          ....    0
 Multiplicity           Mult            ....    1
 Number of Electrons    NEL             ....   26
 Basis Dimension        Dim             ....  183

ORBITAL ENERGIES
----------------

  NO   OCC          E(Eh)            E(eV)
   0   2.0000      -9.973253      -271.3860
   1   2.0000      -9.964147      -271.1382
   2   2.0000      -9.950919      -270.7783
   3   2.0000      -0.732565       -19.9341
   4   2.0000      -0.636889       -17.3306
   5   2.0000      -0.542880       -14.7725
   6   2.0000      -0.418618       -11.3912
   7   2.0000      -0.404716       -11.0129
   8   2.0000      -0.372892       -10.1469
   9   2.0000      -0.339038        -9.2257
  10   2.0000      -0.305290        -8.3074
  11   2.0000      -0.299364        -8.1461
  12   2.0000      -0.286957        -7.8085
  13   0.0000       0.004151         0.1129
  14   0.0000       0.029209         0.7948
  15   0.0000       0.030569         0.8318
  16   0.0000       0.051247         1.3945
  17   0.0000       0.072867         1.9828

MULLIKEN ATOMIC CHARGES
-----------------------
   0 C :    0.213747
   1 H :    0.142448
   2 C :   -1.118521
   3 C :   -0.925307
   4 H :    0.139142
   5 H :    0.297474
   6 H :    0.303289
   7 H :    0.213295
   8 H :    0.261157
   9 H :    0.275503
  10 H :    0.197773
Sum of atomic charges:   -0.0000000

LOEWDIN ATOMIC CHARGES
----------------------
   0 C :   -0.308590
   1 H :    0.099127
   2 C :   -0.133877
   3 C :   -0.109577
   4 H :    0.100176
   5 H :    0.054797
   6 H :    0.056537
   7 H :    0.056816
   8 H :    0.063896
   9 H :    0.063131
  10 H :    0.057562

  Mayer bond orders larger than 0.100000
B(  0-C ,  1-H ) :   0.9504 B(  0-C ,  2-C ) :   0.7828 B(  0-C ,  3-C ) :   0.7846
B(  0-C ,  4-H ) :   0.9445 B(  2-C ,  3-C ) :   0.2091 B(  2-C ,  5-H ) :   0.9513
B(  2-C ,  6-H ) :   0.9527 B(  2-C ,  7-H ) :   0.9954 B(  3-C ,  8-H ) :   0.9595
B(  3-C ,  9-H ) :   0.9563 B(  3-C , 10-H ) :   1.0006

Dispersion correction           -0.007453076
FINAL SINGLE POINT ENERGY      -119.199832347733

DIPOLE MOMENT
-------------
                                X             Y             Z
Electronic contribution:     -0.01866      -0.30929       0.46922
Nuclear contribution   :      0.01737       0.30387      -0.47422
                        -----------------------------------------
Total Dipole Moment    :     -0.00128      -0.00542      -0.00499
                        -----------------------------------------
Magnitude (a.u.)       :      0.00748
Magnitude (Debye)      :      0.01900

Rotational constants in cm-1:     1.006891     0.295208     0.258491
Rotational constants in MHz : 30185.831813  8850.104914  7749.351732

                             ****ORCA TERMINATED NORMALLY****
TOTAL RUN TIME: 0 days 0 hours 0 minutes 12 seconds 411 msec
