                         Program Version 5.0.0 -  RELEASE  -
|  1> !TPSS D3BJ RIJCOSX def2-TZVPD def2/J TightSCF
|  2> *xyz 0 1
|  3> C         -0.10608        1.76991       -4.08984
|  4> C         -0.25875        1.00432       -5.40983
|  5> C          0.39596       -0.37070       -5.33994
|  6> H          0.23915        1.56939       -6.20125
|  7> H         -1.30936        0.88869       -5.68245
|  8> O         -0.32633       -1.39040       -5.49128
|  9> F          1.61941       -0.40073       -5.03683
| 10> H         -0.57627        2.72718       -4.17630
| 11> H          0.93321        1.90140       -3.87192
| 12> H         -0.56868        1.21534       -3.30031
| 13> *
| 14> %MaxCore 64000
| 15>
| 16> %pal nprocs 4
| 17> end
| 18>
| 19> %scf
| 20>   MaxIter 150
| 21> end
| 22>
| 23>
| 24>                          ****END OF INPUT****

CARTESIAN COORDINATES (ANGSTROEM)
---------------------------------
  C     -0.106080    1.769910   -4.089840
  C     -0.258750    1.004320   -5.409830
  C      0.395960   -0.370700   -5.339940
  H      0.239150    1.569390   -6.201250
  H     -1.309360    0.888690   -5.682450
  O     -0.326330   -1.390400   -5.491280
  F      1.619410   -0.400730   -5.036830
  H     -0.576270    2.727180   -4.176300
  H      0.933210    1.901400   -3.871920
  H     -0.568680    1.215340   -3.300310

 Total Charge           Charge          ....    0
 Multiplicity           Mult            ....    1
 Number of Electrons    NEL             ....   40
 Basis Dimension        Dim             ....  236

ORBITAL ENERGIES
----------------

  NO   OCC          E(Eh)            E(eV)
   0   2.0000     -24.475950      -666.0245
   1   2.0000     -18.887059      -513.9430
   2   2.0000     -10.150668      -276.2137
   3   2.0000     -10.017928      -272.6017
   4   2.0000      -9.996157      -272.0093
   5   2.0000      -1.235196       -33.6114
   6   2.0000      -0.960404       -26.1339
   7   2.0000      -0.748659       -20.3721
   8   2.0000      -0.633282       -17.2325
   9   2.0000      -0.587090       -15.9755
  10   2.0000      -0.494262       -13.4496
  11   2.0000      -0.481469       -13.1014
  12   2.0000      -0.452423       -12.3111
  13   2.0000      -0.423336       -11.5196
  14   2.0000      -0.392349       -10.6764
  15   2.0000      -0.361397        -9.8341
  16   2.0000      -0.344439        -9.3727
  17   2.0000      -0.339404        -9.2356
  18   2.0000      -0.311784        -8.4841
  19   2.0000      -0.244565        -6.6550
  20   0.0000      -0.061210        -1.6656
  21   0.0000      -0.009431        -0.2566
  22   0.0000       0.019764         0.5378
  23   0.0000       0.029064         0.7909
  24   0.0000       0.039043         1.0624

MULLIKEN ATOMIC CHARGES
-----------------------
   0 C :   -0.920998
   1 C :    0.055109
   2 C :    0.536444
   3 H :    0.174580
   4 H :    0.137800
   5 O :   -0.527254
   6 F :   -0.216378
   7 H :    0.201446
   8 H :    0.275763
   9 H :    0.283488
Sum of atomic charges:   -0.0000000

LOEWDIN ATOMIC CHARGES
----------------------
   0 C :   -0.082167
   1 C :   -0.146843
   2 C :   -0.499072
   3 H :    0.113441
   4 H :    0.114509
   5 O :    0.084560
   6 F :    0.209561
   7 H :    0.066576
   8 H :    0.066233
   9 H :    0.073201

  Mayer bond orders larger than 0.100000
B(  0-C ,  1-C ) :   0.8114 B(  0-C ,  2-C ) :   0.1641 B(  0-C ,  7-H ) :   0.9773
B(  0-C ,  8-H ) :   0.9402 B(  0-C ,  9-H ) :   0.9408 B(  1-C ,  2-C ) :   0.9731
B(  1-C ,  3-H ) :   0.9031 B(  1-C ,  4-H ) :   0.9782 B(  2-C ,  5-O ) :   1.6186
B(  2-C ,  6-F ) :   0.9581

Dispersion correction           -0.007611329
FINAL SINGLE POINT ENERGY      -292.560312468870

DIPOLE MOMENT
-------------
                                X             Y             Z
Electronic contribution:      4.07232      -6.53865      -1.80349
Nuclear contribution   :     -3.93139       7.77287       1.92635
                        -----------------------------------------
Total Dipole Moment    :      0.14093       1.23423       0.12286
                        -----------------------------------------
Magnitude (a.u.)       :      1.24831
Magnitude (Debye)      :      3.17295

Rotational constants in cm-1:     0.286068     0.133630     0.103472
Rotational constants in MHz :  8576.109806  4006.118234  3102.010802

                             ****ORCA TERMINATED NORMALLY****
TOTAL RUN TIME: 0 days 0 hours 0 minutes 17 seconds 457 msec
