                         Program Version 5.0.0 -  RELEASE  -
|  1> !TPSS D3BJ RIJCOSX def2-TZVPD def2/J TightSCF xyzfile
|  2>
|  3> *xyzfile 0 1 D1.xyz
|  4>
|  5> %MaxCore 64000
|  6>
|  7> %pal nprocs 4
|  8> end
|  9>
| 10> %scf
| 11>   MaxIter 150
| 12> end
| 13>
| 14>
| 15>                          ****END OF INPUT****

CARTESIAN COORDINATES (ANGSTROEM)
---------------------------------
  C      0.816067   -2.101491   -2.186546
  H      1.696232   -2.368691   -1.600457
  C      1.100552   -2.467492   -3.599269
  C      0.516243   -0.613634   -2.039373
  H     -0.020066   -2.712849   -1.840844
  C     -0.868621   -0.193925   -2.546303
  C     -0.984801    1.284739   -2.928686
  H     -0.764939    1.904116   -2.051568
  H     -2.032613    1.478953   -3.178952
  C     -0.106085    1.769914   -4.089836
  H     -0.347744    2.822196   -4.262942
  H      0.949683    1.745875   -3.808781
  C     -0.258747    1.004323   -5.409829
  C      0.395958   -0.370696   -5.339939
  H      0.239150    1.569393   -6.201253
  H     -1.309360    0.888694   -5.682455
  H      1.700606   -1.757225   -4.078378
  H      0.293855   -2.359766   -4.256324
  H      1.501324   -3.428479   -3.694915
  F     -0.326329   -1.390398   -5.491279
  O      1.619412   -0.400726   -5.036827
  H     -1.607271   -0.412651   -1.768955
  H     -1.157234   -0.796164   -3.409254
  H      1.299044   -0.056805   -2.558982
  H      0.612393   -0.365579   -0.979171

 Total Charge           Charge          ....    0
 Multiplicity           Mult            ....    1
 Number of Electrons    NEL             ....   80
 Basis Dimension        Dim             ....  511

ORBITAL ENERGIES
----------------

  NO   OCC          E(Eh)            E(eV)
   0   2.0000     -24.484324      -666.2523
   1   2.0000     -18.893021      -514.1052
   2   2.0000     -10.158640      -276.4306
   3   2.0000     -10.019023      -272.6315
   4   2.0000      -9.999776      -272.1077
   5   2.0000      -9.988296      -271.7954
   6   2.0000      -9.981103      -271.5996
   7   2.0000      -9.967838      -271.2387
   8   2.0000      -9.958468      -270.9837
   9   2.0000      -9.911028      -269.6928
  10   2.0000      -1.249158       -33.9913
  11   2.0000      -0.974759       -26.5246
  12   2.0000      -0.766761       -20.8646
  13   2.0000      -0.735525       -20.0147
  14   2.0000      -0.690026       -18.7766
  15   2.0000      -0.652306       -17.7502
  16   2.0000      -0.609670       -16.5900
  17   2.0000      -0.587226       -15.9792
  18   2.0000      -0.549094       -14.9416
  19   2.0000      -0.510895       -13.9022
  20   2.0000      -0.503812       -13.7094
  21   2.0000      -0.486883       -13.2487
  22   2.0000      -0.474958       -12.9243
  23   2.0000      -0.434088       -11.8121
  24   2.0000      -0.414679       -11.2840
  25   2.0000      -0.403210       -10.9719
  26   2.0000      -0.397719       -10.8225
  27   2.0000      -0.381865       -10.3911
  28   2.0000      -0.371789       -10.1169
  29   2.0000      -0.358204        -9.7472
  30   2.0000      -0.340086        -9.2542
  31   2.0000      -0.330482        -8.9929
  32   2.0000      -0.323913        -8.8141
  33   2.0000      -0.315022        -8.5722
  34   2.0000      -0.302446        -8.2300
  35   2.0000      -0.289636        -7.8814
  36   2.0000      -0.279624        -7.6090
  37   2.0000      -0.271287        -7.3821
  38   2.0000      -0.262518        -7.1435
  39   2.0000      -0.226083        -6.1520
  40   0.0000      -0.073840        -2.0093
  41   0.0000      -0.008473        -0.2306
  42   0.0000       0.010842         0.2950
  43   0.0000       0.014121         0.3842
  44   0.0000       0.016096         0.4380

MULLIKEN ATOMIC CHARGES
-----------------------
   0 C :    0.212238
   1 H :    0.109076
   2 C :   -1.881455
   3 C :   -0.308690
   4 H :    0.093296
   5 C :   -0.557535
   6 C :   -0.272244
   7 H :    0.103397
   8 H :    0.160338
   9 C :   -0.462744
  10 H :    0.048082
  11 H :    0.320062
  12 C :   -0.106268
  13 C :    0.618687
  14 H :    0.162123
  15 H :    0.149932
  16 H :    0.656982
  17 H :    0.658022
  18 H :    0.223110
  19 F :   -0.283721
  20 O :   -0.617528
  21 H :    0.150930
  22 H :    0.405692
  23 H :    0.257212
  24 H :    0.161008
Sum of atomic charges:    0.0000000

LOEWDIN ATOMIC CHARGES
----------------------
   0 C :   -0.233635
   1 H :    0.103519
   2 C :   -0.119099
   3 C :   -0.199586
   4 H :    0.105729
   5 C :   -0.192558
   6 C :   -0.193484
   7 H :    0.110565
   8 H :    0.105469
   9 C :   -0.187182
  10 H :    0.108698
  11 H :    0.106260
  12 C :   -0.083768
  13 C :   -0.470722
  14 H :    0.123308
  15 H :    0.115948
  16 H :    0.022007
  17 H :    0.035265
  18 H :    0.069333
  19 F :    0.183321
  20 O :    0.073672
  21 H :    0.112837
  22 H :    0.096892
  23 H :    0.100091
  24 H :    0.107119

  Mayer bond orders larger than 0.100000
B(  0-C ,  1-H ) :   0.8896 B(  0-C ,  2-C ) :   0.4047 B(  0-C ,  3-C ) :   1.0668
B(  0-C ,  4-H ) :   0.9098 B(  0-C ,  5-C ) :   0.3179 B(  2-C , 13-C ) :   0.1908
B(  2-C , 16-H ) :   0.7195 B(  2-C , 17-H ) :   0.6321 B(  2-C , 18-H ) :   0.8766
B(  2-C , 19-F ) :   0.1448 B(  2-C , 20-O ) :   0.1955 B(  3-C ,  5-C ) :   0.6824
B(  3-C ,  6-C ) :   0.2000 B(  3-C ,  9-C ) :   0.1405 B(  3-C , 23-H ) :   0.9302
B(  3-C , 24-H ) :   0.8706 B(  5-C ,  6-C ) :   1.1605 B(  5-C , 13-C ) :   0.1442
B(  5-C , 21-H ) :   0.9276 B(  5-C , 22-H ) :   0.7632 B(  6-C ,  7-H ) :   0.9499
B(  6-C ,  8-H ) :   0.8839 B(  6-C ,  9-C ) :   1.0348 B(  9-C , 10-H ) :   0.9594
B(  9-C , 11-H ) :   0.8066 B(  9-C , 12-C ) :   0.9513 B(  9-C , 13-C ) :   0.1992
B( 12-C , 13-C ) :   1.0527 B( 12-C , 14-H ) :   0.8465 B( 12-C , 15-H ) :   0.9699
B( 13-C , 19-F ) :   0.7763 B( 13-C , 20-O ) :   1.5020 B( 16-H , 20-O ) :  -0.1884
B( 17-H , 19-F ) :  -0.1241 B( 19-F , 20-O ) :   0.1162

Dispersion correction           -0.032507623
FINAL SINGLE POINT ENERGY      -489.187911546077

DIPOLE MOMENT
-------------
                                X             Y             Z
Electronic contribution:      0.37837      -2.01699     -10.55439
Nuclear contribution   :     -1.21560       2.80077      10.24180
                        -----------------------------------------
Total Dipole Moment    :     -0.83724       0.78378      -0.31259
                        -----------------------------------------
Magnitude (a.u.)       :      1.18869
Magnitude (Debye)      :      3.02141

Rotational constants in cm-1:     0.051255     0.042531     0.028894
Rotational constants in MHz :  1536.587743  1275.050721   866.218876

                             ****ORCA TERMINATED NORMALLY****
TOTAL RUN TIME: 0 days 0 hours 1 minutes 22 seconds 417 msec
