                         Program Version 5.0.0 -  RELEASE  -
|  1> !TPSS D3BJ RIJCOSX def2-TZVPD def2/J TightSCF xyzfile
|  2>
|  3> *xyzfile 0 1 D2.xyz
|  4>
|  5> %MaxCore 64000
|  6>
|  7> %pal nprocs 4
|  8> end
|  9>
| 10> %scf
| 11>   MaxIter 150
| 12> end
| 13>
| 14>
| 15>                          ****END OF INPUT****

CARTESIAN COORDINATES (ANGSTROEM)
---------------------------------
  C      0.816067   -2.101491   -2.186546
  H      1.696232   -2.368691   -1.600457
  C      1.100552   -2.467492   -3.599269
  C      0.516243   -0.613634   -2.039373
  H     -0.020066   -2.712849   -1.840844
  C     -0.868621   -0.193925   -2.546303
  C     -0.984801    1.284739   -2.928686
  H     -0.764939    1.904116   -2.051568
  H     -2.032613    1.478953   -3.178952
  C     -0.106085    1.769914   -4.089836
  H     -0.347744    2.822196   -4.262942
  H      0.949683    1.745875   -3.808781
  C     -0.258747    1.004323   -5.409829
  C      0.395958   -0.370696   -5.339939
  H      0.239150    1.569393   -6.201253
  H     -1.309360    0.888694   -5.682455
  H      1.700606   -1.757225   -4.078378
  H      0.293855   -2.359766   -4.256324
  H      1.501324   -3.428479   -3.694915
  O     -0.326329   -1.390398   -5.491279
  F      1.619412   -0.400726   -5.036827
  H     -1.607271   -0.412651   -1.768955
  H     -1.157234   -0.796164   -3.409254
  H      1.299044   -0.056805   -2.558982
  H      0.612393   -0.365579   -0.979171

 Total Charge           Charge          ....    0
 Multiplicity           Mult            ....    1
 Number of Electrons    NEL             ....   80
 Basis Dimension        Dim             ....  511

ORBITAL ENERGIES
----------------

  NO   OCC          E(Eh)            E(eV)
   0   2.0000     -24.484562      -666.2588
   1   2.0000     -18.892694      -514.0963
   2   2.0000     -10.158227      -276.4194
   3   2.0000     -10.018937      -272.6291
   4   2.0000     -10.003447      -272.2076
   5   2.0000      -9.988325      -271.7961
   6   2.0000      -9.976006      -271.4609
   7   2.0000      -9.971524      -271.3390
   8   2.0000      -9.959478      -271.0112
   9   2.0000      -9.912210      -269.7249
  10   2.0000      -1.249100       -33.9897
  11   2.0000      -0.974370       -26.5140
  12   2.0000      -0.769098       -20.9282
  13   2.0000      -0.737124       -20.0582
  14   2.0000      -0.690687       -18.7946
  15   2.0000      -0.651755       -17.7352
  16   2.0000      -0.608662       -16.5625
  17   2.0000      -0.588554       -16.0154
  18   2.0000      -0.550589       -14.9823
  19   2.0000      -0.514780       -14.0079
  20   2.0000      -0.505107       -13.7447
  21   2.0000      -0.492280       -13.3956
  22   2.0000      -0.461923       -12.5696
  23   2.0000      -0.435527       -11.8513
  24   2.0000      -0.414696       -11.2845
  25   2.0000      -0.403786       -10.9876
  26   2.0000      -0.398838       -10.8529
  27   2.0000      -0.388337       -10.5672
  28   2.0000      -0.370351       -10.0778
  29   2.0000      -0.352250        -9.5852
  30   2.0000      -0.346000        -9.4151
  31   2.0000      -0.335671        -9.1341
  32   2.0000      -0.331556        -9.0221
  33   2.0000      -0.314268        -8.5517
  34   2.0000      -0.295868        -8.0510
  35   2.0000      -0.291311        -7.9270
  36   2.0000      -0.281674        -7.6647
  37   2.0000      -0.267914        -7.2903
  38   2.0000      -0.264553        -7.1989
  39   2.0000      -0.226493        -6.1632
  40   0.0000      -0.072511        -1.9731
  41   0.0000      -0.009805        -0.2668
  42   0.0000       0.010898         0.2965
  43   0.0000       0.012150         0.3306
  44   0.0000       0.016185         0.4404

MULLIKEN ATOMIC CHARGES
-----------------------
   0 C :    0.229373
   1 H :    0.100926
   2 C :   -1.856210
   3 C :   -0.320944
   4 H :    0.098903
   5 C :   -0.580568
   6 C :   -0.211166
   7 H :    0.107029
   8 H :    0.164257
   9 C :   -0.487714
  10 H :    0.036874
  11 H :    0.316508
  12 C :   -0.064051
  13 C :    0.625061
  14 H :    0.170661
  15 H :    0.122434
  16 H :    0.571813
  17 H :    0.714600
  18 H :    0.213096
  19 O :   -0.625291
  20 F :   -0.287588
  21 H :    0.152158
  22 H :    0.422973
  23 H :    0.234410
  24 H :    0.152456
Sum of atomic charges:    0.0000000

LOEWDIN ATOMIC CHARGES
----------------------
   0 C :   -0.233953
   1 H :    0.101434
   2 C :   -0.116125
   3 C :   -0.200415
   4 H :    0.108505
   5 C :   -0.192000
   6 C :   -0.192691
   7 H :    0.109301
   8 H :    0.107296
   9 C :   -0.191889
  10 H :    0.107836
  11 H :    0.102615
  12 C :   -0.077843
  13 C :   -0.475913
  14 H :    0.120091
  15 H :    0.125105
  16 H :    0.038721
  17 H :    0.020127
  18 H :    0.070313
  19 O :    0.066208
  20 F :    0.188292
  21 H :    0.112758
  22 H :    0.098318
  23 H :    0.096988
  24 H :    0.106921

  Mayer bond orders larger than 0.100000
B(  0-C ,  1-H ) :   0.9034 B(  0-C ,  2-C ) :   0.3956 B(  0-C ,  3-C ) :   1.0605
B(  0-C ,  4-H ) :   0.9044 B(  0-C ,  5-C ) :   0.2886 B(  2-C ,  3-C ) :   0.1061
B(  2-C , 13-C ) :   0.1749 B(  2-C , 16-H ) :   0.7519 B(  2-C , 17-H ) :   0.6201
B(  2-C , 18-H ) :   0.8744 B(  2-C , 19-O ) :   0.1742 B(  2-C , 20-F ) :   0.1463
B(  3-C ,  5-C ) :   0.7056 B(  3-C ,  6-C ) :   0.1711 B(  3-C ,  9-C ) :   0.1535
B(  3-C , 23-H ) :   0.9349 B(  3-C , 24-H ) :   0.8771 B(  5-C ,  6-C ) :   1.1529
B(  5-C , 13-C ) :   0.1614 B(  5-C , 21-H ) :   0.9193 B(  5-C , 22-H ) :   0.8040
B(  6-C ,  7-H ) :   0.9594 B(  6-C ,  8-H ) :   0.8786 B(  6-C ,  9-C ) :   1.0333
B(  9-C , 10-H ) :   0.9820 B(  9-C , 11-H ) :   0.8106 B(  9-C , 12-C ) :   0.9070
B(  9-C , 13-C ) :   0.1738 B( 12-C , 13-C ) :   1.0856 B( 12-C , 14-H ) :   0.8624
B( 12-C , 15-H ) :   0.9649 B( 13-C , 19-O ) :   1.4614 B( 13-C , 20-F ) :   0.7703
B( 16-H , 20-F ) :  -0.1139 B( 17-H , 19-O ) :  -0.1602 B( 19-O , 20-F ) :   0.1119

Dispersion correction           -0.032448002
FINAL SINGLE POINT ENERGY      -489.187758605214

DIPOLE MOMENT
-------------
                                X             Y             Z
Electronic contribution:      3.59644      -0.37122      -9.79846
Nuclear contribution   :     -3.57245       1.60200       9.69133
                        -----------------------------------------
Total Dipole Moment    :      0.02400       1.23077      -0.10713
                        -----------------------------------------
Magnitude (a.u.)       :      1.23566
Magnitude (Debye)      :      3.14080

Rotational constants in cm-1:     0.051520     0.042563     0.028962
Rotational constants in MHz :  1544.537298  1275.996546   868.258224

                             ****ORCA TERMINATED NORMALLY****
TOTAL RUN TIME: 0 days 0 hours 1 minutes 21 seconds 281 msec
