                         Program Version 5.0.0 -  RELEASE  -
|  1> !wB97X-D3 RIJCOSX def2-SVP def2/J TightSCF
|  2> *xyz -1 1
|  3> C         -0.72184       -0.99951       -3.43931
|  4> C          0.28725       -1.71177       -2.52740
|  5> H          1.13178       -2.06738       -3.15940
|  6> H         -0.20414       -2.63733       -2.17048
|  7> O          0.71050       -0.92751       -1.48177
|  8> H         -1.01315       -1.65739       -4.23129
|  9> H         -0.27123       -0.12142       -3.85259
| 10> H         -1.58442       -0.72333       -2.86958
| 11> *
| 12> %MaxCore 64000
| 13>
| 14> %pal nprocs 4
| 15> end
| 16>
| 17> %scf
| 18>   MaxIter 150
| 19> end
| 20>
| 21>
| 22>                          ****END OF INPUT****

CARTESIAN COORDINATES (ANGSTROEM)
---------------------------------
  C     -0.721840   -0.999510   -3.439310
  C      0.287250   -1.711770   -2.527400
  H      1.131780   -2.067380   -3.159400
  H     -0.204140   -2.637330   -2.170480
  O      0.710500   -0.927510   -1.481770
  H     -1.013150   -1.657390   -4.231290
  H     -0.271230   -0.121420   -3.852590
  H     -1.584420   -0.723330   -2.869580

 Total Charge           Charge          ....   -1
 Multiplicity           Mult            ....    1
 Number of Electrons    NEL             ....   26
 Basis Dimension        Dim             ....   67

ORBITAL ENERGIES
----------------

  NO   OCC          E(Eh)            E(eV)
   0   2.0000     -18.844645      -512.7889
   1   2.0000     -10.076838      -274.2047
   2   2.0000     -10.065940      -273.9082
   3   2.0000      -0.737540       -20.0695
   4   2.0000      -0.613147       -16.6846
   5   2.0000      -0.453123       -12.3301
   6   2.0000      -0.334101        -9.0913
   7   2.0000      -0.310439        -8.4475
   8   2.0000      -0.250227        -6.8090
   9   2.0000      -0.231410        -6.2970
  10   2.0000      -0.160683        -4.3724
  11   2.0000      -0.011724        -0.3190
  12   2.0000      -0.009159        -0.2492
  13   0.0000       0.335506         9.1296
  14   0.0000       0.380571        10.3559
  15   0.0000       0.394279        10.7289
  16   0.0000       0.401963        10.9380
  17   0.0000       0.445615        12.1258

MULLIKEN ATOMIC CHARGES
-----------------------
   0 C :    0.011860
   1 C :    0.244782
   2 H :   -0.163285
   3 H :   -0.162946
   4 O :   -0.736691
   5 H :   -0.100850
   6 H :   -0.047287
   7 H :   -0.045584
Sum of atomic charges:   -1.0000000

LOEWDIN ATOMIC CHARGES
----------------------
   0 C :   -0.111920
   1 C :    0.010373
   2 H :   -0.080445
   3 H :   -0.079393
   4 O :   -0.687217
   5 H :   -0.030550
   6 H :   -0.010907
   7 H :   -0.009942

  Mayer bond orders larger than 0.100000
B(  0-C ,  1-C ) :   0.9967 B(  0-C ,  5-H ) :   0.9327 B(  0-C ,  6-H ) :   0.9639
B(  0-C ,  7-H ) :   0.9651 B(  1-C ,  2-H ) :   0.8797 B(  1-C ,  3-H ) :   0.8809
B(  1-C ,  4-O ) :   1.4880

Dispersion correction           -0.000859691
FINAL SINGLE POINT ENERGY      -154.230469254269

DIPOLE MOMENT
-------------
                                X             Y             Z
Electronic contribution:      1.51362       0.88286       2.53949
Nuclear contribution   :     -2.24828      -1.06600      -3.62481
                        -----------------------------------------
Total Dipole Moment    :     -0.73465      -0.18314      -1.08532
                        -----------------------------------------
Magnitude (a.u.)       :      1.32332
Magnitude (Debye)      :      3.36361

Rotational constants in cm-1:     1.278116     0.325414     0.286672
Rotational constants in MHz : 38316.964654  9755.653004  8594.216906

                             ****ORCA TERMINATED NORMALLY****
TOTAL RUN TIME: 0 days 0 hours 0 minutes 9 seconds 369 msec
