                         Program Version 5.0.0 -  RELEASE  -
|  1> !wB97X-D3 RIJCOSX def2-SVP def2/J TightSCF
|  2> *xyz 1 1
|  3> C          3.48828        1.60092       -1.52204
|  4> C          4.34297        1.31342       -2.75683
|  5> N          2.81029        0.42878       -1.01420
|  6> H          2.71455        2.33145       -1.76030
|  7> H          4.09099        2.06315       -0.73338
|  8> C          3.29098       -0.41802       -0.12908
|  9> N          2.51754       -1.43202        0.23936
| 10> N          4.53549       -0.28441        0.39580
| 11> H          5.04363        0.57189        0.22290
| 12> H          4.72335       -0.73327        1.28180
| 13> H          1.93479        0.10230       -1.40379
| 14> H          1.67464       -1.50562       -0.31610
| 15> H          2.92850       -2.21850        0.72549
| 16> H          3.73575        0.86277       -3.51385
| 17> H          5.13754        0.64699       -2.49333
| 18> H          4.75374        2.22930       -3.12740
| 19> *
| 20> %MaxCore 64000
| 21>
| 22> %pal nprocs 4
| 23> end
| 24>
| 25> %scf
| 26>   MaxIter 150
| 27> end
| 28>
| 29>
| 30>                          ****END OF INPUT****

CARTESIAN COORDINATES (ANGSTROEM)
---------------------------------
  C      3.488280    1.600920   -1.522040
  C      4.342970    1.313420   -2.756830
  N      2.810290    0.428780   -1.014200
  H      2.714550    2.331450   -1.760300
  H      4.090990    2.063150   -0.733380
  C      3.290980   -0.418020   -0.129080
  N      2.517540   -1.432020    0.239360
  N      4.535490   -0.284410    0.395800
  H      5.043630    0.571890    0.222900
  H      4.723350   -0.733270    1.281800
  H      1.934790    0.102300   -1.403790
  H      1.674640   -1.505620   -0.316100
  H      2.928500   -2.218500    0.725490
  H      3.735750    0.862770   -3.513850
  H      5.137540    0.646990   -2.493330
  H      4.753740    2.229300   -3.127400

 Total Charge           Charge          ....    1
 Multiplicity           Mult            ....    1
 Number of Electrons    NEL             ....   48
 Basis Dimension        Dim             ....  134

ORBITAL ENERGIES
----------------

  NO   OCC          E(Eh)            E(eV)
   0   2.0000     -14.664443      -399.0398
   1   2.0000     -14.660459      -398.9314
   2   2.0000     -14.657578      -398.8530
   3   2.0000     -10.626458      -289.1606
   4   2.0000     -10.499034      -285.6932
   5   2.0000     -10.424633      -283.6687
   6   2.0000      -1.331982       -36.2451
   7   2.0000      -1.216240       -33.0956
   8   2.0000      -1.201432       -32.6926
   9   2.0000      -1.043120       -28.3847
  10   2.0000      -0.943705       -25.6795
  11   2.0000      -0.913731       -24.8639
  12   2.0000      -0.885776       -24.1032
  13   2.0000      -0.850768       -23.1506
  14   2.0000      -0.793344       -21.5880
  15   2.0000      -0.783223       -21.3126
  16   2.0000      -0.755221       -20.5506
  17   2.0000      -0.743490       -20.2314
  18   2.0000      -0.702080       -19.1046
  19   2.0000      -0.659675       -17.9507
  20   2.0000      -0.627968       -17.0879
  21   2.0000      -0.607334       -16.5264
  22   2.0000      -0.572686       -15.5836
  23   2.0000      -0.544006       -14.8032
  24   0.0000      -0.078441        -2.1345
  25   0.0000      -0.053617        -1.4590
  26   0.0000      -0.021500        -0.5850
  27   0.0000      -0.002933        -0.0798
  28   0.0000       0.020844         0.5672

MULLIKEN ATOMIC CHARGES
-----------------------
   0 C :   -0.018366
   1 C :   -0.021437
   2 N :   -0.147176
   3 H :    0.092314
   4 H :    0.070638
   5 C :    0.089436
   6 N :   -0.058148
   7 N :   -0.095758
   8 H :    0.175096
   9 H :    0.184610
  10 H :    0.172645
  11 H :    0.176413
  12 H :    0.192049
  13 H :    0.060036
  14 H :    0.043930
  15 H :    0.083717
Sum of atomic charges:    1.0000000

LOEWDIN ATOMIC CHARGES
----------------------
   0 C :    0.035156
   1 C :   -0.049160
   2 N :    0.032984
   3 H :    0.052527
   4 H :    0.035986
   5 C :    0.160266
   6 N :    0.041984
   7 N :    0.024506
   8 H :    0.105038
   9 H :    0.112570
  10 H :    0.106491
  11 H :    0.109324
  12 H :    0.116863
  13 H :    0.036834
  14 H :    0.028722
  15 H :    0.049909

  Mayer bond orders larger than 0.100000
B(  0-C ,  1-C ) :   1.0776 B(  0-C ,  2-N ) :   0.9103 B(  0-C ,  3-H ) :   0.9501
B(  0-C ,  4-H ) :   0.9572 B(  1-C , 13-H ) :   0.9710 B(  1-C , 14-H ) :   0.9709
B(  1-C , 15-H ) :   0.9682 B(  2-N ,  5-C ) :   1.3955 B(  2-N , 10-H ) :   0.9069
B(  5-C ,  6-N ) :   1.3943 B(  5-C ,  7-N ) :   1.3708 B(  6-N , 11-H ) :   0.9214
B(  6-N , 12-H ) :   0.9235 B(  7-N ,  8-H ) :   0.9250 B(  7-N ,  9-H ) :   0.9265

Dispersion correction           -0.003785614
FINAL SINGLE POINT ENERGY      -284.115843676218

DIPOLE MOMENT
-------------
                                X             Y             Z
Electronic contribution:     -1.94925      -3.06355       3.79816
Nuclear contribution   :      1.59382       2.33278      -3.02574
                        -----------------------------------------
Total Dipole Moment    :     -0.35543      -0.73077       0.77242
                        -----------------------------------------
Magnitude (a.u.)       :      1.12116
Magnitude (Debye)      :      2.84976

Rotational constants in cm-1:     0.232230     0.073139     0.063030
Rotational constants in MHz :  6962.079716  2192.649203  1889.578947

                             ****ORCA TERMINATED NORMALLY****
TOTAL RUN TIME: 0 days 0 hours 0 minutes 26 seconds 232 msec
