                         Program Version 5.0.0 -  RELEASE  -
|  1> !wB97X-D3 RIJCOSX def2-SVP def2/J TightSCF
|  2> *xyz 0 1
|  3> C         -0.72184       -0.99951       -3.43931
|  4> C          0.28725       -1.71177       -2.52740
|  5> H          1.13178       -2.06738       -3.15940
|  6> H         -0.20414       -2.63733       -2.17048
|  7> F          0.71050       -0.92751       -1.48177
|  8> H         -1.01315       -1.65739       -4.23129
|  9> H         -0.27123       -0.12142       -3.85259
| 10> H         -1.58442       -0.72333       -2.86958
| 11> *
| 12> %MaxCore 64000
| 13>
| 14> %pal nprocs 4
| 15> end
| 16>
| 17> %scf
| 18>   MaxIter 150
| 19> end
| 20>
| 21>
| 22>                          ****END OF INPUT****

CARTESIAN COORDINATES (ANGSTROEM)
---------------------------------
  C     -0.721840   -0.999510   -3.439310
  C      0.287250   -1.711770   -2.527400
  H      1.131780   -2.067380   -3.159400
  H     -0.204140   -2.637330   -2.170480
  F      0.710500   -0.927510   -1.481770
  H     -1.013150   -1.657390   -4.231290
  H     -0.271230   -0.121420   -3.852590
  H     -1.584420   -0.723330   -2.869580

 Total Charge           Charge          ....    0
 Multiplicity           Mult            ....    1
 Number of Electrons    NEL             ....   26
 Basis Dimension        Dim             ....   67

ORBITAL ENERGIES
----------------

  NO   OCC          E(Eh)            E(eV)
   0   2.0000     -24.766880      -673.9411
   1   2.0000     -10.363795      -282.0132
   2   2.0000     -10.283135      -279.8183
   3   2.0000      -1.282501       -34.8986
   4   2.0000      -0.871522       -23.7153
   5   2.0000      -0.731802       -19.9134
   6   2.0000      -0.601444       -16.3661
   7   2.0000      -0.592979       -16.1358
   8   2.0000      -0.551450       -15.0057
   9   2.0000      -0.498427       -13.5629
  10   2.0000      -0.495472       -13.4825
  11   2.0000      -0.426134       -11.5957
  12   2.0000      -0.420187       -11.4339
  13   0.0000       0.151772         4.1299
  14   0.0000       0.197679         5.3791
  15   0.0000       0.203979         5.5505
  16   0.0000       0.220635         6.0038
  17   0.0000       0.238686         6.4950

MULLIKEN ATOMIC CHARGES
-----------------------
   0 C :   -0.093570
   1 C :    0.202800
   2 H :    0.024618
   3 H :    0.022503
   4 F :   -0.276144
   5 H :    0.032651
   6 H :    0.043426
   7 H :    0.043715
Sum of atomic charges:   -0.0000000

LOEWDIN ATOMIC CHARGES
----------------------
   0 C :   -0.077017
   1 C :    0.111329
   2 H :    0.012281
   3 H :    0.011184
   4 F :   -0.143718
   5 H :    0.031320
   6 H :    0.027109
   7 H :    0.027512

  Mayer bond orders larger than 0.100000
B(  0-C ,  1-C ) :   1.0830 B(  0-C ,  5-H ) :   0.9647 B(  0-C ,  6-H ) :   0.9741
B(  0-C ,  7-H ) :   0.9741 B(  1-C ,  2-H ) :   0.9619 B(  1-C ,  3-H ) :   0.9625
B(  1-C ,  4-F ) :   0.9866

Dispersion correction           -0.000872236
FINAL SINGLE POINT ENERGY      -178.873924314551

DIPOLE MOMENT
-------------
                                X             Y             Z
Electronic contribution:      2.71388       1.05037       4.24065
Nuclear contribution   :     -2.97459      -1.40206      -4.79987
                        -----------------------------------------
Total Dipole Moment    :     -0.26072      -0.35169      -0.55921
                        -----------------------------------------
Magnitude (a.u.)       :      0.71020
Magnitude (Debye)      :      1.80518

Rotational constants in cm-1:     1.257024     0.302702     0.267953
Rotational constants in MHz : 37684.643733  9074.792567  8033.038070

                             ****ORCA TERMINATED NORMALLY****
TOTAL RUN TIME: 0 days 0 hours 0 minutes 9 seconds 192 msec
