                         Program Version 5.0.0 -  RELEASE  -
|  1> !wB97X-D3 RIJCOSX def2-SVP def2/J TightSCF
|  2> *xyz 0 1
|  3> C          3.48828        1.60092       -1.52204
|  4> C          4.34297        1.31342       -2.75683
|  5> C          2.81029        0.42878       -1.01420
|  6> H          2.71455        2.33145       -1.76030
|  7> H          4.09099        2.06315       -0.73338
|  8> C          3.29098       -0.41802       -0.12908
|  9> N          2.51754       -1.43202        0.23936
| 10> N          4.53549       -0.28441        0.39580
| 11> H          5.04363        0.57189        0.22290
| 12> H          4.72335       -0.73327        1.28180
| 13> H          1.93479        0.10230       -1.40379
| 14> H          1.67464       -1.50562       -0.31610
| 15> H          2.92850       -2.21850        0.72549
| 16> H          3.73575        0.86277       -3.51385
| 17> H          5.13754        0.64699       -2.49333
| 18> H          4.75374        2.22930       -3.12740
| 19> *
| 20> %MaxCore 64000
| 21>
| 22> %pal nprocs 4
| 23> end
| 24>
| 25> %scf
| 26>   MaxIter 150
| 27> end
| 28>
| 29>
| 30>                          ****END OF INPUT****

CARTESIAN COORDINATES (ANGSTROEM)
---------------------------------
  C      3.488280    1.600920   -1.522040
  C      4.342970    1.313420   -2.756830
  C      2.810290    0.428780   -1.014200
  H      2.714550    2.331450   -1.760300
  H      4.090990    2.063150   -0.733380
  C      3.290980   -0.418020   -0.129080
  N      2.517540   -1.432020    0.239360
  N      4.535490   -0.284410    0.395800
  H      5.043630    0.571890    0.222900
  H      4.723350   -0.733270    1.281800
  H      1.934790    0.102300   -1.403790
  H      1.674640   -1.505620   -0.316100
  H      2.928500   -2.218500    0.725490
  H      3.735750    0.862770   -3.513850
  H      5.137540    0.646990   -2.493330
  H      4.753740    2.229300   -3.127400

 Total Charge           Charge          ....    0
 Multiplicity           Mult            ....    1
 Number of Electrons    NEL             ....   48
 Basis Dimension        Dim             ....  134

ORBITAL ENERGIES
----------------

  NO   OCC          E(Eh)            E(eV)
   0   2.0000     -14.428944      -392.6315
   1   2.0000     -14.424430      -392.5087
   2   2.0000     -10.323572      -280.9187
   3   2.0000     -10.260895      -279.2132
   4   2.0000     -10.251263      -278.9510
   5   2.0000     -10.202392      -277.6212
   6   2.0000      -1.061213       -28.8771
   7   2.0000      -0.969915       -26.3927
   8   2.0000      -0.879370       -23.9289
   9   2.0000      -0.797096       -21.6901
  10   2.0000      -0.714029       -19.4297
  11   2.0000      -0.677748       -18.4425
  12   2.0000      -0.634123       -17.2554
  13   2.0000      -0.605984       -16.4897
  14   2.0000      -0.558657       -15.2018
  15   2.0000      -0.533573       -14.5193
  16   2.0000      -0.512872       -13.9560
  17   2.0000      -0.491840       -13.3836
  18   2.0000      -0.473230       -12.8772
  19   2.0000      -0.444419       -12.0933
  20   2.0000      -0.421593       -11.4721
  21   2.0000      -0.408893       -11.1265
  22   2.0000      -0.352673        -9.5967
  23   2.0000      -0.239986        -6.5304
  24   0.0000       0.133838         3.6419
  25   0.0000       0.163671         4.4537
  26   0.0000       0.170571         4.6415
  27   0.0000       0.188448         5.1279
  28   0.0000       0.202256         5.5037

MULLIKEN ATOMIC CHARGES
-----------------------
   0 C :    0.005676
   1 C :    0.022821
   2 C :   -0.183230
   3 H :    0.008246
   4 H :   -0.009574
   5 C :   -0.045334
   6 N :   -0.092828
   7 N :   -0.130287
   8 H :    0.123830
   9 H :    0.114032
  10 H :   -0.089715
  11 H :    0.129787
  12 H :    0.115504
  13 H :    0.012338
  14 H :    0.008383
  15 H :    0.010349
Sum of atomic charges:    0.0000000

LOEWDIN ATOMIC CHARGES
----------------------
   0 C :   -0.043809
   1 C :   -0.056391
   2 C :   -0.221689
   3 H :    0.024610
   4 H :    0.009617
   5 C :    0.034262
   6 N :   -0.033666
   7 N :   -0.044428
   8 H :    0.075968
   9 H :    0.065781
  10 H :   -0.010246
  11 H :    0.084639
  12 H :    0.067886
  13 H :    0.019408
  14 H :    0.015178
  15 H :    0.012880

  Mayer bond orders larger than 0.100000
B(  0-C ,  1-C ) :   1.0743 B(  0-C ,  2-C ) :   1.0513 B(  0-C ,  3-H ) :   0.9292
B(  0-C ,  4-H ) :   0.9495 B(  1-C , 13-H ) :   0.9720 B(  1-C , 14-H ) :   0.9749
B(  1-C , 15-H ) :   0.9714 B(  2-C ,  5-C ) :   1.7118 B(  2-C , 10-H ) :   0.9431
B(  5-C ,  6-N ) :   1.2418 B(  5-C ,  7-N ) :   1.2303 B(  6-N , 11-H ) :   0.9344
B(  6-N , 12-H ) :   0.9475 B(  7-N ,  8-H ) :   0.9416 B(  7-N ,  9-H ) :   0.9498

Dispersion correction           -0.003779931
FINAL SINGLE POINT ENERGY      -267.645749561232

DIPOLE MOMENT
-------------
                                X             Y             Z
Electronic contribution:     -1.22665      -3.03557       3.76603
Nuclear contribution   :      1.44676       2.38443      -3.07370
                        -----------------------------------------
Total Dipole Moment    :      0.22011      -0.65115       0.69233
                        -----------------------------------------
Magnitude (a.u.)       :      0.97558
Magnitude (Debye)      :      2.47974

Rotational constants in cm-1:     0.235977     0.073199     0.063283
Rotational constants in MHz :  7074.404583  2194.453291  1897.179599

                             ****ORCA TERMINATED NORMALLY****
TOTAL RUN TIME: 0 days 0 hours 0 minutes 26 seconds 366 msec
