                         Program Version 5.0.0 -  RELEASE  -
|  1> !wB97X-D3 RIJCOSX def2-SVP def2/J TightSCF
|  2> *xyz 0 1
|  3> C          3.48828        1.60092       -1.52204
|  4> C          4.34297        1.31342       -2.75683
|  5> N          2.81029        0.42878       -1.01420
|  6> H          2.71455        2.33145       -1.76030
|  7> H          4.09099        2.06315       -0.73338
|  8> C          3.29098       -0.41802       -0.12908
|  9> C          2.51754       -1.43202        0.23936
| 10> N          4.53549       -0.28441        0.39580
| 11> H          5.04363        0.57189        0.22290
| 12> H          4.72335       -0.73327        1.28180
| 13> H          1.93479        0.10230       -1.40379
| 14> H          1.67464       -1.50562       -0.31610
| 15> H          2.92850       -2.21850        0.72549
| 16> H          3.73575        0.86277       -3.51385
| 17> H          5.13754        0.64699       -2.49333
| 18> H          4.75374        2.22930       -3.12740
| 19> *
| 20> %MaxCore 64000
| 21>
| 22> %pal nprocs 4
| 23> end
| 24>
| 25> %scf
| 26>   MaxIter 150
| 27> end
| 28>
| 29>
| 30>                          ****END OF INPUT****

CARTESIAN COORDINATES (ANGSTROEM)
---------------------------------
  C      3.488280    1.600920   -1.522040
  C      4.342970    1.313420   -2.756830
  N      2.810290    0.428780   -1.014200
  H      2.714550    2.331450   -1.760300
  H      4.090990    2.063150   -0.733380
  C      3.290980   -0.418020   -0.129080
  C      2.517540   -1.432020    0.239360
  N      4.535490   -0.284410    0.395800
  H      5.043630    0.571890    0.222900
  H      4.723350   -0.733270    1.281800
  H      1.934790    0.102300   -1.403790
  H      1.674640   -1.505620   -0.316100
  H      2.928500   -2.218500    0.725490
  H      3.735750    0.862770   -3.513850
  H      5.137540    0.646990   -2.493330
  H      4.753740    2.229300   -3.127400

 Total Charge           Charge          ....    0
 Multiplicity           Mult            ....    1
 Number of Electrons    NEL             ....   48
 Basis Dimension        Dim             ....  134

ORBITAL ENERGIES
----------------

  NO   OCC          E(Eh)            E(eV)
   0   2.0000     -14.430403      -392.6712
   1   2.0000     -14.429282      -392.6407
   2   2.0000     -10.330690      -281.1124
   3   2.0000     -10.328347      -281.0486
   4   2.0000     -10.279471      -279.7186
   5   2.0000     -10.191182      -277.3162
   6   2.0000      -1.074355       -29.2347
   7   2.0000      -0.985105       -26.8061
   8   2.0000      -0.882812       -24.0225
   9   2.0000      -0.805125       -21.9086
  10   2.0000      -0.732216       -19.9246
  11   2.0000      -0.697455       -18.9787
  12   2.0000      -0.634097       -17.2546
  13   2.0000      -0.597789       -16.2667
  14   2.0000      -0.573871       -15.6158
  15   2.0000      -0.537177       -14.6173
  16   2.0000      -0.528361       -14.3774
  17   2.0000      -0.499022       -13.5791
  18   2.0000      -0.468882       -12.7589
  19   2.0000      -0.464571       -12.6416
  20   2.0000      -0.457136       -12.4393
  21   2.0000      -0.449846       -12.2409
  22   2.0000      -0.345313        -9.3964
  23   2.0000      -0.241352        -6.5675
  24   0.0000       0.129123         3.5136
  25   0.0000       0.157447         4.2844
  26   0.0000       0.167278         4.5519
  27   0.0000       0.188466         5.1284
  28   0.0000       0.194617         5.2958

MULLIKEN ATOMIC CHARGES
-----------------------
   0 C :    0.027465
   1 C :   -0.005361
   2 N :   -0.173253
   3 H :    0.031819
   4 H :    0.025105
   5 C :   -0.017898
   6 C :   -0.115859
   7 N :   -0.140013
   8 H :    0.107449
   9 H :    0.136900
  10 H :    0.134680
  11 H :   -0.057047
  12 H :   -0.036826
  13 H :    0.028968
  14 H :    0.028367
  15 H :    0.025503
Sum of atomic charges:    0.0000000

LOEWDIN ATOMIC CHARGES
----------------------
   0 C :    0.027350
   1 C :   -0.066291
   2 N :   -0.029803
   3 H :    0.025443
   4 H :    0.017930
   5 C :    0.049105
   6 C :   -0.267528
   7 N :   -0.040482
   8 H :    0.060941
   9 H :    0.084666
  10 H :    0.087154
  11 H :   -0.011387
  12 H :   -0.007529
  13 H :    0.024122
  14 H :    0.022935
  15 H :    0.023376

  Mayer bond orders larger than 0.100000
B(  0-C ,  1-C ) :   1.0718 B(  0-C ,  2-N ) :   0.9988 B(  0-C ,  3-H ) :   0.9588
B(  0-C ,  4-H ) :   0.9578 B(  1-C , 13-H ) :   0.9717 B(  1-C , 14-H ) :   0.9702
B(  1-C , 15-H ) :   0.9685 B(  2-N ,  5-C ) :   1.2080 B(  2-N , 10-H ) :   0.9223
B(  5-C ,  6-C ) :   1.7434 B(  5-C ,  7-N ) :   1.2052 B(  6-C , 11-H ) :   0.9371
B(  6-C , 12-H ) :   0.9615 B(  7-N ,  8-H ) :   0.9543 B(  7-N ,  9-H ) :   0.9486

Dispersion correction           -0.003812158
FINAL SINGLE POINT ENERGY      -267.634451918903

DIPOLE MOMENT
-------------
                                X             Y             Z
Electronic contribution:     -0.82859      -1.02008       2.45840
Nuclear contribution   :      1.38466       1.98967      -2.80776
                        -----------------------------------------
Total Dipole Moment    :      0.55606       0.96959      -0.34937
                        -----------------------------------------
Magnitude (a.u.)       :      1.17105
Magnitude (Debye)      :      2.97658

Rotational constants in cm-1:     0.235618     0.075969     0.065309
Rotational constants in MHz :  7063.646698  2277.495424  1957.925383

                             ****ORCA TERMINATED NORMALLY****
TOTAL RUN TIME: 0 days 0 hours 0 minutes 25 seconds 121 msec
