                         Program Version 5.0.0 -  RELEASE  -
|  1> !wB97X-D3 RIJCOSX def2-SVP def2/J TightSCF
|  2> *xyz 0 1
|  3> C          3.48828        1.60092       -1.52204
|  4> C          4.34297        1.31342       -2.75683
|  5> N          2.81029        0.42878       -1.01420
|  6> H          2.71455        2.33145       -1.76030
|  7> H          4.09099        2.06315       -0.73338
|  8> C          3.29098       -0.41802       -0.12908
|  9> N          2.51754       -1.43202        0.23936
| 10> C          4.53549       -0.28441        0.39580
| 11> H          5.04363        0.57189        0.22290
| 12> H          4.72335       -0.73327        1.28180
| 13> H          1.93479        0.10230       -1.40379
| 14> H          1.67464       -1.50562       -0.31610
| 15> H          2.92850       -2.21850        0.72549
| 16> H          3.73575        0.86277       -3.51385
| 17> H          5.13754        0.64699       -2.49333
| 18> H          4.75374        2.22930       -3.12740
| 19> *
| 20> %MaxCore 64000
| 21>
| 22> %pal nprocs 4
| 23> end
| 24>
| 25> %scf
| 26>   MaxIter 150
| 27> end
| 28>
| 29>
| 30>                          ****END OF INPUT****

CARTESIAN COORDINATES (ANGSTROEM)
---------------------------------
  C      3.488280    1.600920   -1.522040
  C      4.342970    1.313420   -2.756830
  N      2.810290    0.428780   -1.014200
  H      2.714550    2.331450   -1.760300
  H      4.090990    2.063150   -0.733380
  C      3.290980   -0.418020   -0.129080
  N      2.517540   -1.432020    0.239360
  C      4.535490   -0.284410    0.395800
  H      5.043630    0.571890    0.222900
  H      4.723350   -0.733270    1.281800
  H      1.934790    0.102300   -1.403790
  H      1.674640   -1.505620   -0.316100
  H      2.928500   -2.218500    0.725490
  H      3.735750    0.862770   -3.513850
  H      5.137540    0.646990   -2.493330
  H      4.753740    2.229300   -3.127400

 Total Charge           Charge          ....    0
 Multiplicity           Mult            ....    1
 Number of Electrons    NEL             ....   48
 Basis Dimension        Dim             ....  134

ORBITAL ENERGIES
----------------

  NO   OCC          E(Eh)            E(eV)
   0   2.0000     -14.436342      -392.8328
   1   2.0000     -14.431848      -392.7106
   2   2.0000     -10.331380      -281.1311
   3   2.0000     -10.321620      -280.8656
   4   2.0000     -10.270520      -279.4750
   5   2.0000     -10.190779      -277.3052
   6   2.0000      -1.083211       -29.4757
   7   2.0000      -0.990984       -26.9661
   8   2.0000      -0.861868       -23.4526
   9   2.0000      -0.807274       -21.9670
  10   2.0000      -0.747073       -20.3289
  11   2.0000      -0.661301       -17.9949
  12   2.0000      -0.641132       -17.4461
  13   2.0000      -0.625700       -17.0261
  14   2.0000      -0.564393       -15.3579
  15   2.0000      -0.537146       -14.6165
  16   2.0000      -0.523820       -14.2539
  17   2.0000      -0.487112       -13.2550
  18   2.0000      -0.471312       -12.8251
  19   2.0000      -0.460218       -12.5232
  20   2.0000      -0.451052       -12.2737
  21   2.0000      -0.438490       -11.9319
  22   2.0000      -0.339951        -9.2505
  23   2.0000      -0.242646        -6.6027
  24   0.0000       0.125553         3.4165
  25   0.0000       0.161304         4.3893
  26   0.0000       0.171928         4.6784
  27   0.0000       0.185568         5.0495
  28   0.0000       0.207200         5.6382

MULLIKEN ATOMIC CHARGES
-----------------------
   0 C :    0.055366
   1 C :   -0.012230
   2 N :   -0.195475
   3 H :    0.023568
   4 H :    0.048844
   5 C :   -0.008947
   6 N :   -0.111260
   7 C :   -0.154923
   8 H :   -0.046411
   9 H :   -0.039365
  10 H :    0.106416
  11 H :    0.106656
  12 H :    0.143428
  13 H :    0.015781
  14 H :    0.043209
  15 H :    0.025343
Sum of atomic charges:    0.0000000

LOEWDIN ATOMIC CHARGES
----------------------
   0 C :    0.040377
   1 C :   -0.063077
   2 N :   -0.028383
   3 H :    0.021242
   4 H :    0.031053
   5 C :    0.045853
   6 N :   -0.025138
   7 C :   -0.290631
   8 H :   -0.012483
   9 H :   -0.009116
  10 H :    0.065088
  11 H :    0.063900
  12 H :    0.089117
  13 H :    0.018445
  14 H :    0.029704
  15 H :    0.024051

  Mayer bond orders larger than 0.100000
B(  0-C ,  1-C ) :   1.0878 B(  0-C ,  2-N ) :   0.9765 B(  0-C ,  3-H ) :   0.9625
B(  0-C ,  4-H ) :   0.9495 B(  1-C , 13-H ) :   0.9714 B(  1-C , 14-H ) :   0.9705
B(  1-C , 15-H ) :   0.9705 B(  2-N ,  5-C ) :   1.1903 B(  2-N , 10-H ) :   0.9359
B(  5-C ,  6-N ) :   1.2344 B(  5-C ,  7-C ) :   1.7209 B(  6-N , 11-H ) :   0.9524
B(  6-N , 12-H ) :   0.9442 B(  7-C ,  8-H ) :   0.9493 B(  7-C ,  9-H ) :   0.9562

Dispersion correction           -0.003779941
FINAL SINGLE POINT ENERGY      -267.633831018765

DIPOLE MOMENT
-------------
                                X             Y             Z
Electronic contribution:     -2.91478      -2.36213       2.17836
Nuclear contribution   :      1.81275       2.23313      -2.77458
                        -----------------------------------------
Total Dipole Moment    :     -1.10202      -0.12900      -0.59621
                        -----------------------------------------
Magnitude (a.u.)       :      1.25959
Magnitude (Debye)      :      3.20163

Rotational constants in cm-1:     0.245202     0.073668     0.064348
Rotational constants in MHz :  7350.977980  2208.513334  1929.108541

                             ****ORCA TERMINATED NORMALLY****
TOTAL RUN TIME: 0 days 0 hours 0 minutes 25 seconds 108 msec
