                         Program Version 5.0.0 -  RELEASE  -
|  1> !TPSS D3BJ RIJCOSX def2-TZVP def2/J TightSCF
|  2> *xyz -1 1
|  3> C          4.08422        1.74208       -2.11472
|  4> C          4.26524        2.50052       -0.79589
|  5> H          4.86853        3.39267       -0.98113
|  6> H          3.30764        2.82457       -0.38781
|  7> C          4.98224        1.65026        0.24742
|  8> O          4.36806        1.38927        1.31371
|  9> O          6.12892        1.23351       -0.04562
| 10> H          3.57911        2.36849       -2.81997
| 11> H          3.50424        0.85965       -1.94198
| 12> H          5.04288        1.46841       -2.50327
| 13> *
| 14> %MaxCore 64000
| 15> %pal nprocs 8
| 16> end
| 17> %scf
| 18>   MaxIter 150
| 19> end
| 20>
| 21>
| 22>                          ****END OF INPUT****

CARTESIAN COORDINATES (ANGSTROEM)
---------------------------------
  C      4.084220    1.742080   -2.114720
  C      4.265240    2.500520   -0.795890
  H      4.868530    3.392670   -0.981130
  H      3.307640    2.824570   -0.387810
  C      4.982240    1.650260    0.247420
  O      4.368060    1.389270    1.313710
  O      6.128920    1.233510   -0.045620
  H      3.579110    2.368490   -2.819970
  H      3.504240    0.859650   -1.941980
  H      5.042880    1.468410   -2.503270

 Total Charge           Charge          ....   -1
 Multiplicity           Mult            ....    1
 Number of Electrons    NEL             ....   40
 Basis Dimension        Dim             ....  185

ORBITAL ENERGIES
----------------

  NO   OCC          E(Eh)            E(eV)
   0   2.0000     -18.605356      -506.2775
   1   2.0000     -18.604618      -506.2574
   2   2.0000      -9.845279      -267.9037
   3   2.0000      -9.817085      -267.1365
   4   2.0000      -9.802460      -266.7385
   5   2.0000      -0.737913       -20.0796
   6   2.0000      -0.648979       -17.6596
   7   2.0000      -0.543526       -14.7901
   8   2.0000      -0.417988       -11.3740
   9   2.0000      -0.268289        -7.3005
  10   2.0000      -0.245552        -6.6818
  11   2.0000      -0.208596        -5.6762
  12   2.0000      -0.180072        -4.9000
  13   2.0000      -0.166040        -4.5182
  14   2.0000      -0.155377        -4.2280
  15   2.0000      -0.124468        -3.3869
  16   2.0000      -0.111892        -3.0447
  17   2.0000      -0.000110        -0.0030
  18   2.0000       0.011552         0.3143
  19   2.0000       0.028315         0.7705
  20   0.0000       0.175510         4.7759
  21   0.0000       0.216647         5.8953
  22   0.0000       0.227085         6.1793
  23   0.0000       0.239721         6.5231
  24   0.0000       0.245761         6.6875

MULLIKEN ATOMIC CHARGES
-----------------------
   0 C :   -0.316526
   1 C :   -0.106065
   2 H :    0.020836
   3 H :    0.025522
   4 C :    0.180304
   5 O :   -0.514776
   6 O :   -0.513220
   7 H :    0.050796
   8 H :    0.083253
   9 H :    0.089876
Sum of atomic charges:   -1.0000000

LOEWDIN ATOMIC CHARGES
----------------------
   0 C :   -0.319363
   1 C :   -0.290970
   2 H :    0.116024
   3 H :    0.112328
   4 C :   -0.718348
   5 O :   -0.103484
   6 O :   -0.097944
   7 H :    0.089089
   8 H :    0.105130
   9 H :    0.107536

  Mayer bond orders larger than 0.100000
B(  0-C ,  1-C ) :   0.9897 B(  0-C ,  7-H ) :   0.9606 B(  0-C ,  8-H ) :   0.9790
B(  0-C ,  9-H ) :   0.9635 B(  1-C ,  2-H ) :   0.9354 B(  1-C ,  3-H ) :   0.9329
B(  1-C ,  4-C ) :   0.9497 B(  4-C ,  5-O ) :   1.8794 B(  4-C ,  6-O ) :   1.8409

Dispersion correction           -0.008070933
FINAL SINGLE POINT ENERGY      -267.983366847578

DIPOLE MOMENT
-------------
                                X             Y             Z
Electronic contribution:      2.51091      -1.55604       5.25245
Nuclear contribution   :     -3.31311       2.28398      -6.76358
                        -----------------------------------------
Total Dipole Moment    :     -0.80220       0.72795      -1.51113
                        -----------------------------------------
Magnitude (a.u.)       :      1.85929
Magnitude (Debye)      :      4.72593

Rotational constants in cm-1:     0.309287     0.135287     0.107346
Rotational constants in MHz :  9272.201029  4055.789113  3218.155789

                             ****ORCA TERMINATED NORMALLY****
TOTAL RUN TIME: 0 days 0 hours 0 minutes 7 seconds 451 msec
