                         Program Version 5.0.0 -  RELEASE  -
|  1> !TPSS D3BJ RIJCOSX def2-TZVP def2/J TightSCF
|  2> *xyz 1 1
|  3> C          3.91385       -1.65829        3.01513
|  4> N          5.03927       -0.90115        2.49282
|  5> C          6.21038       -1.41726        2.17824
|  6> N          6.53591       -2.67712        2.55608
|  7> N          7.07675       -0.70082        1.47891
|  8> H          7.95464       -1.12155        1.20755
|  9> H          6.75616        0.10664        0.96028
| 10> H          4.84217        0.01761        2.11519
| 11> H          5.99388       -3.12692        3.28278
| 12> C          3.13916       -2.37657        1.91061
| 13> H          3.26723       -0.93940        3.52069
| 14> H          4.24720       -2.35509        3.79006
| 15> H          7.49844       -2.97548        2.46878
| 16> H          2.82969       -1.66654        1.17238
| 17> H          2.27790       -2.85264        2.33072
| 18> H          3.76754       -3.11338        1.45548
| 19> *
| 20> %MaxCore 64000
| 21> %pal nprocs 8
| 22> end
| 23> %scf
| 24>   MaxIter 150
| 25> end
| 26>
| 27>
| 28>                          ****END OF INPUT****

CARTESIAN COORDINATES (ANGSTROEM)
---------------------------------
  C      3.913850   -1.658290    3.015130
  N      5.039270   -0.901150    2.492820
  C      6.210380   -1.417260    2.178240
  N      6.535910   -2.677120    2.556080
  N      7.076750   -0.700820    1.478910
  H      7.954640   -1.121550    1.207550
  H      6.756160    0.106640    0.960280
  H      4.842170    0.017610    2.115190
  H      5.993880   -3.126920    3.282780
  C      3.139160   -2.376570    1.910610
  H      3.267230   -0.939400    3.520690
  H      4.247200   -2.355090    3.790060
  H      7.498440   -2.975480    2.468780
  H      2.829690   -1.666540    1.172380
  H      2.277900   -2.852640    2.330720
  H      3.767540   -3.113380    1.455480

 Total Charge           Charge          ....    1
 Multiplicity           Mult            ....    1
 Number of Electrons    NEL             ....   48
 Basis Dimension        Dim             ....  246

ORBITAL ENERGIES
----------------

  NO   OCC          E(Eh)            E(eV)
   0   2.0000     -14.324016      -389.7763
   1   2.0000     -14.323501      -389.7623
   2   2.0000     -14.321329      -389.7032
   3   2.0000     -10.307350      -280.4773
   4   2.0000     -10.193819      -277.3879
   5   2.0000     -10.121226      -275.4126
   6   2.0000      -1.148038       -31.2397
   7   2.0000      -1.045594       -28.4521
   8   2.0000      -1.030698       -28.0467
   9   2.0000      -0.875837       -23.8327
  10   2.0000      -0.791701       -21.5433
  11   2.0000      -0.753328       -20.4991
  12   2.0000      -0.737171       -20.0594
  13   2.0000      -0.697972       -18.9928
  14   2.0000      -0.647449       -17.6180
  15   2.0000      -0.643408       -17.5080
  16   2.0000      -0.610094       -16.6015
  17   2.0000      -0.585081       -15.9209
  18   2.0000      -0.562621       -15.3097
  19   2.0000      -0.521515       -14.1911
  20   2.0000      -0.495884       -13.4937
  21   2.0000      -0.478390       -13.0177
  22   2.0000      -0.438484       -11.9318
  23   2.0000      -0.413850       -11.2614
  24   0.0000      -0.192437        -5.2365
  25   0.0000      -0.166666        -4.5352
  26   0.0000      -0.134587        -3.6623
  27   0.0000      -0.124684        -3.3928
  28   0.0000      -0.106268        -2.8917

MULLIKEN ATOMIC CHARGES
-----------------------
   0 C :   -0.152089
   1 N :   -0.230345
   2 C :    0.393096
   3 N :   -0.404653
   4 N :   -0.385973
   5 H :    0.285403
   6 H :    0.285587
   7 H :    0.253892
   8 H :    0.280220
   9 C :   -0.307413
  10 H :    0.162151
  11 H :    0.120960
  12 H :    0.277109
  13 H :    0.129723
  14 H :    0.160404
  15 H :    0.131929
Sum of atomic charges:    1.0000000

LOEWDIN ATOMIC CHARGES
----------------------
   0 C :   -0.276787
   1 N :    0.180832
   2 C :   -0.415678
   3 N :    0.057439
   4 N :    0.074585
   5 H :    0.197313
   6 H :    0.197484
   7 H :    0.210375
   8 H :    0.191379
   9 C :   -0.274283
  10 H :    0.149774
  11 H :    0.135319
  12 H :    0.193782
  13 H :    0.123555
  14 H :    0.134138
  15 H :    0.120774

  Mayer bond orders larger than 0.100000
B(  0-C ,  1-N ) :   0.9146 B(  0-C ,  9-C ) :   1.0219 B(  0-C , 10-H ) :   0.9431
B(  0-C , 11-H ) :   0.9515 B(  1-N ,  2-C ) :   1.4075 B(  1-N ,  7-H ) :   0.8950
B(  2-C ,  3-N ) :   1.3233 B(  2-C ,  4-N ) :   1.3504 B(  3-N ,  8-H ) :   0.8840
B(  3-N , 12-H ) :   0.8929 B(  4-N ,  5-H ) :   0.8899 B(  4-N ,  6-H ) :   0.8894
B(  9-C , 13-H ) :   0.9602 B(  9-C , 14-H ) :   0.9566 B(  9-C , 15-H ) :   0.9598

Dispersion correction           -0.015272354
FINAL SINGLE POINT ENERGY      -284.558899374928

DIPOLE MOMENT
-------------
                                X             Y             Z
Electronic contribution:      4.70244       1.90996       0.06783
Nuclear contribution   :     -3.67981      -1.62355      -0.28562
                        -----------------------------------------
Total Dipole Moment    :      1.02263       0.28641      -0.21779
                        -----------------------------------------
Magnitude (a.u.)       :      1.08408
Magnitude (Debye)      :      2.75552

Rotational constants in cm-1:     0.222027     0.074735     0.065694
Rotational constants in MHz :  6656.200457  2240.503315  1969.451902

                             ****ORCA TERMINATED NORMALLY****
TOTAL RUN TIME: 0 days 0 hours 0 minutes 8 seconds 239 msec
