                         Program Version 5.0.0 -  RELEASE  -
|  1> !TPSS D3BJ RIJCOSX def2-TZVP def2/J TightSCF xyzfile
|  2>
|  3> *xyzfile 0 1 B.xyz
|  4>
|  5> %MaxCore 64000
|  6>
|  7> %pal nprocs 18
|  8> end
|  9>
| 10> %scf
| 11>   MaxIter 150
| 12> end
| 13>
| 14>
| 15>                          ****END OF INPUT****

CARTESIAN COORDINATES (ANGSTROEM)
---------------------------------
  C      3.913853   -1.658291    3.015134
  N      5.039266   -0.901154    2.492821
  C      4.084215    1.742081   -2.114724
  C      4.265245    2.500518   -0.795890
  H      4.868534    3.392674   -0.981134
  H      3.307640    2.824571   -0.387809
  C      4.982240    1.650257    0.247422
  C      6.210384   -1.417261    2.178244
  N      6.535913   -2.677122    2.556078
  N      7.076754   -0.700820    1.478906
  H      7.954643   -1.121554    1.207554
  H      6.756161    0.106637    0.960278
  H      4.842168    0.017609    2.115191
  H      5.993876   -3.126918    3.282784
  H      7.498441   -2.975482    2.468776
  O      4.368065    1.389270    1.313706
  O      6.128919    1.233512   -0.045620
  C      3.139159   -2.376572    1.910609
  H      3.267235   -0.939401    3.520693
  H      4.247195   -2.355095    3.790065
  C      1.997274    0.430918   -1.399218
  C      3.412746    0.376886   -1.965497
  H      4.047407   -0.246590   -1.326706
  H      3.390774   -0.118719   -2.942839
  H      5.068475    1.598504   -2.565728
  H      3.503356    2.363939   -2.804565
  C      2.399946   -1.389579    1.009490
  H      2.440750   -3.087118    2.362976
  H      3.844475   -2.970462    1.318677
  C      2.070177   -1.936705   -0.372401
  H      1.481611   -1.061542    1.509912
  H      3.008628   -0.490001    0.897451
  C      1.322238   -0.935775   -1.256413
  H      1.472747   -2.850902   -0.283997
  H      3.003539   -2.234041   -0.862535
  H      1.376444    1.058920   -2.047420
  H      2.015341    0.929780   -0.426535
  H      0.316648   -0.787213   -0.848278
  H      1.185611   -1.379252   -2.248613

 Total Charge           Charge          ....    0
 Multiplicity           Mult            ....    1
 Number of Electrons    NEL             ....  126
 Basis Dimension        Dim             ....  634

ORBITAL ENERGIES
----------------

  NO   OCC          E(Eh)            E(eV)
   0   2.0000     -18.800762      -511.5948
   1   2.0000     -18.799499      -511.5604
   2   2.0000     -14.164527      -385.4364
   3   2.0000     -14.129467      -384.4823
   4   2.0000     -14.125070      -384.3627
   5   2.0000     -10.130366      -275.6613
   6   2.0000     -10.041695      -273.2484
   7   2.0000     -10.031290      -272.9653
   8   2.0000      -9.991954      -271.8949
   9   2.0000      -9.970142      -271.3014
  10   2.0000      -9.969891      -271.2945
  11   2.0000      -9.965781      -271.1827
  12   2.0000      -9.956782      -270.9378
  13   2.0000      -9.954969      -270.8885
  14   2.0000      -9.953890      -270.8591
  15   2.0000      -9.944680      -270.6085
  16   2.0000      -0.972112       -26.4525
  17   2.0000      -0.935311       -25.4511
  18   2.0000      -0.871499       -23.7147
  19   2.0000      -0.857863       -23.3436
  20   2.0000      -0.843893       -22.9635
  21   2.0000      -0.751838       -20.4586
  22   2.0000      -0.727938       -19.8082
  23   2.0000      -0.700232       -19.0543
  24   2.0000      -0.662851       -18.0371
  25   2.0000      -0.626667       -17.0525
  26   2.0000      -0.610442       -16.6110
  27   2.0000      -0.581176       -15.8146
  28   2.0000      -0.565208       -15.3801
  29   2.0000      -0.553953       -15.0738
  30   2.0000      -0.526730       -14.3331
  31   2.0000      -0.522485       -14.2176
  32   2.0000      -0.492352       -13.3976
  33   2.0000      -0.478746       -13.0274
  34   2.0000      -0.471284       -12.8243
  35   2.0000      -0.452072       -12.3015
  36   2.0000      -0.425420       -11.5763
  37   2.0000      -0.419564       -11.4169
  38   2.0000      -0.414597       -11.2818
  39   2.0000      -0.410634       -11.1739
  40   2.0000      -0.397076       -10.8050
  41   2.0000      -0.380690       -10.3591
  42   2.0000      -0.375701       -10.2233
  43   2.0000      -0.373881       -10.1738
  44   2.0000      -0.366942        -9.9850
  45   2.0000      -0.351234        -9.5576
  46   2.0000      -0.338573        -9.2130
  47   2.0000      -0.329006        -8.9527
  48   2.0000      -0.325656        -8.8615
  49   2.0000      -0.314953        -8.5703
  50   2.0000      -0.308624        -8.3981
  51   2.0000      -0.301935        -8.2161
  52   2.0000      -0.289791        -7.8856
  53   2.0000      -0.283082        -7.7031
  54   2.0000      -0.275563        -7.4985
  55   2.0000      -0.270284        -7.3548
  56   2.0000      -0.263928        -7.1818
  57   2.0000      -0.258143        -7.0244
  58   2.0000      -0.252482        -6.8704
  59   2.0000      -0.238452        -6.4886
  60   2.0000      -0.193382        -5.2622
  61   2.0000      -0.180194        -4.9033
  62   2.0000      -0.170497        -4.6395
  63   0.0000      -0.023833        -0.6485
  64   0.0000      -0.019312        -0.5255
  65   0.0000       0.009030         0.2457
  66   0.0000       0.033100         0.9007
  67   0.0000       0.040143         1.0923

MULLIKEN ATOMIC CHARGES
-----------------------
   0 C :   -0.118664
   1 N :   -0.211400
   2 C :   -0.103754
   3 C :   -0.129542
   4 H :    0.079193
   5 H :    0.090383
   6 C :    0.295548
   7 C :    0.353653
   8 N :   -0.450000
   9 N :   -0.366613
  10 H :    0.226418
  11 H :    0.267598
  12 H :    0.251647
  13 H :    0.254005
  14 H :    0.245245
  15 O :   -0.524959
  16 O :   -0.516482
  17 C :   -0.088945
  18 H :    0.122078
  19 H :    0.090097
  20 C :   -0.245166
  21 C :   -0.205566
  22 H :    0.104760
  23 H :    0.063172
  24 H :    0.081891
  25 H :    0.065752
  26 C :   -0.301462
  27 H :    0.088164
  28 H :    0.084331
  29 C :   -0.173024
  30 H :    0.070568
  31 H :    0.161404
  32 C :   -0.079345
  33 H :    0.075581
  34 H :    0.092027
  35 H :    0.072835
  36 H :    0.131383
  37 H :    0.072834
  38 H :    0.074355
Sum of atomic charges:   -0.0000000

LOEWDIN ATOMIC CHARGES
----------------------
   0 C :   -0.269502
   1 N :    0.184386
   2 C :   -0.259858
   3 C :   -0.236266
   4 H :    0.138745
   5 H :    0.132299
   6 C :   -0.647941
   7 C :   -0.437451
   8 N :    0.011084
   9 N :    0.067489
  10 H :    0.171774
  11 H :    0.147547
  12 H :    0.168850
  13 H :    0.175222
  14 H :    0.175469
  15 O :   -0.043115
  16 O :   -0.030139
  17 C :   -0.261008
  18 H :    0.145585
  19 H :    0.119837
  20 C :   -0.265147
  21 C :   -0.263809
  22 H :    0.135978
  23 H :    0.129332
  24 H :    0.136137
  25 H :    0.128099
  26 C :   -0.263416
  27 H :    0.133218
  28 H :    0.135153
  29 C :   -0.268392
  30 H :    0.134206
  31 H :    0.144730
  32 C :   -0.262639
  33 H :    0.129129
  34 H :    0.131979
  35 H :    0.131323
  36 H :    0.138841
  37 H :    0.131278
  38 H :    0.130991

  Mayer bond orders larger than 0.100000
B(  0-C ,  1-N ) :   0.9749 B(  0-C , 17-C ) :   0.9896 B(  0-C , 18-H ) :   0.9454
B(  0-C , 19-H ) :   0.9624 B(  1-N ,  7-C ) :   1.4421 B(  1-N , 12-H ) :   0.7607
B(  2-C ,  3-C ) :   1.0069 B(  2-C , 21-C ) :   1.0352 B(  2-C , 24-H ) :   0.9353
B(  2-C , 25-H ) :   0.9393 B(  3-C ,  4-H ) :   0.9236 B(  3-C ,  5-H ) :   0.9645
B(  3-C ,  6-C ) :   0.9848 B(  6-C , 15-O ) :   1.6168 B(  6-C , 16-O ) :   1.6352
B(  7-C ,  8-N ) :   1.2266 B(  7-C ,  9-N ) :   1.4150 B(  8-N , 13-H ) :   0.8964
B(  8-N , 14-H ) :   0.9075 B(  9-N , 10-H ) :   0.9135 B(  9-N , 11-H ) :   0.7462
B( 11-H , 16-O ) :   0.2416 B( 12-H , 15-O ) :   0.2266 B( 17-C , 26-C ) :   1.0067
B( 17-C , 27-H ) :   0.9361 B( 17-C , 28-H ) :   0.9475 B( 20-C , 21-C ) :   1.0288
B( 20-C , 32-C ) :   1.0048 B( 20-C , 35-H ) :   0.9370 B( 20-C , 36-H ) :   0.9595
B( 21-C , 22-H ) :   0.9500 B( 21-C , 23-H ) :   0.9410 B( 26-C , 29-C ) :   1.0227
B( 26-C , 30-H ) :   0.9387 B( 26-C , 31-H ) :   0.9722 B( 29-C , 32-C ) :   1.0304
B( 29-C , 33-H ) :   0.9441 B( 29-C , 34-H ) :   0.9508 B( 32-C , 37-H ) :   0.9473
B( 32-C , 38-H ) :   0.9441

Dispersion correction           -0.055733777
FINAL SINGLE POINT ENERGY      -748.221682914474

DIPOLE MOMENT
-------------
                                X             Y             Z
Electronic contribution:     12.34574       3.33664       7.68368
Nuclear contribution   :    -11.44764      -6.21818      -6.18483
                        -----------------------------------------
Total Dipole Moment    :      0.89810      -2.88154       1.49885
                        -----------------------------------------
Magnitude (a.u.)       :      3.36993
Magnitude (Debye)      :      8.56567

Rotational constants in cm-1:     0.020281     0.013510     0.009451
Rotational constants in MHz :   608.005987   405.034308   283.324538

                             ****ORCA TERMINATED NORMALLY****
TOTAL RUN TIME: 0 days 0 hours 0 minutes 32 seconds 631 msec
