                         Program Version 5.0.0 -  RELEASE  -
|  1> !TPSS D3BJ RIJCOSX def2-TZVP def2/J TightSCF
|  2> *xyz 0 1
|  3> C          4.08422        1.74208       -2.11472
|  4> C          4.26524        2.50052       -0.79589
|  5> H          4.86853        3.39267       -0.98113
|  6> H          3.30764        2.82457       -0.38781
|  7> C          4.98224        1.65026        0.24742
|  8> F          4.36806        1.38927        1.31371
|  9> O          6.12892        1.23351       -0.04562
| 10> H          3.57911        2.36849       -2.81997
| 11> H          3.50424        0.85965       -1.94198
| 12> H          5.04288        1.46841       -2.50327
| 13> *
| 14> %MaxCore 64000
| 15> %pal nprocs 8
| 16> end
| 17> %scf
| 18>   MaxIter 150
| 19> end
| 20>
| 21>
| 22>                          ****END OF INPUT****

CARTESIAN COORDINATES (ANGSTROEM)
---------------------------------
  C      4.084220    1.742080   -2.114720
  C      4.265240    2.500520   -0.795890
  H      4.868530    3.392670   -0.981130
  H      3.307640    2.824570   -0.387810
  C      4.982240    1.650260    0.247420
  F      4.368060    1.389270    1.313710
  O      6.128920    1.233510   -0.045620
  H      3.579110    2.368490   -2.819970
  H      3.504240    0.859650   -1.941980
  H      5.042880    1.468410   -2.503270

 Total Charge           Charge          ....    0
 Multiplicity           Mult            ....    1
 Number of Electrons    NEL             ....   40
 Basis Dimension        Dim             ....  185

ORBITAL ENERGIES
----------------

  NO   OCC          E(Eh)            E(eV)
   0   2.0000     -24.474489      -665.9847
   1   2.0000     -18.883982      -513.8593
   2   2.0000     -10.148319      -276.1498
   3   2.0000     -10.015550      -272.5370
   4   2.0000      -9.990351      -271.8513
   5   2.0000      -1.234825       -33.6013
   6   2.0000      -0.961386       -26.1606
   7   2.0000      -0.743214       -20.2239
   8   2.0000      -0.633934       -17.2502
   9   2.0000      -0.582146       -15.8410
  10   2.0000      -0.491247       -13.3675
  11   2.0000      -0.477417       -12.9912
  12   2.0000      -0.456145       -12.4123
  13   2.0000      -0.422178       -11.4880
  14   2.0000      -0.389133       -10.5889
  15   2.0000      -0.357942        -9.7401
  16   2.0000      -0.339808        -9.2466
  17   2.0000      -0.333434        -9.0732
  18   2.0000      -0.306806        -8.3486
  19   2.0000      -0.246001        -6.6940
  20   0.0000      -0.059375        -1.6157
  21   0.0000       0.024979         0.6797
  22   0.0000       0.062636         1.7044
  23   0.0000       0.074953         2.0396
  24   0.0000       0.086451         2.3525

MULLIKEN ATOMIC CHARGES
-----------------------
   0 C :   -0.344843
   1 C :   -0.176439
   2 H :    0.119597
   3 H :    0.100538
   4 C :    0.312752
   5 F :   -0.077566
   6 O :   -0.308876
   7 H :    0.121169
   8 H :    0.114572
   9 H :    0.139096
Sum of atomic charges:   -0.0000000

LOEWDIN ATOMIC CHARGES
----------------------
   0 C :   -0.278481
   1 C :   -0.256466
   2 H :    0.152303
   3 H :    0.134542
   4 C :   -0.518167
   5 F :    0.330926
   6 O :    0.077731
   7 H :    0.116955
   8 H :    0.117319
   9 H :    0.123336

  Mayer bond orders larger than 0.100000
B(  0-C ,  1-C ) :   1.0064 B(  0-C ,  7-H ) :   0.9617 B(  0-C ,  8-H ) :   0.9710
B(  0-C ,  9-H ) :   0.9646 B(  1-C ,  2-H ) :   0.9301 B(  1-C ,  3-H ) :   0.9418
B(  1-C ,  4-C ) :   1.0139 B(  4-C ,  5-F ) :   1.1785 B(  4-C ,  6-O ) :   2.0528

Dispersion correction           -0.007654442
FINAL SINGLE POINT ENERGY      -292.558388420766

DIPOLE MOMENT
-------------
                                X             Y             Z
Electronic contribution:      1.95928      -2.07500       8.16095
Nuclear contribution   :     -2.87511       2.61564      -8.50037
                        -----------------------------------------
Total Dipole Moment    :     -0.91583       0.54064      -0.33942
                        -----------------------------------------
Magnitude (a.u.)       :      1.11635
Magnitude (Debye)      :      2.83753

Rotational constants in cm-1:     0.297822     0.128965     0.102219
Rotational constants in MHz :  8928.481997  3866.271686  3064.463504

                             ****ORCA TERMINATED NORMALLY****
TOTAL RUN TIME: 0 days 0 hours 0 minutes 5 seconds 337 msec
