                         Program Version 5.0.0 -  RELEASE  -
|  1> !TPSS D3BJ RIJCOSX def2-TZVP def2/J TightSCF
|  2> *xyz 0 1
|  3> C          3.91385       -1.65829        3.01513
|  4> C          5.03927       -0.90115        2.49282
|  5> C          6.21038       -1.41726        2.17824
|  6> N          6.53591       -2.67712        2.55608
|  7> N          7.07675       -0.70082        1.47891
|  8> H          7.95464       -1.12155        1.20755
|  9> H          6.75616        0.10664        0.96028
| 10> H          4.84217        0.01761        2.11519
| 11> H          5.99388       -3.12692        3.28278
| 12> C          3.13916       -2.37657        1.91061
| 13> H          3.26723       -0.93940        3.52069
| 14> H          4.24720       -2.35509        3.79006
| 15> H          7.49844       -2.97548        2.46878
| 16> H          2.82969       -1.66654        1.17238
| 17> H          2.27790       -2.85264        2.33072
| 18> H          3.76754       -3.11338        1.45548
| 19> *
| 20> %MaxCore 64000
| 21> %pal nprocs 8
| 22> end
| 23> %scf
| 24>   MaxIter 150
| 25> end
| 26>
| 27>
| 28>                          ****END OF INPUT****

CARTESIAN COORDINATES (ANGSTROEM)
---------------------------------
  C      3.913850   -1.658290    3.015130
  C      5.039270   -0.901150    2.492820
  C      6.210380   -1.417260    2.178240
  N      6.535910   -2.677120    2.556080
  N      7.076750   -0.700820    1.478910
  H      7.954640   -1.121550    1.207550
  H      6.756160    0.106640    0.960280
  H      4.842170    0.017610    2.115190
  H      5.993880   -3.126920    3.282780
  C      3.139160   -2.376570    1.910610
  H      3.267230   -0.939400    3.520690
  H      4.247200   -2.355090    3.790060
  H      7.498440   -2.975480    2.468780
  H      2.829690   -1.666540    1.172380
  H      2.277900   -2.852640    2.330720
  H      3.767540   -3.113380    1.455480

 Total Charge           Charge          ....    0
 Multiplicity           Mult            ....    1
 Number of Electrons    NEL             ....   48
 Basis Dimension        Dim             ....  246

ORBITAL ENERGIES
----------------

  NO   OCC          E(Eh)            E(eV)
   0   2.0000     -14.099628      -383.6704
   1   2.0000     -14.097992      -383.6259
   2   2.0000     -10.017371      -272.5865
   3   2.0000      -9.957915      -270.9686
   4   2.0000      -9.946396      -270.6552
   5   2.0000      -9.901664      -269.4380
   6   2.0000      -0.893088       -24.3022
   7   2.0000      -0.809520       -22.0282
   8   2.0000      -0.713774       -19.4228
   9   2.0000      -0.637599       -17.3500
  10   2.0000      -0.565426       -15.3860
  11   2.0000      -0.526835       -14.3359
  12   2.0000      -0.491936       -13.3863
  13   2.0000      -0.464219       -12.6321
  14   2.0000      -0.428950       -11.6723
  15   2.0000      -0.394731       -10.7412
  16   2.0000      -0.373927       -10.1751
  17   2.0000      -0.344830        -9.3833
  18   2.0000      -0.338437        -9.2093
  19   2.0000      -0.312032        -8.4908
  20   2.0000      -0.288530        -7.8513
  21   2.0000      -0.283072        -7.7028
  22   2.0000      -0.224060        -6.0970
  23   2.0000      -0.127959        -3.4819
  24   0.0000       0.008025         0.2184
  25   0.0000       0.039144         1.0652
  26   0.0000       0.045107         1.2274
  27   0.0000       0.065017         1.7692
  28   0.0000       0.071269         1.9393

MULLIKEN ATOMIC CHARGES
-----------------------
   0 C :   -0.150007
   1 C :   -0.332545
   2 C :    0.333114
   3 N :   -0.493195
   4 N :   -0.473400
   5 H :    0.217900
   6 H :    0.245569
   7 H :    0.069507
   8 H :    0.239761
   9 C :   -0.282110
  10 H :    0.078794
  11 H :    0.045517
  12 H :    0.213802
  13 H :    0.092026
  14 H :    0.090862
  15 H :    0.104405
Sum of atomic charges:    0.0000000

LOEWDIN ATOMIC CHARGES
----------------------
   0 C :   -0.302810
   1 C :   -0.276593
   2 C :   -0.460795
   3 N :   -0.022502
   4 N :   -0.007057
   5 H :    0.159671
   6 H :    0.176444
   7 H :    0.118400
   8 H :    0.170445
   9 C :   -0.295388
  10 H :    0.135317
  11 H :    0.120826
  12 H :    0.157590
  13 H :    0.110889
  14 H :    0.103994
  15 H :    0.111571

  Mayer bond orders larger than 0.100000
B(  0-C ,  1-C ) :   1.0873 B(  0-C ,  9-C ) :   0.9797 B(  0-C , 10-H ) :   0.9591
B(  0-C , 11-H ) :   0.9468 B(  1-C ,  2-C ) :   1.7077 B(  1-C ,  7-H ) :   0.9905
B(  2-C ,  3-N ) :   1.1322 B(  2-C ,  4-N ) :   1.1486 B(  3-N ,  8-H ) :   0.9112
B(  3-N , 12-H ) :   0.9199 B(  4-N ,  5-H ) :   0.9207 B(  4-N ,  6-H ) :   0.9124
B(  9-C , 13-H ) :   0.9732 B(  9-C , 14-H ) :   0.9623 B(  9-C , 15-H ) :   0.9743

Dispersion correction           -0.015890231
FINAL SINGLE POINT ENERGY      -268.067270411358

DIPOLE MOMENT
-------------
                                X             Y             Z
Electronic contribution:      4.70962       1.22239      -0.06271
Nuclear contribution   :     -3.74303      -1.46908      -0.23637
                        -----------------------------------------
Total Dipole Moment    :      0.96659      -0.24669      -0.29909
                        -----------------------------------------
Magnitude (a.u.)       :      1.04144
Magnitude (Debye)      :      2.64714

Rotational constants in cm-1:     0.225937     0.074877     0.065953
Rotational constants in MHz :  6773.424301  2244.750632  1977.214101

                             ****ORCA TERMINATED NORMALLY****
TOTAL RUN TIME: 0 days 0 hours 0 minutes 11 seconds 288 msec
