                         Program Version 5.0.0 -  RELEASE  -
|  1> !TPSS D3BJ RIJCOSX def2-TZVP def2/J TightSCF
|  2> *xyz 0 1
|  3> C          4.08422        1.74208       -2.11472
|  4> C          4.26524        2.50052       -0.79589
|  5> H          4.86853        3.39267       -0.98113
|  6> H          3.30764        2.82457       -0.38781
|  7> C          4.98224        1.65026        0.24742
|  8> O          4.36806        1.38927        1.31371
|  9> F          6.12892        1.23351       -0.04562
| 10> H          3.57911        2.36849       -2.81997
| 11> H          3.50424        0.85965       -1.94198
| 12> H          5.04288        1.46841       -2.50327
| 13> *
| 14> %MaxCore 64000
| 15> %pal nprocs 8
| 16> end
| 17> %scf
| 18>   MaxIter 150
| 19> end
| 20>
| 21>
| 22>                          ****END OF INPUT****

CARTESIAN COORDINATES (ANGSTROEM)
---------------------------------
  C      4.084220    1.742080   -2.114720
  C      4.265240    2.500520   -0.795890
  H      4.868530    3.392670   -0.981130
  H      3.307640    2.824570   -0.387810
  C      4.982240    1.650260    0.247420
  O      4.368060    1.389270    1.313710
  F      6.128920    1.233510   -0.045620
  H      3.579110    2.368490   -2.819970
  H      3.504240    0.859650   -1.941980
  H      5.042880    1.468410   -2.503270

 Total Charge           Charge          ....    0
 Multiplicity           Mult            ....    1
 Number of Electrons    NEL             ....   40
 Basis Dimension        Dim             ....  185

ORBITAL ENERGIES
----------------

  NO   OCC          E(Eh)            E(eV)
   0   2.0000     -24.475580      -666.0144
   1   2.0000     -18.883151      -513.8367
   2   2.0000     -10.147872      -276.1376
   3   2.0000     -10.015262      -272.5291
   4   2.0000      -9.994628      -271.9677
   5   2.0000      -1.237359       -33.6702
   6   2.0000      -0.958225       -26.0746
   7   2.0000      -0.746965       -20.3259
   8   2.0000      -0.631957       -17.1964
   9   2.0000      -0.587244       -15.9797
  10   2.0000      -0.494239       -13.4489
  11   2.0000      -0.481783       -13.1100
  12   2.0000      -0.451249       -12.2791
  13   2.0000      -0.421797       -11.4777
  14   2.0000      -0.391395       -10.6504
  15   2.0000      -0.360340        -9.8053
  16   2.0000      -0.342806        -9.3282
  17   2.0000      -0.336828        -9.1656
  18   2.0000      -0.309562        -8.4236
  19   2.0000      -0.241168        -6.5625
  20   0.0000      -0.056590        -1.5399
  21   0.0000       0.021166         0.5760
  22   0.0000       0.061890         1.6841
  23   0.0000       0.077572         2.1108
  24   0.0000       0.090855         2.4723

MULLIKEN ATOMIC CHARGES
-----------------------
   0 C :   -0.349671
   1 C :   -0.170686
   2 H :    0.105424
   3 H :    0.126758
   4 C :    0.304040
   5 O :   -0.308501
   6 F :   -0.078828
   7 H :    0.125313
   8 H :    0.125430
   9 H :    0.120722
Sum of atomic charges:    0.0000000

LOEWDIN ATOMIC CHARGES
----------------------
   0 C :   -0.284955
   1 C :   -0.251718
   2 H :    0.144559
   3 H :    0.148090
   4 C :   -0.521004
   5 O :    0.071799
   6 F :    0.337628
   7 H :    0.118582
   8 H :    0.119587
   9 H :    0.117432

  Mayer bond orders larger than 0.100000
B(  0-C ,  1-C ) :   0.9939 B(  0-C ,  7-H ) :   0.9617 B(  0-C ,  8-H ) :   0.9698
B(  0-C ,  9-H ) :   0.9674 B(  1-C ,  2-H ) :   0.9244 B(  1-C ,  3-H ) :   0.9494
B(  1-C ,  4-C ) :   1.0320 B(  4-C ,  5-O ) :   2.0673 B(  4-C ,  6-F ) :   1.1687

Dispersion correction           -0.007609457
FINAL SINGLE POINT ENERGY      -292.557591154993

DIPOLE MOMENT
-------------
                                X             Y             Z
Electronic contribution:      4.84957      -2.31932       5.89927
Nuclear contribution   :     -4.79499       2.78546      -7.01827
                        -----------------------------------------
Total Dipole Moment    :      0.05458       0.46614      -1.11900
                        -----------------------------------------
Magnitude (a.u.)       :      1.21344
Magnitude (Debye)      :      3.08432

Rotational constants in cm-1:     0.286098     0.133492     0.103343
Rotational constants in MHz :  8577.003657  4001.981591  3098.148068

                             ****ORCA TERMINATED NORMALLY****
TOTAL RUN TIME: 0 days 0 hours 0 minutes 5 seconds 502 msec
