                         Program Version 5.0.0 -  RELEASE  -
|  1> !TPSS D3BJ RIJCOSX def2-TZVP def2/J TightSCF
|  2> *xyz 0 1
|  3> C          3.91385       -1.65829        3.01513
|  4> N          5.03927       -0.90115        2.49282
|  5> C          6.21038       -1.41726        2.17824
|  6> C          6.53591       -2.67712        2.55608
|  7> N          7.07675       -0.70082        1.47891
|  8> H          7.95464       -1.12155        1.20755
|  9> H          6.75616        0.10664        0.96028
| 10> H          4.84217        0.01761        2.11519
| 11> H          5.99388       -3.12692        3.28278
| 12> C          3.13916       -2.37657        1.91061
| 13> H          3.26723       -0.93940        3.52069
| 14> H          4.24720       -2.35509        3.79006
| 15> H          7.49844       -2.97548        2.46878
| 16> H          2.82969       -1.66654        1.17238
| 17> H          2.27790       -2.85264        2.33072
| 18> H          3.76754       -3.11338        1.45548
| 19> *
| 20> %MaxCore 64000
| 21> %pal nprocs 8
| 22> end
| 23> %scf
| 24>   MaxIter 150
| 25> end
| 26>
| 27>
| 28>                          ****END OF INPUT****

CARTESIAN COORDINATES (ANGSTROEM)
---------------------------------
  C      3.913850   -1.658290    3.015130
  N      5.039270   -0.901150    2.492820
  C      6.210380   -1.417260    2.178240
  C      6.535910   -2.677120    2.556080
  N      7.076750   -0.700820    1.478910
  H      7.954640   -1.121550    1.207550
  H      6.756160    0.106640    0.960280
  H      4.842170    0.017610    2.115190
  H      5.993880   -3.126920    3.282780
  C      3.139160   -2.376570    1.910610
  H      3.267230   -0.939400    3.520690
  H      4.247200   -2.355090    3.790060
  H      7.498440   -2.975480    2.468780
  H      2.829690   -1.666540    1.172380
  H      2.277900   -2.852640    2.330720
  H      3.767540   -3.113380    1.455480

 Total Charge           Charge          ....    0
 Multiplicity           Mult            ....    1
 Number of Electrons    NEL             ....   48
 Basis Dimension        Dim             ....  246

ORBITAL ENERGIES
----------------

  NO   OCC          E(Eh)            E(eV)
   0   2.0000     -14.103051      -383.7635
   1   2.0000     -14.101029      -383.7085
   2   2.0000     -10.022619      -272.7293
   3   2.0000     -10.017410      -272.5876
   4   2.0000      -9.965605      -271.1779
   5   2.0000      -9.893758      -269.2228
   6   2.0000      -0.905905       -24.6509
   7   2.0000      -0.827702       -22.5229
   8   2.0000      -0.697947       -18.9921
   9   2.0000      -0.648829       -17.6555
  10   2.0000      -0.590605       -16.0712
  11   2.0000      -0.517132       -14.0719
  12   2.0000      -0.502167       -13.6647
  13   2.0000      -0.475816       -12.9476
  14   2.0000      -0.422430       -11.4949
  15   2.0000      -0.398261       -10.8372
  16   2.0000      -0.373315       -10.1584
  17   2.0000      -0.355694        -9.6789
  18   2.0000      -0.339951        -9.2505
  19   2.0000      -0.327816        -8.9203
  20   2.0000      -0.320179        -8.7125
  21   2.0000      -0.309413        -8.4196
  22   2.0000      -0.211729        -5.7615
  23   2.0000      -0.131667        -3.5828
  24   0.0000       0.007894         0.2148
  25   0.0000       0.038555         1.0491
  26   0.0000       0.048683         1.3247
  27   0.0000       0.059256         1.6124
  28   0.0000       0.076304         2.0763

MULLIKEN ATOMIC CHARGES
-----------------------
   0 C :   -0.087017
   1 N :   -0.301226
   2 C :    0.320261
   3 C :   -0.518124
   4 N :   -0.470160
   5 H :    0.249533
   6 H :    0.214667
   7 H :    0.189144
   8 H :    0.089134
   9 C :   -0.301629
  10 H :    0.098065
  11 H :    0.106722
  12 H :    0.079448
  13 H :    0.084996
  14 H :    0.103990
  15 H :    0.142196
Sum of atomic charges:   -0.0000000

LOEWDIN ATOMIC CHARGES
----------------------
   0 C :   -0.292913
   1 N :    0.125840
   2 C :   -0.474110
   3 C :   -0.357334
   4 N :   -0.002998
   5 H :    0.178240
   6 H :    0.157956
   7 H :    0.176364
   8 H :    0.093674
   9 C :   -0.297805
  10 H :    0.126065
  11 H :    0.133154
  12 H :    0.091280
  13 H :    0.108559
  14 H :    0.112863
  15 H :    0.121164

  Mayer bond orders larger than 0.100000
B(  0-C ,  1-N ) :   0.9731 B(  0-C ,  9-C ) :   1.0147 B(  0-C , 10-H ) :   0.9602
B(  0-C , 11-H ) :   0.9464 B(  1-N ,  2-C ) :   1.2148 B(  1-N ,  7-H ) :   0.9215
B(  2-C ,  3-C ) :   1.6541 B(  2-C ,  4-N ) :   1.1641 B(  3-C ,  8-H ) :   0.9931
B(  3-C , 12-H ) :   0.9814 B(  4-N ,  5-H ) :   0.9138 B(  4-N ,  6-H ) :   0.9142
B(  9-C , 13-H ) :   0.9671 B(  9-C , 14-H ) :   0.9609 B(  9-C , 15-H ) :   0.9671

Dispersion correction           -0.015843126
FINAL SINGLE POINT ENERGY      -268.060843600207

DIPOLE MOMENT
-------------
                                X             Y             Z
Electronic contribution:      3.08147       2.86268      -0.23095
Nuclear contribution   :     -3.42552      -1.84584      -0.22295
                        -----------------------------------------
Total Dipole Moment    :     -0.34406       1.01684      -0.45390
                        -----------------------------------------
Magnitude (a.u.)       :      1.16549
Magnitude (Debye)      :      2.96244

Rotational constants in cm-1:     0.233526     0.075277     0.067092
Rotational constants in MHz :  7000.931279  2256.752901  2011.361214

                             ****ORCA TERMINATED NORMALLY****
TOTAL RUN TIME: 0 days 0 hours 0 minutes 10 seconds 194 msec
