                         Program Version 5.0.0 -  RELEASE  -
|  1> !TPSS D3BJ RIJCOSX def2-TZVP def2/J TightSCF
|  2> *xyz 0 1
|  3> C          3.91385       -1.65829        3.01513
|  4> N          5.03927       -0.90115        2.49282
|  5> C          6.21038       -1.41726        2.17824
|  6> N          6.53591       -2.67712        2.55608
|  7> C          7.07675       -0.70082        1.47891
|  8> H          7.95464       -1.12155        1.20755
|  9> H          6.75616        0.10664        0.96028
| 10> H          4.84217        0.01761        2.11519
| 11> H          5.99388       -3.12692        3.28278
| 12> C          3.13916       -2.37657        1.91061
| 13> H          3.26723       -0.93940        3.52069
| 14> H          4.24720       -2.35509        3.79006
| 15> H          7.49844       -2.97548        2.46878
| 16> H          2.82969       -1.66654        1.17238
| 17> H          2.27790       -2.85264        2.33072
| 18> H          3.76754       -3.11338        1.45548
| 19> *
| 20> %MaxCore 64000
| 21> %pal nprocs 8
| 22> end
| 23> %scf
| 24>   MaxIter 150
| 25> end
| 26>
| 27>
| 28>                          ****END OF INPUT****

CARTESIAN COORDINATES (ANGSTROEM)
---------------------------------
  C      3.913850   -1.658290    3.015130
  N      5.039270   -0.901150    2.492820
  C      6.210380   -1.417260    2.178240
  N      6.535910   -2.677120    2.556080
  C      7.076750   -0.700820    1.478910
  H      7.954640   -1.121550    1.207550
  H      6.756160    0.106640    0.960280
  H      4.842170    0.017610    2.115190
  H      5.993880   -3.126920    3.282780
  C      3.139160   -2.376570    1.910610
  H      3.267230   -0.939400    3.520690
  H      4.247200   -2.355090    3.790060
  H      7.498440   -2.975480    2.468780
  H      2.829690   -1.666540    1.172380
  H      2.277900   -2.852640    2.330720
  H      3.767540   -3.113380    1.455480

 Total Charge           Charge          ....    0
 Multiplicity           Mult            ....    1
 Number of Electrons    NEL             ....   48
 Basis Dimension        Dim             ....  246

ORBITAL ENERGIES
----------------

  NO   OCC          E(Eh)            E(eV)
   0   2.0000     -14.100093      -383.6830
   1   2.0000     -14.099239      -383.6598
   2   2.0000     -10.025504      -272.8078
   3   2.0000     -10.020285      -272.6658
   4   2.0000      -9.973204      -271.3847
   5   2.0000      -9.892733      -269.1949
   6   2.0000      -0.901347       -24.5269
   7   2.0000      -0.821235       -22.3469
   8   2.0000      -0.713967       -19.4280
   9   2.0000      -0.646688       -17.5973
  10   2.0000      -0.579809       -15.7774
  11   2.0000      -0.550498       -14.9798
  12   2.0000      -0.488034       -13.2801
  13   2.0000      -0.452704       -12.3187
  14   2.0000      -0.434808       -11.8317
  15   2.0000      -0.399482       -10.8704
  16   2.0000      -0.387256       -10.5378
  17   2.0000      -0.362674        -9.8689
  18   2.0000      -0.341079        -9.2812
  19   2.0000      -0.331827        -9.0295
  20   2.0000      -0.322527        -8.7764
  21   2.0000      -0.316282        -8.6065
  22   2.0000      -0.214763        -5.8440
  23   2.0000      -0.131169        -3.5693
  24   0.0000       0.010308         0.2805
  25   0.0000       0.034558         0.9404
  26   0.0000       0.044899         1.2218
  27   0.0000       0.059461         1.6180
  28   0.0000       0.070560         1.9200

MULLIKEN ATOMIC CHARGES
-----------------------
   0 C :   -0.126562
   1 N :   -0.290934
   2 C :    0.344175
   3 N :   -0.493183
   4 C :   -0.507194
   5 H :    0.081193
   6 H :    0.086885
   7 H :    0.217675
   8 H :    0.217211
   9 C :   -0.279112
  10 H :    0.105989
  11 H :    0.083665
  12 H :    0.240881
  13 H :    0.097957
  14 H :    0.100944
  15 H :    0.120409
Sum of atomic charges:   -0.0000000

LOEWDIN ATOMIC CHARGES
----------------------
   0 C :   -0.310802
   1 N :    0.129129
   2 C :   -0.465149
   3 N :   -0.019054
   4 C :   -0.340145
   5 H :    0.094472
   6 H :    0.094733
   7 H :    0.193975
   8 H :    0.155757
   9 C :   -0.298613
  10 H :    0.128637
  11 H :    0.121607
  12 H :    0.174654
  13 H :    0.112817
  14 H :    0.111651
  15 H :    0.116332

  Mayer bond orders larger than 0.100000
B(  0-C ,  1-N ) :   0.9974 B(  0-C ,  9-C ) :   0.9976 B(  0-C , 10-H ) :   0.9619
B(  0-C , 11-H ) :   0.9588 B(  1-N ,  2-C ) :   1.2246 B(  1-N ,  7-H ) :   0.9160
B(  2-C ,  3-N ) :   1.1343 B(  2-C ,  4-C ) :   1.6697 B(  3-N ,  8-H ) :   0.9132
B(  3-N , 12-H ) :   0.9160 B(  4-C ,  5-H ) :   0.9921 B(  4-C ,  6-H ) :   0.9932
B(  9-C , 13-H ) :   0.9660 B(  9-C , 14-H ) :   0.9577 B(  9-C , 15-H ) :   0.9688

Dispersion correction           -0.015749999
FINAL SINGLE POINT ENERGY      -268.061103766632

DIPOLE MOMENT
-------------
                                X             Y             Z
Electronic contribution:      2.54196       0.91373       0.97128
Nuclear contribution   :     -3.31079      -1.42658      -0.45147
                        -----------------------------------------
Total Dipole Moment    :     -0.76883      -0.51285       0.51981
                        -----------------------------------------
Magnitude (a.u.)       :      1.06034
Magnitude (Debye)      :      2.69516

Rotational constants in cm-1:     0.225507     0.077571     0.068070
Rotational constants in MHz :  6760.542142  2325.533779  2040.680522

                             ****ORCA TERMINATED NORMALLY****
TOTAL RUN TIME: 0 days 0 hours 0 minutes 10 seconds 645 msec
