                         Program Version 5.0.0 -  RELEASE  -
|  1> !TPSS D3BJ RIJCOSX def2-TZVP def2/J TightSCF xyzfile
|  2>
|  3> *xyzfile 0 1 D1.xyz
|  4>
|  5> %MaxCore 64000
|  6>
|  7> %pal nprocs 18
|  8> end
|  9>
| 10> %scf
| 11>   MaxIter 150
| 12> end
| 13>
| 14>
| 15>                          ****END OF INPUT****

CARTESIAN COORDINATES (ANGSTROEM)
---------------------------------
  C      3.913853   -1.658291    3.015134
  C      5.039266   -0.901154    2.492821
  C      4.084215    1.742081   -2.114724
  C      4.265245    2.500518   -0.795890
  H      4.868534    3.392674   -0.981134
  H      3.307640    2.824571   -0.387809
  C      4.982240    1.650257    0.247422
  C      6.210384   -1.417261    2.178244
  N      6.535913   -2.677122    2.556078
  N      7.076754   -0.700820    1.478906
  H      7.954643   -1.121554    1.207554
  H      6.756161    0.106637    0.960278
  H      4.842168    0.017609    2.115191
  H      5.993876   -3.126918    3.282784
  H      7.498441   -2.975482    2.468776
  F      4.368065    1.389270    1.313706
  O      6.128919    1.233512   -0.045620
  C      3.139159   -2.376572    1.910609
  H      3.267235   -0.939401    3.520693
  H      4.247195   -2.355095    3.790065
  C      1.997274    0.430918   -1.399218
  C      3.412746    0.376886   -1.965497
  H      4.047407   -0.246590   -1.326706
  H      3.390774   -0.118719   -2.942839
  H      5.068475    1.598504   -2.565728
  H      3.503356    2.363939   -2.804565
  C      2.399946   -1.389579    1.009490
  H      2.440750   -3.087118    2.362976
  H      3.844475   -2.970462    1.318677
  C      2.070177   -1.936705   -0.372401
  H      1.481611   -1.061542    1.509912
  H      3.008628   -0.490001    0.897451
  C      1.322238   -0.935775   -1.256413
  H      1.472747   -2.850902   -0.283997
  H      3.003539   -2.234041   -0.862535
  H      1.376444    1.058920   -2.047420
  H      2.015341    0.929780   -0.426535
  H      0.316648   -0.787213   -0.848278
  H      1.185611   -1.379252   -2.248613

 Total Charge           Charge          ....    0
 Multiplicity           Mult            ....    1
 Number of Electrons    NEL             ....  126
 Basis Dimension        Dim             ....  634

ORBITAL ENERGIES
----------------

  NO   OCC          E(Eh)            E(eV)
   0   2.0000     -24.488876      -666.3762
   1   2.0000     -18.907593      -514.5018
   2   2.0000     -14.083843      -383.2408
   3   2.0000     -14.059539      -382.5795
   4   2.0000     -10.169205      -276.7181
   5   2.0000     -10.021561      -272.7005
   6   2.0000     -10.002698      -272.1873
   7   2.0000      -9.998898      -272.0838
   8   2.0000      -9.986901      -271.7574
   9   2.0000      -9.981742      -271.6170
  10   2.0000      -9.975548      -271.4485
  11   2.0000      -9.967770      -271.2368
  12   2.0000      -9.961087      -271.0550
  13   2.0000      -9.952231      -270.8140
  14   2.0000      -9.947672      -270.6899
  15   2.0000      -9.878751      -268.8145
  16   2.0000      -1.253609       -34.1124
  17   2.0000      -0.989698       -26.9311
  18   2.0000      -0.870839       -23.6967
  19   2.0000      -0.786636       -21.4055
  20   2.0000      -0.771955       -21.0060
  21   2.0000      -0.743452       -20.2304
  22   2.0000      -0.715878       -19.4800
  23   2.0000      -0.688314       -18.7300
  24   2.0000      -0.652626       -17.7589
  25   2.0000      -0.630461       -17.1557
  26   2.0000      -0.605732       -16.4828
  27   2.0000      -0.583461       -15.8768
  28   2.0000      -0.553633       -15.0651
  29   2.0000      -0.536290       -14.5932
  30   2.0000      -0.513227       -13.9656
  31   2.0000      -0.509548       -13.8655
  32   2.0000      -0.502326       -13.6690
  33   2.0000      -0.498830       -13.5738
  34   2.0000      -0.477858       -13.0032
  35   2.0000      -0.467272       -12.7151
  36   2.0000      -0.442661       -12.0454
  37   2.0000      -0.435343       -11.8463
  38   2.0000      -0.433335       -11.7916
  39   2.0000      -0.415636       -11.3100
  40   2.0000      -0.403607       -10.9827
  41   2.0000      -0.392942       -10.6925
  42   2.0000      -0.384171       -10.4538
  43   2.0000      -0.375649       -10.2219
  44   2.0000      -0.370301       -10.0764
  45   2.0000      -0.366040        -9.9605
  46   2.0000      -0.351013        -9.5515
  47   2.0000      -0.345878        -9.4118
  48   2.0000      -0.330471        -8.9926
  49   2.0000      -0.326335        -8.8800
  50   2.0000      -0.321111        -8.7379
  51   2.0000      -0.318713        -8.6726
  52   2.0000      -0.309828        -8.4308
  53   2.0000      -0.300943        -8.1891
  54   2.0000      -0.298362        -8.1188
  55   2.0000      -0.283213        -7.7066
  56   2.0000      -0.276384        -7.5208
  57   2.0000      -0.268837        -7.3154
  58   2.0000      -0.264857        -7.2071
  59   2.0000      -0.262700        -7.1484
  60   2.0000      -0.255056        -6.9404
  61   2.0000      -0.201922        -5.4946
  62   2.0000      -0.111395        -3.0312
  63   0.0000      -0.078891        -2.1467
  64   0.0000       0.017863         0.4861
  65   0.0000       0.026744         0.7277
  66   0.0000       0.037321         1.0156
  67   0.0000       0.039314         1.0698

MULLIKEN ATOMIC CHARGES
-----------------------
   0 C :   -0.150396
   1 C :   -0.444497
   2 C :   -0.114537
   3 C :   -0.177187
   4 H :    0.128273
   5 H :    0.123872
   6 C :    0.341686
   7 C :    0.327444
   8 N :   -0.493180
   9 N :   -0.463236
  10 H :    0.198411
  11 H :    0.243103
  12 H :    0.133329
  13 H :    0.233917
  14 H :    0.210279
  15 F :   -0.070122
  16 O :   -0.345535
  17 C :   -0.028019
  18 H :    0.057454
  19 H :    0.057185
  20 C :   -0.238982
  21 C :   -0.257743
  22 H :    0.142551
  23 H :    0.085018
  24 H :    0.109293
  25 H :    0.092417
  26 C :   -0.242932
  27 H :    0.055994
  28 H :    0.075096
  29 C :   -0.180702
  30 H :    0.068374
  31 H :    0.078463
  32 C :   -0.080762
  33 H :    0.081589
  34 H :    0.096854
  35 H :    0.081869
  36 H :    0.108987
  37 H :    0.077859
  38 H :    0.078513
Sum of atomic charges:    0.0000000

LOEWDIN ATOMIC CHARGES
----------------------
   0 C :   -0.285009
   1 C :   -0.291347
   2 C :   -0.248613
   3 C :   -0.224523
   4 H :    0.156665
   5 H :    0.140914
   6 C :   -0.493997
   7 C :   -0.464958
   8 N :   -0.025852
   9 N :   -0.006605
  10 H :    0.152788
  11 H :    0.141890
  12 H :    0.111626
  13 H :    0.167142
  14 H :    0.155377
  15 F :    0.359761
  16 O :    0.101454
  17 C :   -0.254250
  18 H :    0.137107
  19 H :    0.122186
  20 C :   -0.267575
  21 C :   -0.262118
  22 H :    0.141640
  23 H :    0.137553
  24 H :    0.142622
  25 H :    0.138246
  26 C :   -0.264445
  27 H :    0.121179
  28 H :    0.135074
  29 C :   -0.267249
  30 H :    0.130507
  31 H :    0.130573
  32 C :   -0.261885
  33 H :    0.132672
  34 H :    0.132676
  35 H :    0.132685
  36 H :    0.130955
  37 H :    0.133363
  38 H :    0.131772

  Mayer bond orders larger than 0.100000
B(  0-C ,  1-C ) :   1.0819 B(  0-C , 17-C ) :   0.9698 B(  0-C , 18-H ) :   0.9440
B(  0-C , 19-H ) :   0.9529 B(  1-C ,  7-C ) :   1.6506 B(  1-C , 12-H ) :   1.0061
B(  2-C ,  3-C ) :   0.9986 B(  2-C , 21-C ) :   1.0219 B(  2-C , 24-H ) :   0.9405
B(  2-C , 25-H ) :   0.9395 B(  3-C ,  4-H ) :   0.9205 B(  3-C ,  5-H ) :   0.9542
B(  3-C ,  6-C ) :   1.0122 B(  6-C , 15-F ) :   1.1569 B(  6-C , 16-O ) :   1.8953
B(  7-C ,  8-N ) :   1.1267 B(  7-C ,  9-N ) :   1.2045 B(  8-N , 13-H ) :   0.9106
B(  8-N , 14-H ) :   0.9208 B(  9-N , 10-H ) :   0.9262 B(  9-N , 11-H ) :   0.8461
B( 11-H , 16-O ) :   0.1342 B( 17-C , 26-C ) :   1.0613 B( 17-C , 27-H ) :   0.9281
B( 17-C , 28-H ) :   0.9449 B( 20-C , 21-C ) :   1.0199 B( 20-C , 32-C ) :   1.0170
B( 20-C , 35-H ) :   0.9374 B( 20-C , 36-H ) :   0.9572 B( 21-C , 22-H ) :   0.9521
B( 21-C , 23-H ) :   0.9416 B( 26-C , 29-C ) :   1.0301 B( 26-C , 30-H ) :   0.9362
B( 26-C , 31-H ) :   0.9640 B( 29-C , 32-C ) :   1.0173 B( 29-C , 33-H ) :   0.9438
B( 29-C , 34-H ) :   0.9572 B( 32-C , 37-H ) :   0.9461 B( 32-C , 38-H ) :   0.9460

Dispersion correction           -0.055555497
FINAL SINGLE POINT ENERGY      -756.092208349645

DIPOLE MOMENT
-------------
                                X             Y             Z
Electronic contribution:     11.44611       8.93194       5.91775
Nuclear contribution   :    -11.48003      -8.36271      -6.78621
                        -----------------------------------------
Total Dipole Moment    :     -0.03392       0.56922      -0.86847
                        -----------------------------------------
Magnitude (a.u.)       :      1.03894
Magnitude (Debye)      :      2.64079

Rotational constants in cm-1:     0.020055     0.013548     0.009477
Rotational constants in MHz :   601.234832   406.162779   284.104317

                             ****ORCA TERMINATED NORMALLY****
TOTAL RUN TIME: 0 days 0 hours 0 minutes 37 seconds 138 msec
