                         Program Version 5.0.0 -  RELEASE  -
|  1> !TPSS D3BJ RIJCOSX def2-TZVP def2/J TightSCF xyzfile
|  2>
|  3> *xyzfile 0 1 D2.xyz
|  4>
|  5> %MaxCore 64000
|  6>
|  7> %pal nprocs 18
|  8> end
|  9>
| 10> %scf
| 11>   MaxIter 150
| 12> end
| 13>
| 14>
| 15>                          ****END OF INPUT****

CARTESIAN COORDINATES (ANGSTROEM)
---------------------------------
  C      3.913853   -1.658291    3.015134
  N      5.039266   -0.901154    2.492821
  C      4.084215    1.742081   -2.114724
  C      4.265245    2.500518   -0.795890
  H      4.868534    3.392674   -0.981134
  H      3.307640    2.824571   -0.387809
  C      4.982240    1.650257    0.247422
  C      6.210384   -1.417261    2.178244
  C      6.535913   -2.677122    2.556078
  N      7.076754   -0.700820    1.478906
  H      7.954643   -1.121554    1.207554
  H      6.756161    0.106637    0.960278
  H      4.842168    0.017609    2.115191
  H      5.993876   -3.126918    3.282784
  H      7.498441   -2.975482    2.468776
  F      4.368065    1.389270    1.313706
  O      6.128919    1.233512   -0.045620
  C      3.139159   -2.376572    1.910609
  H      3.267235   -0.939401    3.520693
  H      4.247195   -2.355095    3.790065
  C      1.997274    0.430918   -1.399218
  C      3.412746    0.376886   -1.965497
  H      4.047407   -0.246590   -1.326706
  H      3.390774   -0.118719   -2.942839
  H      5.068475    1.598504   -2.565728
  H      3.503356    2.363939   -2.804565
  C      2.399946   -1.389579    1.009490
  H      2.440750   -3.087118    2.362976
  H      3.844475   -2.970462    1.318677
  C      2.070177   -1.936705   -0.372401
  H      1.481611   -1.061542    1.509912
  H      3.008628   -0.490001    0.897451
  C      1.322238   -0.935775   -1.256413
  H      1.472747   -2.850902   -0.283997
  H      3.003539   -2.234041   -0.862535
  H      1.376444    1.058920   -2.047420
  H      2.015341    0.929780   -0.426535
  H      0.316648   -0.787213   -0.848278
  H      1.185611   -1.379252   -2.248613

 Total Charge           Charge          ....    0
 Multiplicity           Mult            ....    1
 Number of Electrons    NEL             ....  126
 Basis Dimension        Dim             ....  634

ORBITAL ENERGIES
----------------

  NO   OCC          E(Eh)            E(eV)
   0   2.0000     -24.513514      -667.0466
   1   2.0000     -18.918632      -514.8021
   2   2.0000     -14.082486      -383.2039
   3   2.0000     -14.062734      -382.6665
   4   2.0000     -10.178163      -276.9619
   5   2.0000     -10.030722      -272.9498
   6   2.0000     -10.010192      -272.3912
   7   2.0000     -10.006161      -272.2815
   8   2.0000     -10.003507      -272.2093
   9   2.0000      -9.995319      -271.9865
  10   2.0000      -9.990765      -271.8625
  11   2.0000      -9.984841      -271.7013
  12   2.0000      -9.979189      -271.5476
  13   2.0000      -9.977844      -271.5109
  14   2.0000      -9.969864      -271.2938
  15   2.0000      -9.879451      -268.8335
  16   2.0000      -1.276598       -34.7380
  17   2.0000      -1.000708       -27.2307
  18   2.0000      -0.885766       -24.1029
  19   2.0000      -0.805182       -21.9101
  20   2.0000      -0.780980       -21.2515
  21   2.0000      -0.752360       -20.4728
  22   2.0000      -0.719698       -19.5840
  23   2.0000      -0.686966       -18.6933
  24   2.0000      -0.657681       -17.8964
  25   2.0000      -0.638375       -17.3711
  26   2.0000      -0.623558       -16.9679
  27   2.0000      -0.603441       -16.4205
  28   2.0000      -0.568563       -15.4714
  29   2.0000      -0.549203       -14.9446
  30   2.0000      -0.530397       -14.4328
  31   2.0000      -0.520637       -14.1673
  32   2.0000      -0.518153       -14.0997
  33   2.0000      -0.501889       -13.6571
  34   2.0000      -0.488727       -13.2989
  35   2.0000      -0.465680       -12.6718
  36   2.0000      -0.452749       -12.3199
  37   2.0000      -0.443522       -12.0688
  38   2.0000      -0.443246       -12.0613
  39   2.0000      -0.424932       -11.5630
  40   2.0000      -0.409218       -11.1354
  41   2.0000      -0.405432       -11.0324
  42   2.0000      -0.389682       -10.6038
  43   2.0000      -0.384504       -10.4629
  44   2.0000      -0.378037       -10.2869
  45   2.0000      -0.368117       -10.0170
  46   2.0000      -0.360890        -9.8203
  47   2.0000      -0.354392        -9.6435
  48   2.0000      -0.338963        -9.2236
  49   2.0000      -0.336584        -9.1589
  50   2.0000      -0.330999        -9.0069
  51   2.0000      -0.326133        -8.8745
  52   2.0000      -0.321203        -8.7404
  53   2.0000      -0.314388        -8.5549
  54   2.0000      -0.306557        -8.3418
  55   2.0000      -0.300435        -8.1753
  56   2.0000      -0.295142        -8.0312
  57   2.0000      -0.284038        -7.7291
  58   2.0000      -0.283809        -7.7228
  59   2.0000      -0.276596        -7.5266
  60   2.0000      -0.269549        -7.3348
  61   2.0000      -0.190371        -5.1803
  62   2.0000      -0.116468        -3.1692
  63   0.0000      -0.090433        -2.4608
  64   0.0000       0.008923         0.2428
  65   0.0000       0.028838         0.7847
  66   0.0000       0.030848         0.8394
  67   0.0000       0.035712         0.9718

MULLIKEN ATOMIC CHARGES
-----------------------
   0 C :   -0.094567
   1 N :   -0.312690
   2 C :   -0.114403
   3 C :   -0.179322
   4 H :    0.132196
   5 H :    0.124737
   6 C :    0.335257
   7 C :    0.313202
   8 C :   -0.538256
   9 N :   -0.465984
  10 H :    0.230439
  11 H :    0.226189
  12 H :    0.197418
  13 H :    0.085309
  14 H :    0.076545
  15 F :   -0.101999
  16 O :   -0.333946
  17 C :   -0.045902
  18 H :    0.086498
  19 H :    0.113390
  20 C :   -0.237317
  21 C :   -0.262859
  22 H :    0.138110
  23 H :    0.090491
  24 H :    0.114032
  25 H :    0.095192
  26 C :   -0.279208
  27 H :    0.076955
  28 H :    0.108438
  29 C :   -0.182419
  30 H :    0.072497
  31 H :    0.062308
  32 C :   -0.082477
  33 H :    0.089262
  34 H :    0.105948
  35 H :    0.086436
  36 H :    0.105461
  37 H :    0.081081
  38 H :    0.083959
Sum of atomic charges:    0.0000000

LOEWDIN ATOMIC CHARGES
----------------------
   0 C :   -0.272991
   1 N :    0.124878
   2 C :   -0.247352
   3 C :   -0.225769
   4 H :    0.157802
   5 H :    0.140844
   6 C :   -0.508182
   7 C :   -0.474187
   8 C :   -0.361789
   9 N :   -0.000720
  10 H :    0.171266
  11 H :    0.131660
  12 H :    0.159159
  13 H :    0.091080
  14 H :    0.089716
  15 F :    0.346558
  16 O :    0.104626
  17 C :   -0.258586
  18 H :    0.128314
  19 H :    0.134158
  20 C :   -0.267561
  21 C :   -0.261786
  22 H :    0.140474
  23 H :    0.139176
  24 H :    0.143912
  25 H :    0.139262
  26 C :   -0.270750
  27 H :    0.130785
  28 H :    0.144255
  29 C :   -0.265066
  30 H :    0.131645
  31 H :    0.124275
  32 C :   -0.260755
  33 H :    0.134926
  34 H :    0.135298
  35 H :    0.134089
  36 H :    0.129617
  37 H :    0.134052
  38 H :    0.133667

  Mayer bond orders larger than 0.100000
B(  0-C ,  1-N ) :   1.0082 B(  0-C , 17-C ) :   0.9934 B(  0-C , 18-H ) :   0.9592
B(  0-C , 19-H ) :   0.9476 B(  1-N ,  7-C ) :   1.2139 B(  1-N , 12-H ) :   0.8995
B(  2-C ,  3-C ) :   0.9972 B(  2-C , 21-C ) :   1.0194 B(  2-C , 24-H ) :   0.9410
B(  2-C , 25-H ) :   0.9390 B(  3-C ,  4-H ) :   0.9209 B(  3-C ,  5-H ) :   0.9526
B(  3-C ,  6-C ) :   1.0171 B(  6-C , 15-F ) :   1.1002 B(  6-C , 16-O ) :   1.9063
B(  7-C ,  8-C ) :   1.6102 B(  7-C ,  9-N ) :   1.2017 B(  8-C , 13-H ) :   0.9864
B(  8-C , 14-H ) :   0.9825 B(  9-N , 10-H ) :   0.9222 B(  9-N , 11-H ) :   0.8520
B( 11-H , 16-O ) :   0.1272 B( 17-C , 26-C ) :   1.0316 B( 17-C , 27-H ) :   0.9371
B( 17-C , 28-H ) :   0.9392 B( 20-C , 21-C ) :   1.0163 B( 20-C , 32-C ) :   1.0137
B( 20-C , 35-H ) :   0.9373 B( 20-C , 36-H ) :   0.9588 B( 21-C , 22-H ) :   0.9534
B( 21-C , 23-H ) :   0.9418 B( 26-C , 29-C ) :   1.0311 B( 26-C , 30-H ) :   0.9321
B( 26-C , 31-H ) :   0.9710 B( 29-C , 32-C ) :   1.0147 B( 29-C , 33-H ) :   0.9454
B( 29-C , 34-H ) :   0.9571 B( 32-C , 37-H ) :   0.9472 B( 32-C , 38-H ) :   0.9464

Dispersion correction           -0.055265220
FINAL SINGLE POINT ENERGY      -756.091736973160

DIPOLE MOMENT
-------------
                                X             Y             Z
Electronic contribution:      9.87950      10.40167       5.63299
Nuclear contribution   :    -11.22009      -8.67117      -6.77523
                        -----------------------------------------
Total Dipole Moment    :     -1.34059       1.73050      -1.14224
                        -----------------------------------------
Magnitude (a.u.)       :      2.46911
Magnitude (Debye)      :      6.27599

Rotational constants in cm-1:     0.020086     0.013778     0.009581
Rotational constants in MHz :   602.172053   413.051122   287.243919

                             ****ORCA TERMINATED NORMALLY****
TOTAL RUN TIME: 0 days 0 hours 0 minutes 39 seconds 555 msec
