                         Program Version 5.0.0 -  RELEASE  -
|  1> !TPSS D3BJ RIJCOSX def2-TZVP def2/J TightSCF xyzfile
|  2>
|  3> *xyzfile 0 1 D3.xyz
|  4>
|  5> %MaxCore 64000
|  6>
|  7> %pal nprocs 18
|  8> end
|  9>
| 10> %scf
| 11>   MaxIter 150
| 12> end
| 13>
| 14>
| 15>                          ****END OF INPUT****

CARTESIAN COORDINATES (ANGSTROEM)
---------------------------------
  C      3.913853   -1.658291    3.015134
  N      5.039266   -0.901154    2.492821
  C      4.084215    1.742081   -2.114724
  C      4.265245    2.500518   -0.795890
  H      4.868534    3.392674   -0.981134
  H      3.307640    2.824571   -0.387809
  C      4.982240    1.650257    0.247422
  C      6.210384   -1.417261    2.178244
  N      6.535913   -2.677122    2.556078
  C      7.076754   -0.700820    1.478906
  H      7.954643   -1.121554    1.207554
  H      6.756161    0.106637    0.960278
  H      4.842168    0.017609    2.115191
  H      5.993876   -3.126918    3.282784
  H      7.498441   -2.975482    2.468776
  F      4.368065    1.389270    1.313706
  O      6.128919    1.233512   -0.045620
  C      3.139159   -2.376572    1.910609
  H      3.267235   -0.939401    3.520693
  H      4.247195   -2.355095    3.790065
  C      1.997274    0.430918   -1.399218
  C      3.412746    0.376886   -1.965497
  H      4.047407   -0.246590   -1.326706
  H      3.390774   -0.118719   -2.942839
  H      5.068475    1.598504   -2.565728
  H      3.503356    2.363939   -2.804565
  C      2.399946   -1.389579    1.009490
  H      2.440750   -3.087118    2.362976
  H      3.844475   -2.970462    1.318677
  C      2.070177   -1.936705   -0.372401
  H      1.481611   -1.061542    1.509912
  H      3.008628   -0.490001    0.897451
  C      1.322238   -0.935775   -1.256413
  H      1.472747   -2.850902   -0.283997
  H      3.003539   -2.234041   -0.862535
  H      1.376444    1.058920   -2.047420
  H      2.015341    0.929780   -0.426535
  H      0.316648   -0.787213   -0.848278
  H      1.185611   -1.379252   -2.248613

 Total Charge           Charge          ....    0
 Multiplicity           Mult            ....    1
 Number of Electrons    NEL             ....  126
 Basis Dimension        Dim             ....  634

ORBITAL ENERGIES
----------------

  NO   OCC          E(Eh)            E(eV)
   0   2.0000     -24.496823      -666.5924
   1   2.0000     -18.891722      -514.0699
   2   2.0000     -14.082501      -383.2043
   3   2.0000     -14.078695      -383.1008
   4   2.0000     -10.157815      -276.4082
   5   2.0000     -10.017789      -272.5979
   6   2.0000     -10.012981      -272.4671
   7   2.0000     -10.000246      -272.1205
   8   2.0000      -9.999266      -272.0939
   9   2.0000      -9.987780      -271.7813
  10   2.0000      -9.985876      -271.7295
  11   2.0000      -9.982642      -271.6415
  12   2.0000      -9.979405      -271.5534
  13   2.0000      -9.979070      -271.5443
  14   2.0000      -9.975675      -271.4519
  15   2.0000      -9.859833      -268.2997
  16   2.0000      -1.260368       -34.2964
  17   2.0000      -0.975183       -26.5361
  18   2.0000      -0.884519       -24.0690
  19   2.0000      -0.806181       -21.9373
  20   2.0000      -0.772569       -21.0227
  21   2.0000      -0.748718       -20.3737
  22   2.0000      -0.720578       -19.6079
  23   2.0000      -0.684705       -18.6318
  24   2.0000      -0.658940       -17.9307
  25   2.0000      -0.633419       -17.2362
  26   2.0000      -0.611781       -16.6474
  27   2.0000      -0.592987       -16.1360
  28   2.0000      -0.558629       -15.2011
  29   2.0000      -0.549120       -14.9423
  30   2.0000      -0.532740       -14.4966
  31   2.0000      -0.517586       -14.0842
  32   2.0000      -0.508666       -13.8415
  33   2.0000      -0.490527       -13.3479
  34   2.0000      -0.481420       -13.1001
  35   2.0000      -0.461931       -12.5698
  36   2.0000      -0.445785       -12.1304
  37   2.0000      -0.438086       -11.9209
  38   2.0000      -0.429510       -11.6876
  39   2.0000      -0.418244       -11.3810
  40   2.0000      -0.415076       -11.2948
  41   2.0000      -0.399807       -10.8793
  42   2.0000      -0.389238       -10.5917
  43   2.0000      -0.386412       -10.5148
  44   2.0000      -0.373656       -10.1677
  45   2.0000      -0.361434        -9.8351
  46   2.0000      -0.354428        -9.6445
  47   2.0000      -0.349180        -9.5017
  48   2.0000      -0.334386        -9.0991
  49   2.0000      -0.329996        -8.9796
  50   2.0000      -0.325959        -8.8698
  51   2.0000      -0.324101        -8.8192
  52   2.0000      -0.315591        -8.5877
  53   2.0000      -0.309367        -8.4183
  54   2.0000      -0.304142        -8.2761
  55   2.0000      -0.301538        -8.2053
  56   2.0000      -0.294542        -8.0149
  57   2.0000      -0.283166        -7.7053
  58   2.0000      -0.281791        -7.6679
  59   2.0000      -0.277121        -7.5408
  60   2.0000      -0.227151        -6.1811
  61   2.0000      -0.199554        -5.4301
  62   2.0000      -0.110933        -3.0186
  63   0.0000      -0.071351        -1.9416
  64   0.0000       0.016244         0.4420
  65   0.0000       0.025071         0.6822
  66   0.0000       0.032011         0.8711
  67   0.0000       0.036241         0.9862

MULLIKEN ATOMIC CHARGES
-----------------------
   0 C :   -0.136804
   1 N :   -0.304264
   2 C :   -0.112187
   3 C :   -0.181346
   4 H :    0.128410
   5 H :    0.115532
   6 C :    0.316422
   7 C :    0.331628
   8 N :   -0.498039
   9 C :   -0.541024
  10 H :    0.064426
  11 H :    0.143648
  12 H :    0.222695
  13 H :    0.210852
  14 H :    0.236659
  15 F :   -0.115627
  16 O :   -0.285610
  17 C :   -0.031843
  18 H :    0.092267
  19 H :    0.093714
  20 C :   -0.238689
  21 C :   -0.261901
  22 H :    0.144688
  23 H :    0.086436
  24 H :    0.112874
  25 H :    0.090049
  26 C :   -0.274676
  27 H :    0.072029
  28 H :    0.091816
  29 C :   -0.183149
  30 H :    0.075347
  31 H :    0.070762
  32 C :   -0.081744
  33 H :    0.086263
  34 H :    0.107234
  35 H :    0.084862
  36 H :    0.105516
  37 H :    0.079651
  38 H :    0.083124
Sum of atomic charges:    0.0000000

LOEWDIN ATOMIC CHARGES
----------------------
   0 C :   -0.291812
   1 N :    0.125705
   2 C :   -0.247972
   3 C :   -0.228924
   4 H :    0.156329
   5 H :    0.137375
   6 C :   -0.511100
   7 C :   -0.473680
   8 N :   -0.025095
   9 C :   -0.334245
  10 H :    0.089909
  11 H :    0.083399
  12 H :    0.171979
  13 H :    0.151737
  14 H :    0.171848
  15 F :    0.339089
  16 O :    0.128209
  17 C :   -0.262603
  18 H :    0.130697
  19 H :    0.122590
  20 C :   -0.267521
  21 C :   -0.261887
  22 H :    0.142163
  23 H :    0.137884
  24 H :    0.144296
  25 H :    0.137381
  26 C :   -0.268075
  27 H :    0.128509
  28 H :    0.139971
  29 C :   -0.265379
  30 H :    0.132416
  31 H :    0.127641
  32 C :   -0.260925
  33 H :    0.133755
  34 H :    0.135738
  35 H :    0.133753
  36 H :    0.129830
  37 H :    0.133443
  38 H :    0.133572

  Mayer bond orders larger than 0.100000
B(  0-C ,  1-N ) :   1.0233 B(  0-C , 17-C ) :   0.9618 B(  0-C , 18-H ) :   0.9603
B(  0-C , 19-H ) :   0.9635 B(  1-N ,  7-C ) :   1.2190 B(  1-N , 12-H ) :   0.8960
B(  2-C ,  3-C ) :   1.0013 B(  2-C , 21-C ) :   1.0239 B(  2-C , 24-H ) :   0.9388
B(  2-C , 25-H ) :   0.9397 B(  3-C ,  4-H ) :   0.9231 B(  3-C ,  5-H ) :   0.9513
B(  3-C ,  6-C ) :   1.0145 B(  6-C , 15-F ) :   1.0739 B(  6-C , 16-O ) :   1.9822
B(  7-C ,  8-N ) :   1.1122 B(  7-C ,  9-C ) :   1.6440 B(  8-N , 13-H ) :   0.9134
B(  8-N , 14-H ) :   0.9168 B(  9-C , 10-H ) :   0.9910 B(  9-C , 11-H ) :   0.9879
B( 17-C , 26-C ) :   1.0310 B( 17-C , 27-H ) :   0.9298 B( 17-C , 28-H ) :   0.9424
B( 20-C , 21-C ) :   1.0169 B( 20-C , 32-C ) :   1.0125 B( 20-C , 35-H ) :   0.9376
B( 20-C , 36-H ) :   0.9597 B( 21-C , 22-H ) :   0.9516 B( 21-C , 23-H ) :   0.9420
B( 26-C , 29-C ) :   1.0318 B( 26-C , 30-H ) :   0.9355 B( 26-C , 31-H ) :   0.9718
B( 29-C , 32-C ) :   1.0178 B( 29-C , 33-H ) :   0.9450 B( 29-C , 34-H ) :   0.9559
B( 32-C , 37-H ) :   0.9476 B( 32-C , 38-H ) :   0.9458

Dispersion correction           -0.055329703
FINAL SINGLE POINT ENERGY      -756.071615906622

DIPOLE MOMENT
-------------
                                X             Y             Z
Electronic contribution:      9.56714       8.57977       6.76982
Nuclear contribution   :    -11.12616      -8.32792      -6.96231
                        -----------------------------------------
Total Dipole Moment    :     -1.55901       0.25185      -0.19250
                        -----------------------------------------
Magnitude (a.u.)       :      1.59091
Magnitude (Debye)      :      4.04378

Rotational constants in cm-1:     0.020226     0.013574     0.009520
Rotational constants in MHz :   606.360011   406.923773   285.390769

                             ****ORCA TERMINATED NORMALLY****
TOTAL RUN TIME: 0 days 0 hours 0 minutes 47 seconds 441 msec
