                         Program Version 5.0.0 -  RELEASE  -
|  1> !wB97X-D3 RIJCOSX def2-SVP def2/J TightSCF
|  2> *xyz -1 1
|  3> C          1.44442        5.26658       -0.97546
|  4> O          1.56525        4.23349       -1.86489
|  5> C         -1.07389        4.84473       -0.97990
|  6> C          0.14812        5.21087       -0.13809
|  7> H          1.47425        6.26464       -1.47692
|  8> H          2.28962        5.30327       -0.26445
|  9> H          0.26183        4.45094        0.64071
| 10> H         -0.00252        6.17103        0.37148
| 11> H         -1.20745        5.57445       -1.75098
| 12> H         -1.94291        4.82190       -0.35605
| 13> H         -0.92683        3.88150       -1.42201
| 14> *
| 15> %MaxCore 64000
| 16>
| 17> %pal nprocs 8
| 18> end
| 19>
| 20> %scf
| 21>   MaxIter 150
| 22> end
| 23>
| 24>
| 25>                          ****END OF INPUT****

CARTESIAN COORDINATES (ANGSTROEM)
---------------------------------
  C      1.444420    5.266580   -0.975460
  O      1.565250    4.233490   -1.864890
  C     -1.073890    4.844730   -0.979900
  C      0.148120    5.210870   -0.138090
  H      1.474250    6.264640   -1.476920
  H      2.289620    5.303270   -0.264450
  H      0.261830    4.450940    0.640710
  H     -0.002520    6.171030    0.371480
  H     -1.207450    5.574450   -1.750980
  H     -1.942910    4.821900   -0.356050
  H     -0.926830    3.881500   -1.422010

 Total Charge           Charge          ....   -1
 Multiplicity           Mult            ....    1
 Number of Electrons    NEL             ....   34
 Basis Dimension        Dim             ....   91

ORBITAL ENERGIES
----------------

  NO   OCC          E(Eh)            E(eV)
   0   2.0000     -18.858362      -513.1621
   1   2.0000     -10.094541      -274.6864
   2   2.0000     -10.083571      -274.3879
   3   2.0000     -10.082677      -274.3636
   4   2.0000      -0.753629       -20.5073
   5   2.0000      -0.673828       -18.3358
   6   2.0000      -0.558568       -15.1994
   7   2.0000      -0.447767       -12.1844
   8   2.0000      -0.364411        -9.9161
   9   2.0000      -0.352148        -9.5824
  10   2.0000      -0.296108        -8.0575
  11   2.0000      -0.271440        -7.3862
  12   2.0000      -0.239176        -6.5083
  13   2.0000      -0.227752        -6.1975
  14   2.0000      -0.170479        -4.6390
  15   2.0000      -0.024781        -0.6743
  16   2.0000      -0.020208        -0.5499
  17   0.0000       0.314710         8.5637
  18   0.0000       0.352679         9.5969
  19   0.0000       0.362580         9.8663
  20   0.0000       0.383965        10.4482
  21   0.0000       0.395676        10.7669

MULLIKEN ATOMIC CHARGES
-----------------------
   0 C :    0.274688
   1 O :   -0.711047
   2 C :    0.017043
   3 C :   -0.053594
   4 H :   -0.164972
   5 H :   -0.152387
   6 H :   -0.048477
   7 H :   -0.083440
   8 H :   -0.022596
   9 H :   -0.056219
  10 H :    0.001001
Sum of atomic charges:   -1.0000000

LOEWDIN ATOMIC CHARGES
----------------------
   0 C :    0.011507
   1 O :   -0.665557
   2 C :   -0.068902
   3 C :   -0.088673
   4 H :   -0.081656
   5 H :   -0.073233
   6 H :   -0.009637
   7 H :   -0.024775
   8 H :    0.005143
   9 H :   -0.015028
  10 H :    0.010813

  Mayer bond orders larger than 0.100000
B(  0-C ,  1-O ) :   1.4936 B(  0-C ,  3-C ) :   0.9743 B(  0-C ,  4-H ) :   0.8703
B(  0-C ,  5-H ) :   0.8920 B(  2-C ,  3-C ) :   1.0765 B(  2-C ,  8-H ) :   0.9699
B(  2-C ,  9-H ) :   0.9660 B(  2-C , 10-H ) :   0.9544 B(  3-C ,  6-H ) :   0.9456
B(  3-C ,  7-H ) :   0.9288

Dispersion correction           -0.001934484
FINAL SINGLE POINT ENERGY      -193.514056068253

DIPOLE MOMENT
-------------
                                X             Y             Z
Electronic contribution:      2.15494      -1.55998      -1.62201
Nuclear contribution   :     -3.50495       2.13585       2.58010
                        -----------------------------------------
Total Dipole Moment    :     -1.35001       0.57587       0.95809
                        -----------------------------------------
Magnitude (a.u.)       :      1.75274
Magnitude (Debye)      :      4.45512

Rotational constants in cm-1:     0.478988     0.188199     0.150738
Rotational constants in MHz : 14359.706344  5642.078771  4519.011003

                             ****ORCA TERMINATED NORMALLY****
TOTAL RUN TIME: 0 days 0 hours 0 minutes 6 seconds 911 msec
