                         Program Version 5.0.0 -  RELEASE  -
|  1> !wB97X-D3 RIJCOSX def2-SVP def2/J TightSCF
|  2> *xyz 1 1
|  3> C         -0.70169        4.07250       -4.00392
|  4> N          0.68053        4.61482       -4.04800
|  5> H          0.69993        5.58489       -4.38827
|  6> H          1.27804        4.05598       -4.66824
|  7> H          1.08573        4.53358       -3.10652
|  8> C         -1.70347        5.09320       -3.47740
|  9> H         -0.99590        3.74039       -5.00065
| 10> H         -0.64358        3.20191       -3.35153
| 11> C         -1.31400        5.78600       -2.16927
| 12> H         -1.87706        5.85010       -4.25115
| 13> H         -2.65326        4.56448       -3.35480
| 14> H         -0.38448        6.29945       -2.30062
| 15> H         -1.21111        5.05451       -1.39516
| 16> H         -2.07413        6.48833       -1.89758
| 17> *
| 18> %MaxCore 64000
| 19>
| 20> %pal nprocs 8
| 21> end
| 22>
| 23> %scf
| 24>   MaxIter 150
| 25> end
| 26>
| 27>
| 28>                          ****END OF INPUT****

CARTESIAN COORDINATES (ANGSTROEM)
---------------------------------
  C     -0.701690    4.072500   -4.003920
  N      0.680530    4.614820   -4.048000
  H      0.699930    5.584890   -4.388270
  H      1.278040    4.055980   -4.668240
  H      1.085730    4.533580   -3.106520
  C     -1.703470    5.093200   -3.477400
  H     -0.995900    3.740390   -5.000650
  H     -0.643580    3.201910   -3.351530
  C     -1.314000    5.786000   -2.169270
  H     -1.877060    5.850100   -4.251150
  H     -2.653260    4.564480   -3.354800
  H     -0.384480    6.299450   -2.300620
  H     -1.211110    5.054510   -1.395160
  H     -2.074130    6.488330   -1.897580

 Total Charge           Charge          ....    1
 Multiplicity           Mult            ....    1
 Number of Electrons    NEL             ....   34
 Basis Dimension        Dim             ....  106

ORBITAL ENERGIES
----------------

  NO   OCC          E(Eh)            E(eV)
   0   2.0000     -14.772121      -401.9699
   1   2.0000     -10.536523      -286.7134
   2   2.0000     -10.466360      -284.8041
   3   2.0000     -10.437495      -284.0187
   4   2.0000      -1.324551       -36.0429
   5   2.0000      -1.083772       -29.4909
   6   2.0000      -0.993700       -27.0400
   7   2.0000      -0.913679       -24.8625
   8   2.0000      -0.895452       -24.3665
   9   2.0000      -0.878041       -23.8927
  10   2.0000      -0.787937       -21.4408
  11   2.0000      -0.736341       -20.0368
  12   2.0000      -0.707214       -19.2443
  13   2.0000      -0.683353       -18.5950
  14   2.0000      -0.622737       -16.9455
  15   2.0000      -0.618501       -16.8303
  16   2.0000      -0.603982       -16.4352
  17   0.0000      -0.090962        -2.4752
  18   0.0000      -0.033389        -0.9086
  19   0.0000      -0.029360        -0.7989
  20   0.0000       0.000481         0.0131
  21   0.0000       0.032088         0.8732

MULLIKEN ATOMIC CHARGES
-----------------------
   0 C :   -0.023619
   1 N :   -0.025341
   2 H :    0.224589
   3 H :    0.223303
   4 H :    0.227375
   5 C :   -0.150736
   6 H :    0.119213
   7 H :    0.105698
   8 C :   -0.057338
   9 H :    0.078108
  10 H :    0.103963
  11 H :    0.014735
  12 H :    0.062776
  13 H :    0.097274
Sum of atomic charges:    1.0000000

LOEWDIN ATOMIC CHARGES
----------------------
   0 C :    0.048433
   1 N :    0.293769
   2 H :    0.145156
   3 H :    0.148758
   4 H :    0.147674
   5 C :   -0.049115
   6 H :    0.057636
   7 H :    0.051481
   8 C :   -0.051556
   9 H :    0.041243
  10 H :    0.061691
  11 H :    0.013318
  12 H :    0.035666
  13 H :    0.055845

  Mayer bond orders larger than 0.100000
B(  0-C ,  1-N ) :   0.9085 B(  0-C ,  5-C ) :   1.0641 B(  0-C ,  6-H ) :   0.9561
B(  0-C ,  7-H ) :   0.9544 B(  1-N ,  2-H ) :   0.9278 B(  1-N ,  3-H ) :   0.9310
B(  1-N ,  4-H ) :   0.9299 B(  5-C ,  8-C ) :   1.0676 B(  5-C ,  9-H ) :   0.9512
B(  5-C , 10-H ) :   0.9429 B(  8-C , 11-H ) :   0.9722 B(  8-C , 12-H ) :   0.9771
B(  8-C , 13-H ) :   0.9656

Dispersion correction           -0.002864036
FINAL SINGLE POINT ENERGY      -174.677824877846

DIPOLE MOMENT
-------------
                                X             Y             Z
Electronic contribution:      1.61781      -0.92377      -1.48700
Nuclear contribution   :      0.19992       0.44181       0.60618
                        -----------------------------------------
Total Dipole Moment    :      1.81772      -0.48196      -0.88082
                        -----------------------------------------
Magnitude (a.u.)       :      2.07659
Magnitude (Debye)      :      5.27828

Rotational constants in cm-1:     0.427003     0.166237     0.135950
Rotational constants in MHz : 12801.234133  4983.663157  4075.681698

                             ****ORCA TERMINATED NORMALLY****
TOTAL RUN TIME: 0 days 0 hours 0 minutes 8 seconds 103 msec
