                         Program Version 5.0.0 -  RELEASE  -
|  1> !wB97X-D3 RIJCOSX def2-SVP def2/J TightSCF
|  2> *xyz 0 1
|  3> C          1.44442        5.26658       -0.97546
|  4> F          1.56525        4.23349       -1.86489
|  5> C         -1.07389        4.84473       -0.97990
|  6> C          0.14812        5.21087       -0.13809
|  7> H          1.47425        6.26464       -1.47692
|  8> H          2.28962        5.30327       -0.26445
|  9> H          0.26183        4.45094        0.64071
| 10> H         -0.00252        6.17103        0.37148
| 11> H         -1.20745        5.57445       -1.75098
| 12> H         -1.94291        4.82190       -0.35605
| 13> H         -0.92683        3.88150       -1.42201
| 14> *
| 15> %MaxCore 64000
| 16>
| 17> %pal nprocs 8
| 18> end
| 19>
| 20> %scf
| 21>   MaxIter 150
| 22> end
| 23>
| 24>
| 25>                          ****END OF INPUT****

CARTESIAN COORDINATES (ANGSTROEM)
---------------------------------
  C      1.444420    5.266580   -0.975460
  F      1.565250    4.233490   -1.864890
  C     -1.073890    4.844730   -0.979900
  C      0.148120    5.210870   -0.138090
  H      1.474250    6.264640   -1.476920
  H      2.289620    5.303270   -0.264450
  H      0.261830    4.450940    0.640710
  H     -0.002520    6.171030    0.371480
  H     -1.207450    5.574450   -1.750980
  H     -1.942910    4.821900   -0.356050
  H     -0.926830    3.881500   -1.422010

 Total Charge           Charge          ....    0
 Multiplicity           Mult            ....    1
 Number of Electrons    NEL             ....   34
 Basis Dimension        Dim             ....   91

ORBITAL ENERGIES
----------------

  NO   OCC          E(Eh)            E(eV)
   0   2.0000     -24.771698      -674.0722
   1   2.0000     -10.362284      -281.9721
   2   2.0000     -10.292112      -280.0626
   3   2.0000     -10.273548      -279.5575
   4   2.0000      -1.288178       -35.0531
   5   2.0000      -0.895616       -24.3709
   6   2.0000      -0.794109       -21.6088
   7   2.0000      -0.696155       -18.9434
   8   2.0000      -0.604439       -16.4476
   9   2.0000      -0.592340       -16.1184
  10   2.0000      -0.569091       -15.4857
  11   2.0000      -0.532147       -14.4804
  12   2.0000      -0.490793       -13.3552
  13   2.0000      -0.466092       -12.6830
  14   2.0000      -0.449207       -12.2236
  15   2.0000      -0.416539       -11.3346
  16   2.0000      -0.412036       -11.2121
  17   0.0000       0.144683         3.9370
  18   0.0000       0.183801         5.0015
  19   0.0000       0.188223         5.1218
  20   0.0000       0.213164         5.8005
  21   0.0000       0.222656         6.0588

MULLIKEN ATOMIC CHARGES
-----------------------
   0 C :    0.246043
   1 F :   -0.267511
   2 C :   -0.031289
   3 C :   -0.163074
   4 H :    0.021112
   5 H :    0.024490
   6 H :    0.037175
   7 H :    0.035990
   8 H :    0.024679
   9 H :    0.030333
  10 H :    0.042053
Sum of atomic charges:    0.0000000

LOEWDIN ATOMIC CHARGES
----------------------
   0 C :    0.110776
   1 F :   -0.133864
   2 C :   -0.056676
   3 C :   -0.069507
   4 H :    0.011270
   5 H :    0.012303
   6 H :    0.023790
   7 H :    0.030228
   8 H :    0.021638
   9 H :    0.024015
  10 H :    0.026027

  Mayer bond orders larger than 0.100000
B(  0-C ,  1-F ) :   0.9913 B(  0-C ,  3-C ) :   1.0564 B(  0-C ,  4-H ) :   0.9580
B(  0-C ,  5-H ) :   0.9643 B(  2-C ,  3-C ) :   1.0748 B(  2-C ,  8-H ) :   0.9781
B(  2-C ,  9-H ) :   0.9757 B(  2-C , 10-H ) :   0.9747 B(  3-C ,  6-H ) :   0.9583
B(  3-C ,  7-H ) :   0.9506

Dispersion correction           -0.001927100
FINAL SINGLE POINT ENERGY      -218.149526110559

DIPOLE MOMENT
-------------
                                X             Y             Z
Electronic contribution:      4.63623      -2.46429      -3.17267
Nuclear contribution   :     -4.76356       2.92420       3.62609
                        -----------------------------------------
Total Dipole Moment    :     -0.12733       0.45991       0.45342
                        -----------------------------------------
Magnitude (a.u.)       :      0.65827
Magnitude (Debye)      :      1.67319

Rotational constants in cm-1:     0.464485     0.177633     0.142630
Rotational constants in MHz : 13924.923489  5325.290206  4275.938589

                             ****ORCA TERMINATED NORMALLY****
TOTAL RUN TIME: 0 days 0 hours 0 minutes 6 seconds 346 msec
