                         Program Version 5.0.0 -  RELEASE  -
|  1> !wB97X-D3 RIJCOSX def2-SVP def2/J TightSCF
|  2> *xyz 0 1
|  3> C         -0.70169        4.07250       -4.00392
|  4> C          0.68053        4.61482       -4.04800
|  5> H          0.69993        5.58489       -4.38827
|  6> H          1.27804        4.05598       -4.66824
|  7> H          1.08573        4.53358       -3.10652
|  8> C         -1.70347        5.09320       -3.47740
|  9> H         -0.99590        3.74039       -5.00065
| 10> H         -0.64358        3.20191       -3.35153
| 11> C         -1.31400        5.78600       -2.16927
| 12> H         -1.87706        5.85010       -4.25115
| 13> H         -2.65326        4.56448       -3.35480
| 14> H         -0.38448        6.29945       -2.30062
| 15> H         -1.21111        5.05451       -1.39516
| 16> H         -2.07413        6.48833       -1.89758
| 17> *
| 18> %MaxCore 64000
| 19>
| 20> %pal nprocs 8
| 21> end
| 22>
| 23> %scf
| 24>   MaxIter 150
| 25> end
| 26>
| 27>
| 28>                          ****END OF INPUT****

CARTESIAN COORDINATES (ANGSTROEM)
---------------------------------
  C     -0.701690    4.072500   -4.003920
  C      0.680530    4.614820   -4.048000
  H      0.699930    5.584890   -4.388270
  H      1.278040    4.055980   -4.668240
  H      1.085730    4.533580   -3.106520
  C     -1.703470    5.093200   -3.477400
  H     -0.995900    3.740390   -5.000650
  H     -0.643580    3.201910   -3.351530
  C     -1.314000    5.786000   -2.169270
  H     -1.877060    5.850100   -4.251150
  H     -2.653260    4.564480   -3.354800
  H     -0.384480    6.299450   -2.300620
  H     -1.211110    5.054510   -1.395160
  H     -2.074130    6.488330   -1.897580

 Total Charge           Charge          ....    0
 Multiplicity           Mult            ....    1
 Number of Electrons    NEL             ....   34
 Basis Dimension        Dim             ....  106

ORBITAL ENERGIES
----------------

  NO   OCC          E(Eh)            E(eV)
   0   2.0000     -10.276583      -279.6400
   1   2.0000     -10.271863      -279.5116
   2   2.0000     -10.268310      -279.4149
   3   2.0000     -10.249163      -278.8939
   4   2.0000      -0.912395       -24.8275
   5   2.0000      -0.835300       -22.7297
   6   2.0000      -0.751683       -20.4543
   7   2.0000      -0.665360       -18.1054
   8   2.0000      -0.569352       -15.4928
   9   2.0000      -0.562091       -15.2953
  10   2.0000      -0.523175       -14.2363
  11   2.0000      -0.483665       -13.1612
  12   2.0000      -0.479958       -13.0603
  13   2.0000      -0.458565       -12.4782
  14   2.0000      -0.414884       -11.2896
  15   2.0000      -0.412195       -11.2164
  16   2.0000      -0.408728       -11.1221
  17   0.0000       0.145271         3.9530
  18   0.0000       0.186790         5.0828
  19   0.0000       0.188968         5.1421
  20   0.0000       0.197509         5.3745
  21   0.0000       0.220109         5.9895

MULLIKEN ATOMIC CHARGES
-----------------------
   0 C :   -0.084415
   1 C :    0.027301
   2 H :    0.006416
   3 H :    0.001784
   4 H :    0.009916
   5 C :   -0.093122
   6 H :    0.023147
   7 H :    0.016977
   8 C :   -0.029403
   9 H :    0.022504
  10 H :    0.021236
  11 H :    0.025622
  12 H :    0.023423
  13 H :    0.028616
Sum of atomic charges:    0.0000000

LOEWDIN ATOMIC CHARGES
----------------------
   0 C :   -0.042932
   1 C :   -0.047946
   2 H :    0.013078
   3 H :    0.017052
   4 H :    0.016148
   5 C :   -0.045426
   6 H :    0.021119
   7 H :    0.019742
   8 C :   -0.056848
   9 H :    0.019846
  10 H :    0.020556
  11 H :    0.020363
  12 H :    0.021028
  13 H :    0.024220

  Mayer bond orders larger than 0.100000
B(  0-C ,  1-C ) :   1.0869 B(  0-C ,  5-C ) :   1.0757 B(  0-C ,  6-H ) :   0.9599
B(  0-C ,  7-H ) :   0.9580 B(  1-C ,  2-H ) :   0.9745 B(  1-C ,  3-H ) :   0.9640
B(  1-C ,  4-H ) :   0.9687 B(  5-C ,  8-C ) :   1.0812 B(  5-C ,  9-H ) :   0.9560
B(  5-C , 10-H ) :   0.9585 B(  8-C , 11-H ) :   0.9714 B(  8-C , 12-H ) :   0.9774
B(  8-C , 13-H ) :   0.9731

Dispersion correction           -0.002770710
FINAL SINGLE POINT ENERGY      -158.281420408686

DIPOLE MOMENT
-------------
                                X             Y             Z
Electronic contribution:     -0.61049      -0.36234      -0.41865
Nuclear contribution   :      0.63648       0.35464       0.41252
                        -----------------------------------------
Total Dipole Moment    :      0.02598      -0.00770      -0.00613
                        -----------------------------------------
Magnitude (a.u.)       :      0.02779
Magnitude (Debye)      :      0.07062

Rotational constants in cm-1:     0.435124     0.173315     0.141457
Rotational constants in MHz : 13044.691962  5195.845291  4240.763698

                             ****ORCA TERMINATED NORMALLY****
TOTAL RUN TIME: 0 days 0 hours 0 minutes 7 seconds 446 msec
