                         Program Version 5.0.0 -  RELEASE  -
|  1> !LC-PBE RIJCOSX def2-TZVPD def2/J TightSCF
|  2> *xyz -1 1
|  3> C          4.90646       -3.10282       -5.95484
|  4> C          3.51177       -2.80621       -6.49228
|  5> H          2.73604       -3.37345       -5.97374
|  6> H          3.44490       -3.04083       -7.55528
|  7> S          3.00462       -1.09621       -6.38926
|  8> O          4.12886       -0.32965       -6.95372
|  9> O          1.78128       -1.00078       -7.13640
| 10> O          2.85155       -0.78368       -4.95679
| 11> H          5.62703       -2.52424       -6.49422
| 12> H          5.12164       -4.14387       -6.07654
| 13> H          4.95004       -2.84862       -4.91639
| 14> *
| 15>
| 16> %MaxCore 64000
| 17>
| 18> %pal nprocs 4
| 19> end
| 20>
| 21> %scf
| 22>   MaxIter 150
| 23> end
| 24>
| 25>
| 26>                          ****END OF INPUT****

CARTESIAN COORDINATES (ANGSTROEM)
---------------------------------
  C      4.906460   -3.102820   -5.954840
  C      3.511770   -2.806210   -6.492280
  H      2.736040   -3.373450   -5.973740
  H      3.444900   -3.040830   -7.555280
  S      3.004620   -1.096210   -6.389260
  O      4.128860   -0.329650   -6.953720
  O      1.781280   -1.000780   -7.136400
  O      2.851550   -0.783680   -4.956790
  H      5.627030   -2.524240   -6.494220
  H      5.121640   -4.143870   -6.076540
  H      4.950040   -2.848620   -4.916390

 Total Charge           Charge          ....   -1
 Multiplicity           Mult            ....    1
 Number of Electrons    NEL             ....   58
 Basis Dimension        Dim             ....  285

ORBITAL ENERGIES
----------------

  NO   OCC          E(Eh)            E(eV)
   0   2.0000     -88.270868     -2401.9724
   1   2.0000     -18.761237      -510.5192
   2   2.0000     -18.748942      -510.1847
   3   2.0000     -18.748578      -510.1747
   4   2.0000      -9.981864      -271.6203
   5   2.0000      -9.970281      -271.3051
   6   2.0000      -7.881757      -214.4735
   7   2.0000      -5.898525      -160.5070
   8   2.0000      -5.897234      -160.4719
   9   2.0000      -5.896910      -160.4631
  10   2.0000      -1.098499       -29.8917
  11   2.0000      -0.952763       -25.9260
  12   2.0000      -0.932263       -25.3682
  13   2.0000      -0.814700       -22.1691
  14   2.0000      -0.677236       -18.4285
  15   2.0000      -0.534493       -14.5443
  16   2.0000      -0.468452       -12.7472
  17   2.0000      -0.464676       -12.6445
  18   2.0000      -0.422545       -11.4980
  19   2.0000      -0.408179       -11.1071
  20   2.0000      -0.396152       -10.7799
  21   2.0000      -0.367325        -9.9954
  22   2.0000      -0.346769        -9.4361
  23   2.0000      -0.293081        -7.9752
  24   2.0000      -0.291853        -7.9417
  25   2.0000      -0.251146        -6.8340
  26   2.0000      -0.238192        -6.4815
  27   2.0000      -0.237471        -6.4619
  28   2.0000      -0.196768        -5.3543
  29   0.0000       0.170550         4.6409
  30   0.0000       0.181467         4.9380
  31   0.0000       0.182027         4.9532
  32   0.0000       0.190439         5.1821
  33   0.0000       0.216974         5.9042

MULLIKEN ATOMIC CHARGES
-----------------------
   0 C :   -1.159383
   1 C :   -0.616117
   2 H :    0.367635
   3 H :    0.359730
   4 S :    1.076013
   5 O :   -0.707559
   6 O :   -0.661867
   7 O :   -0.706262
   8 H :    0.352214
   9 H :    0.367411
  10 H :    0.328186
Sum of atomic charges:   -1.0000000

LOEWDIN ATOMIC CHARGES
----------------------
   0 C :   -0.165526
   1 C :   -0.351309
   2 H :    0.096072
   3 H :    0.093568
   4 S :    0.324508
   5 O :   -0.405616
   6 O :   -0.381130
   7 O :   -0.408428
   8 H :    0.067247
   9 H :    0.058966
  10 H :    0.071647

  Mayer bond orders larger than 0.100000
B(  0-C ,  1-C ) :   0.6149 B(  0-C ,  8-H ) :   0.9453 B(  0-C ,  9-H ) :   0.9045
B(  0-C , 10-H ) :   0.9562 B(  1-C ,  2-H ) :   0.9000 B(  1-C ,  3-H ) :   0.9095
B(  1-C ,  4-S ) :   0.9239 B(  1-C ,  6-O ) :   0.1244 B(  1-C ,  7-O ) :   0.1131
B(  4-S ,  5-O ) :   1.4743 B(  4-S ,  6-O ) :   1.5156 B(  4-S ,  7-O ) :   1.4746

FINAL SINGLE POINT ENERGY      -702.108102107044

DIPOLE MOMENT
-------------
                                X             Y             Z
Electronic contribution:     -4.33192       6.30144      -0.66752
Nuclear contribution   :      5.05690      -8.21735       0.57889
                        -----------------------------------------
Total Dipole Moment    :      0.72499      -1.91592      -0.08863
                        -----------------------------------------
Magnitude (a.u.)       :      2.05041
Magnitude (Debye)      :      5.21174

Rotational constants in cm-1:     0.162547     0.083494     0.081672
Rotational constants in MHz :  4873.033504  2503.090885  2448.458543

                             ****ORCA TERMINATED NORMALLY****
TOTAL RUN TIME: 0 days 0 hours 0 minutes 39 seconds 578 msec
