                         Program Version 5.0.0 -  RELEASE  -
|  1> !LC-PBE RIJCOSX def2-TZVPD def2/J TightSCF
|  2> *xyz 1 1
|  3> C          4.49059        1.15590       -2.46929
|  4> N          4.30539        1.22276       -3.90832
|  5> C          4.63192        2.24637       -4.67096
|  6> N          4.54169        2.14399       -5.98714
|  7> N          5.08409        3.39358       -4.11855
|  8> H          4.92067        3.57050       -3.13587
|  9> H          5.25465        4.19739       -4.70696
| 10> H          3.82453        0.44911       -4.35093
| 11> H          4.34337        1.24932       -6.41665
| 12> H          4.67671        2.95662       -6.57411
| 13> C          5.94213        0.93950       -2.03689
| 14> H          3.86431        0.32853       -2.13661
| 15> H          4.07623        2.04999       -1.98901
| 16> H          6.32982        0.06401       -2.51451
| 17> H          5.98308        0.81426       -0.97504
| 18> H          6.52865        1.78889       -2.31873
| 19> *
| 20>
| 21> %MaxCore 64000
| 22>
| 23> %pal nprocs 4
| 24> end
| 25>
| 26> %scf
| 27>   MaxIter 150
| 28> end
| 29>
| 30>
| 31>                          ****END OF INPUT****

CARTESIAN COORDINATES (ANGSTROEM)
---------------------------------
  C      4.490590    1.155900   -2.469290
  N      4.305390    1.222760   -3.908320
  C      4.631920    2.246370   -4.670960
  N      4.541690    2.143990   -5.987140
  N      5.084090    3.393580   -4.118550
  H      4.920670    3.570500   -3.135870
  H      5.254650    4.197390   -4.706960
  H      3.824530    0.449110   -4.350930
  H      4.343370    1.249320   -6.416650
  H      4.676710    2.956620   -6.574110
  C      5.942130    0.939500   -2.036890
  H      3.864310    0.328530   -2.136610
  H      4.076230    2.049990   -1.989010
  H      6.329820    0.064010   -2.514510
  H      5.983080    0.814260   -0.975040
  H      6.528650    1.788890   -2.318730

 Total Charge           Charge          ....    1
 Multiplicity           Mult            ....    1
 Number of Electrons    NEL             ....   48
 Basis Dimension        Dim             ....  312

ORBITAL ENERGIES
----------------

  NO   OCC          E(Eh)            E(eV)
   0   2.0000     -14.441097      -392.9622
   1   2.0000     -14.438288      -392.8858
   2   2.0000     -14.435624      -392.8133
   3   2.0000     -10.459874      -284.6276
   4   2.0000     -10.322744      -280.8961
   5   2.0000     -10.245914      -278.8055
   6   2.0000      -1.396951       -38.0130
   7   2.0000      -1.278798       -34.7979
   8   2.0000      -1.260473       -34.2992
   9   2.0000      -1.103918       -30.0391
  10   2.0000      -1.005468       -27.3602
  11   2.0000      -0.958962       -26.0947
  12   2.0000      -0.939023       -25.5521
  13   2.0000      -0.892504       -24.2863
  14   2.0000      -0.835868       -22.7451
  15   2.0000      -0.829156       -22.5625
  16   2.0000      -0.806788       -21.9538
  17   2.0000      -0.772137       -21.0109
  18   2.0000      -0.745877       -20.2963
  19   2.0000      -0.696485       -18.9523
  20   2.0000      -0.664148       -18.0724
  21   2.0000      -0.641090       -17.4450
  22   2.0000      -0.609542       -16.5865
  23   2.0000      -0.577949       -15.7268
  24   0.0000      -0.089349        -2.4313
  25   0.0000      -0.079528        -2.1641
  26   0.0000      -0.057731        -1.5710
  27   0.0000      -0.052662        -1.4330
  28   0.0000      -0.024840        -0.6759

MULLIKEN ATOMIC CHARGES
-----------------------
   0 C :   -0.756154
   1 N :   -0.235043
   2 C :    0.846099
   3 N :   -0.425378
   4 N :   -0.411859
   5 H :    0.252637
   6 H :    0.216674
   7 H :    0.219559
   8 H :    0.229733
   9 H :    0.230010
  10 C :   -1.115429
  11 H :    0.386297
  12 H :    0.413050
  13 H :    0.366477
  14 H :    0.405057
  15 H :    0.378269
Sum of atomic charges:    1.0000000

LOEWDIN ATOMIC CHARGES
----------------------
   0 C :   -0.226934
   1 N :    0.078018
   2 C :   -0.436238
   3 N :    0.199160
   4 N :    0.205574
   5 H :    0.129278
   6 H :    0.142186
   7 H :    0.176513
   8 H :    0.147963
   9 H :    0.146280
  10 C :   -0.081855
  11 H :    0.138491
  12 H :    0.129972
  13 H :    0.087893
  14 H :    0.090311
  15 H :    0.073387

  Mayer bond orders larger than 0.100000
B(  0-C ,  1-N ) :   0.8180 B(  0-C ,  2-C ) :  -0.1301 B(  0-C , 10-C ) :   0.6144
B(  0-C , 11-H ) :   0.8751 B(  0-C , 12-H ) :   0.8554 B(  1-N ,  2-C ) :   1.1416
B(  1-N ,  3-N ) :   0.1031 B(  1-N ,  7-H ) :   1.0526 B(  2-C ,  3-N ) :   0.9632
B(  2-C ,  4-N ) :   1.0508 B(  3-N ,  8-H ) :   0.9958 B(  3-N ,  9-H ) :   1.0196
B(  4-N ,  5-H ) :   0.9263 B(  4-N ,  6-H ) :   1.0320 B( 10-C , 13-H ) :   0.9536
B( 10-C , 14-H ) :   0.9158 B( 10-C , 15-H ) :   0.8854

FINAL SINGLE POINT ENERGY      -283.604042461419

DIPOLE MOMENT
-------------
                                X             Y             Z
Electronic contribution:     -1.81864       1.58216      -4.46609
Nuclear contribution   :      1.34333      -1.11039       3.43667
                        -----------------------------------------
Total Dipole Moment    :     -0.47532       0.47177      -1.02942
                        -----------------------------------------
Magnitude (a.u.)       :      1.22809
Magnitude (Debye)      :      3.12155

Rotational constants in cm-1:     0.227161     0.075356     0.065003
Rotational constants in MHz :  6810.114531  2259.122204  1948.738523

                             ****ORCA TERMINATED NORMALLY****
TOTAL RUN TIME: 0 days 0 hours 0 minutes 54 seconds 744 msec
