                         Program Version 5.0.0 -  RELEASE  -
|  1> !LC-PBE RIJCOSX def2-TZVPD def2/J TightSCF xyzfile
|  2>
|  3> *xyzfile 0 1 B.xyz
|  4>
|  5> %MaxCore 64000
|  6>
|  7> %pal nprocs 4
|  8> end
|  9>
| 10> %scf
| 11>   MaxIter 150
| 12> end
| 13>
| 14>
| 15>                          ****END OF INPUT****

CARTESIAN COORDINATES (ANGSTROEM)
---------------------------------
  C      4.490588    1.155899   -2.469290
  N      4.305394    1.222762   -3.908317
  C      4.906458   -3.102816   -5.954844
  C      3.511771   -2.806215   -6.492283
  H      2.736044   -3.373445   -5.973736
  H      3.444904   -3.040831   -7.555281
  S      3.004618   -1.096206   -6.389259
  C      4.631918    2.246365   -4.670958
  N      4.541686    2.143990   -5.987139
  N      5.084086    3.393584   -4.118545
  H      4.920675    3.570501   -3.135870
  H      5.254652    4.197390   -4.706956
  H      3.824530    0.449113   -4.350926
  H      4.343373    1.249318   -6.416646
  H      4.676712    2.956624   -6.574113
  O      4.128856   -0.329647   -6.953717
  O      1.781285   -1.000779   -7.136399
  C      5.942129    0.939500   -2.036893
  H      3.864305    0.328532   -2.136611
  H      4.076233    2.049994   -1.989010
  C      6.462677   -3.117775   -3.944671
  C      5.024977   -3.025679   -4.437625
  H      4.423321   -3.818693   -3.977648
  H      4.579350   -2.087131   -4.108727
  H      5.201533   -4.100207   -6.296905
  H      5.605922   -2.397822   -6.413368
  C      6.559957   -0.356290   -2.559086
  H      5.967976    0.952567   -0.942444
  H      6.547184    1.788331   -2.368849
  C      6.006283   -1.615917   -1.899301
  H      7.642360   -0.318000   -2.402059
  H      6.414855   -0.403433   -3.642587
  C      6.608718   -2.917014   -2.435655
  H      6.190324   -1.561115   -0.820948
  H      4.919250   -1.651245   -2.016586
  H      7.066975   -2.374258   -4.475514
  H      6.887808   -4.089747   -4.215332
  H      6.135197   -3.755573   -1.915159
  H      7.671142   -2.955503   -2.172291
  O      2.851546   -0.783683   -4.956789

 Total Charge           Charge          ....    0
 Multiplicity           Mult            ....    1
 Number of Electrons    NEL             ....  144
 Basis Dimension        Dim             ....  854

ORBITAL ENERGIES
----------------

  NO   OCC          E(Eh)            E(eV)
   0   2.0000     -88.427466     -2406.2337
   1   2.0000     -18.919027      -514.8129
   2   2.0000     -18.918513      -514.7989
   3   2.0000     -18.904634      -514.4212
   4   2.0000     -14.291188      -388.8830
   5   2.0000     -14.261832      -388.0842
   6   2.0000     -14.256531      -387.9399
   7   2.0000     -10.295878      -280.1651
   8   2.0000     -10.181803      -277.0609
   9   2.0000     -10.135742      -275.8076
  10   2.0000     -10.118547      -275.3397
  11   2.0000     -10.111816      -275.1565
  12   2.0000     -10.108851      -275.0758
  13   2.0000     -10.106899      -275.0227
  14   2.0000     -10.099848      -274.8308
  15   2.0000     -10.098934      -274.8060
  16   2.0000     -10.090448      -274.5751
  17   2.0000      -8.039089      -218.7547
  18   2.0000      -6.055627      -164.7820
  19   2.0000      -6.055012      -164.7653
  20   2.0000      -6.053813      -164.7326
  21   2.0000      -1.260538       -34.3010
  22   2.0000      -1.233540       -33.5663
  23   2.0000      -1.119441       -30.4615
  24   2.0000      -1.111696       -30.2508
  25   2.0000      -1.105375       -30.0788
  26   2.0000      -1.097399       -29.8617
  27   2.0000      -1.006840       -27.3975
  28   2.0000      -0.979366       -26.6499
  29   2.0000      -0.950179       -25.8557
  30   2.0000      -0.907906       -24.7054
  31   2.0000      -0.869306       -23.6550
  32   2.0000      -0.838916       -22.8281
  33   2.0000      -0.809471       -22.0268
  34   2.0000      -0.785240       -21.3675
  35   2.0000      -0.772880       -21.0311
  36   2.0000      -0.753822       -20.5126
  37   2.0000      -0.729464       -19.8497
  38   2.0000      -0.706386       -19.2217
  39   2.0000      -0.696454       -18.9515
  40   2.0000      -0.684502       -18.6262
  41   2.0000      -0.664000       -18.0684
  42   2.0000      -0.649811       -17.6823
  43   2.0000      -0.632964       -17.2238
  44   2.0000      -0.628251       -17.0956
  45   2.0000      -0.614906       -16.7325
  46   2.0000      -0.608988       -16.5714
  47   2.0000      -0.597623       -16.2621
  48   2.0000      -0.578129       -15.7317
  49   2.0000      -0.575667       -15.6647
  50   2.0000      -0.570833       -15.5332
  51   2.0000      -0.555770       -15.1233
  52   2.0000      -0.549628       -14.9561
  53   2.0000      -0.536590       -14.6014
  54   2.0000      -0.525109       -14.2889
  55   2.0000      -0.516053       -14.0425
  56   2.0000      -0.496698       -13.5158
  57   2.0000      -0.489671       -13.3246
  58   2.0000      -0.480106       -13.0643
  59   2.0000      -0.463775       -12.6200
  60   2.0000      -0.458181       -12.4677
  61   2.0000      -0.455504       -12.3949
  62   2.0000      -0.454073       -12.3560
  63   2.0000      -0.446221       -12.1423
  64   2.0000      -0.439993       -11.9728
  65   2.0000      -0.433114       -11.7856
  66   2.0000      -0.429185       -11.6787
  67   2.0000      -0.413650       -11.2560
  68   2.0000      -0.406868       -11.0714
  69   2.0000      -0.397842       -10.8258
  70   2.0000      -0.383925       -10.4471
  71   2.0000      -0.362577        -9.8662
  72   0.0000       0.031506         0.8573
  73   0.0000       0.053870         1.4659
  74   0.0000       0.062777         1.7082
  75   0.0000       0.071340         1.9413
  76   0.0000       0.077492         2.1087

MULLIKEN ATOMIC CHARGES
-----------------------
   0 C :   -1.193918
   1 N :    0.010614
   2 C :   -0.833772
   3 C :   -0.977015
   4 H :    0.413857
   5 H :    0.427391
   6 S :    1.312329
   7 C :    0.842118
   8 N :   -0.253308
   9 N :   -0.421836
  10 H :    0.255547
  11 H :    0.201283
  12 H :    0.097684
  13 H :    0.198635
  14 H :    0.199758
  15 O :   -0.935707
  16 O :   -0.666056
  17 C :   -0.642375
  18 H :    0.435290
  19 H :    0.481731
  20 C :   -0.876057
  21 C :   -0.355504
  22 H :    0.339508
  23 H :    0.327493
  24 H :    0.386018
  25 H :    0.415746
  26 C :   -0.506851
  27 H :    0.435232
  28 H :    0.441328
  29 C :   -0.885273
  30 H :    0.346364
  31 H :    0.330641
  32 C :   -0.884941
  33 H :    0.374173
  34 H :    0.431476
  35 H :    0.429146
  36 H :    0.398026
  37 H :    0.374953
  38 H :    0.380445
  39 O :   -0.854173
Sum of atomic charges:    0.0000000

LOEWDIN ATOMIC CHARGES
----------------------
   0 C :   -0.181195
   1 N :    0.099509
   2 C :   -0.247934
   3 C :   -0.261660
   4 H :    0.116864
   5 H :    0.111065
   6 S :    0.430944
   7 C :   -0.434899
   8 N :    0.203448
   9 N :    0.174414
  10 H :    0.114755
  11 H :    0.126490
  12 H :    0.071737
  13 H :    0.046209
  14 H :    0.136553
  15 O :   -0.368416
  16 O :   -0.318238
  17 C :   -0.206508
  18 H :    0.135223
  19 H :    0.125160
  20 C :   -0.237551
  21 C :   -0.238864
  22 H :    0.137935
  23 H :    0.089091
  24 H :    0.124156
  25 H :    0.118547
  26 C :   -0.225746
  27 H :    0.125340
  28 H :    0.111108
  29 C :   -0.236358
  30 H :    0.128481
  31 H :    0.116558
  32 C :   -0.229501
  33 H :    0.123217
  34 H :    0.112284
  35 H :    0.117465
  36 H :    0.122785
  37 H :    0.119919
  38 H :    0.118272
  39 O :   -0.370657

  Mayer bond orders larger than 0.100000
B(  0-C ,  1-N ) :   0.9036 B(  0-C ,  7-C ) :  -0.1670 B(  0-C ,  9-N ) :   0.1176
B(  0-C , 12-H ) :  -0.1878 B(  0-C , 17-C ) :   0.6589 B(  0-C , 18-H ) :   0.7673
B(  0-C , 19-H ) :   0.7708 B(  1-N ,  7-C ) :   1.1584 B(  1-N , 12-H ) :   0.9563
B(  1-N , 39-O ) :  -0.2162 B(  2-C ,  3-C ) :   0.8312 B(  2-C , 20-C ) :   0.2402
B(  2-C , 21-C ) :   0.4946 B(  2-C , 24-H ) :   0.9041 B(  2-C , 25-H ) :   0.8319
B(  3-C ,  4-H ) :   0.8468 B(  3-C ,  5-H ) :   0.9315 B(  3-C ,  6-S ) :   0.9646
B(  3-C , 16-O ) :   0.1637 B(  6-S , 15-O ) :   1.1233 B(  6-S , 16-O ) :   1.3764
B(  6-S , 39-O ) :   1.4103 B(  7-C ,  8-N ) :   1.0102 B(  7-C ,  9-N ) :   0.9929
B(  7-C , 12-H ) :  -0.2620 B(  8-N , 13-H ) :   0.8855 B(  8-N , 14-H ) :   1.0514
B(  8-N , 15-O ) :  -0.1546 B(  9-N , 10-H ) :   0.9333 B(  9-N , 11-H ) :   1.0396
B( 12-H , 39-O ) :   0.1414 B( 15-O , 39-O ) :   0.1009 B( 17-C , 26-C ) :   0.8611
B( 17-C , 27-H ) :   0.8950 B( 17-C , 28-H ) :   0.7908 B( 20-C , 21-C ) :   0.4704
B( 20-C , 26-C ) :   0.1013 B( 20-C , 32-C ) :   0.8167 B( 20-C , 35-H ) :   0.9029
B( 20-C , 36-H ) :   0.8659 B( 21-C , 22-H ) :   0.8289 B( 21-C , 23-H ) :   1.0537
B( 21-C , 29-C ) :   0.1518 B( 21-C , 39-O ) :   0.1279 B( 22-H , 23-H ) :   0.2356
B( 23-H , 39-O ) :  -0.2163 B( 26-C , 29-C ) :   0.3788 B( 26-C , 30-H ) :   0.9447
B( 26-C , 31-H ) :   0.9189 B( 26-C , 34-H ) :  -0.1118 B( 29-C , 32-C ) :   0.8738
B( 29-C , 33-H ) :   0.9005 B( 29-C , 34-H ) :   0.9548 B( 32-C , 37-H ) :   0.9335
B( 32-C , 38-H ) :   0.9452

FINAL SINGLE POINT ENERGY     -1180.633296578443

DIPOLE MOMENT
-------------
                                X             Y             Z
Electronic contribution:    -14.47403       8.33187     -15.27805
Nuclear contribution   :     16.79156      -5.47215      17.54258
                        -----------------------------------------
Total Dipole Moment    :      2.31754       2.85972       2.26453
                        -----------------------------------------
Magnitude (a.u.)       :      4.32170
Magnitude (Debye)      :     10.98489

Rotational constants in cm-1:     0.014207     0.012373     0.007472
Rotational constants in MHz :   425.900436   370.942493   224.006604

                             ****ORCA TERMINATED NORMALLY****
TOTAL RUN TIME: 0 days 0 hours 11 minutes 59 seconds 612 msec
