                         Program Version 5.0.0 -  RELEASE  -
|  1> !LC-PBE RIJCOSX def2-TZVPD def2/J TightSCF
|  2> *xyz 0 1
|  3> C          4.90646       -3.10282       -5.95484
|  4> C          3.51177       -2.80621       -6.49228
|  5> H          2.73604       -3.37345       -5.97374
|  6> H          3.44490       -3.04083       -7.55528
|  7> S          3.00462       -1.09621       -6.38926
|  8> F          4.12886       -0.32965       -6.95372
|  9> O          1.78128       -1.00078       -7.13640
| 10> O          2.85155       -0.78368       -4.95679
| 11> H          5.62703       -2.52424       -6.49422
| 12> H          5.12164       -4.14387       -6.07654
| 13> H          4.95004       -2.84862       -4.91639
| 14> *
| 15>
| 16> %MaxCore 64000
| 17>
| 18> %pal nprocs 4
| 19> end
| 20>
| 21> %scf
| 22>   MaxIter 150
| 23> end
| 24>
| 25>
| 26>                          ****END OF INPUT****

CARTESIAN COORDINATES (ANGSTROEM)
---------------------------------
  C      4.906460   -3.102820   -5.954840
  C      3.511770   -2.806210   -6.492280
  H      2.736040   -3.373450   -5.973740
  H      3.444900   -3.040830   -7.555280
  S      3.004620   -1.096210   -6.389260
  F      4.128860   -0.329650   -6.953720
  O      1.781280   -1.000780   -7.136400
  O      2.851550   -0.783680   -4.956790
  H      5.627030   -2.524240   -6.494220
  H      5.121640   -4.143870   -6.076540
  H      4.950040   -2.848620   -4.916390

 Total Charge           Charge          ....    0
 Multiplicity           Mult            ....    1
 Number of Electrons    NEL             ....   58
 Basis Dimension        Dim             ....  285

ORBITAL ENERGIES
----------------

  NO   OCC          E(Eh)            E(eV)
   0   2.0000     -88.533940     -2409.1310
   1   2.0000     -24.601777      -669.4484
   2   2.0000     -18.996555      -516.9225
   3   2.0000     -18.984010      -516.5812
   4   2.0000     -10.184015      -277.1211
   5   2.0000     -10.138885      -275.8931
   6   2.0000      -8.145268      -221.6440
   7   2.0000      -6.165867      -167.7818
   8   2.0000      -6.158579      -167.5835
   9   2.0000      -6.158096      -167.5703
  10   2.0000      -1.523131       -41.4465
  11   2.0000      -1.282668       -34.9032
  12   2.0000      -1.177209       -32.0335
  13   2.0000      -1.010591       -27.4996
  14   2.0000      -0.891134       -24.2490
  15   2.0000      -0.840973       -22.8840
  16   2.0000      -0.744565       -20.2606
  17   2.0000      -0.727184       -19.7877
  18   2.0000      -0.698221       -18.9996
  19   2.0000      -0.646185       -17.5836
  20   2.0000      -0.625101       -17.0099
  21   2.0000      -0.600493       -16.3402
  22   2.0000      -0.580506       -15.7964
  23   2.0000      -0.552167       -15.0252
  24   2.0000      -0.538978       -14.6663
  25   2.0000      -0.521078       -14.1792
  26   2.0000      -0.476127       -12.9561
  27   2.0000      -0.462914       -12.5965
  28   2.0000      -0.450569       -12.2606
  29   0.0000       0.048412         1.3174
  30   0.0000       0.058385         1.5887
  31   0.0000       0.065218         1.7747
  32   0.0000       0.068735         1.8704
  33   0.0000       0.096969         2.6386

MULLIKEN ATOMIC CHARGES
-----------------------
   0 C :   -1.212916
   1 C :   -0.592694
   2 H :    0.411086
   3 H :    0.424550
   4 S :    1.051378
   5 F :   -0.126839
   6 O :   -0.530209
   7 O :   -0.570607
   8 H :    0.399731
   9 H :    0.374899
  10 H :    0.371622
Sum of atomic charges:   -0.0000000

LOEWDIN ATOMIC CHARGES
----------------------
   0 C :   -0.132388
   1 C :   -0.298609
   2 H :    0.123454
   3 H :    0.111509
   4 S :    0.569455
   5 F :   -0.058848
   6 O :   -0.267069
   7 O :   -0.292498
   8 H :    0.077881
   9 H :    0.082831
  10 H :    0.084281

  Mayer bond orders larger than 0.100000
B(  0-C ,  1-C ) :   0.6053 B(  0-C ,  8-H ) :   0.8736 B(  0-C ,  9-H ) :   0.9244
B(  0-C , 10-H ) :   0.9382 B(  1-C ,  2-H ) :   0.8511 B(  1-C ,  3-H ) :   0.8526
B(  1-C ,  4-S ) :   0.9069 B(  4-S ,  5-F ) :   0.9976 B(  4-S ,  6-O ) :   1.7135
B(  4-S ,  7-O ) :   1.6698

FINAL SINGLE POINT ENERGY      -726.607387036949

DIPOLE MOMENT
-------------
                                X             Y             Z
Electronic contribution:     -2.94174       8.14329      -1.76876
Nuclear contribution   :      4.18919      -9.36357       1.23251
                        -----------------------------------------
Total Dipole Moment    :      1.24745      -1.22027      -0.53625
                        -----------------------------------------
Magnitude (a.u.)       :      1.82559
Magnitude (Debye)      :      4.64028

Rotational constants in cm-1:     0.153152     0.082513     0.079874
Rotational constants in MHz :  4591.373714  2473.673397  2394.575279

                             ****ORCA TERMINATED NORMALLY****
TOTAL RUN TIME: 0 days 0 hours 0 minutes 34 seconds 142 msec
