                         Program Version 5.0.0 -  RELEASE  -
|  1> !LC-PBE RIJCOSX def2-TZVPD def2/J TightSCF
|  2> *xyz 0 1
|  3> C          4.49059        1.15590       -2.46929
|  4> C          4.30539        1.22276       -3.90832
|  5> C          4.63192        2.24637       -4.67096
|  6> N          4.54169        2.14399       -5.98714
|  7> N          5.08409        3.39358       -4.11855
|  8> H          4.92067        3.57050       -3.13587
|  9> H          5.25465        4.19739       -4.70696
| 10> H          3.82453        0.44911       -4.35093
| 11> H          4.34337        1.24932       -6.41665
| 12> H          4.67671        2.95662       -6.57411
| 13> C          5.94213        0.93950       -2.03689
| 14> H          3.86431        0.32853       -2.13661
| 15> H          4.07623        2.04999       -1.98901
| 16> H          6.32982        0.06401       -2.51451
| 17> H          5.98308        0.81426       -0.97504
| 18> H          6.52865        1.78889       -2.31873
| 19> *
| 20>
| 21> %MaxCore 64000
| 22>
| 23> %pal nprocs 4
| 24> end
| 25>
| 26> %scf
| 27>   MaxIter 150
| 28> end
| 29>
| 30>
| 31>                          ****END OF INPUT****

CARTESIAN COORDINATES (ANGSTROEM)
---------------------------------
  C      4.490590    1.155900   -2.469290
  C      4.305390    1.222760   -3.908320
  C      4.631920    2.246370   -4.670960
  N      4.541690    2.143990   -5.987140
  N      5.084090    3.393580   -4.118550
  H      4.920670    3.570500   -3.135870
  H      5.254650    4.197390   -4.706960
  H      3.824530    0.449110   -4.350930
  H      4.343370    1.249320   -6.416650
  H      4.676710    2.956620   -6.574110
  C      5.942130    0.939500   -2.036890
  H      3.864310    0.328530   -2.136610
  H      4.076230    2.049990   -1.989010
  H      6.329820    0.064010   -2.514510
  H      5.983080    0.814260   -0.975040
  H      6.528650    1.788890   -2.318730

 Total Charge           Charge          ....    0
 Multiplicity           Mult            ....    1
 Number of Electrons    NEL             ....   48
 Basis Dimension        Dim             ....  312

ORBITAL ENERGIES
----------------

  NO   OCC          E(Eh)            E(eV)
   0   2.0000     -14.213768      -386.7763
   1   2.0000     -14.211545      -386.7158
   2   2.0000     -10.161705      -276.5140
   3   2.0000     -10.087890      -274.5054
   4   2.0000     -10.074078      -274.1296
   5   2.0000     -10.033929      -273.0371
   6   2.0000      -1.136812       -30.9342
   7   2.0000      -1.037647       -28.2358
   8   2.0000      -0.950125       -25.8542
   9   2.0000      -0.862507       -23.4700
  10   2.0000      -0.777885       -21.1673
  11   2.0000      -0.730344       -19.8737
  12   2.0000      -0.689745       -18.7689
  13   2.0000      -0.655158       -17.8277
  14   2.0000      -0.612760       -16.6740
  15   2.0000      -0.578321       -15.7369
  16   2.0000      -0.566630       -15.4188
  17   2.0000      -0.529998       -14.4220
  18   2.0000      -0.525888       -14.3102
  19   2.0000      -0.484078       -13.1724
  20   2.0000      -0.457199       -12.4410
  21   2.0000      -0.442972       -12.0539
  22   2.0000      -0.398883       -10.8542
  23   2.0000      -0.276425        -7.5219
  24   0.0000       0.062021         1.6877
  25   0.0000       0.086013         2.3405
  26   0.0000       0.090437         2.4609
  27   0.0000       0.099405         2.7049
  28   0.0000       0.115629         3.1464

MULLIKEN ATOMIC CHARGES
-----------------------
   0 C :   -0.872670
   1 C :   -0.648315
   2 C :    0.716954
   3 N :   -0.509913
   4 N :   -0.461877
   5 H :    0.213761
   6 H :    0.173565
   7 H :    0.319783
   8 H :    0.195739
   9 H :    0.186520
  10 C :   -1.081221
  11 H :    0.329223
  12 H :    0.391701
  13 H :    0.350455
  14 H :    0.345226
  15 H :    0.351069
Sum of atomic charges:    0.0000000

LOEWDIN ATOMIC CHARGES
----------------------
   0 C :   -0.306038
   1 C :   -0.167239
   2 C :   -0.550277
   3 N :    0.096725
   4 N :    0.118275
   5 H :    0.103606
   6 H :    0.104758
   7 H :    0.075661
   8 H :    0.118982
   9 H :    0.106874
  10 C :   -0.127586
  11 H :    0.112050
  12 H :    0.107303
  13 H :    0.075833
  14 H :    0.065976
  15 H :    0.065097

  Mayer bond orders larger than 0.100000
B(  0-C ,  1-C ) :   0.7120 B(  0-C ,  2-C ) :   0.1852 B(  0-C , 10-C ) :   0.5649
B(  0-C , 11-H ) :   1.0175 B(  0-C , 12-H ) :   0.8264 B(  1-C ,  2-C ) :   1.0804
B(  1-C ,  3-N ) :   0.1187 B(  1-C ,  7-H ) :   1.0465 B(  2-C ,  3-N ) :   0.7979
B(  2-C ,  4-N ) :   0.8731 B(  2-C ,  7-H ) :  -0.1738 B(  3-N ,  8-H ) :   1.0212
B(  3-N ,  9-H ) :   1.0627 B(  4-N ,  5-H ) :   0.9577 B(  4-N ,  6-H ) :   1.0704
B( 10-C , 13-H ) :   0.9669 B( 10-C , 14-H ) :   0.9543 B( 10-C , 15-H ) :   0.9297

FINAL SINGLE POINT ENERGY      -267.138477931553

DIPOLE MOMENT
-------------
                                X             Y             Z
Electronic contribution:     -1.26850       1.96323      -4.09518
Nuclear contribution   :      1.23062      -1.24683       3.43056
                        -----------------------------------------
Total Dipole Moment    :     -0.03788       0.71639      -0.66462
                        -----------------------------------------
Magnitude (a.u.)       :      0.97794
Magnitude (Debye)      :      2.48574

Rotational constants in cm-1:     0.231477     0.075416     0.065327
Rotational constants in MHz :  6939.497385  2260.912204  1958.442932

                             ****ORCA TERMINATED NORMALLY****
TOTAL RUN TIME: 0 days 0 hours 0 minutes 56 seconds 353 msec
