                         Program Version 5.0.0 -  RELEASE  -
|  1> !LC-PBE RIJCOSX def2-TZVPD def2/J TightSCF
|  2> *xyz 0 1
|  3> C          4.90646       -3.10282       -5.95484
|  4> C          3.51177       -2.80621       -6.49228
|  5> H          2.73604       -3.37345       -5.97374
|  6> H          3.44490       -3.04083       -7.55528
|  7> S          3.00462       -1.09621       -6.38926
|  8> O          4.12886       -0.32965       -6.95372
|  9> F          1.78128       -1.00078       -7.13640
| 10> O          2.85155       -0.78368       -4.95679
| 11> H          5.62703       -2.52424       -6.49422
| 12> H          5.12164       -4.14387       -6.07654
| 13> H          4.95004       -2.84862       -4.91639
| 14> *
| 15>
| 16> %MaxCore 64000
| 17>
| 18> %pal nprocs 4
| 19> end
| 20>
| 21> %scf
| 22>   MaxIter 150
| 23> end
| 24>
| 25>
| 26>                          ****END OF INPUT****

CARTESIAN COORDINATES (ANGSTROEM)
---------------------------------
  C      4.906460   -3.102820   -5.954840
  C      3.511770   -2.806210   -6.492280
  H      2.736040   -3.373450   -5.973740
  H      3.444900   -3.040830   -7.555280
  S      3.004620   -1.096210   -6.389260
  O      4.128860   -0.329650   -6.953720
  F      1.781280   -1.000780   -7.136400
  O      2.851550   -0.783680   -4.956790
  H      5.627030   -2.524240   -6.494220
  H      5.121640   -4.143870   -6.076540
  H      4.950040   -2.848620   -4.916390

 Total Charge           Charge          ....    0
 Multiplicity           Mult            ....    1
 Number of Electrons    NEL             ....   58
 Basis Dimension        Dim             ....  285

ORBITAL ENERGIES
----------------

  NO   OCC          E(Eh)            E(eV)
   0   2.0000     -88.536174     -2409.1918
   1   2.0000     -24.621435      -669.9833
   2   2.0000     -18.984316      -516.5895
   3   2.0000     -18.984273      -516.5883
   4   2.0000     -10.184935      -277.1462
   5   2.0000     -10.133772      -275.7540
   6   2.0000      -8.147509      -221.7050
   7   2.0000      -6.167845      -167.8356
   8   2.0000      -6.160811      -167.6442
   9   2.0000      -6.160450      -167.6344
  10   2.0000      -1.554027       -42.2872
  11   2.0000      -1.269955       -34.5572
  12   2.0000      -1.163722       -31.6665
  13   2.0000      -1.007083       -27.4041
  14   2.0000      -0.905855       -24.6496
  15   2.0000      -0.842815       -22.9342
  16   2.0000      -0.750666       -20.4267
  17   2.0000      -0.748398       -20.3649
  18   2.0000      -0.709465       -19.3055
  19   2.0000      -0.647038       -17.6068
  20   2.0000      -0.628998       -17.1159
  21   2.0000      -0.582175       -15.8418
  22   2.0000      -0.573440       -15.6041
  23   2.0000      -0.548264       -14.9190
  24   2.0000      -0.525524       -14.3002
  25   2.0000      -0.522261       -14.2114
  26   2.0000      -0.465775       -12.6744
  27   2.0000      -0.459936       -12.5155
  28   2.0000      -0.438812       -11.9407
  29   0.0000       0.044084         1.1996
  30   0.0000       0.059160         1.6098
  31   0.0000       0.063336         1.7235
  32   0.0000       0.070131         1.9084
  33   0.0000       0.097914         2.6644

MULLIKEN ATOMIC CHARGES
-----------------------
   0 C :   -1.213448
   1 C :   -0.622487
   2 H :    0.429297
   3 H :    0.425614
   4 S :    1.046662
   5 O :   -0.567023
   6 F :   -0.074833
   7 O :   -0.563560
   8 H :    0.392642
   9 H :    0.378281
  10 H :    0.368855
Sum of atomic charges:   -0.0000000

LOEWDIN ATOMIC CHARGES
----------------------
   0 C :   -0.121818
   1 C :   -0.308239
   2 H :    0.112877
   3 H :    0.109551
   4 S :    0.571473
   5 O :   -0.292953
   6 F :   -0.031014
   7 O :   -0.293165
   8 H :    0.082454
   9 H :    0.083933
  10 H :    0.086903

  Mayer bond orders larger than 0.100000
B(  0-C ,  1-C ) :   0.6922 B(  0-C ,  8-H ) :   0.8991 B(  0-C ,  9-H ) :   0.9063
B(  0-C , 10-H ) :   0.9132 B(  1-C ,  2-H ) :   0.8266 B(  1-C ,  3-H ) :   0.8214
B(  1-C ,  4-S ) :   0.8964 B(  4-S ,  5-O ) :   1.6724 B(  4-S ,  6-F ) :   1.0361
B(  4-S ,  7-O ) :   1.6700

FINAL SINGLE POINT ENERGY      -726.591500031049

DIPOLE MOMENT
-------------
                                X             Y             Z
Electronic contribution:     -6.97670       7.01028      -2.08032
Nuclear contribution   :      6.63544      -8.66423       1.42287
                        -----------------------------------------
Total Dipole Moment    :     -0.34126      -1.65395      -0.65745
                        -----------------------------------------
Magnitude (a.u.)       :      1.81225
Magnitude (Debye)      :      4.60636

Rotational constants in cm-1:     0.158118     0.080978     0.078216
Rotational constants in MHz :  4740.271775  2427.649826  2344.849020

                             ****ORCA TERMINATED NORMALLY****
TOTAL RUN TIME: 0 days 0 hours 0 minutes 34 seconds 471 msec
