                         Program Version 5.0.0 -  RELEASE  -
|  1> !LC-PBE RIJCOSX def2-TZVPD def2/J TightSCF
|  2> *xyz 0 1
|  3> C          4.49059        1.15590       -2.46929
|  4> N          4.30539        1.22276       -3.90832
|  5> C          4.63192        2.24637       -4.67096
|  6> C          4.54169        2.14399       -5.98714
|  7> N          5.08409        3.39358       -4.11855
|  8> H          4.92067        3.57050       -3.13587
|  9> H          5.25465        4.19739       -4.70696
| 10> H          3.82453        0.44911       -4.35093
| 11> H          4.34337        1.24932       -6.41665
| 12> H          4.67671        2.95662       -6.57411
| 13> C          5.94213        0.93950       -2.03689
| 14> H          3.86431        0.32853       -2.13661
| 15> H          4.07623        2.04999       -1.98901
| 16> H          6.32982        0.06401       -2.51451
| 17> H          5.98308        0.81426       -0.97504
| 18> H          6.52865        1.78889       -2.31873
| 19> *
| 20>
| 21> %MaxCore 64000
| 22>
| 23> %pal nprocs 4
| 24> end
| 25>
| 26> %scf
| 27>   MaxIter 150
| 28> end
| 29>
| 30>
| 31>                          ****END OF INPUT****

CARTESIAN COORDINATES (ANGSTROEM)
---------------------------------
  C      4.490590    1.155900   -2.469290
  N      4.305390    1.222760   -3.908320
  C      4.631920    2.246370   -4.670960
  C      4.541690    2.143990   -5.987140
  N      5.084090    3.393580   -4.118550
  H      4.920670    3.570500   -3.135870
  H      5.254650    4.197390   -4.706960
  H      3.824530    0.449110   -4.350930
  H      4.343370    1.249320   -6.416650
  H      4.676710    2.956620   -6.574110
  C      5.942130    0.939500   -2.036890
  H      3.864310    0.328530   -2.136610
  H      4.076230    2.049990   -1.989010
  H      6.329820    0.064010   -2.514510
  H      5.983080    0.814260   -0.975040
  H      6.528650    1.788890   -2.318730

 Total Charge           Charge          ....    0
 Multiplicity           Mult            ....    1
 Number of Electrons    NEL             ....   48
 Basis Dimension        Dim             ....  312

ORBITAL ENERGIES
----------------

  NO   OCC          E(Eh)            E(eV)
   0   2.0000     -14.215103      -386.8126
   1   2.0000     -14.212093      -386.7307
   2   2.0000     -10.164896      -276.6009
   3   2.0000     -10.156064      -276.3606
   4   2.0000     -10.099953      -274.8337
   5   2.0000     -10.021434      -272.6971
   6   2.0000      -1.146536       -31.1988
   7   2.0000      -1.051755       -28.6197
   8   2.0000      -0.946041       -25.7431
   9   2.0000      -0.870653       -23.6917
  10   2.0000      -0.792583       -21.5673
  11   2.0000      -0.751199       -20.4412
  12   2.0000      -0.684524       -18.6268
  13   2.0000      -0.645279       -17.5589
  14   2.0000      -0.619587       -16.8598
  15   2.0000      -0.592100       -16.1119
  16   2.0000      -0.566348       -15.4111
  17   2.0000      -0.541987       -14.7482
  18   2.0000      -0.516992       -14.0681
  19   2.0000      -0.507693       -13.8150
  20   2.0000      -0.494270       -13.4498
  21   2.0000      -0.483199       -13.1485
  22   2.0000      -0.385979       -10.5030
  23   2.0000      -0.280193        -7.6244
  24   0.0000       0.061370         1.6700
  25   0.0000       0.085266         2.3202
  26   0.0000       0.086913         2.3650
  27   0.0000       0.091275         2.4837
  28   0.0000       0.117562         3.1990

MULLIKEN ATOMIC CHARGES
-----------------------
   0 C :   -0.714789
   1 N :   -0.277587
   2 C :    0.914586
   3 C :   -1.337858
   4 N :   -0.482218
   5 H :    0.216545
   6 H :    0.180361
   7 H :    0.180316
   8 H :    0.320589
   9 H :    0.274913
  10 C :   -1.106850
  11 H :    0.374146
  12 H :    0.377372
  13 H :    0.328271
  14 H :    0.390167
  15 H :    0.362036
Sum of atomic charges:   -0.0000000

LOEWDIN ATOMIC CHARGES
----------------------
   0 C :   -0.264651
   1 N :    0.005512
   2 C :   -0.569483
   3 C :   -0.025088
   4 N :    0.111769
   5 H :    0.095350
   6 H :    0.115022
   7 H :    0.153702
   8 H :    0.018755
   9 H :    0.015805
  10 C :   -0.108061
  11 H :    0.121282
  12 H :    0.113836
  13 H :    0.077704
  14 H :    0.071486
  15 H :    0.067060

  Mayer bond orders larger than 0.100000
B(  0-C ,  1-N ) :   0.7912 B(  0-C ,  2-C ) :  -0.1598 B(  0-C , 10-C ) :   0.6035
B(  0-C , 11-H ) :   0.9004 B(  0-C , 12-H ) :   0.8929 B(  1-N ,  2-C ) :   0.9419
B(  1-N ,  3-C ) :   0.1257 B(  1-N ,  7-H ) :   1.0616 B(  2-C ,  3-C ) :   0.8954
B(  2-C ,  4-N ) :   0.8395 B(  2-C ,  9-H ) :  -0.1681 B(  3-C ,  8-H ) :   0.9697
B(  3-C ,  9-H ) :   1.1288 B(  4-N ,  5-H ) :   0.9849 B(  4-N ,  6-H ) :   1.0357
B( 10-C , 13-H ) :   0.9844 B( 10-C , 14-H ) :   0.9234 B( 10-C , 15-H ) :   0.9165

FINAL SINGLE POINT ENERGY      -267.128767322481

DIPOLE MOMENT
-------------
                                X             Y             Z
Electronic contribution:     -1.42088       1.07488      -1.91632
Nuclear contribution   :      1.28075      -1.05140       2.98955
                        -----------------------------------------
Total Dipole Moment    :     -0.14013       0.02348       1.07323
                        -----------------------------------------
Magnitude (a.u.)       :      1.08260
Magnitude (Debye)      :      2.75175

Rotational constants in cm-1:     0.229858     0.078444     0.067377
Rotational constants in MHz :  6890.979812  2351.691803  2019.910665

                             ****ORCA TERMINATED NORMALLY****
TOTAL RUN TIME: 0 days 0 hours 0 minutes 56 seconds 30 msec
