                         Program Version 5.0.0 -  RELEASE  -
|  1> !LC-PBE RIJCOSX def2-TZVPD def2/J TightSCF
|  2> *xyz 0 1
|  3> C          4.90646       -3.10282       -5.95484
|  4> C          3.51177       -2.80621       -6.49228
|  5> H          2.73604       -3.37345       -5.97374
|  6> H          3.44490       -3.04083       -7.55528
|  7> S          3.00462       -1.09621       -6.38926
|  8> O          4.12886       -0.32965       -6.95372
|  9> O          1.78128       -1.00078       -7.13640
| 10> F          2.85155       -0.78368       -4.95679
| 11> H          5.62703       -2.52424       -6.49422
| 12> H          5.12164       -4.14387       -6.07654
| 13> H          4.95004       -2.84862       -4.91639
| 14> *
| 15>
| 16> %MaxCore 64000
| 17>
| 18> %pal nprocs 4
| 19> end
| 20>
| 21> %scf
| 22>   MaxIter 150
| 23> end
| 24>
| 25>
| 26>                          ****END OF INPUT****

CARTESIAN COORDINATES (ANGSTROEM)
---------------------------------
  C      4.906460   -3.102820   -5.954840
  C      3.511770   -2.806210   -6.492280
  H      2.736040   -3.373450   -5.973740
  H      3.444900   -3.040830   -7.555280
  S      3.004620   -1.096210   -6.389260
  O      4.128860   -0.329650   -6.953720
  O      1.781280   -1.000780   -7.136400
  F      2.851550   -0.783680   -4.956790
  H      5.627030   -2.524240   -6.494220
  H      5.121640   -4.143870   -6.076540
  H      4.950040   -2.848620   -4.916390

 Total Charge           Charge          ....    0
 Multiplicity           Mult            ....    1
 Number of Electrons    NEL             ....   58
 Basis Dimension        Dim             ....  285

ORBITAL ENERGIES
----------------

  NO   OCC          E(Eh)            E(eV)
   0   2.0000     -88.534028     -2409.1334
   1   2.0000     -24.601474      -669.4401
   2   2.0000     -18.996791      -516.9290
   3   2.0000     -18.984365      -516.5908
   4   2.0000     -10.183860      -277.1169
   5   2.0000     -10.135680      -275.8059
   6   2.0000      -8.145350      -221.6462
   7   2.0000      -6.165896      -167.7826
   8   2.0000      -6.158791      -167.5892
   9   2.0000      -6.158097      -167.5703
  10   2.0000      -1.522300       -41.4239
  11   2.0000      -1.282851       -34.9082
  12   2.0000      -1.178873       -32.0788
  13   2.0000      -1.008114       -27.4322
  14   2.0000      -0.890585       -24.2340
  15   2.0000      -0.839788       -22.8518
  16   2.0000      -0.741520       -20.1778
  17   2.0000      -0.726162       -19.7599
  18   2.0000      -0.700317       -19.0566
  19   2.0000      -0.644817       -17.5464
  20   2.0000      -0.627917       -17.0865
  21   2.0000      -0.601719       -16.3736
  22   2.0000      -0.576015       -15.6742
  23   2.0000      -0.548873       -14.9356
  24   2.0000      -0.539336       -14.6761
  25   2.0000      -0.517430       -14.0800
  26   2.0000      -0.476855       -12.9759
  27   2.0000      -0.463240       -12.6054
  28   2.0000      -0.452132       -12.3031
  29   0.0000       0.047883         1.3030
  30   0.0000       0.058983         1.6050
  31   0.0000       0.065171         1.7734
  32   0.0000       0.068366         1.8603
  33   0.0000       0.096638         2.6297

MULLIKEN ATOMIC CHARGES
-----------------------
   0 C :   -1.192104
   1 C :   -0.617994
   2 H :    0.439570
   3 H :    0.403866
   4 S :    1.054424
   5 O :   -0.571402
   6 O :   -0.532523
   7 F :   -0.125240
   8 H :    0.391269
   9 H :    0.378434
  10 H :    0.371699
Sum of atomic charges:   -0.0000000

LOEWDIN ATOMIC CHARGES
----------------------
   0 C :   -0.132472
   1 C :   -0.299889
   2 H :    0.113029
   3 H :    0.120608
   4 S :    0.571478
   5 O :   -0.291180
   6 O :   -0.267276
   7 F :   -0.058914
   8 H :    0.080833
   9 H :    0.082424
  10 H :    0.081357

  Mayer bond orders larger than 0.100000
B(  0-C ,  1-C ) :   0.6211 B(  0-C ,  8-H ) :   0.9262 B(  0-C ,  9-H ) :   0.9196
B(  0-C , 10-H ) :   0.8910 B(  1-C ,  2-H ) :   0.8251 B(  1-C ,  3-H ) :   0.8589
B(  1-C ,  4-S ) :   0.9101 B(  4-S ,  5-O ) :   1.6699 B(  4-S ,  6-O ) :   1.7116
B(  4-S ,  7-F ) :   0.9899

FINAL SINGLE POINT ENERGY      -726.607753317459

DIPOLE MOMENT
-------------
                                X             Y             Z
Electronic contribution:     -5.14463       7.37459       1.67357
Nuclear contribution   :      5.52019      -8.89046      -0.84835
                        -----------------------------------------
Total Dipole Moment    :      0.37555      -1.51586       0.82522
                        -----------------------------------------
Magnitude (a.u.)       :      1.76631
Magnitude (Debye)      :      4.48961

Rotational constants in cm-1:     0.153332     0.082132     0.079755
Rotational constants in MHz :  4596.775407  2462.251277  2391.008596

                             ****ORCA TERMINATED NORMALLY****
TOTAL RUN TIME: 0 days 0 hours 0 minutes 35 seconds 129 msec
