                         Program Version 5.0.0 -  RELEASE  -
|  1> !LC-PBE RIJCOSX def2-TZVPD def2/J TightSCF
|  2> *xyz 0 1
|  3> C          4.49059        1.15590       -2.46929
|  4> N          4.30539        1.22276       -3.90832
|  5> C          4.63192        2.24637       -4.67096
|  6> N          4.54169        2.14399       -5.98714
|  7> C          5.08409        3.39358       -4.11855
|  8> H          4.92067        3.57050       -3.13587
|  9> H          5.25465        4.19739       -4.70696
| 10> H          3.82453        0.44911       -4.35093
| 11> H          4.34337        1.24932       -6.41665
| 12> H          4.67671        2.95662       -6.57411
| 13> C          5.94213        0.93950       -2.03689
| 14> H          3.86431        0.32853       -2.13661
| 15> H          4.07623        2.04999       -1.98901
| 16> H          6.32982        0.06401       -2.51451
| 17> H          5.98308        0.81426       -0.97504
| 18> H          6.52865        1.78889       -2.31873
| 19> *
| 20>
| 21> %MaxCore 64000
| 22>
| 23> %pal nprocs 4
| 24> end
| 25>
| 26> %scf
| 27>   MaxIter 150
| 28> end
| 29>
| 30>
| 31>                          ****END OF INPUT****

CARTESIAN COORDINATES (ANGSTROEM)
---------------------------------
  C      4.490590    1.155900   -2.469290
  N      4.305390    1.222760   -3.908320
  C      4.631920    2.246370   -4.670960
  N      4.541690    2.143990   -5.987140
  C      5.084090    3.393580   -4.118550
  H      4.920670    3.570500   -3.135870
  H      5.254650    4.197390   -4.706960
  H      3.824530    0.449110   -4.350930
  H      4.343370    1.249320   -6.416650
  H      4.676710    2.956620   -6.574110
  C      5.942130    0.939500   -2.036890
  H      3.864310    0.328530   -2.136610
  H      4.076230    2.049990   -1.989010
  H      6.329820    0.064010   -2.514510
  H      5.983080    0.814260   -0.975040
  H      6.528650    1.788890   -2.318730

 Total Charge           Charge          ....    0
 Multiplicity           Mult            ....    1
 Number of Electrons    NEL             ....   48
 Basis Dimension        Dim             ....  312

ORBITAL ENERGIES
----------------

  NO   OCC          E(Eh)            E(eV)
   0   2.0000     -14.219488      -386.9319
   1   2.0000     -14.214912      -386.8074
   2   2.0000     -10.168253      -276.6922
   3   2.0000     -10.147669      -276.1321
   4   2.0000     -10.089573      -274.5513
   5   2.0000     -10.022511      -272.7264
   6   2.0000      -1.150349       -31.3026
   7   2.0000      -1.059936       -28.8423
   8   2.0000      -0.925026       -25.1712
   9   2.0000      -0.876596       -23.8534
  10   2.0000      -0.802726       -21.8433
  11   2.0000      -0.714054       -19.4304
  12   2.0000      -0.702408       -19.1135
  13   2.0000      -0.667998       -18.1771
  14   2.0000      -0.615441       -16.7470
  15   2.0000      -0.580952       -15.8085
  16   2.0000      -0.556916       -15.1544
  17   2.0000      -0.534717       -14.5504
  18   2.0000      -0.514516       -14.0007
  19   2.0000      -0.499466       -13.5912
  20   2.0000      -0.496055       -13.4983
  21   2.0000      -0.473316       -12.8796
  22   2.0000      -0.380492       -10.3537
  23   2.0000      -0.281527        -7.6607
  24   0.0000       0.062475         1.7000
  25   0.0000       0.081727         2.2239
  26   0.0000       0.088121         2.3979
  27   0.0000       0.095860         2.6085
  28   0.0000       0.119812         3.2602

MULLIKEN ATOMIC CHARGES
-----------------------
   0 C :   -0.683476
   1 N :   -0.310976
   2 C :    0.974131
   3 N :   -0.470228
   4 C :   -1.445050
   5 H :    0.314378
   6 H :    0.307364
   7 H :    0.201584
   8 H :    0.200777
   9 H :    0.198037
  10 C :   -1.143784
  11 H :    0.375325
  12 H :    0.369873
  13 H :    0.333902
  14 H :    0.386797
  15 H :    0.391345
Sum of atomic charges:   -0.0000000

LOEWDIN ATOMIC CHARGES
----------------------
   0 C :   -0.261477
   1 N :    0.001292
   2 C :   -0.571517
   3 N :    0.103792
   4 C :   -0.017328
   5 H :    0.009703
   6 H :    0.013525
   7 H :    0.146388
   8 H :    0.110160
   9 H :    0.118958
  10 C :   -0.106761
  11 H :    0.119757
  12 H :    0.119145
  13 H :    0.075183
  14 H :    0.072164
  15 H :    0.067015

  Mayer bond orders larger than 0.100000
B(  0-C ,  1-N ) :   0.7959 B(  0-C ,  4-C ) :   0.1886 B(  0-C , 10-C ) :   0.6175
B(  0-C , 11-H ) :   0.8629 B(  0-C , 12-H ) :   0.9160 B(  1-N ,  2-C ) :   0.9500
B(  1-N ,  7-H ) :   1.0696 B(  2-C ,  3-N ) :   0.8011 B(  2-C ,  4-C ) :   0.9596
B(  2-C ,  6-H ) :  -0.1257 B(  3-N ,  8-H ) :   1.0388 B(  3-N ,  9-H ) :   1.0212
B(  4-C ,  5-H ) :   0.9799 B(  4-C ,  6-H ) :   1.0749 B( 10-C , 13-H ) :   0.9653
B( 10-C , 14-H ) :   0.9097 B( 10-C , 15-H ) :   0.9301

FINAL SINGLE POINT ENERGY      -267.128255041487

DIPOLE MOMENT
-------------
                                X             Y             Z
Electronic contribution:     -1.90273      -0.14113      -3.82016
Nuclear contribution   :      1.39581      -0.78630       3.38596
                        -----------------------------------------
Total Dipole Moment    :     -0.50691      -0.92744      -0.43419
                        -----------------------------------------
Magnitude (a.u.)       :      1.14264
Magnitude (Debye)      :      2.90436

Rotational constants in cm-1:     0.239249     0.075811     0.066261
Rotational constants in MHz :  7172.504830  2272.756282  1986.457543

                             ****ORCA TERMINATED NORMALLY****
TOTAL RUN TIME: 0 days 0 hours 0 minutes 56 seconds 468 msec
