                         Program Version 5.0.0 -  RELEASE  -
|  1> !LC-PBE RIJCOSX def2-TZVPD def2/J TightSCF xyzfile
|  2>
|  3> *xyzfile 0 1 D1.xyz
|  4>
|  5> %MaxCore 64000
|  6>
|  7> %pal nprocs 4
|  8> end
|  9>
| 10> %scf
| 11>   MaxIter 150
| 12> end
| 13>
| 14>
| 15>                          ****END OF INPUT****

CARTESIAN COORDINATES (ANGSTROEM)
---------------------------------
  C      4.490588    1.155899   -2.469290
  C      4.305394    1.222762   -3.908317
  C      4.906458   -3.102816   -5.954844
  C      3.511771   -2.806215   -6.492283
  H      2.736044   -3.373445   -5.973736
  H      3.444904   -3.040831   -7.555281
  S      3.004618   -1.096206   -6.389259
  C      4.631918    2.246365   -4.670958
  N      4.541686    2.143990   -5.987139
  N      5.084086    3.393584   -4.118545
  H      4.920675    3.570501   -3.135870
  H      5.254652    4.197390   -4.706956
  H      3.824530    0.449113   -4.350926
  H      4.343373    1.249318   -6.416646
  H      4.676712    2.956624   -6.574113
  F      4.128856   -0.329647   -6.953717
  O      1.781285   -1.000779   -7.136399
  C      5.942129    0.939500   -2.036893
  H      3.864305    0.328532   -2.136611
  H      4.076233    2.049994   -1.989010
  C      6.462677   -3.117775   -3.944671
  C      5.024977   -3.025679   -4.437625
  H      4.423321   -3.818693   -3.977648
  H      4.579350   -2.087131   -4.108727
  H      5.201533   -4.100207   -6.296905
  H      5.605922   -2.397822   -6.413368
  C      6.559957   -0.356290   -2.559086
  H      5.967976    0.952567   -0.942444
  H      6.547184    1.788331   -2.368849
  C      6.006283   -1.615917   -1.899301
  H      7.642360   -0.318000   -2.402059
  H      6.414855   -0.403433   -3.642587
  C      6.608718   -2.917014   -2.435655
  H      6.190324   -1.561115   -0.820948
  H      4.919250   -1.651245   -2.016586
  H      7.066975   -2.374258   -4.475514
  H      6.887808   -4.089747   -4.215332
  H      6.135197   -3.755573   -1.915159
  H      7.671142   -2.955503   -2.172291
  O      2.851546   -0.783683   -4.956789

 Total Charge           Charge          ....    0
 Multiplicity           Mult            ....    1
 Number of Electrons    NEL             ....  144
 Basis Dimension        Dim             ....  854

ORBITAL ENERGIES
----------------

  NO   OCC          E(Eh)            E(eV)
   0   2.0000     -88.542710     -2409.3696
   1   2.0000     -24.620918      -669.9692
   2   2.0000     -19.004370      -517.1352
   3   2.0000     -18.990607      -516.7607
   4   2.0000     -14.201568      -386.4443
   5   2.0000     -14.197638      -386.3374
   6   2.0000     -10.184853      -277.1439
   7   2.0000     -10.146823      -276.1091
   8   2.0000     -10.145954      -276.0854
   9   2.0000     -10.114832      -275.2386
  10   2.0000     -10.110307      -275.1154
  11   2.0000     -10.103821      -274.9390
  12   2.0000     -10.094412      -274.6829
  13   2.0000     -10.087454      -274.4936
  14   2.0000     -10.082776      -274.3663
  15   2.0000     -10.075503      -274.1684
  16   2.0000     -10.007657      -272.3222
  17   2.0000      -8.154474      -221.8945
  18   2.0000      -6.175256      -168.0372
  19   2.0000      -6.167502      -167.8262
  20   2.0000      -6.167214      -167.8184
  21   2.0000      -1.544583       -42.0302
  22   2.0000      -1.293017       -35.1848
  23   2.0000      -1.188958       -32.3532
  24   2.0000      -1.124554       -30.6007
  25   2.0000      -1.029739       -28.0206
  26   2.0000      -1.025342       -27.9010
  27   2.0000      -0.989041       -26.9132
  28   2.0000      -0.957410       -26.0524
  29   2.0000      -0.926776       -25.2189
  30   2.0000      -0.895170       -24.3588
  31   2.0000      -0.871471       -23.7139
  32   2.0000      -0.839356       -22.8400
  33   2.0000      -0.805783       -21.9265
  34   2.0000      -0.780369       -21.2349
  35   2.0000      -0.769132       -20.9291
  36   2.0000      -0.751996       -20.4629
  37   2.0000      -0.742506       -20.2046
  38   2.0000      -0.716771       -19.5043
  39   2.0000      -0.714327       -19.4378
  40   2.0000      -0.697710       -18.9857
  41   2.0000      -0.675554       -18.3828
  42   2.0000      -0.650474       -17.7003
  43   2.0000      -0.640696       -17.4342
  44   2.0000      -0.633627       -17.2419
  45   2.0000      -0.621774       -16.9193
  46   2.0000      -0.608722       -16.5642
  47   2.0000      -0.597000       -16.2452
  48   2.0000      -0.594504       -16.1773
  49   2.0000      -0.590876       -16.0786
  50   2.0000      -0.568564       -15.4714
  51   2.0000      -0.561551       -15.2806
  52   2.0000      -0.560192       -15.2436
  53   2.0000      -0.548867       -14.9354
  54   2.0000      -0.532025       -14.4771
  55   2.0000      -0.524073       -14.2608
  56   2.0000      -0.519117       -14.1259
  57   2.0000      -0.505585       -13.7577
  58   2.0000      -0.503936       -13.7128
  59   2.0000      -0.487674       -13.2703
  60   2.0000      -0.485802       -13.2193
  61   2.0000      -0.475631       -12.9426
  62   2.0000      -0.468908       -12.7596
  63   2.0000      -0.451660       -12.2903
  64   2.0000      -0.450751       -12.2656
  65   2.0000      -0.445579       -12.1248
  66   2.0000      -0.434400       -11.8206
  67   2.0000      -0.424258       -11.5447
  68   2.0000      -0.417454       -11.3595
  69   2.0000      -0.402559       -10.9542
  70   2.0000      -0.386833       -10.5263
  71   2.0000      -0.261335        -7.1113
  72   0.0000       0.040699         1.1075
  73   0.0000       0.053513         1.4562
  74   0.0000       0.062740         1.7072
  75   0.0000       0.067639         1.8406
  76   0.0000       0.079402         2.1606

MULLIKEN ATOMIC CHARGES
-----------------------
   0 C :   -1.370457
   1 C :   -1.236342
   2 C :   -0.850876
   3 C :   -0.894911
   4 H :    0.444612
   5 H :    0.439652
   6 S :    1.201174
   7 C :    1.099679
   8 N :   -0.418062
   9 N :   -0.468164
  10 H :    0.236142
  11 H :    0.160133
  12 H :    0.765297
  13 H :    0.181918
  14 H :    0.156395
  15 F :   -0.242089
  16 O :   -0.572706
  17 C :   -0.795887
  18 H :    0.350320
  19 H :    0.487012
  20 C :   -0.934268
  21 C :   -0.299599
  22 H :    0.332878
  23 H :    0.345249
  24 H :    0.403686
  25 H :    0.408015
  26 C :   -0.540823
  27 H :    0.390985
  28 H :    0.455173
  29 C :   -0.823558
  30 H :    0.336818
  31 H :    0.352729
  32 C :   -0.888996
  33 H :    0.380948
  34 H :    0.376907
  35 H :    0.479355
  36 H :    0.392962
  37 H :    0.370366
  38 H :    0.383761
  39 O :   -0.595426
Sum of atomic charges:    0.0000000

LOEWDIN ATOMIC CHARGES
----------------------
   0 C :   -0.235584
   1 C :   -0.156569
   2 C :   -0.240347
   3 C :   -0.233026
   4 H :    0.132726
   5 H :    0.116545
   6 S :    0.617970
   7 C :   -0.525337
   8 N :    0.111081
   9 N :    0.118108
  10 H :    0.102483
  11 H :    0.102239
  12 H :    0.007720
  13 H :    0.058849
  14 H :    0.111705
  15 F :   -0.069084
  16 O :   -0.245808
  17 C :   -0.223762
  18 H :    0.115802
  19 H :    0.113800
  20 C :   -0.235882
  21 C :   -0.234511
  22 H :    0.140527
  23 H :    0.095281
  24 H :    0.131651
  25 H :    0.123151
  26 C :   -0.230222
  27 H :    0.115784
  28 H :    0.112019
  29 C :   -0.235523
  30 H :    0.124060
  31 H :    0.111474
  32 C :   -0.230078
  33 H :    0.123493
  34 H :    0.111662
  35 H :    0.118580
  36 H :    0.122033
  37 H :    0.118180
  38 H :    0.119072
  39 O :   -0.280261

  Mayer bond orders larger than 0.100000
B(  0-C ,  1-C ) :   0.7664 B(  0-C ,  7-C ) :  -0.1626 B(  0-C , 17-C ) :   0.6371
B(  0-C , 18-H ) :   0.9578 B(  0-C , 19-H ) :   0.8180 B(  1-C ,  7-C ) :   0.4414
B(  1-C , 12-H ) :  -0.1169 B(  1-C , 19-H ) :  -0.1473 B(  1-C , 31-H ) :  -0.1202
B(  1-C , 39-O ) :   0.2666 B(  2-C ,  3-C ) :   0.7704 B(  2-C , 20-C ) :   0.2338
B(  2-C , 21-C ) :   0.3990 B(  2-C , 24-H ) :   0.8959 B(  2-C , 25-H ) :   0.8700
B(  3-C ,  4-H ) :   0.7956 B(  3-C ,  5-H ) :   0.9317 B(  3-C ,  6-S ) :   0.9618
B(  3-C , 16-O ) :   0.1188 B(  6-S , 15-F ) :   0.8788 B(  6-S , 16-O ) :   1.5459
B(  6-S , 39-O ) :   1.6256 B(  7-C ,  8-N ) :   0.7546 B(  7-C ,  9-N ) :   0.8693
B(  7-C , 12-H ) :   0.5476 B(  8-N , 12-H ) :   0.1538 B(  8-N , 13-H ) :   0.9515
B(  8-N , 14-H ) :   1.1043 B(  9-N , 10-H ) :   0.9596 B(  9-N , 11-H ) :   1.0790
B(  9-N , 17-C ) :   0.1296 B( 12-H , 39-O ) :  -0.4577 B( 17-C , 26-C ) :   0.8601
B( 17-C , 27-H ) :   0.9048 B( 17-C , 28-H ) :   0.7995 B( 20-C , 21-C ) :   0.5062
B( 20-C , 26-C ) :   0.1200 B( 20-C , 32-C ) :   0.8519 B( 20-C , 35-H ) :   0.8553
B( 20-C , 36-H ) :   0.8631 B( 21-C , 22-H ) :   0.8413 B( 21-C , 23-H ) :   0.9854
B( 21-C , 29-C ) :   0.1392 B( 21-C , 39-O ) :   0.1501 B( 22-H , 23-H ) :   0.2499
B( 23-H , 39-O ) :  -0.1931 B( 26-C , 29-C ) :   0.3734 B( 26-C , 30-H ) :   0.9627
B( 26-C , 31-H ) :   0.9785 B( 26-C , 34-H ) :  -0.1173 B( 29-C , 32-C ) :   0.8117
B( 29-C , 33-H ) :   0.8932 B( 29-C , 34-H ) :   0.9984 B( 32-C , 37-H ) :   0.9394
B( 32-C , 38-H ) :   0.9438

FINAL SINGLE POINT ENERGY     -1188.468528412609

DIPOLE MOMENT
-------------
                                X             Y             Z
Electronic contribution:    -16.29008       4.79892     -21.40559
Nuclear contribution   :     17.24138      -5.45913      20.34076
                        -----------------------------------------
Total Dipole Moment    :      0.95131      -0.66021      -1.06483
                        -----------------------------------------
Magnitude (a.u.)       :      1.57312
Magnitude (Debye)      :      3.99856

Rotational constants in cm-1:     0.014201     0.012275     0.007453
Rotational constants in MHz :   425.728191   368.008875   223.435232

                             ****ORCA TERMINATED NORMALLY****
TOTAL RUN TIME: 0 days 0 hours 13 minutes 5 seconds 358 msec
