                         Program Version 5.0.0 -  RELEASE  -
|  1> !LC-PBE RIJCOSX def2-TZVPD def2/J TightSCF xyzfile
|  2>
|  3> *xyzfile 0 1 D2.xyz
|  4>
|  5> %MaxCore 64000
|  6>
|  7> %pal nprocs 4
|  8> end
|  9>
| 10> %scf
| 11>   MaxIter 150
| 12> end
| 13>
| 14>
| 15>                          ****END OF INPUT****

CARTESIAN COORDINATES (ANGSTROEM)
---------------------------------
  C      4.490588    1.155899   -2.469290
  N      4.305394    1.222762   -3.908317
  C      4.906458   -3.102816   -5.954844
  C      3.511771   -2.806215   -6.492283
  H      2.736044   -3.373445   -5.973736
  H      3.444904   -3.040831   -7.555281
  S      3.004618   -1.096206   -6.389259
  C      4.631918    2.246365   -4.670958
  C      4.541686    2.143990   -5.987139
  N      5.084086    3.393584   -4.118545
  H      4.920675    3.570501   -3.135870
  H      5.254652    4.197390   -4.706956
  H      3.824530    0.449113   -4.350926
  H      4.343373    1.249318   -6.416646
  H      4.676712    2.956624   -6.574113
  F      4.128856   -0.329647   -6.953717
  O      1.781285   -1.000779   -7.136399
  C      5.942129    0.939500   -2.036893
  H      3.864305    0.328532   -2.136611
  H      4.076233    2.049994   -1.989010
  C      6.462677   -3.117775   -3.944671
  C      5.024977   -3.025679   -4.437625
  H      4.423321   -3.818693   -3.977648
  H      4.579350   -2.087131   -4.108727
  H      5.201533   -4.100207   -6.296905
  H      5.605922   -2.397822   -6.413368
  C      6.559957   -0.356290   -2.559086
  H      5.967976    0.952567   -0.942444
  H      6.547184    1.788331   -2.368849
  C      6.006283   -1.615917   -1.899301
  H      7.642360   -0.318000   -2.402059
  H      6.414855   -0.403433   -3.642587
  C      6.608718   -2.917014   -2.435655
  H      6.190324   -1.561115   -0.820948
  H      4.919250   -1.651245   -2.016586
  H      7.066975   -2.374258   -4.475514
  H      6.887808   -4.089747   -4.215332
  H      6.135197   -3.755573   -1.915159
  H      7.671142   -2.955503   -2.172291
  O      2.851546   -0.783683   -4.956789

 Total Charge           Charge          ....    0
 Multiplicity           Mult            ....    1
 Number of Electrons    NEL             ....  144
 Basis Dimension        Dim             ....  854

ORBITAL ENERGIES
----------------

  NO   OCC          E(Eh)            E(eV)
   0   2.0000     -88.545536     -2409.4465
   1   2.0000     -24.606602      -669.5797
   2   2.0000     -19.004265      -517.1323
   3   2.0000     -19.001447      -517.0557
   4   2.0000     -14.200279      -386.4092
   5   2.0000     -14.186230      -386.0269
   6   2.0000     -10.186358      -277.1849
   7   2.0000     -10.151620      -276.2396
   8   2.0000     -10.149752      -276.1888
   9   2.0000     -10.138992      -275.8960
  10   2.0000     -10.121843      -275.4293
  11   2.0000     -10.117321      -275.3063
  12   2.0000     -10.113132      -275.1923
  13   2.0000     -10.107948      -275.0512
  14   2.0000     -10.104183      -274.9488
  15   2.0000     -10.103811      -274.9387
  16   2.0000     -10.005568      -272.2654
  17   2.0000      -8.156919      -221.9611
  18   2.0000      -6.177429      -168.0964
  19   2.0000      -6.170314      -167.9028
  20   2.0000      -6.169773      -167.8880
  21   2.0000      -1.532247       -41.6945
  22   2.0000      -1.295114       -35.2419
  23   2.0000      -1.195173       -32.5223
  24   2.0000      -1.129450       -30.7339
  25   2.0000      -1.037908       -28.2429
  26   2.0000      -1.031383       -28.0654
  27   2.0000      -0.995793       -27.0969
  28   2.0000      -0.962731       -26.1972
  29   2.0000      -0.923339       -25.1253
  30   2.0000      -0.897461       -24.4212
  31   2.0000      -0.867372       -23.6024
  32   2.0000      -0.846924       -23.0460
  33   2.0000      -0.813172       -22.1275
  34   2.0000      -0.788701       -21.4616
  35   2.0000      -0.761731       -20.7278
  36   2.0000      -0.751871       -20.4595
  37   2.0000      -0.741332       -20.1727
  38   2.0000      -0.737393       -20.0655
  39   2.0000      -0.713452       -19.4140
  40   2.0000      -0.706628       -19.2283
  41   2.0000      -0.667192       -18.1552
  42   2.0000      -0.651792       -17.7362
  43   2.0000      -0.640112       -17.4183
  44   2.0000      -0.631997       -17.1975
  45   2.0000      -0.627969       -17.0879
  46   2.0000      -0.614188       -16.7129
  47   2.0000      -0.608467       -16.5572
  48   2.0000      -0.604531       -16.4501
  49   2.0000      -0.583867       -15.8878
  50   2.0000      -0.579886       -15.7795
  51   2.0000      -0.574014       -15.6197
  52   2.0000      -0.564073       -15.3492
  53   2.0000      -0.542518       -14.7627
  54   2.0000      -0.533829       -14.5262
  55   2.0000      -0.531590       -14.4653
  56   2.0000      -0.517636       -14.0856
  57   2.0000      -0.512057       -13.9338
  58   2.0000      -0.503690       -13.7061
  59   2.0000      -0.496589       -13.5129
  60   2.0000      -0.492647       -13.4056
  61   2.0000      -0.485343       -13.2069
  62   2.0000      -0.474194       -12.9035
  63   2.0000      -0.473081       -12.8732
  64   2.0000      -0.464065       -12.6279
  65   2.0000      -0.460570       -12.5327
  66   2.0000      -0.452952       -12.3255
  67   2.0000      -0.440331       -11.9820
  68   2.0000      -0.437335       -11.9005
  69   2.0000      -0.433082       -11.7848
  70   2.0000      -0.368649       -10.0314
  71   2.0000      -0.267123        -7.2688
  72   0.0000       0.043236         1.1765
  73   0.0000       0.055195         1.5019
  74   0.0000       0.065076         1.7708
  75   0.0000       0.068529         1.8648
  76   0.0000       0.077775         2.1164

MULLIKEN ATOMIC CHARGES
-----------------------
   0 C :   -1.148599
   1 N :   -0.076228
   2 C :   -0.861840
   3 C :   -0.913397
   4 H :    0.440024
   5 H :    0.454886
   6 S :    1.165817
   7 C :    1.346817
   8 C :   -1.934618
   9 N :   -0.475501
  10 H :    0.227551
  11 H :    0.192943
  12 H :    0.007450
  13 H :    0.571330
  14 H :    0.243328
  15 F :   -0.118509
  16 O :   -0.574839
  17 C :   -0.706650
  18 H :    0.388473
  19 H :    0.472809
  20 C :   -0.926149
  21 C :   -0.348355
  22 H :    0.347166
  23 H :    0.351985
  24 H :    0.406315
  25 H :    0.408885
  26 C :   -0.510509
  27 H :    0.438949
  28 H :    0.474028
  29 C :   -0.852911
  30 H :    0.335976
  31 H :    0.349183
  32 C :   -0.883635
  33 H :    0.379854
  34 H :    0.390201
  35 H :    0.467119
  36 H :    0.399092
  37 H :    0.372731
  38 H :    0.389269
  39 O :   -0.690440
Sum of atomic charges:   -0.0000000

LOEWDIN ATOMIC CHARGES
----------------------
   0 C :   -0.203860
   1 N :    0.025524
   2 C :   -0.239207
   3 C :   -0.232603
   4 H :    0.131969
   5 H :    0.118170
   6 S :    0.622729
   7 C :   -0.542487
   8 C :   -0.012993
   9 N :    0.114475
  10 H :    0.095036
  11 H :    0.113381
  12 H :    0.060712
  13 H :   -0.024171
  14 H :    0.022720
  15 F :   -0.074802
  16 O :   -0.240985
  17 C :   -0.210096
  18 H :    0.124206
  19 H :    0.119310
  20 C :   -0.234659
  21 C :   -0.236076
  22 H :    0.140699
  23 H :    0.091961
  24 H :    0.132233
  25 H :    0.124854
  26 C :   -0.227991
  27 H :    0.120103
  28 H :    0.112895
  29 C :   -0.237429
  30 H :    0.126441
  31 H :    0.113993
  32 C :   -0.228481
  33 H :    0.124075
  34 H :    0.110055
  35 H :    0.119528
  36 H :    0.123378
  37 H :    0.119256
  38 H :    0.120227
  39 O :   -0.282090

  Mayer bond orders larger than 0.100000
B(  0-C ,  1-N ) :   0.8797 B(  0-C ,  7-C ) :  -0.1956 B(  0-C ,  9-N ) :   0.1550
B(  0-C , 12-H ) :  -0.1741 B(  0-C , 17-C ) :   0.6585 B(  0-C , 18-H ) :   0.8314
B(  0-C , 19-H ) :   0.7738 B(  1-N ,  7-C ) :   0.8827 B(  1-N , 12-H ) :   1.0477
B(  1-N , 39-O ) :  -0.1550 B(  2-C ,  3-C ) :   0.7855 B(  2-C , 20-C ) :   0.2376
B(  2-C , 21-C ) :   0.4021 B(  2-C , 24-H ) :   0.8840 B(  2-C , 25-H ) :   0.8818
B(  3-C ,  4-H ) :   0.8032 B(  3-C ,  5-H ) :   0.9187 B(  3-C ,  6-S ) :   0.9620
B(  3-C , 16-O ) :   0.1164 B(  6-S , 15-F ) :   0.9332 B(  6-S , 16-O ) :   1.5495
B(  6-S , 39-O ) :   1.6224 B(  7-C ,  8-C ) :   0.3911 B(  7-C ,  9-N ) :   0.7883
B(  7-C , 12-H ) :  -0.3780 B(  7-C , 13-H ) :  -0.1009 B(  7-C , 14-H ) :  -0.2152
B(  8-C , 12-H ) :   0.1630 B(  8-C , 13-H ) :   0.7256 B(  8-C , 14-H ) :   1.1722
B(  8-C , 15-F ) :   0.1067 B(  9-N , 10-H ) :   0.9897 B(  9-N , 11-H ) :   1.0305
B( 13-H , 15-F ) :  -0.2290 B( 17-C , 26-C ) :   0.8821 B( 17-C , 27-H ) :   0.9021
B( 17-C , 28-H ) :   0.7782 B( 20-C , 21-C ) :   0.4987 B( 20-C , 26-C ) :   0.1081
B( 20-C , 32-C ) :   0.8600 B( 20-C , 35-H ) :   0.8714 B( 20-C , 36-H ) :   0.8566
B( 21-C , 22-H ) :   0.8364 B( 21-C , 23-H ) :   1.0125 B( 21-C , 29-C ) :   0.1320
B( 21-C , 39-O ) :   0.1455 B( 22-H , 23-H ) :   0.2371 B( 23-H , 39-O ) :  -0.2274
B( 26-C , 29-C ) :   0.3405 B( 26-C , 30-H ) :   0.9509 B( 26-C , 31-H ) :   0.9320
B( 26-C , 34-H ) :  -0.1136 B( 29-C , 32-C ) :   0.8485 B( 29-C , 33-H ) :   0.8934
B( 29-C , 34-H ) :   0.9926 B( 32-C , 37-H ) :   0.9324 B( 32-C , 38-H ) :   0.9328

FINAL SINGLE POINT ENERGY     -1188.471781225501

DIPOLE MOMENT
-------------
                                X             Y             Z
Electronic contribution:    -16.34253       3.91472     -19.59009
Nuclear contribution   :     17.27667      -5.32157      20.03034
                        -----------------------------------------
Total Dipole Moment    :      0.93413      -1.40685       0.44024
                        -----------------------------------------
Magnitude (a.u.)       :      1.74518
Magnitude (Debye)      :      4.43589

Rotational constants in cm-1:     0.014355     0.012269     0.007481
Rotational constants in MHz :   430.360270   367.823451   224.273399

                             ****ORCA TERMINATED NORMALLY****
TOTAL RUN TIME: 0 days 0 hours 13 minutes 1 seconds 928 msec
