                         Program Version 5.0.0 -  RELEASE  -
|  1> !LC-PBE RIJCOSX def2-TZVPD def2/J TightSCF xyzfile
|  2>
|  3> *xyzfile 0 1 D3.xyz
|  4>
|  5> %MaxCore 64000
|  6>
|  7> %pal nprocs 4
|  8> end
|  9>
| 10> %scf
| 11>   MaxIter 150
| 12> end
| 13>
| 14>
| 15>                          ****END OF INPUT****

CARTESIAN COORDINATES (ANGSTROEM)
---------------------------------
  C      4.490588    1.155899   -2.469290
  N      4.305394    1.222762   -3.908317
  C      4.906458   -3.102816   -5.954844
  C      3.511771   -2.806215   -6.492283
  H      2.736044   -3.373445   -5.973736
  H      3.444904   -3.040831   -7.555281
  S      3.004618   -1.096206   -6.389259
  C      4.631918    2.246365   -4.670958
  N      4.541686    2.143990   -5.987139
  C      5.084086    3.393584   -4.118545
  H      4.920675    3.570501   -3.135870
  H      5.254652    4.197390   -4.706956
  H      3.824530    0.449113   -4.350926
  H      4.343373    1.249318   -6.416646
  H      4.676712    2.956624   -6.574113
  F      4.128856   -0.329647   -6.953717
  O      1.781285   -1.000779   -7.136399
  C      5.942129    0.939500   -2.036893
  H      3.864305    0.328532   -2.136611
  H      4.076233    2.049994   -1.989010
  C      6.462677   -3.117775   -3.944671
  C      5.024977   -3.025679   -4.437625
  H      4.423321   -3.818693   -3.977648
  H      4.579350   -2.087131   -4.108727
  H      5.201533   -4.100207   -6.296905
  H      5.605922   -2.397822   -6.413368
  C      6.559957   -0.356290   -2.559086
  H      5.967976    0.952567   -0.942444
  H      6.547184    1.788331   -2.368849
  C      6.006283   -1.615917   -1.899301
  H      7.642360   -0.318000   -2.402059
  H      6.414855   -0.403433   -3.642587
  C      6.608718   -2.917014   -2.435655
  H      6.190324   -1.561115   -0.820948
  H      4.919250   -1.651245   -2.016586
  H      7.066975   -2.374258   -4.475514
  H      6.887808   -4.089747   -4.215332
  H      6.135197   -3.755573   -1.915159
  H      7.671142   -2.955503   -2.172291
  O      2.851546   -0.783683   -4.956789

 Total Charge           Charge          ....    0
 Multiplicity           Mult            ....    1
 Number of Electrons    NEL             ....  144
 Basis Dimension        Dim             ....  854

ORBITAL ENERGIES
----------------

  NO   OCC          E(Eh)            E(eV)
   0   2.0000     -88.561661     -2409.8853
   1   2.0000     -24.635950      -670.3783
   2   2.0000     -19.020658      -517.5784
   3   2.0000     -19.016468      -517.4644
   4   2.0000     -14.199278      -386.3820
   5   2.0000     -14.188412      -386.0863
   6   2.0000     -10.198639      -277.5191
   7   2.0000     -10.158575      -276.4289
   8   2.0000     -10.151871      -276.2465
   9   2.0000     -10.130305      -275.6596
  10   2.0000     -10.127374      -275.5799
  11   2.0000     -10.120403      -275.3902
  12   2.0000     -10.113473      -275.2016
  13   2.0000     -10.105836      -274.9938
  14   2.0000     -10.099579      -274.8235
  15   2.0000     -10.093964      -274.6707
  16   2.0000     -10.007418      -272.3157
  17   2.0000      -8.173415      -222.4099
  18   2.0000      -6.194206      -168.5529
  19   2.0000      -6.186549      -168.3446
  20   2.0000      -6.186071      -168.3315
  21   2.0000      -1.560052       -42.4512
  22   2.0000      -1.311987       -35.7010
  23   2.0000      -1.210652       -32.9435
  24   2.0000      -1.132177       -30.8081
  25   2.0000      -1.045412       -28.4471
  26   2.0000      -1.040652       -28.3176
  27   2.0000      -0.998335       -27.1661
  28   2.0000      -0.959637       -26.1131
  29   2.0000      -0.928101       -25.2549
  30   2.0000      -0.896434       -24.3932
  31   2.0000      -0.869569       -23.6622
  32   2.0000      -0.857782       -23.3414
  33   2.0000      -0.824273       -22.4296
  34   2.0000      -0.795843       -21.6560
  35   2.0000      -0.778095       -21.1730
  36   2.0000      -0.767532       -20.8856
  37   2.0000      -0.754994       -20.5444
  38   2.0000      -0.735933       -20.0257
  39   2.0000      -0.718496       -19.5513
  40   2.0000      -0.693284       -18.8652
  41   2.0000      -0.676882       -18.4189
  42   2.0000      -0.669152       -18.2086
  43   2.0000      -0.651065       -17.7164
  44   2.0000      -0.645229       -17.5576
  45   2.0000      -0.630656       -17.1610
  46   2.0000      -0.622857       -16.9488
  47   2.0000      -0.613945       -16.7063
  48   2.0000      -0.600621       -16.3437
  49   2.0000      -0.590267       -16.0620
  50   2.0000      -0.579896       -15.7798
  51   2.0000      -0.575971       -15.6730
  52   2.0000      -0.564463       -15.3598
  53   2.0000      -0.549668       -14.9572
  54   2.0000      -0.534985       -14.5577
  55   2.0000      -0.526764       -14.3340
  56   2.0000      -0.525018       -14.2865
  57   2.0000      -0.516676       -14.0595
  58   2.0000      -0.505068       -13.7436
  59   2.0000      -0.503727       -13.7071
  60   2.0000      -0.494767       -13.4633
  61   2.0000      -0.486679       -13.2432
  62   2.0000      -0.482805       -13.1378
  63   2.0000      -0.474620       -12.9151
  64   2.0000      -0.467781       -12.7290
  65   2.0000      -0.464270       -12.6334
  66   2.0000      -0.456482       -12.4215
  67   2.0000      -0.439242       -11.9524
  68   2.0000      -0.436401       -11.8751
  69   2.0000      -0.427868       -11.6429
  70   2.0000      -0.362146        -9.8545
  71   2.0000      -0.265795        -7.2326
  72   0.0000       0.034207         0.9308
  73   0.0000       0.047575         1.2946
  74   0.0000       0.058578         1.5940
  75   0.0000       0.066522         1.8102
  76   0.0000       0.075183         2.0458

MULLIKEN ATOMIC CHARGES
-----------------------
   0 C :   -1.141653
   1 N :   -0.132924
   2 C :   -0.854242
   3 C :   -0.885569
   4 H :    0.449051
   5 H :    0.450249
   6 S :    1.137877
   7 C :    1.113170
   8 N :   -0.358869
   9 C :   -1.531194
  10 H :    0.336818
  11 H :    0.360146
  12 H :    0.079272
  13 H :    0.216492
  14 H :    0.156618
  15 F :   -0.257043
  16 O :   -0.563411
  17 C :   -0.780711
  18 H :    0.408026
  19 H :    0.469585
  20 C :   -0.925021
  21 C :   -0.346874
  22 H :    0.347237
  23 H :    0.361737
  24 H :    0.403234
  25 H :    0.406962
  26 C :   -0.458035
  27 H :    0.437600
  28 H :    0.491426
  29 C :   -0.838120
  30 H :    0.333009
  31 H :    0.302881
  32 C :   -0.899911
  33 H :    0.381138
  34 H :    0.377199
  35 H :    0.473784
  36 H :    0.397397
  37 H :    0.370768
  38 H :    0.388721
  39 O :   -0.676819
Sum of atomic charges:   -0.0000000

LOEWDIN ATOMIC CHARGES
----------------------
   0 C :   -0.200434
   1 N :    0.022190
   2 C :   -0.239131
   3 C :   -0.230336
   4 H :    0.134025
   5 H :    0.118879
   6 S :    0.623499
   7 C :   -0.552430
   8 N :    0.119546
   9 C :   -0.017986
  10 H :    0.007874
  11 H :    0.010371
  12 H :    0.056617
  13 H :    0.053402
  14 H :    0.123729
  15 F :   -0.069070
  16 O :   -0.236849
  17 C :   -0.205519
  18 H :    0.122845
  19 H :    0.124381
  20 C :   -0.234753
  21 C :   -0.235904
  22 H :    0.141301
  23 H :    0.092043
  24 H :    0.133373
  25 H :    0.123991
  26 C :   -0.229176
  27 H :    0.121604
  28 H :    0.112935
  29 C :   -0.237869
  30 H :    0.126283
  31 H :    0.110958
  32 C :   -0.228583
  33 H :    0.124525
  34 H :    0.109426
  35 H :    0.119148
  36 H :    0.123371
  37 H :    0.119062
  38 H :    0.120541
  39 O :   -0.277880

  Mayer bond orders larger than 0.100000
B(  0-C ,  1-N ) :   0.9066 B(  0-C ,  7-C ) :  -0.1720 B(  0-C ,  9-C ) :   0.1890
B(  0-C , 12-H ) :  -0.2405 B(  0-C , 17-C ) :   0.7380 B(  0-C , 18-H ) :   0.7785
B(  0-C , 19-H ) :   0.7985 B(  1-N ,  7-C ) :   0.9005 B(  1-N , 12-H ) :   1.0371
B(  1-N , 17-C ) :   0.1019 B(  1-N , 39-O ) :  -0.1486 B(  2-C ,  3-C ) :   0.7814
B(  2-C , 20-C ) :   0.2327 B(  2-C , 21-C ) :   0.3864 B(  2-C , 24-H ) :   0.8899
B(  2-C , 25-H ) :   0.8830 B(  3-C ,  4-H ) :   0.7923 B(  3-C ,  5-H ) :   0.9205
B(  3-C ,  6-S ) :   0.9507 B(  3-C , 16-O ) :   0.1155 B(  6-S , 15-F ) :   0.8910
B(  6-S , 16-O ) :   1.5728 B(  6-S , 39-O ) :   1.6549 B(  7-C ,  8-N ) :   0.7290
B(  7-C ,  9-C ) :   0.7745 B(  7-C , 11-H ) :  -0.1351 B(  7-C , 12-H ) :  -0.3748
B(  7-C , 13-H ) :  -0.1060 B(  7-C , 14-H ) :  -0.1055 B(  8-N , 13-H ) :   0.9269
B(  8-N , 14-H ) :   1.0724 B(  9-C , 10-H ) :   1.0171 B(  9-C , 11-H ) :   1.0324
B( 12-H , 39-O ) :   0.1037 B( 17-C , 26-C ) :   0.8629 B( 17-C , 27-H ) :   0.8767
B( 17-C , 28-H ) :   0.8058 B( 20-C , 21-C ) :   0.5010 B( 20-C , 26-C ) :   0.1109
B( 20-C , 32-C ) :   0.8612 B( 20-C , 35-H ) :   0.8625 B( 20-C , 36-H ) :   0.8588
B( 21-C , 22-H ) :   0.8446 B( 21-C , 23-H ) :   1.0013 B( 21-C , 29-C ) :   0.1332
B( 21-C , 39-O ) :   0.1445 B( 22-H , 23-H ) :   0.2360 B( 23-H , 39-O ) :  -0.2309
B( 26-C , 29-C ) :   0.3488 B( 26-C , 30-H ) :   0.9505 B( 26-C , 31-H ) :   0.9623
B( 26-C , 34-H ) :  -0.1146 B( 29-C , 32-C ) :   0.8312 B( 29-C , 33-H ) :   0.8946
B( 29-C , 34-H ) :   1.0033 B( 32-C , 37-H ) :   0.9396 B( 32-C , 38-H ) :   0.9365

FINAL SINGLE POINT ENERGY     -1188.473501583518

DIPOLE MOMENT
-------------
                                X             Y             Z
Electronic contribution:    -16.84970       2.63355     -21.31828
Nuclear contribution   :     17.35766      -5.13497      20.30937
                        -----------------------------------------
Total Dipole Moment    :      0.50796      -2.50142      -1.00892
                        -----------------------------------------
Magnitude (a.u.)       :      2.74464
Magnitude (Debye)      :      6.97631

Rotational constants in cm-1:     0.014431     0.012329     0.007535
Rotational constants in MHz :   432.628327   369.619539   225.898827

                             ****ORCA TERMINATED NORMALLY****
TOTAL RUN TIME: 0 days 0 hours 12 minutes 56 seconds 318 msec
