                         Program Version 5.0.0 -  RELEASE  -
|  1> !LC-PBE RIJCOSX def2-TZVPD def2/J TightSCF xyzfile
|  2>
|  3> *xyzfile 0 1 D4.xyz
|  4>
|  5> %MaxCore 64000
|  6>
|  7> %pal nprocs 4
|  8> end
|  9>
| 10> %scf
| 11>   MaxIter 150
| 12> end
| 13>
| 14>
| 15>                          ****END OF INPUT****

CARTESIAN COORDINATES (ANGSTROEM)
---------------------------------
  C      4.490588    1.155899   -2.469290
  C      4.305394    1.222762   -3.908317
  C      4.906458   -3.102816   -5.954844
  C      3.511771   -2.806215   -6.492283
  H      2.736044   -3.373445   -5.973736
  H      3.444904   -3.040831   -7.555281
  S      3.004618   -1.096206   -6.389259
  C      4.631918    2.246365   -4.670958
  N      4.541686    2.143990   -5.987139
  N      5.084086    3.393584   -4.118545
  H      4.920675    3.570501   -3.135870
  H      5.254652    4.197390   -4.706956
  H      3.824530    0.449113   -4.350926
  H      4.343373    1.249318   -6.416646
  H      4.676712    2.956624   -6.574113
  O      4.128856   -0.329647   -6.953717
  F      1.781285   -1.000779   -7.136399
  C      5.942129    0.939500   -2.036893
  H      3.864305    0.328532   -2.136611
  H      4.076233    2.049994   -1.989010
  C      6.462677   -3.117775   -3.944671
  C      5.024977   -3.025679   -4.437625
  H      4.423321   -3.818693   -3.977648
  H      4.579350   -2.087131   -4.108727
  H      5.201533   -4.100207   -6.296905
  H      5.605922   -2.397822   -6.413368
  C      6.559957   -0.356290   -2.559086
  H      5.967976    0.952567   -0.942444
  H      6.547184    1.788331   -2.368849
  C      6.006283   -1.615917   -1.899301
  H      7.642360   -0.318000   -2.402059
  H      6.414855   -0.403433   -3.642587
  C      6.608718   -2.917014   -2.435655
  H      6.190324   -1.561115   -0.820948
  H      4.919250   -1.651245   -2.016586
  H      7.066975   -2.374258   -4.475514
  H      6.887808   -4.089747   -4.215332
  H      6.135197   -3.755573   -1.915159
  H      7.671142   -2.955503   -2.172291
  O      2.851546   -0.783683   -4.956789

 Total Charge           Charge          ....    0
 Multiplicity           Mult            ....    1
 Number of Electrons    NEL             ....  144
 Basis Dimension        Dim             ....  854

ORBITAL ENERGIES
----------------

  NO   OCC          E(Eh)            E(eV)
   0   2.0000     -88.551511     -2409.6091
   1   2.0000     -24.632627      -670.2879
   2   2.0000     -19.005327      -517.1612
   3   2.0000     -18.995799      -516.9020
   4   2.0000     -14.189169      -386.1069
   5   2.0000     -14.169065      -385.5598
   6   2.0000     -10.189075      -277.2588
   7   2.0000     -10.144157      -276.0365
   8   2.0000     -10.130895      -275.6757
   9   2.0000     -10.111088      -275.1367
  10   2.0000     -10.105465      -274.9837
  11   2.0000     -10.099187      -274.8128
  12   2.0000     -10.088889      -274.5326
  13   2.0000     -10.079655      -274.2814
  14   2.0000     -10.074583      -274.1433
  15   2.0000     -10.066597      -273.9260
  16   2.0000      -9.993905      -271.9480
  17   2.0000      -8.163066      -222.1283
  18   2.0000      -6.183337      -168.2572
  19   2.0000      -6.176394      -168.0682
  20   2.0000      -6.176033      -168.0584
  21   2.0000      -1.565602       -42.6022
  22   2.0000      -1.290524       -35.1169
  23   2.0000      -1.185274       -32.2530
  24   2.0000      -1.106296       -30.1038
  25   2.0000      -1.026224       -27.9250
  26   2.0000      -1.007187       -27.4070
  27   2.0000      -0.985149       -26.8073
  28   2.0000      -0.952404       -25.9162
  29   2.0000      -0.927212       -25.2307
  30   2.0000      -0.893085       -24.3021
  31   2.0000      -0.867637       -23.6096
  32   2.0000      -0.831378       -22.6230
  33   2.0000      -0.800726       -21.7889
  34   2.0000      -0.777087       -21.1456
  35   2.0000      -0.764659       -20.8074
  36   2.0000      -0.748763       -20.3749
  37   2.0000      -0.741801       -20.1854
  38   2.0000      -0.727308       -19.7911
  39   2.0000      -0.704240       -19.1633
  40   2.0000      -0.689138       -18.7524
  41   2.0000      -0.667846       -18.1730
  42   2.0000      -0.653323       -17.7778
  43   2.0000      -0.643908       -17.5216
  44   2.0000      -0.625079       -17.0093
  45   2.0000      -0.616141       -16.7661
  46   2.0000      -0.610212       -16.6047
  47   2.0000      -0.597183       -16.2502
  48   2.0000      -0.590422       -16.0662
  49   2.0000      -0.571416       -15.5490
  50   2.0000      -0.563675       -15.3384
  51   2.0000      -0.554003       -15.0752
  52   2.0000      -0.552041       -15.0218
  53   2.0000      -0.547822       -14.9070
  54   2.0000      -0.519923       -14.1478
  55   2.0000      -0.516880       -14.0650
  56   2.0000      -0.511692       -13.9239
  57   2.0000      -0.500174       -13.6104
  58   2.0000      -0.493729       -13.4351
  59   2.0000      -0.485018       -13.1980
  60   2.0000      -0.475762       -12.9462
  61   2.0000      -0.466683       -12.6991
  62   2.0000      -0.462154       -12.5759
  63   2.0000      -0.451220       -12.2783
  64   2.0000      -0.446324       -12.1451
  65   2.0000      -0.442750       -12.0478
  66   2.0000      -0.428266       -11.6537
  67   2.0000      -0.418246       -11.3810
  68   2.0000      -0.409702       -11.1486
  69   2.0000      -0.395034       -10.7494
  70   2.0000      -0.368749       -10.0342
  71   2.0000      -0.246336        -6.7031
  72   0.0000       0.032098         0.8734
  73   0.0000       0.053867         1.4658
  74   0.0000       0.056344         1.5332
  75   0.0000       0.070612         1.9214
  76   0.0000       0.081182         2.2091

MULLIKEN ATOMIC CHARGES
-----------------------
   0 C :   -1.336769
   1 C :   -1.131226
   2 C :   -0.856873
   3 C :   -0.985508
   4 H :    0.470784
   5 H :    0.494062
   6 S :    1.231313
   7 C :    0.954830
   8 N :   -0.383713
   9 N :   -0.463085
  10 H :    0.234445
  11 H :    0.161584
  12 H :    0.764322
  13 H :    0.188926
  14 H :    0.154891
  15 O :   -0.760707
  16 F :   -0.065598
  17 C :   -0.794155
  18 H :    0.344189
  19 H :    0.481742
  20 C :   -0.962339
  21 C :   -0.317465
  22 H :    0.335618
  23 H :    0.317105
  24 H :    0.400226
  25 H :    0.440081
  26 C :   -0.556833
  27 H :    0.388528
  28 H :    0.456481
  29 C :   -0.820079
  30 H :    0.332983
  31 H :    0.374286
  32 C :   -0.878164
  33 H :    0.381255
  34 H :    0.374408
  35 H :    0.488049
  36 H :    0.396757
  37 H :    0.367891
  38 H :    0.383998
  39 O :   -0.606240
Sum of atomic charges:    0.0000000

LOEWDIN ATOMIC CHARGES
----------------------
   0 C :   -0.240234
   1 C :   -0.157479
   2 C :   -0.230617
   3 C :   -0.240585
   4 H :    0.123192
   5 H :    0.114976
   6 S :    0.645694
   7 C :   -0.526821
   8 N :    0.108206
   9 N :    0.115049
  10 H :    0.099987
  11 H :    0.100592
  12 H :    0.010080
  13 H :    0.031851
  14 H :    0.107166
  15 O :   -0.277833
  16 F :   -0.012547
  17 C :   -0.224846
  18 H :    0.113743
  19 H :    0.111671
  20 C :   -0.234339
  21 C :   -0.231627
  22 H :    0.138829
  23 H :    0.097184
  24 H :    0.133494
  25 H :    0.127397
  26 C :   -0.229601
  27 H :    0.114467
  28 H :    0.111972
  29 C :   -0.236429
  30 H :    0.123594
  31 H :    0.113828
  32 C :   -0.230776
  33 H :    0.122799
  34 H :    0.110923
  35 H :    0.120530
  36 H :    0.121626
  37 H :    0.117281
  38 H :    0.118835
  39 O :   -0.281230

  Mayer bond orders larger than 0.100000
B(  0-C ,  1-C ) :   0.6715 B(  0-C ,  7-C ) :  -0.1348 B(  0-C , 17-C ) :   0.6316
B(  0-C , 18-H ) :   0.9618 B(  0-C , 19-H ) :   0.8313 B(  1-C ,  7-C ) :   0.7858
B(  1-C , 19-H ) :  -0.1438 B(  1-C , 31-H ) :  -0.1125 B(  1-C , 39-O ) :   0.2601
B(  2-C ,  3-C ) :   0.8739 B(  2-C , 20-C ) :   0.2456 B(  2-C , 21-C ) :   0.4799
B(  2-C , 24-H ) :   0.8964 B(  2-C , 25-H ) :   0.8064 B(  3-C ,  4-H ) :   0.7818
B(  3-C ,  5-H ) :   0.8090 B(  3-C ,  6-S ) :   0.9361 B(  6-S , 15-O ) :   1.4510
B(  6-S , 16-F ) :   0.9122 B(  6-S , 39-O ) :   1.6620 B(  7-C ,  8-N ) :   0.7849
B(  7-C ,  9-N ) :   0.8889 B(  7-C , 12-H ) :   0.4721 B(  8-N , 12-H ) :   0.1260
B(  8-N , 13-H ) :   0.9423 B(  8-N , 14-H ) :   1.1004 B(  9-N , 10-H ) :   0.9590
B(  9-N , 11-H ) :   1.0758 B(  9-N , 17-C ) :   0.1297 B( 12-H , 15-O ) :   0.1308
B( 12-H , 39-O ) :  -0.5174 B( 15-O , 39-O ) :   0.1221 B( 17-C , 26-C ) :   0.8569
B( 17-C , 27-H ) :   0.9077 B( 17-C , 28-H ) :   0.7958 B( 20-C , 21-C ) :   0.5123
B( 20-C , 26-C ) :   0.1230 B( 20-C , 32-C ) :   0.8497 B( 20-C , 35-H ) :   0.8465
B( 20-C , 36-H ) :   0.8582 B( 21-C , 22-H ) :   0.8430 B( 21-C , 23-H ) :   0.9918
B( 21-C , 29-C ) :   0.1357 B( 21-C , 39-O ) :   0.1512 B( 22-H , 23-H ) :   0.2333
B( 23-H , 39-O ) :  -0.1727 B( 26-C , 29-C ) :   0.3622 B( 26-C , 30-H ) :   0.9627
B( 26-C , 31-H ) :   0.9625 B( 26-C , 34-H ) :  -0.1157 B( 29-C , 32-C ) :   0.8064
B( 29-C , 33-H ) :   0.8933 B( 29-C , 34-H ) :   0.9994 B( 32-C , 37-H ) :   0.9414
B( 32-C , 38-H ) :   0.9425

FINAL SINGLE POINT ENERGY     -1188.463996252276

DIPOLE MOMENT
-------------
                                X             Y             Z
Electronic contribution:    -20.61369       3.44279     -21.98393
Nuclear contribution   :     19.99734      -4.67125      20.55522
                        -----------------------------------------
Total Dipole Moment    :     -0.61635      -1.22846      -1.42871
                        -----------------------------------------
Magnitude (a.u.)       :      1.98248
Magnitude (Debye)      :      5.03906

Rotational constants in cm-1:     0.014213     0.012058     0.007367
Rotational constants in MHz :   426.102180   361.491761   220.844824

                             ****ORCA TERMINATED NORMALLY****
TOTAL RUN TIME: 0 days 0 hours 12 minutes 55 seconds 925 msec
