                         Program Version 5.0.0 -  RELEASE  -
|  1> !LC-PBE RIJCOSX def2-TZVPD def2/J TightSCF xyzfile
|  2>
|  3> *xyzfile 0 1 D5.xyz
|  4>
|  5> %MaxCore 64000
|  6>
|  7> %pal nprocs 4
|  8> end
|  9>
| 10> %scf
| 11>   MaxIter 150
| 12> end
| 13>
| 14>
| 15>                          ****END OF INPUT****

CARTESIAN COORDINATES (ANGSTROEM)
---------------------------------
  C      4.490588    1.155899   -2.469290
  N      4.305394    1.222762   -3.908317
  C      4.906458   -3.102816   -5.954844
  C      3.511771   -2.806215   -6.492283
  H      2.736044   -3.373445   -5.973736
  H      3.444904   -3.040831   -7.555281
  S      3.004618   -1.096206   -6.389259
  C      4.631918    2.246365   -4.670958
  C      4.541686    2.143990   -5.987139
  N      5.084086    3.393584   -4.118545
  H      4.920675    3.570501   -3.135870
  H      5.254652    4.197390   -4.706956
  H      3.824530    0.449113   -4.350926
  H      4.343373    1.249318   -6.416646
  H      4.676712    2.956624   -6.574113
  O      4.128856   -0.329647   -6.953717
  F      1.781285   -1.000779   -7.136399
  C      5.942129    0.939500   -2.036893
  H      3.864305    0.328532   -2.136611
  H      4.076233    2.049994   -1.989010
  C      6.462677   -3.117775   -3.944671
  C      5.024977   -3.025679   -4.437625
  H      4.423321   -3.818693   -3.977648
  H      4.579350   -2.087131   -4.108727
  H      5.201533   -4.100207   -6.296905
  H      5.605922   -2.397822   -6.413368
  C      6.559957   -0.356290   -2.559086
  H      5.967976    0.952567   -0.942444
  H      6.547184    1.788331   -2.368849
  C      6.006283   -1.615917   -1.899301
  H      7.642360   -0.318000   -2.402059
  H      6.414855   -0.403433   -3.642587
  C      6.608718   -2.917014   -2.435655
  H      6.190324   -1.561115   -0.820948
  H      4.919250   -1.651245   -2.016586
  H      7.066975   -2.374258   -4.475514
  H      6.887808   -4.089747   -4.215332
  H      6.135197   -3.755573   -1.915159
  H      7.671142   -2.955503   -2.172291
  O      2.851546   -0.783683   -4.956789

 Total Charge           Charge          ....    0
 Multiplicity           Mult            ....    1
 Number of Electrons    NEL             ....  144
 Basis Dimension        Dim             ....  854

ORBITAL ENERGIES
----------------

  NO   OCC          E(Eh)            E(eV)
   0   2.0000     -88.550859     -2409.5914
   1   2.0000     -24.631384      -670.2540
   2   2.0000     -19.004295      -517.1332
   3   2.0000     -18.993728      -516.8456
   4   2.0000     -14.186170      -386.0253
   5   2.0000     -14.173309      -385.6753
   6   2.0000     -10.189475      -277.2697
   7   2.0000     -10.146556      -276.1018
   8   2.0000     -10.132727      -275.7255
   9   2.0000     -10.130267      -275.6586
  10   2.0000     -10.117725      -275.3173
  11   2.0000     -10.112301      -275.1697
  12   2.0000     -10.108402      -275.0636
  13   2.0000     -10.102418      -274.9008
  14   2.0000     -10.096208      -274.7318
  15   2.0000     -10.096006      -274.7263
  16   2.0000      -9.980666      -271.5877
  17   2.0000      -8.162346      -222.1087
  18   2.0000      -6.182616      -168.2375
  19   2.0000      -6.175642      -168.0478
  20   2.0000      -6.175356      -168.0400
  21   2.0000      -1.564144       -42.5625
  22   2.0000      -1.289428       -35.0871
  23   2.0000      -1.184012       -32.2186
  24   2.0000      -1.115361       -30.3505
  25   2.0000      -1.028330       -27.9823
  26   2.0000      -1.025089       -27.8941
  27   2.0000      -0.991244       -26.9731
  28   2.0000      -0.958538       -26.0831
  29   2.0000      -0.923697       -25.1351
  30   2.0000      -0.895829       -24.3767
  31   2.0000      -0.867985       -23.6191
  32   2.0000      -0.836841       -22.7716
  33   2.0000      -0.808215       -21.9926
  34   2.0000      -0.785212       -21.3667
  35   2.0000      -0.763736       -20.7823
  36   2.0000      -0.750778       -20.4297
  37   2.0000      -0.748560       -20.3693
  38   2.0000      -0.734116       -19.9763
  39   2.0000      -0.713860       -19.4251
  40   2.0000      -0.702585       -19.1183
  41   2.0000      -0.664374       -18.0785
  42   2.0000      -0.655308       -17.8318
  43   2.0000      -0.638143       -17.3648
  44   2.0000      -0.627406       -17.0726
  45   2.0000      -0.621735       -16.9183
  46   2.0000      -0.608734       -16.5645
  47   2.0000      -0.604812       -16.4578
  48   2.0000      -0.592583       -16.1250
  49   2.0000      -0.582623       -15.8540
  50   2.0000      -0.573931       -15.6174
  51   2.0000      -0.564471       -15.3600
  52   2.0000      -0.558320       -15.1927
  53   2.0000      -0.536595       -14.6015
  54   2.0000      -0.526634       -14.3304
  55   2.0000      -0.524212       -14.2645
  56   2.0000      -0.512107       -13.9351
  57   2.0000      -0.506743       -13.7892
  58   2.0000      -0.494491       -13.4558
  59   2.0000      -0.490700       -13.3526
  60   2.0000      -0.485618       -13.2143
  61   2.0000      -0.480357       -13.0712
  62   2.0000      -0.467761       -12.7284
  63   2.0000      -0.462050       -12.5730
  64   2.0000      -0.456366       -12.4184
  65   2.0000      -0.447937       -12.1890
  66   2.0000      -0.435265       -11.8442
  67   2.0000      -0.432550       -11.7703
  68   2.0000      -0.426750       -11.6125
  69   2.0000      -0.419852       -11.4248
  70   2.0000      -0.355974        -9.6865
  71   2.0000      -0.248103        -6.7512
  72   0.0000       0.033056         0.8995
  73   0.0000       0.054628         1.4865
  74   0.0000       0.058840         1.6011
  75   0.0000       0.070646         1.9224
  76   0.0000       0.078858         2.1458

MULLIKEN ATOMIC CHARGES
-----------------------
   0 C :   -1.139296
   1 N :   -0.084914
   2 C :   -0.872893
   3 C :   -1.002377
   4 H :    0.467447
   5 H :    0.505310
   6 S :    1.161918
   7 C :    1.264636
   8 C :   -1.850626
   9 N :   -0.476938
  10 H :    0.223943
  11 H :    0.192276
  12 H :    0.052640
  13 H :    0.596622
  14 H :    0.228650
  15 O :   -0.620777
  16 F :   -0.065446
  17 C :   -0.712243
  18 H :    0.379238
  19 H :    0.471688
  20 C :   -0.955343
  21 C :   -0.359307
  22 H :    0.347591
  23 H :    0.323875
  24 H :    0.403392
  25 H :    0.443119
  26 C :   -0.532379
  27 H :    0.437670
  28 H :    0.477811
  29 C :   -0.849403
  30 H :    0.332818
  31 H :    0.373139
  32 C :   -0.876409
  33 H :    0.380126
  34 H :    0.387948
  35 H :    0.473573
  36 H :    0.403552
  37 H :    0.373192
  38 H :    0.389378
  39 O :   -0.693202
Sum of atomic charges:   -0.0000000

LOEWDIN ATOMIC CHARGES
----------------------
   0 C :   -0.207327
   1 N :    0.026138
   2 C :   -0.229843
   3 C :   -0.241574
   4 H :    0.121791
   5 H :    0.116273
   6 S :    0.645307
   7 C :   -0.546915
   8 C :   -0.013885
   9 N :    0.107249
  10 H :    0.091576
  11 H :    0.110958
  12 H :    0.063816
  13 H :   -0.044104
  14 H :    0.020671
  15 O :   -0.278376
  16 F :   -0.009389
  17 C :   -0.210830
  18 H :    0.122327
  19 H :    0.117649
  20 C :   -0.233227
  21 C :   -0.233212
  22 H :    0.138992
  23 H :    0.093944
  24 H :    0.133981
  25 H :    0.128703
  26 C :   -0.227341
  27 H :    0.118874
  28 H :    0.112924
  29 C :   -0.238329
  30 H :    0.126006
  31 H :    0.116231
  32 C :   -0.229206
  33 H :    0.123381
  34 H :    0.109335
  35 H :    0.121360
  36 H :    0.122953
  37 H :    0.118371
  38 H :    0.119965
  39 O :   -0.285217

  Mayer bond orders larger than 0.100000
B(  0-C ,  1-N ) :   0.8685 B(  0-C ,  7-C ) :  -0.2006 B(  0-C ,  9-N ) :   0.1581
B(  0-C , 12-H ) :  -0.1726 B(  0-C , 17-C ) :   0.6629 B(  0-C , 18-H ) :   0.8355
B(  0-C , 19-H ) :   0.7803 B(  1-N ,  7-C ) :   0.8848 B(  1-N , 12-H ) :   1.0348
B(  1-N , 39-O ) :  -0.1490 B(  2-C ,  3-C ) :   0.8866 B(  2-C , 20-C ) :   0.2498
B(  2-C , 21-C ) :   0.4880 B(  2-C , 24-H ) :   0.8854 B(  2-C , 25-H ) :   0.8161
B(  3-C ,  4-H ) :   0.7823 B(  3-C ,  5-H ) :   0.8011 B(  3-C ,  6-S ) :   0.9333
B(  6-S , 15-O ) :   1.5481 B(  6-S , 16-F ) :   0.9238 B(  6-S , 39-O ) :   1.6452
B(  7-C ,  8-C ) :   0.4102 B(  7-C ,  9-N ) :   0.7802 B(  7-C , 12-H ) :  -0.3578
B(  7-C , 14-H ) :  -0.2595 B(  8-C , 12-H ) :   0.1510 B(  8-C , 13-H ) :   0.8105
B(  8-C , 14-H ) :   1.2254 B(  9-N , 10-H ) :   0.9941 B(  9-N , 11-H ) :   1.0324
B( 13-H , 15-O ) :  -0.3406 B( 15-O , 39-O ) :   0.1377 B( 17-C , 26-C ) :   0.8814
B( 17-C , 27-H ) :   0.9071 B( 17-C , 28-H ) :   0.7753 B( 20-C , 21-C ) :   0.5003
B( 20-C , 26-C ) :   0.1122 B( 20-C , 32-C ) :   0.8592 B( 20-C , 35-H ) :   0.8660
B( 20-C , 36-H ) :   0.8507 B( 21-C , 22-H ) :   0.8398 B( 21-C , 23-H ) :   1.0174
B( 21-C , 29-C ) :   0.1289 B( 21-C , 39-O ) :   0.1550 B( 22-H , 23-H ) :   0.2193
B( 23-H , 39-O ) :  -0.2119 B( 26-C , 29-C ) :   0.3297 B( 26-C , 30-H ) :   0.9517
B( 26-C , 31-H ) :   0.9137 B( 26-C , 34-H ) :  -0.1131 B( 29-C , 32-C ) :   0.8409
B( 29-C , 33-H ) :   0.8944 B( 29-C , 34-H ) :   0.9941 B( 32-C , 37-H ) :   0.9317
B( 32-C , 38-H ) :   0.9326

FINAL SINGLE POINT ENERGY     -1188.453322089281

DIPOLE MOMENT
-------------
                                X             Y             Z
Electronic contribution:    -20.64469       2.58062     -20.19101
Nuclear contribution   :     20.03262      -4.53368      20.24480
                        -----------------------------------------
Total Dipole Moment    :     -0.61207      -1.95306       0.05379
                        -----------------------------------------
Magnitude (a.u.)       :      2.04743
Magnitude (Debye)      :      5.20416

Rotational constants in cm-1:     0.014367     0.012055     0.007393
Rotational constants in MHz :   430.711297   361.391195   221.649333

                             ****ORCA TERMINATED NORMALLY****
TOTAL RUN TIME: 0 days 0 hours 13 minutes 47 seconds 901 msec
