                         Program Version 5.0.0 -  RELEASE  -
|  1> !LC-PBE RIJCOSX def2-TZVPD def2/J TightSCF xyzfile
|  2>
|  3> *xyzfile 0 1 D6.xyz
|  4>
|  5> %MaxCore 64000
|  6>
|  7> %pal nprocs 4
|  8> end
|  9>
| 10> %scf
| 11>   MaxIter 150
| 12> end
| 13>
| 14>
| 15>                          ****END OF INPUT****

CARTESIAN COORDINATES (ANGSTROEM)
---------------------------------
  C      4.490588    1.155899   -2.469290
  N      4.305394    1.222762   -3.908317
  C      4.906458   -3.102816   -5.954844
  C      3.511771   -2.806215   -6.492283
  H      2.736044   -3.373445   -5.973736
  H      3.444904   -3.040831   -7.555281
  S      3.004618   -1.096206   -6.389259
  C      4.631918    2.246365   -4.670958
  N      4.541686    2.143990   -5.987139
  C      5.084086    3.393584   -4.118545
  H      4.920675    3.570501   -3.135870
  H      5.254652    4.197390   -4.706956
  H      3.824530    0.449113   -4.350926
  H      4.343373    1.249318   -6.416646
  H      4.676712    2.956624   -6.574113
  O      4.128856   -0.329647   -6.953717
  F      1.781285   -1.000779   -7.136399
  C      5.942129    0.939500   -2.036893
  H      3.864305    0.328532   -2.136611
  H      4.076233    2.049994   -1.989010
  C      6.462677   -3.117775   -3.944671
  C      5.024977   -3.025679   -4.437625
  H      4.423321   -3.818693   -3.977648
  H      4.579350   -2.087131   -4.108727
  H      5.201533   -4.100207   -6.296905
  H      5.605922   -2.397822   -6.413368
  C      6.559957   -0.356290   -2.559086
  H      5.967976    0.952567   -0.942444
  H      6.547184    1.788331   -2.368849
  C      6.006283   -1.615917   -1.899301
  H      7.642360   -0.318000   -2.402059
  H      6.414855   -0.403433   -3.642587
  C      6.608718   -2.917014   -2.435655
  H      6.190324   -1.561115   -0.820948
  H      4.919250   -1.651245   -2.016586
  H      7.066975   -2.374258   -4.475514
  H      6.887808   -4.089747   -4.215332
  H      6.135197   -3.755573   -1.915159
  H      7.671142   -2.955503   -2.172291
  O      2.851546   -0.783683   -4.956789

 Total Charge           Charge          ....    0
 Multiplicity           Mult            ....    1
 Number of Electrons    NEL             ....  144
 Basis Dimension        Dim             ....  854

ORBITAL ENERGIES
----------------

  NO   OCC          E(Eh)            E(eV)
   0   2.0000     -88.570654     -2410.1300
   1   2.0000     -24.648583      -670.7220
   2   2.0000     -19.021122      -517.5910
   3   2.0000     -19.020600      -517.5768
   4   2.0000     -14.176739      -385.7687
   5   2.0000     -14.170086      -385.5876
   6   2.0000     -10.203339      -277.6470
   7   2.0000     -10.156340      -276.3681
   8   2.0000     -10.136230      -275.8208
   9   2.0000     -10.123978      -275.4874
  10   2.0000     -10.122099      -275.4363
  11   2.0000     -10.115869      -275.2668
  12   2.0000     -10.109138      -275.0836
  13   2.0000     -10.100674      -274.8533
  14   2.0000     -10.092187      -274.6224
  15   2.0000     -10.086244      -274.4607
  16   2.0000      -9.992861      -271.9196
  17   2.0000      -8.182214      -222.6494
  18   2.0000      -6.202402      -168.7759
  19   2.0000      -6.195694      -168.5934
  20   2.0000      -6.195122      -168.5778
  21   2.0000      -1.581514       -43.0352
  22   2.0000      -1.310334       -35.6560
  23   2.0000      -1.205699       -32.8087
  24   2.0000      -1.114993       -30.3405
  25   2.0000      -1.039859       -28.2960
  26   2.0000      -1.026149       -27.9229
  27   2.0000      -0.995058       -27.0769
  28   2.0000      -0.958361       -26.0783
  29   2.0000      -0.927430       -25.2367
  30   2.0000      -0.896898       -24.4058
  31   2.0000      -0.859989       -23.4015
  32   2.0000      -0.846648       -23.0385
  33   2.0000      -0.821321       -22.3493
  34   2.0000      -0.793517       -21.5927
  35   2.0000      -0.781130       -21.2556
  36   2.0000      -0.762990       -20.7620
  37   2.0000      -0.748479       -20.3672
  38   2.0000      -0.745292       -20.2804
  39   2.0000      -0.712084       -19.3768
  40   2.0000      -0.688007       -18.7216
  41   2.0000      -0.674738       -18.3605
  42   2.0000      -0.668080       -18.1794
  43   2.0000      -0.650666       -17.7055
  44   2.0000      -0.643738       -17.5170
  45   2.0000      -0.625193       -17.0124
  46   2.0000      -0.621331       -16.9073
  47   2.0000      -0.604993       -16.4627
  48   2.0000      -0.594475       -16.1765
  49   2.0000      -0.581066       -15.8116
  50   2.0000      -0.572070       -15.5668
  51   2.0000      -0.571136       -15.5414
  52   2.0000      -0.561575       -15.2812
  53   2.0000      -0.543292       -14.7837
  54   2.0000      -0.528527       -14.3819
  55   2.0000      -0.522279       -14.2119
  56   2.0000      -0.518200       -14.1009
  57   2.0000      -0.509282       -13.8583
  58   2.0000      -0.498339       -13.5605
  59   2.0000      -0.495219       -13.4756
  60   2.0000      -0.487349       -13.2615
  61   2.0000      -0.479957       -13.0603
  62   2.0000      -0.472406       -12.8548
  63   2.0000      -0.468066       -12.7367
  64   2.0000      -0.462239       -12.5782
  65   2.0000      -0.459187       -12.4951
  66   2.0000      -0.449190       -12.2231
  67   2.0000      -0.433363       -11.7924
  68   2.0000      -0.429970       -11.7001
  69   2.0000      -0.421217       -11.4619
  70   2.0000      -0.344528        -9.3751
  71   2.0000      -0.251170        -6.8347
  72   0.0000       0.025036         0.6813
  73   0.0000       0.047293         1.2869
  74   0.0000       0.050516         1.3746
  75   0.0000       0.067008         1.8234
  76   0.0000       0.077684         2.1139

MULLIKEN ATOMIC CHARGES
-----------------------
   0 C :   -1.137972
   1 N :   -0.141201
   2 C :   -0.861471
   3 C :   -0.981513
   4 H :    0.475983
   5 H :    0.502124
   6 S :    1.180019
   7 C :    1.053857
   8 N :   -0.330642
   9 C :   -1.535057
  10 H :    0.332973
  11 H :    0.360360
  12 H :    0.128933
  13 H :    0.225029
  14 H :    0.156537
  15 O :   -0.756597
  16 F :   -0.066310
  17 C :   -0.788700
  18 H :    0.396598
  19 H :    0.473749
  20 C :   -0.952302
  21 C :   -0.366798
  22 H :    0.352056
  23 H :    0.332148
  24 H :    0.400780
  25 H :    0.441270
  26 C :   -0.474162
  27 H :    0.435233
  28 H :    0.496549
  29 C :   -0.834864
  30 H :    0.328796
  31 H :    0.322162
  32 C :   -0.887394
  33 H :    0.381144
  34 H :    0.374569
  35 H :    0.481903
  36 H :    0.399743
  37 H :    0.368831
  38 H :    0.388741
  39 O :   -0.675104
Sum of atomic charges:   -0.0000000

LOEWDIN ATOMIC CHARGES
----------------------
   0 C :   -0.203418
   1 N :    0.025223
   2 C :   -0.229123
   3 C :   -0.237642
   4 H :    0.124485
   5 H :    0.117375
   6 S :    0.651450
   7 C :   -0.554283
   8 N :    0.116298
   9 C :   -0.026007
  10 H :    0.003644
  11 H :    0.007408
  12 H :    0.059924
  13 H :    0.027106
  14 H :    0.119600
  15 O :   -0.276058
  16 F :   -0.006019
  17 C :   -0.206179
  18 H :    0.120952
  19 H :    0.122888
  20 C :   -0.233186
  21 C :   -0.232939
  22 H :    0.139651
  23 H :    0.094039
  24 H :    0.135354
  25 H :    0.128275
  26 C :   -0.228354
  27 H :    0.120480
  28 H :    0.112853
  29 C :   -0.238777
  30 H :    0.125942
  31 H :    0.113430
  32 C :   -0.229220
  33 H :    0.123879
  34 H :    0.108664
  35 H :    0.121102
  36 H :    0.123000
  37 H :    0.118198
  38 H :    0.120349
  39 O :   -0.280366

  Mayer bond orders larger than 0.100000
B(  0-C ,  1-N ) :   0.8939 B(  0-C ,  7-C ) :  -0.1699 B(  0-C ,  9-C ) :   0.1982
B(  0-C , 12-H ) :  -0.2342 B(  0-C , 17-C ) :   0.7453 B(  0-C , 18-H ) :   0.7874
B(  0-C , 19-H ) :   0.7968 B(  1-N ,  7-C ) :   0.9123 B(  1-N , 12-H ) :   1.0144
B(  1-N , 17-C ) :   0.1076 B(  1-N , 39-O ) :  -0.1403 B(  2-C ,  3-C ) :   0.8872
B(  2-C , 20-C ) :   0.2442 B(  2-C , 21-C ) :   0.4663 B(  2-C , 24-H ) :   0.8894
B(  2-C , 25-H ) :   0.8179 B(  3-C ,  4-H ) :   0.7765 B(  3-C ,  5-H ) :   0.8027
B(  3-C ,  6-S ) :   0.9276 B(  6-S , 15-O ) :   1.4667 B(  6-S , 16-F ) :   0.9318
B(  6-S , 39-O ) :   1.6774 B(  7-C ,  8-N ) :   0.7732 B(  7-C ,  9-C ) :   0.7954
B(  7-C , 11-H ) :  -0.1248 B(  7-C , 12-H ) :  -0.3358 B(  7-C , 13-H ) :  -0.1108
B(  8-N , 13-H ) :   0.9166 B(  8-N , 14-H ) :   1.0709 B(  9-C , 10-H ) :   1.0267
B(  9-C , 11-H ) :   1.0281 B( 15-O , 39-O ) :   0.1114 B( 17-C , 26-C ) :   0.8619
B( 17-C , 27-H ) :   0.8810 B( 17-C , 28-H ) :   0.8036 B( 20-C , 21-C ) :   0.5104
B( 20-C , 26-C ) :   0.1127 B( 20-C , 32-C ) :   0.8556 B( 20-C , 35-H ) :   0.8549
B( 20-C , 36-H ) :   0.8560 B( 21-C , 22-H ) :   0.8435 B( 21-C , 23-H ) :   1.0074
B( 21-C , 29-C ) :   0.1305 B( 21-C , 39-O ) :   0.1494 B( 22-H , 23-H ) :   0.2201
B( 23-H , 39-O ) :  -0.2102 B( 26-C , 29-C ) :   0.3373 B( 26-C , 30-H ) :   0.9532
B( 26-C , 31-H ) :   0.9469 B( 26-C , 34-H ) :  -0.1140 B( 29-C , 32-C ) :   0.8248
B( 29-C , 33-H ) :   0.8959 B( 29-C , 34-H ) :   1.0049 B( 32-C , 37-H ) :   0.9415
B( 32-C , 38-H ) :   0.9356

FINAL SINGLE POINT ENERGY     -1188.468180352772

DIPOLE MOMENT
-------------
                                X             Y             Z
Electronic contribution:    -21.17348       1.23166     -21.89088
Nuclear contribution   :     20.11362      -4.34709      20.52383
                        -----------------------------------------
Total Dipole Moment    :     -1.05986      -3.11543      -1.36706
                        -----------------------------------------
Magnitude (a.u.)       :      3.56343
Magnitude (Debye)      :      9.05753

Rotational constants in cm-1:     0.014449     0.012108     0.007447
Rotational constants in MHz :   433.168496   362.988632   223.260798

                             ****ORCA TERMINATED NORMALLY****
TOTAL RUN TIME: 0 days 0 hours 12 minutes 49 seconds 340 msec
