                         Program Version 5.0.0 -  RELEASE  -
|  1> !LC-PBE RIJCOSX def2-TZVPD def2/J TightSCF xyzfile
|  2>
|  3> *xyzfile 0 1 D7.xyz
|  4>
|  5> %MaxCore 64000
|  6>
|  7> %pal nprocs 4
|  8> end
|  9>
| 10> %scf
| 11>   MaxIter 150
| 12> end
| 13>
| 14>
| 15>                          ****END OF INPUT****

CARTESIAN COORDINATES (ANGSTROEM)
---------------------------------
  C      4.490588    1.155899   -2.469290
  C      4.305394    1.222762   -3.908317
  C      4.906458   -3.102816   -5.954844
  C      3.511771   -2.806215   -6.492283
  H      2.736044   -3.373445   -5.973736
  H      3.444904   -3.040831   -7.555281
  S      3.004618   -1.096206   -6.389259
  C      4.631918    2.246365   -4.670958
  N      4.541686    2.143990   -5.987139
  N      5.084086    3.393584   -4.118545
  H      4.920675    3.570501   -3.135870
  H      5.254652    4.197390   -4.706956
  H      3.824530    0.449113   -4.350926
  H      4.343373    1.249318   -6.416646
  H      4.676712    2.956624   -6.574113
  O      4.128856   -0.329647   -6.953717
  O      1.781285   -1.000779   -7.136399
  C      5.942129    0.939500   -2.036893
  H      3.864305    0.328532   -2.136611
  H      4.076233    2.049994   -1.989010
  C      6.462677   -3.117775   -3.944671
  C      5.024977   -3.025679   -4.437625
  H      4.423321   -3.818693   -3.977648
  H      4.579350   -2.087131   -4.108727
  H      5.201533   -4.100207   -6.296905
  H      5.605922   -2.397822   -6.413368
  C      6.559957   -0.356290   -2.559086
  H      5.967976    0.952567   -0.942444
  H      6.547184    1.788331   -2.368849
  C      6.006283   -1.615917   -1.899301
  H      7.642360   -0.318000   -2.402059
  H      6.414855   -0.403433   -3.642587
  C      6.608718   -2.917014   -2.435655
  H      6.190324   -1.561115   -0.820948
  H      4.919250   -1.651245   -2.016586
  H      7.066975   -2.374258   -4.475514
  H      6.887808   -4.089747   -4.215332
  H      6.135197   -3.755573   -1.915159
  H      7.671142   -2.955503   -2.172291
  F      2.851546   -0.783683   -4.956789

 Total Charge           Charge          ....    0
 Multiplicity           Mult            ....    1
 Number of Electrons    NEL             ....  144
 Basis Dimension        Dim             ....  854

ORBITAL ENERGIES
----------------

  NO   OCC          E(Eh)            E(eV)
   0   2.0000     -88.545246     -2409.4386
   1   2.0000     -24.606279      -669.5709
   2   2.0000     -19.005394      -517.1631
   3   2.0000     -19.001354      -517.0531
   4   2.0000     -14.202824      -386.4785
   5   2.0000     -14.179878      -385.8541
   6   2.0000     -10.185188      -277.1530
   7   2.0000     -10.149340      -276.1776
   8   2.0000     -10.143430      -276.0168
   9   2.0000     -10.124059      -275.4897
  10   2.0000     -10.114083      -275.2182
  11   2.0000     -10.107848      -275.0485
  12   2.0000     -10.099740      -274.8279
  13   2.0000     -10.090660      -274.5808
  14   2.0000     -10.086532      -274.4685
  15   2.0000     -10.082752      -274.3656
  16   2.0000     -10.017580      -272.5922
  17   2.0000      -8.156738      -221.9561
  18   2.0000      -6.177226      -168.0909
  19   2.0000      -6.170159      -167.8986
  20   2.0000      -6.169536      -167.8816
  21   2.0000      -1.531837       -41.6834
  22   2.0000      -1.295630       -35.2559
  23   2.0000      -1.195979       -32.5442
  24   2.0000      -1.120116       -30.4799
  25   2.0000      -1.028875       -27.9971
  26   2.0000      -1.019390       -27.7390
  27   2.0000      -0.992435       -27.0055
  28   2.0000      -0.961267       -26.1574
  29   2.0000      -0.930597       -25.3228
  30   2.0000      -0.889637       -24.2082
  31   2.0000      -0.875160       -23.8143
  32   2.0000      -0.837168       -22.7805
  33   2.0000      -0.808825       -22.0093
  34   2.0000      -0.787103       -21.4182
  35   2.0000      -0.752926       -20.4882
  36   2.0000      -0.746599       -20.3160
  37   2.0000      -0.737834       -20.0775
  38   2.0000      -0.730824       -19.8867
  39   2.0000      -0.706386       -19.2217
  40   2.0000      -0.700278       -19.0555
  41   2.0000      -0.673301       -18.3214
  42   2.0000      -0.650663       -17.7055
  43   2.0000      -0.636021       -17.3070
  44   2.0000      -0.631907       -17.1951
  45   2.0000      -0.625946       -17.0328
  46   2.0000      -0.621980       -16.9249
  47   2.0000      -0.604442       -16.4477
  48   2.0000      -0.593000       -16.1364
  49   2.0000      -0.583785       -15.8856
  50   2.0000      -0.570869       -15.5341
  51   2.0000      -0.566023       -15.4023
  52   2.0000      -0.564121       -15.3505
  53   2.0000      -0.547910       -14.9094
  54   2.0000      -0.534480       -14.5439
  55   2.0000      -0.524809       -14.2808
  56   2.0000      -0.513504       -13.9731
  57   2.0000      -0.507047       -13.7975
  58   2.0000      -0.503669       -13.7055
  59   2.0000      -0.488386       -13.2897
  60   2.0000      -0.482995       -13.1430
  61   2.0000      -0.473541       -12.8857
  62   2.0000      -0.470526       -12.8037
  63   2.0000      -0.466586       -12.6965
  64   2.0000      -0.456277       -12.4159
  65   2.0000      -0.455736       -12.4012
  66   2.0000      -0.447363       -12.1734
  67   2.0000      -0.429842       -11.6966
  68   2.0000      -0.423465       -11.5231
  69   2.0000      -0.417881       -11.3711
  70   2.0000      -0.380409       -10.3514
  71   2.0000      -0.264214        -7.1896
  72   0.0000       0.044725         1.2170
  73   0.0000       0.055907         1.5213
  74   0.0000       0.063395         1.7251
  75   0.0000       0.067945         1.8489
  76   0.0000       0.079336         2.1589

MULLIKEN ATOMIC CHARGES
-----------------------
   0 C :   -1.355474
   1 C :   -1.202511
   2 C :   -0.774679
   3 C :   -0.950281
   4 H :    0.441775
   5 H :    0.448337
   6 S :    1.295944
   7 C :    1.048205
   8 N :   -0.383627
   9 N :   -0.455957
  10 H :    0.236456
  11 H :    0.167885
  12 H :    0.686995
  13 H :    0.192387
  14 H :    0.160626
  15 O :   -0.764144
  16 O :   -0.573036
  17 C :   -0.795469
  18 H :    0.377942
  19 H :    0.475355
  20 C :   -0.980381
  21 C :   -0.293225
  22 H :    0.347399
  23 H :    0.250840
  24 H :    0.411973
  25 H :    0.435857
  26 C :   -0.559546
  27 H :    0.394157
  28 H :    0.460664
  29 C :   -0.817546
  30 H :    0.332847
  31 H :    0.379206
  32 C :   -0.876827
  33 H :    0.378442
  34 H :    0.369042
  35 H :    0.482009
  36 H :    0.398997
  37 H :    0.369707
  38 H :    0.385804
  39 F :   -0.146147
Sum of atomic charges:   -0.0000000

LOEWDIN ATOMIC CHARGES
----------------------
   0 C :   -0.243323
   1 C :   -0.160305
   2 C :   -0.240242
   3 C :   -0.233987
   4 H :    0.123556
   5 H :    0.125680
   6 S :    0.623080
   7 C :   -0.521717
   8 N :    0.114295
   9 N :    0.121719
  10 H :    0.102268
  11 H :    0.104707
  12 H :    0.028044
  13 H :    0.033140
  14 H :    0.111864
  15 O :   -0.278154
  16 O :   -0.244735
  17 C :   -0.223697
  18 H :    0.112301
  19 H :    0.113211
  20 C :   -0.232491
  21 C :   -0.235434
  22 H :    0.138925
  23 H :    0.095679
  24 H :    0.132593
  25 H :    0.125894
  26 C :   -0.229678
  27 H :    0.115905
  28 H :    0.113180
  29 C :   -0.237474
  30 H :    0.125051
  31 H :    0.113199
  32 C :   -0.229932
  33 H :    0.123716
  34 H :    0.108303
  35 H :    0.121355
  36 H :    0.123834
  37 H :    0.118029
  38 H :    0.119941
  39 F :   -0.078299

  Mayer bond orders larger than 0.100000
B(  0-C ,  1-C ) :   0.5201 B(  0-C , 17-C ) :   0.6520 B(  0-C , 18-H ) :   0.9274
B(  0-C , 19-H ) :   0.8635 B(  1-C ,  7-C ) :   0.7451 B(  1-C , 12-H ) :  -0.1539
B(  1-C , 19-H ) :  -0.1549 B(  1-C , 31-H ) :  -0.1060 B(  1-C , 39-F ) :   0.3825
B(  2-C ,  3-C ) :   0.7811 B(  2-C , 20-C ) :   0.2474 B(  2-C , 21-C ) :   0.4548
B(  2-C , 24-H ) :   0.8772 B(  2-C , 25-H ) :   0.8386 B(  3-C ,  4-H ) :   0.8319
B(  3-C ,  5-H ) :   0.8762 B(  3-C ,  6-S ) :   0.9710 B(  3-C , 16-O ) :   0.1369
B(  6-S , 15-O ) :   1.3813 B(  6-S , 16-O ) :   1.4647 B(  6-S , 39-F ) :   1.0364
B(  7-C ,  8-N ) :   0.7380 B(  7-C ,  9-N ) :   0.9061 B(  7-C , 12-H ) :   0.4736
B(  7-C , 13-H ) :  -0.1107 B(  8-N , 12-H ) :   0.1602 B(  8-N , 13-H ) :   0.9490
B(  8-N , 14-H ) :   1.0900 B(  9-N , 10-H ) :   0.9569 B(  9-N , 11-H ) :   1.0699
B(  9-N , 17-C ) :   0.1245 B( 12-H , 15-O ) :   0.2293 B( 12-H , 39-F ) :  -0.5255
B( 17-C , 26-C ) :   0.8697 B( 17-C , 27-H ) :   0.9046 B( 17-C , 28-H ) :   0.7943
B( 20-C , 21-C ) :   0.5457 B( 20-C , 26-C ) :   0.1158 B( 20-C , 32-C ) :   0.8494
B( 20-C , 35-H ) :   0.8498 B( 20-C , 36-H ) :   0.8556 B( 21-C , 22-H ) :   0.8521
B( 21-C , 23-H ) :   0.9749 B( 21-C , 29-C ) :   0.1295 B( 21-C , 39-F ) :   0.1056
B( 22-H , 23-H ) :   0.2152 B( 23-H , 39-F ) :  -0.1221 B( 26-C , 29-C ) :   0.3481
B( 26-C , 30-H ) :   0.9616 B( 26-C , 31-H ) :   0.9653 B( 26-C , 34-H ) :  -0.1245
B( 29-C , 32-C ) :   0.8157 B( 29-C , 33-H ) :   0.8974 B( 29-C , 34-H ) :   1.0062
B( 32-C , 37-H ) :   0.9440 B( 32-C , 38-H ) :   0.9391

FINAL SINGLE POINT ENERGY     -1188.482838823253

DIPOLE MOMENT
-------------
                                X             Y             Z
Electronic contribution:    -18.41072       3.99072     -17.95571
Nuclear contribution   :     18.74089      -4.92611      17.99644
                        -----------------------------------------
Total Dipole Moment    :      0.33018      -0.93539       0.04073
                        -----------------------------------------
Magnitude (a.u.)       :      0.99279
Magnitude (Debye)      :      2.52346

Rotational constants in cm-1:     0.014210     0.012324     0.007480
Rotational constants in MHz :   425.991442   369.455467   224.259162

                             ****ORCA TERMINATED NORMALLY****
TOTAL RUN TIME: 0 days 0 hours 13 minutes 47 seconds 23 msec
