                         Program Version 5.0.0 -  RELEASE  -
|  1> !LC-PBE RIJCOSX def2-TZVPD def2/J TightSCF xyzfile
|  2>
|  3> *xyzfile 0 1 D8.xyz
|  4>
|  5> %MaxCore 64000
|  6>
|  7> %pal nprocs 4
|  8> end
|  9>
| 10> %scf
| 11>   MaxIter 150
| 12> end
| 13>
| 14>
| 15>                          ****END OF INPUT****

CARTESIAN COORDINATES (ANGSTROEM)
---------------------------------
  C      4.490588    1.155899   -2.469290
  N      4.305394    1.222762   -3.908317
  C      4.906458   -3.102816   -5.954844
  C      3.511771   -2.806215   -6.492283
  H      2.736044   -3.373445   -5.973736
  H      3.444904   -3.040831   -7.555281
  S      3.004618   -1.096206   -6.389259
  C      4.631918    2.246365   -4.670958
  C      4.541686    2.143990   -5.987139
  N      5.084086    3.393584   -4.118545
  H      4.920675    3.570501   -3.135870
  H      5.254652    4.197390   -4.706956
  H      3.824530    0.449113   -4.350926
  H      4.343373    1.249318   -6.416646
  H      4.676712    2.956624   -6.574113
  O      4.128856   -0.329647   -6.953717
  O      1.781285   -1.000779   -7.136399
  C      5.942129    0.939500   -2.036893
  H      3.864305    0.328532   -2.136611
  H      4.076233    2.049994   -1.989010
  C      6.462677   -3.117775   -3.944671
  C      5.024977   -3.025679   -4.437625
  H      4.423321   -3.818693   -3.977648
  H      4.579350   -2.087131   -4.108727
  H      5.201533   -4.100207   -6.296905
  H      5.605922   -2.397822   -6.413368
  C      6.559957   -0.356290   -2.559086
  H      5.967976    0.952567   -0.942444
  H      6.547184    1.788331   -2.368849
  C      6.006283   -1.615917   -1.899301
  H      7.642360   -0.318000   -2.402059
  H      6.414855   -0.403433   -3.642587
  C      6.608718   -2.917014   -2.435655
  H      6.190324   -1.561115   -0.820948
  H      4.919250   -1.651245   -2.016586
  H      7.066975   -2.374258   -4.475514
  H      6.887808   -4.089747   -4.215332
  H      6.135197   -3.755573   -1.915159
  H      7.671142   -2.955503   -2.172291
  F      2.851546   -0.783683   -4.956789

 Total Charge           Charge          ....    0
 Multiplicity           Mult            ....    1
 Number of Electrons    NEL             ....  144
 Basis Dimension        Dim             ....  854

ORBITAL ENERGIES
----------------

  NO   OCC          E(Eh)            E(eV)
   0   2.0000     -88.540474     -2409.3088
   1   2.0000     -24.618140      -669.8936
   2   2.0000     -19.002051      -517.0721
   3   2.0000     -18.988617      -516.7065
   4   2.0000     -14.199730      -386.3943
   5   2.0000     -14.197317      -386.3286
   6   2.0000     -10.184533      -277.1352
   7   2.0000     -10.147867      -276.1375
   8   2.0000     -10.145665      -276.0776
   9   2.0000     -10.145428      -276.0711
  10   2.0000     -10.131121      -275.6818
  11   2.0000     -10.121227      -275.4126
  12   2.0000     -10.117457      -275.3100
  13   2.0000     -10.113861      -275.2121
  14   2.0000     -10.108938      -275.0782
  15   2.0000     -10.107801      -275.0473
  16   2.0000      -9.992293      -271.9041
  17   2.0000      -8.152251      -221.8340
  18   2.0000      -6.173029      -167.9767
  19   2.0000      -6.165389      -167.7688
  20   2.0000      -6.164868      -167.7546
  21   2.0000      -1.541855       -41.9560
  22   2.0000      -1.290612       -35.1193
  23   2.0000      -1.187414       -32.3112
  24   2.0000      -1.133431       -30.8422
  25   2.0000      -1.040818       -28.3221
  26   2.0000      -1.031176       -28.0597
  27   2.0000      -0.998760       -27.1776
  28   2.0000      -0.966581       -26.3020
  29   2.0000      -0.926596       -25.2140
  30   2.0000      -0.898647       -24.4534
  31   2.0000      -0.877329       -23.8733
  32   2.0000      -0.843339       -22.9484
  33   2.0000      -0.817840       -22.2546
  34   2.0000      -0.795593       -21.6492
  35   2.0000      -0.769471       -20.9384
  36   2.0000      -0.758384       -20.6367
  37   2.0000      -0.746609       -20.3163
  38   2.0000      -0.727872       -19.8064
  39   2.0000      -0.714356       -19.4386
  40   2.0000      -0.711000       -19.3473
  41   2.0000      -0.667315       -18.1586
  42   2.0000      -0.653967       -17.7954
  43   2.0000      -0.639516       -17.4021
  44   2.0000      -0.632150       -17.2017
  45   2.0000      -0.629671       -17.1342
  46   2.0000      -0.617462       -16.8020
  47   2.0000      -0.612253       -16.6602
  48   2.0000      -0.604598       -16.4519
  49   2.0000      -0.587565       -15.9885
  50   2.0000      -0.584687       -15.9101
  51   2.0000      -0.574122       -15.6226
  52   2.0000      -0.557022       -15.1573
  53   2.0000      -0.548120       -14.9151
  54   2.0000      -0.533941       -14.5293
  55   2.0000      -0.527493       -14.3538
  56   2.0000      -0.523007       -14.2317
  57   2.0000      -0.514755       -14.0072
  58   2.0000      -0.505831       -13.7644
  59   2.0000      -0.499020       -13.5790
  60   2.0000      -0.495475       -13.4826
  61   2.0000      -0.482026       -13.1166
  62   2.0000      -0.476545       -12.9674
  63   2.0000      -0.469462       -12.7747
  64   2.0000      -0.466953       -12.7064
  65   2.0000      -0.458662       -12.4808
  66   2.0000      -0.447387       -12.1740
  67   2.0000      -0.444043       -12.0830
  68   2.0000      -0.438300       -11.9268
  69   2.0000      -0.425409       -11.5760
  70   2.0000      -0.372975       -10.1492
  71   2.0000      -0.261500        -7.1158
  72   0.0000       0.042034         1.1438
  73   0.0000       0.054130         1.4730
  74   0.0000       0.063774         1.7354
  75   0.0000       0.067381         1.8335
  76   0.0000       0.076795         2.0897

MULLIKEN ATOMIC CHARGES
-----------------------
   0 C :   -1.139272
   1 N :   -0.131645
   2 C :   -0.767217
   3 C :   -0.958510
   4 H :    0.438160
   5 H :    0.447952
   6 S :    1.193462
   7 C :    1.289364
   8 C :   -1.935548
   9 N :   -0.477141
  10 H :    0.224608
  11 H :    0.195573
  12 H :    0.056690
  13 H :    0.671527
  14 H :    0.229523
  15 O :   -0.619311
  16 O :   -0.574129
  17 C :   -0.720087
  18 H :    0.399488
  19 H :    0.470963
  20 C :   -0.981114
  21 C :   -0.319968
  22 H :    0.361899
  23 H :    0.220048
  24 H :    0.413582
  25 H :    0.436964
  26 C :   -0.530515
  27 H :    0.440725
  28 H :    0.483105
  29 C :   -0.844611
  30 H :    0.332982
  31 H :    0.380307
  32 C :   -0.873339
  33 H :    0.377690
  34 H :    0.379702
  35 H :    0.469720
  36 H :    0.405973
  37 H :    0.377085
  38 H :    0.390617
  39 F :   -0.215302
Sum of atomic charges:    0.0000000

LOEWDIN ATOMIC CHARGES
----------------------
   0 C :   -0.207503
   1 N :    0.023835
   2 C :   -0.239822
   3 C :   -0.235897
   4 H :    0.121831
   5 H :    0.126457
   6 S :    0.616366
   7 C :   -0.545873
   8 C :   -0.004458
   9 N :    0.108968
  10 H :    0.092542
  11 H :    0.113494
  12 H :    0.086796
  13 H :   -0.041306
  14 H :    0.026493
  15 O :   -0.279711
  16 O :   -0.243294
  17 C :   -0.209098
  18 H :    0.121038
  19 H :    0.119726
  20 C :   -0.231299
  21 C :   -0.236923
  22 H :    0.139150
  23 H :    0.092496
  24 H :    0.132974
  25 H :    0.127087
  26 C :   -0.227258
  27 H :    0.120519
  28 H :    0.114455
  29 C :   -0.239479
  30 H :    0.127614
  31 H :    0.115639
  32 C :   -0.228307
  33 H :    0.124351
  34 H :    0.106521
  35 H :    0.122216
  36 H :    0.125260
  37 H :    0.119168
  38 H :    0.121127
  39 F :   -0.075896

  Mayer bond orders larger than 0.100000
B(  0-C ,  1-N ) :   0.8479 B(  0-C ,  7-C ) :  -0.2095 B(  0-C ,  9-N ) :   0.1639
B(  0-C , 12-H ) :  -0.1599 B(  0-C , 17-C ) :   0.6903 B(  0-C , 18-H ) :   0.8069
B(  0-C , 19-H ) :   0.7885 B(  1-N ,  7-C ) :   0.9119 B(  1-N , 12-H ) :   1.0446
B(  2-C ,  3-C ) :   0.7830 B(  2-C , 20-C ) :   0.2563 B(  2-C , 21-C ) :   0.4576
B(  2-C , 24-H ) :   0.8672 B(  2-C , 25-H ) :   0.8442 B(  3-C ,  4-H ) :   0.8349
B(  3-C ,  5-H ) :   0.8759 B(  3-C ,  6-S ) :   0.9821 B(  3-C , 16-O ) :   0.1230
B(  6-S , 15-O ) :   1.4869 B(  6-S , 16-O ) :   1.4925 B(  6-S , 39-F ) :   1.0372
B(  7-C ,  8-C ) :   0.2550 B(  7-C ,  9-N ) :   0.7786 B(  7-C , 12-H ) :  -0.3299
B(  7-C , 14-H ) :  -0.2674 B(  8-C , 12-H ) :   0.1784 B(  8-C , 13-H ) :   0.7697
B(  8-C , 14-H ) :   1.2208 B(  8-C , 15-O ) :   0.1180 B(  9-N , 10-H ) :   0.9933
B(  9-N , 11-H ) :   1.0292 B( 13-H , 14-H ) :   0.1267 B( 13-H , 15-O ) :  -0.3819
B( 17-C , 26-C ) :   0.8956 B( 17-C , 27-H ) :   0.9054 B( 17-C , 28-H ) :   0.7728
B( 20-C , 21-C ) :   0.5331 B( 20-C , 26-C ) :   0.1073 B( 20-C , 32-C ) :   0.8595
B( 20-C , 35-H ) :   0.8653 B( 20-C , 36-H ) :   0.8487 B( 21-C , 22-H ) :   0.8543
B( 21-C , 23-H ) :   1.0049 B( 21-C , 29-C ) :   0.1220 B( 22-H , 23-H ) :   0.1957
B( 23-H , 39-F ) :  -0.1293 B( 26-C , 29-C ) :   0.3071 B( 26-C , 30-H ) :   0.9471
B( 26-C , 31-H ) :   0.9211 B( 26-C , 34-H ) :  -0.1230 B( 29-C , 32-C ) :   0.8491
B( 29-C , 33-H ) :   0.8968 B( 29-C , 34-H ) :   1.0045 B( 32-C , 37-H ) :   0.9312
B( 32-C , 38-H ) :   0.9299

FINAL SINGLE POINT ENERGY     -1188.457882657416

DIPOLE MOMENT
-------------
                                X             Y             Z
Electronic contribution:    -18.44050       3.12081     -16.13680
Nuclear contribution   :     18.77618      -4.78855      17.68602
                        -----------------------------------------
Total Dipole Moment    :      0.33568      -1.66773       1.54923
                        -----------------------------------------
Magnitude (a.u.)       :      2.30090
Magnitude (Debye)      :      5.84841

Rotational constants in cm-1:     0.014368     0.012319     0.007509
Rotational constants in MHz :   430.738566   369.302170   225.105103

                             ****ORCA TERMINATED NORMALLY****
TOTAL RUN TIME: 0 days 0 hours 13 minutes 40 seconds 770 msec
