                         Program Version 5.0.0 -  RELEASE  -
|  1> !LC-PBE RIJCOSX def2-TZVPD def2/J TightSCF xyzfile
|  2>
|  3> *xyzfile 0 1 D9.xyz
|  4>
|  5> %MaxCore 64000
|  6>
|  7> %pal nprocs 4
|  8> end
|  9>
| 10> %scf
| 11>   MaxIter 150
| 12> end
| 13>
| 14>
| 15>                          ****END OF INPUT****

CARTESIAN COORDINATES (ANGSTROEM)
---------------------------------
  C      4.490588    1.155899   -2.469290
  N      4.305394    1.222762   -3.908317
  C      4.906458   -3.102816   -5.954844
  C      3.511771   -2.806215   -6.492283
  H      2.736044   -3.373445   -5.973736
  H      3.444904   -3.040831   -7.555281
  S      3.004618   -1.096206   -6.389259
  C      4.631918    2.246365   -4.670958
  N      4.541686    2.143990   -5.987139
  C      5.084086    3.393584   -4.118545
  H      4.920675    3.570501   -3.135870
  H      5.254652    4.197390   -4.706956
  H      3.824530    0.449113   -4.350926
  H      4.343373    1.249318   -6.416646
  H      4.676712    2.956624   -6.574113
  O      4.128856   -0.329647   -6.953717
  O      1.781285   -1.000779   -7.136399
  C      5.942129    0.939500   -2.036893
  H      3.864305    0.328532   -2.136611
  H      4.076233    2.049994   -1.989010
  C      6.462677   -3.117775   -3.944671
  C      5.024977   -3.025679   -4.437625
  H      4.423321   -3.818693   -3.977648
  H      4.579350   -2.087131   -4.108727
  H      5.201533   -4.100207   -6.296905
  H      5.605922   -2.397822   -6.413368
  C      6.559957   -0.356290   -2.559086
  H      5.967976    0.952567   -0.942444
  H      6.547184    1.788331   -2.368849
  C      6.006283   -1.615917   -1.899301
  H      7.642360   -0.318000   -2.402059
  H      6.414855   -0.403433   -3.642587
  C      6.608718   -2.917014   -2.435655
  H      6.190324   -1.561115   -0.820948
  H      4.919250   -1.651245   -2.016586
  H      7.066975   -2.374258   -4.475514
  H      6.887808   -4.089747   -4.215332
  H      6.135197   -3.755573   -1.915159
  H      7.671142   -2.955503   -2.172291
  F      2.851546   -0.783683   -4.956789

 Total Charge           Charge          ....    0
 Multiplicity           Mult            ....    1
 Number of Electrons    NEL             ....  144
 Basis Dimension        Dim             ....  854

ORBITAL ENERGIES
----------------

  NO   OCC          E(Eh)            E(eV)
   0   2.0000     -88.560531     -2409.8546
   1   2.0000     -24.633235      -670.3044
   2   2.0000     -19.019795      -517.5549
   3   2.0000     -19.016169      -517.4563
   4   2.0000     -14.204030      -386.5113
   5   2.0000     -14.179145      -385.8341
   6   2.0000     -10.198041      -277.5028
   7   2.0000     -10.154976      -276.3309
   8   2.0000     -10.150630      -276.2127
   9   2.0000     -10.140169      -275.9280
  10   2.0000     -10.137135      -275.8455
  11   2.0000     -10.124679      -275.5065
  12   2.0000     -10.118177      -275.3296
  13   2.0000     -10.112184      -275.1665
  14   2.0000     -10.104068      -274.9457
  15   2.0000     -10.099526      -274.8221
  16   2.0000     -10.006355      -272.2868
  17   2.0000      -8.172313      -222.3799
  18   2.0000      -6.193049      -168.5214
  19   2.0000      -6.185535      -168.3170
  20   2.0000      -6.184921      -168.3002
  21   2.0000      -1.557379       -42.3784
  22   2.0000      -1.311131       -35.6777
  23   2.0000      -1.210606       -32.9423
  24   2.0000      -1.133453       -30.8428
  25   2.0000      -1.042991       -28.3812
  26   2.0000      -1.039291       -28.2805
  27   2.0000      -1.001731       -27.2585
  28   2.0000      -0.964207       -26.2374
  29   2.0000      -0.927617       -25.2418
  30   2.0000      -0.901931       -24.5428
  31   2.0000      -0.869919       -23.6717
  32   2.0000      -0.857517       -23.3342
  33   2.0000      -0.829466       -22.5709
  34   2.0000      -0.804284       -21.8857
  35   2.0000      -0.773895       -21.0588
  36   2.0000      -0.764205       -20.7951
  37   2.0000      -0.756815       -20.5940
  38   2.0000      -0.735607       -20.0169
  39   2.0000      -0.721601       -19.6358
  40   2.0000      -0.689746       -18.7690
  41   2.0000      -0.676456       -18.4073
  42   2.0000      -0.666113       -18.1259
  43   2.0000      -0.657130       -17.8814
  44   2.0000      -0.641516       -17.4565
  45   2.0000      -0.641229       -17.4487
  46   2.0000      -0.622303       -16.9337
  47   2.0000      -0.618641       -16.8341
  48   2.0000      -0.599006       -16.2998
  49   2.0000      -0.594521       -16.1777
  50   2.0000      -0.582348       -15.8465
  51   2.0000      -0.578614       -15.7449
  52   2.0000      -0.563492       -15.3334
  53   2.0000      -0.551359       -15.0032
  54   2.0000      -0.537845       -14.6355
  55   2.0000      -0.528602       -14.3840
  56   2.0000      -0.522218       -14.2103
  57   2.0000      -0.515127       -14.0173
  58   2.0000      -0.505600       -13.7581
  59   2.0000      -0.501424       -13.6444
  60   2.0000      -0.494562       -13.4577
  61   2.0000      -0.488893       -13.3034
  62   2.0000      -0.484060       -13.1719
  63   2.0000      -0.478560       -13.0223
  64   2.0000      -0.473653       -12.8888
  65   2.0000      -0.468875       -12.7587
  66   2.0000      -0.464506       -12.6398
  67   2.0000      -0.445532       -12.1236
  68   2.0000      -0.442398       -12.0383
  69   2.0000      -0.433884       -11.8066
  70   2.0000      -0.361173        -9.8280
  71   2.0000      -0.265168        -7.2156
  72   0.0000       0.036357         0.9893
  73   0.0000       0.048608         1.3227
  74   0.0000       0.059253         1.6123
  75   0.0000       0.065710         1.7880
  76   0.0000       0.075076         2.0429

MULLIKEN ATOMIC CHARGES
-----------------------
   0 C :   -1.131037
   1 N :   -0.174313
   2 C :   -0.767738
   3 C :   -0.939593
   4 H :    0.447140
   5 H :    0.450387
   6 S :    1.210189
   7 C :    1.054676
   8 N :   -0.320998
   9 C :   -1.528879
  10 H :    0.335923
  11 H :    0.359063
  12 H :    0.131744
  13 H :    0.222626
  14 H :    0.162727
  15 O :   -0.762640
  16 O :   -0.565492
  17 C :   -0.791902
  18 H :    0.407811
  19 H :    0.474909
  20 C :   -0.976140
  21 C :   -0.318540
  22 H :    0.366014
  23 H :    0.224319
  24 H :    0.410960
  25 H :    0.437654
  26 C :   -0.474236
  27 H :    0.438313
  28 H :    0.498196
  29 C :   -0.832195
  30 H :    0.329773
  31 H :    0.329106
  32 C :   -0.882992
  33 H :    0.379065
  34 H :    0.367345
  35 H :    0.477293
  36 H :    0.402858
  37 H :    0.370829
  38 H :    0.390306
  39 F :   -0.212532
Sum of atomic charges:   -0.0000000

LOEWDIN ATOMIC CHARGES
----------------------
   0 C :   -0.203462
   1 N :    0.023579
   2 C :   -0.239194
   3 C :   -0.232164
   4 H :    0.124450
   5 H :    0.127675
   6 S :    0.623126
   7 C :   -0.552837
   8 N :    0.119489
   9 C :   -0.018927
  10 H :    0.006196
  11 H :    0.011964
  12 H :    0.082444
  13 H :    0.027934
  14 H :    0.123017
  15 O :   -0.276742
  16 O :   -0.237577
  17 C :   -0.204402
  18 H :    0.119798
  19 H :    0.124901
  20 C :   -0.231298
  21 C :   -0.236741
  22 H :    0.139798
  23 H :    0.092426
  24 H :    0.134260
  25 H :    0.126663
  26 C :   -0.228154
  27 H :    0.122133
  28 H :    0.114453
  29 C :   -0.239871
  30 H :    0.127569
  31 H :    0.112928
  32 C :   -0.228308
  33 H :    0.124836
  34 H :    0.105923
  35 H :    0.121952
  36 H :    0.125298
  37 H :    0.119006
  38 H :    0.121493
  39 F :   -0.073634

  Mayer bond orders larger than 0.100000
B(  0-C ,  1-N ) :   0.8827 B(  0-C ,  7-C ) :  -0.1792 B(  0-C ,  9-C ) :   0.1992
B(  0-C , 12-H ) :  -0.2209 B(  0-C , 17-C ) :   0.7758 B(  0-C , 18-H ) :   0.7680
B(  0-C , 19-H ) :   0.8007 B(  1-N ,  7-C ) :   0.9295 B(  1-N , 12-H ) :   1.0247
B(  1-N , 17-C ) :   0.1068 B(  2-C ,  3-C ) :   0.7899 B(  2-C , 20-C ) :   0.2486
B(  2-C , 21-C ) :   0.4396 B(  2-C , 24-H ) :   0.8728 B(  2-C , 25-H ) :   0.8434
B(  3-C ,  4-H ) :   0.8274 B(  3-C ,  5-H ) :   0.8735 B(  3-C ,  6-S ) :   0.9653
B(  3-C , 16-O ) :   0.1279 B(  6-S , 15-O ) :   1.4325 B(  6-S , 16-O ) :   1.5115
B(  6-S , 39-F ) :   1.0571 B(  7-C ,  8-N ) :   0.7528 B(  7-C ,  9-C ) :   0.8107
B(  7-C , 11-H ) :  -0.1257 B(  7-C , 12-H ) :  -0.3217 B(  7-C , 13-H ) :  -0.1209
B(  7-C , 14-H ) :  -0.1053 B(  8-N , 13-H ) :   0.9275 B(  8-N , 14-H ) :   1.0596
B(  8-N , 15-O ) :  -0.1032 B(  9-C , 10-H ) :   1.0238 B(  9-C , 11-H ) :   1.0260
B( 17-C , 26-C ) :   0.8761 B( 17-C , 27-H ) :   0.8779 B( 17-C , 28-H ) :   0.8063
B( 20-C , 21-C ) :   0.5424 B( 20-C , 26-C ) :   0.1068 B( 20-C , 32-C ) :   0.8581
B( 20-C , 35-H ) :   0.8546 B( 20-C , 36-H ) :   0.8527 B( 21-C , 22-H ) :   0.8551
B( 21-C , 23-H ) :   0.9948 B( 21-C , 29-C ) :   0.1245 B( 22-H , 23-H ) :   0.1994
B( 23-H , 39-F ) :  -0.1266 B( 26-C , 29-C ) :   0.3154 B( 26-C , 30-H ) :   0.9484
B( 26-C , 31-H ) :   0.9545 B( 26-C , 34-H ) :  -0.1234 B( 29-C , 32-C ) :   0.8323
B( 29-C , 33-H ) :   0.8976 B( 29-C , 34-H ) :   1.0144 B( 32-C , 37-H ) :   0.9434
B( 32-C , 38-H ) :   0.9321

FINAL SINGLE POINT ENERGY     -1188.474766842621

DIPOLE MOMENT
-------------
                                X             Y             Z
Electronic contribution:    -18.95788       1.79612     -17.79676
Nuclear contribution   :     18.85717      -4.60195      17.96505
                        -----------------------------------------
Total Dipole Moment    :     -0.10071      -2.80582       0.16829
                        -----------------------------------------
Magnitude (a.u.)       :      2.81267
Magnitude (Debye)      :      7.14924

Rotational constants in cm-1:     0.014436     0.012382     0.007563
Rotational constants in MHz :   432.785702   371.214592   226.743759

                             ****ORCA TERMINATED NORMALLY****
TOTAL RUN TIME: 0 days 0 hours 12 minutes 53 seconds 663 msec
