                         Program Version 5.0.0 -  RELEASE  -
|  1> !PBE0 D3BJ RIJCOSX def2-TZVPD def2/J TightSCF
|  2> *xyz -1 1
|  3> C         -1.91658       -2.48508       -3.64367
|  4> C         -1.36353       -1.98134       -2.29361
|  5> O         -0.35039       -2.74969       -1.79601
|  6> H         -2.22622       -1.90839       -1.60204
|  7> H         -1.05135       -0.91567       -2.44333
|  8> H         -1.11522       -2.57167       -4.34739
|  9> H         -2.64227       -1.79099       -4.01314
| 10> H         -2.37564       -3.44180       -3.50640
| 11> *
| 12>
| 13> %MaxCore 64000
| 14> %pal nprocs 4
| 15> end
| 16>
| 17> %scf
| 18>   MaxIter 150
| 19> end
| 20>
| 21>
| 22>                          ****END OF INPUT****

CARTESIAN COORDINATES (ANGSTROEM)
---------------------------------
  C     -1.916580   -2.485080   -3.643670
  C     -1.363530   -1.981340   -2.293610
  O     -0.350390   -2.749690   -1.796010
  H     -2.226220   -1.908390   -1.602040
  H     -1.051350   -0.915670   -2.443330
  H     -1.115220   -2.571670   -4.347390
  H     -2.642270   -1.790990   -4.013140
  H     -2.375640   -3.441800   -3.506400

 Total Charge           Charge          ....   -1
 Multiplicity           Mult            ....    1
 Number of Electrons    NEL             ....   26
 Basis Dimension        Dim             ....  159

ORBITAL ENERGIES
----------------

  NO   OCC          E(Eh)            E(eV)
   0   2.0000     -18.875083      -513.6171
   1   2.0000     -10.034615      -273.0558
   2   2.0000     -10.010219      -272.3919
   3   2.0000      -0.709297       -19.3010
   4   2.0000      -0.547960       -14.9107
   5   2.0000      -0.390244       -10.6191
   6   2.0000      -0.262198        -7.1348
   7   2.0000      -0.240832        -6.5534
   8   2.0000      -0.185295        -5.0421
   9   2.0000      -0.167668        -4.5625
  10   2.0000      -0.128574        -3.4987
  11   2.0000       0.016787         0.4568
  12   2.0000       0.019652         0.5348
  13   0.0000       0.160325         4.3627
  14   0.0000       0.183348         4.9891
  15   0.0000       0.209964         5.7134
  16   0.0000       0.212553         5.7839
  17   0.0000       0.234070         6.3694

MULLIKEN ATOMIC CHARGES
-----------------------
   0 C :   -0.704991
   1 C :   -0.135567
   2 O :   -0.894394
   3 H :    0.084424
   4 H :    0.087482
   5 H :    0.152372
   6 H :    0.253220
   7 H :    0.157455
Sum of atomic charges:   -1.0000000

LOEWDIN ATOMIC CHARGES
----------------------
   0 C :   -0.172758
   1 C :   -0.626801
   2 O :   -0.411001
   3 H :    0.053138
   4 H :    0.056642
   5 H :    0.038298
   6 H :    0.025582
   7 H :    0.036899

  Mayer bond orders larger than 0.100000
B(  0-C ,  1-C ) :   0.8921 B(  0-C ,  2-O ) :   0.3669 B(  0-C ,  5-H ) :   1.0224
B(  0-C ,  6-H ) :   0.9841 B(  0-C ,  7-H ) :   1.0133 B(  1-C ,  2-O ) :   0.9796
B(  1-C ,  3-H ) :   1.0756 B(  1-C ,  4-H ) :   1.0713

Dispersion correction           -0.003046694
FINAL SINGLE POINT ENERGY      -154.306446920660

DIPOLE MOMENT
-------------
                                X             Y             Z
Electronic contribution:      2.09885      -0.89300       1.88785
Nuclear contribution   :     -3.14382       1.30299      -2.83231
                        -----------------------------------------
Total Dipole Moment    :     -1.04497       0.40999      -0.94446
                        -----------------------------------------
Magnitude (a.u.)       :      1.46699
Magnitude (Debye)      :      3.72878

Rotational constants in cm-1:     1.288206     0.322942     0.285188
Rotational constants in MHz : 38619.437223  9681.562038  8549.712012

                             ****ORCA TERMINATED NORMALLY****
TOTAL RUN TIME: 0 days 0 hours 0 minutes 16 seconds 614 msec
