                         Program Version 5.0.0 -  RELEASE  -
|  1> !PBE0 D3BJ RIJCOSX def2-TZVPD def2/J TightSCF
|  2> *xyz 1 1
|  3> C          1.64703       -2.34528       -5.02041
|  4> C          2.20996       -2.81239       -3.66571
|  5> C          2.48901       -1.66851       -2.73754
|  6> N          3.59631       -0.94761       -2.95225
|  7> N          1.66394       -1.41369       -1.77781
|  8> H          0.81164       -1.96318       -1.70275
|  9> H          1.84550       -0.63508       -1.15875
| 10> H          4.20535       -1.17600       -3.73383
| 11> H          3.81723       -0.12585       -2.40604
| 12> H          3.14311       -3.36280       -3.81152
| 13> H          1.48768       -3.45893       -3.16521
| 14> H          1.46566       -3.19589       -5.64368
| 15> H          2.35406       -1.69850       -5.49654
| 16> H          0.73014       -1.81680       -4.86253
| 17> *
| 18>
| 19> %MaxCore 64000
| 20> %pal nprocs 4
| 21> end
| 22>
| 23> %scf
| 24>   MaxIter 150
| 25> end
| 26>
| 27>
| 28>                          ****END OF INPUT****

CARTESIAN COORDINATES (ANGSTROEM)
---------------------------------
  C      1.647030   -2.345280   -5.020410
  C      2.209960   -2.812390   -3.665710
  C      2.489010   -1.668510   -2.737540
  N      3.596310   -0.947610   -2.952250
  N      1.663940   -1.413690   -1.777810
  H      0.811640   -1.963180   -1.702750
  H      1.845500   -0.635080   -1.158750
  H      4.205350   -1.176000   -3.733830
  H      3.817230   -0.125850   -2.406040
  H      3.143110   -3.362800   -3.811520
  H      1.487680   -3.458930   -3.165210
  H      1.465660   -3.195890   -5.643680
  H      2.354060   -1.698500   -5.496540
  H      0.730140   -1.816800   -4.862530

 Total Charge           Charge          ....    1
 Multiplicity           Mult            ....    1
 Number of Electrons    NEL             ....   40
 Basis Dimension        Dim             ....  266

ORBITAL ENERGIES
----------------

  NO   OCC          E(Eh)            E(eV)
   0   2.0000     -14.634313      -398.2199
   1   2.0000     -14.625265      -397.9737
   2   2.0000     -10.543128      -286.8931
   3   2.0000     -10.420739      -283.5627
   4   2.0000     -10.374992      -282.3179
   5   2.0000      -1.232879       -33.5484
   6   2.0000      -1.135389       -30.8955
   7   2.0000      -0.991778       -26.9877
   8   2.0000      -0.881231       -23.9795
   9   2.0000      -0.835416       -22.7328
  10   2.0000      -0.791701       -21.5433
  11   2.0000      -0.767789       -20.8926
  12   2.0000      -0.718895       -19.5621
  13   2.0000      -0.662752       -18.0344
  14   2.0000      -0.636436       -17.3183
  15   2.0000      -0.626866       -17.0579
  16   2.0000      -0.557350       -15.1663
  17   2.0000      -0.547948       -14.9104
  18   2.0000      -0.542567       -14.7640
  19   2.0000      -0.505090       -13.7442
  20   0.0000      -0.204234        -5.5575
  21   0.0000      -0.161355        -4.3907
  22   0.0000      -0.118778        -3.2321
  23   0.0000      -0.115003        -3.1294
  24   0.0000      -0.089396        -2.4326

MULLIKEN ATOMIC CHARGES
-----------------------
   0 C :   -0.783021
   1 C :   -0.207470
   2 C :    0.542014
   3 N :   -0.259989
   4 N :   -0.196263
   5 H :    0.225148
   6 H :    0.188387
   7 H :    0.221084
   8 H :    0.179052
   9 H :    0.198320
  10 H :    0.176482
  11 H :    0.211079
  12 H :    0.255118
  13 H :    0.250059
Sum of atomic charges:    1.0000000

LOEWDIN ATOMIC CHARGES
----------------------
   0 C :   -0.053369
   1 C :   -0.147641
   2 C :   -0.367038
   3 N :    0.222655
   4 N :    0.239064
   5 H :    0.158487
   6 H :    0.152852
   7 H :    0.148270
   8 H :    0.141938
   9 H :    0.135122
  10 H :    0.125108
  11 H :    0.086190
  12 H :    0.075601
  13 H :    0.082761

  Mayer bond orders larger than 0.100000
B(  0-C ,  1-C ) :   0.7824 B(  0-C ,  2-C ) :   0.1729 B(  0-C , 11-H ) :   1.0040
B(  0-C , 12-H ) :   0.9272 B(  0-C , 13-H ) :   0.9756 B(  1-C ,  2-C ) :   0.8642
B(  1-C ,  3-N ) :   0.1077 B(  1-C ,  9-H ) :   0.9402 B(  1-C , 10-H ) :   0.9754
B(  2-C ,  3-N ) :   1.2123 B(  2-C ,  4-N ) :   1.3266 B(  3-N ,  7-H ) :   0.9429
B(  3-N ,  8-H ) :   1.0208 B(  4-N ,  5-H ) :   0.9359 B(  4-N ,  6-H ) :   1.0075

Dispersion correction           -0.008510887
FINAL SINGLE POINT ENERGY      -228.854057472185

DIPOLE MOMENT
-------------
                                X             Y             Z
Electronic contribution:      1.18911       1.64558       3.60893
Nuclear contribution   :     -0.98617      -1.03178      -2.77619
                        -----------------------------------------
Total Dipole Moment    :      0.20295       0.61380       0.83274
                        -----------------------------------------
Magnitude (a.u.)       :      1.05423
Magnitude (Debye)      :      2.67964

Rotational constants in cm-1:     0.257311     0.127495     0.099037
Rotational constants in MHz :  7713.982239  3822.189706  2969.039713

                             ****ORCA TERMINATED NORMALLY****
TOTAL RUN TIME: 0 days 0 hours 0 minutes 39 seconds 432 msec
