                         Program Version 5.0.0 -  RELEASE  -
|  1> !PBE0 D3BJ RIJCOSX def2-TZVPD def2/J TightSCF xyzfile
|  2>
|  3> *xyzfile 0 1 B.xyz
|  4>
|  5> %MaxCore 64000
|  6>
|  7> %pal nprocs 4
|  8> end
|  9>
| 10> %scf
| 11>   MaxIter 150
| 12> end
| 13>
| 14>
| 15>                          ****END OF INPUT****

CARTESIAN COORDINATES (ANGSTROEM)
---------------------------------
  C      1.647032   -2.345276   -5.020411
  C      0.217628   -1.814022   -4.924389
  C      2.209964   -2.812388   -3.665708
  C     -0.811356   -2.908780   -4.607625
  C     -1.916579   -2.485081   -3.643665
  H     -2.554525   -1.712428   -4.091993
  C     -1.363531   -1.981337   -2.293608
  H     -2.553448   -3.355667   -3.458815
  O     -0.350395   -2.749689   -1.796006
  H      2.308385   -1.588704   -5.457128
  H      1.674286   -3.203478   -5.697392
  C      2.489007   -1.668510   -2.737538
  N      3.596314   -0.947608   -2.952247
  N      1.663936   -1.413685   -1.777806
  H      0.811642   -1.963178   -1.702755
  H      1.845503   -0.635078   -1.158749
  H      4.205351   -1.176003   -3.733825
  H      3.817230   -0.125845   -2.406041
  H     -1.244829   -3.280884   -5.541040
  H     -0.306331   -3.757746   -4.142734
  H     -0.036244   -1.318555   -5.865303
  H      0.175004   -1.035382   -4.158095
  H      3.143106   -3.362803   -3.811524
  H      1.487683   -3.458935   -3.165211
  H     -2.226220   -1.908386   -1.602039
  H     -1.051353   -0.915671   -2.443331

 Total Charge           Charge          ....    0
 Multiplicity           Mult            ....    1
 Number of Electrons    NEL             ....   80
 Basis Dimension        Dim             ....  517

ORBITAL ENERGIES
----------------

  NO   OCC          E(Eh)            E(eV)
   0   2.0000     -19.063124      -518.7340
   1   2.0000     -14.460356      -393.4863
   2   2.0000     -14.415289      -392.2599
   3   2.0000     -10.360135      -281.9136
   4   2.0000     -10.247187      -278.8401
   5   2.0000     -10.235214      -278.5143
   6   2.0000     -10.205077      -277.6943
   7   2.0000     -10.194258      -277.3999
   8   2.0000     -10.185577      -277.1637
   9   2.0000     -10.168170      -276.6900
  10   2.0000      -1.049524       -28.5590
  11   2.0000      -0.955579       -26.0026
  12   2.0000      -0.906111       -24.6565
  13   2.0000      -0.840125       -22.8610
  14   2.0000      -0.777448       -21.1554
  15   2.0000      -0.726288       -19.7633
  16   2.0000      -0.670673       -18.2499
  17   2.0000      -0.650447       -17.6996
  18   2.0000      -0.613353       -16.6902
  19   2.0000      -0.606462       -16.5027
  20   2.0000      -0.579684       -15.7740
  21   2.0000      -0.539098       -14.6696
  22   2.0000      -0.516947       -14.0668
  23   2.0000      -0.499068       -13.5803
  24   2.0000      -0.478354       -13.0167
  25   2.0000      -0.453733       -12.3467
  26   2.0000      -0.442881       -12.0514
  27   2.0000      -0.416029       -11.3207
  28   2.0000      -0.403003       -10.9663
  29   2.0000      -0.399769       -10.8783
  30   2.0000      -0.368540       -10.0285
  31   2.0000      -0.360300        -9.8043
  32   2.0000      -0.349946        -9.5225
  33   2.0000      -0.331703        -9.0261
  34   2.0000      -0.322840        -8.7849
  35   2.0000      -0.309933        -8.4337
  36   2.0000      -0.301747        -8.2110
  37   2.0000      -0.295395        -8.0381
  38   2.0000      -0.181040        -4.9264
  39   2.0000      -0.173724        -4.7273
  40   0.0000      -0.030868        -0.8400
  41   0.0000      -0.023832        -0.6485
  42   0.0000       0.010497         0.2856
  43   0.0000       0.028779         0.7831
  44   0.0000       0.033161         0.9024

MULLIKEN ATOMIC CHARGES
-----------------------
   0 C :   -0.109967
   1 C :   -0.250314
   2 C :   -0.299392
   3 C :   -0.170179
   4 C :   -0.320019
   5 H :    0.115489
   6 C :   -0.246189
   7 H :    0.166145
   8 O :   -0.900223
   9 H :    0.135402
  10 H :    0.120426
  11 C :    0.224920
  12 N :   -0.286553
  13 N :   -0.089744
  14 H :    0.157362
  15 H :    0.136116
  16 H :    0.201312
  17 H :    0.153524
  18 H :    0.124110
  19 H :    0.133449
  20 H :    0.163413
  21 H :    0.139096
  22 H :    0.173176
  23 H :    0.260763
  24 H :    0.099184
  25 H :    0.168696
Sum of atomic charges:    0.0000000

LOEWDIN ATOMIC CHARGES
----------------------
   0 C :   -0.191649
   1 C :   -0.203529
   2 C :   -0.111907
   3 C :   -0.218355
   4 C :   -0.204542
   5 H :    0.104215
   6 C :   -0.436202
   7 H :    0.103284
   8 O :   -0.289275
   9 H :    0.103509
  10 H :    0.116545
  11 C :   -0.371226
  12 N :    0.174070
  13 N :    0.236833
  14 H :   -0.028293
  15 H :    0.138971
  16 H :    0.125743
  17 H :    0.121834
  18 H :    0.106617
  19 H :    0.097892
  20 H :    0.110615
  21 H :    0.095756
  22 H :    0.124025
  23 H :    0.112836
  24 H :    0.094840
  25 H :    0.087393

  Mayer bond orders larger than 0.100000
B(  0-C ,  1-C ) :   1.0890 B(  0-C ,  2-C ) :   0.8886 B(  0-C ,  3-C ) :   0.2764
B(  0-C ,  9-H ) :   0.8373 B(  0-C , 10-H ) :   0.9625 B(  0-C , 11-C ) :   0.2535
B(  1-C ,  3-C ) :   0.8174 B(  1-C ,  4-C ) :   0.2538 B(  1-C ,  6-C ) :   0.1124
B(  1-C , 20-H ) :   0.9344 B(  1-C , 21-H ) :   0.9927 B(  2-C , 11-C ) :   0.9263
B(  2-C , 12-N ) :   0.1363 B(  2-C , 22-H ) :   0.9205 B(  2-C , 23-H ) :   0.9661
B(  3-C ,  4-C ) :   1.0525 B(  3-C , 18-H ) :   0.9774 B(  3-C , 19-H ) :   0.9342
B(  4-C ,  5-H ) :   0.9971 B(  4-C ,  6-C ) :   0.9910 B(  4-C ,  7-H ) :   0.9025
B(  4-C ,  8-O ) :   0.1179 B(  6-C ,  8-O ) :   0.9534 B(  6-C , 24-H ) :   1.0235
B(  6-C , 25-H ) :   1.0046 B(  8-O , 13-N ) :  -0.1234 B(  8-O , 14-H ) :   0.4091
B( 11-C , 12-N ) :   1.1051 B( 11-C , 13-N ) :   1.4673 B( 12-N , 16-H ) :   0.9772
B( 12-N , 17-H ) :   1.0124 B( 13-N , 14-H ) :   0.6803 B( 13-N , 15-H ) :   0.9847

Dispersion correction           -0.023149150
FINAL SINGLE POINT ENERGY      -460.725172518255

DIPOLE MOMENT
-------------
                                X             Y             Z
Electronic contribution:      5.58498       0.86522       4.31602
Nuclear contribution   :     -2.25948       0.71378      -5.15247
                        -----------------------------------------
Total Dipole Moment    :      3.32549       1.57900      -0.83645
                        -----------------------------------------
Magnitude (a.u.)       :      3.77516
Magnitude (Debye)      :      9.59569

Rotational constants in cm-1:     0.063973     0.031829     0.024059
Rotational constants in MHz :  1917.874550   954.201145   721.285252

                             ****ORCA TERMINATED NORMALLY****
TOTAL RUN TIME: 0 days 0 hours 3 minutes 2 seconds 111 msec
