                         Program Version 5.0.0 -  RELEASE  -
|  1> !PBE0 D3BJ RIJCOSX def2-TZVPD def2/J TightSCF
|  2> *xyz 0 1
|  3> C         -1.91658       -2.48508       -3.64367
|  4> C         -1.36353       -1.98134       -2.29361
|  5> F         -0.35039       -2.74969       -1.79601
|  6> H         -2.22622       -1.90839       -1.60204
|  7> H         -1.05135       -0.91567       -2.44333
|  8> H         -1.11522       -2.57167       -4.34739
|  9> H         -2.64227       -1.79099       -4.01314
| 10> H         -2.37564       -3.44180       -3.50640
| 11> *
| 12>
| 13> %MaxCore 64000
| 14> %pal nprocs 4
| 15> end
| 16>
| 17> %scf
| 18>   MaxIter 150
| 19> end
| 20>
| 21>
| 22>                          ****END OF INPUT****

CARTESIAN COORDINATES (ANGSTROEM)
---------------------------------
  C     -1.916580   -2.485080   -3.643670
  C     -1.363530   -1.981340   -2.293610
  F     -0.350390   -2.749690   -1.796010
  H     -2.226220   -1.908390   -1.602040
  H     -1.051350   -0.915670   -2.443330
  H     -1.115220   -2.571670   -4.347390
  H     -2.642270   -1.790990   -4.013140
  H     -2.375640   -3.441800   -3.506400

 Total Charge           Charge          ....    0
 Multiplicity           Mult            ....    1
 Number of Electrons    NEL             ....   26
 Basis Dimension        Dim             ....  159

ORBITAL ENERGIES
----------------

  NO   OCC          E(Eh)            E(eV)
   0   2.0000     -24.760789      -673.7753
   1   2.0000     -10.300102      -280.2800
   2   2.0000     -10.214941      -277.9627
   3   2.0000      -1.233947       -33.5774
   4   2.0000      -0.786633       -21.4054
   5   2.0000      -0.652018       -17.7423
   6   2.0000      -0.526154       -14.3174
   7   2.0000      -0.510478       -13.8908
   8   2.0000      -0.475694       -12.9443
   9   2.0000      -0.420613       -11.4455
  10   2.0000      -0.414665       -11.2836
  11   2.0000      -0.349144        -9.5007
  12   2.0000      -0.341835        -9.3018
  13   0.0000       0.016632         0.4526
  14   0.0000       0.043382         1.1805
  15   0.0000       0.060813         1.6548
  16   0.0000       0.064471         1.7543
  17   0.0000       0.091227         2.4824

MULLIKEN ATOMIC CHARGES
-----------------------
   0 C :   -0.616644
   1 C :    0.023070
   2 F :   -0.257210
   3 H :    0.131206
   4 H :    0.133248
   5 H :    0.178937
   6 H :    0.228385
   7 H :    0.179008
Sum of atomic charges:    0.0000000

LOEWDIN ATOMIC CHARGES
----------------------
   0 C :   -0.084378
   1 C :   -0.293862
   2 F :   -0.041939
   3 H :    0.110229
   4 H :    0.115456
   5 H :    0.064429
   6 H :    0.066659
   7 H :    0.063406

  Mayer bond orders larger than 0.100000
B(  0-C ,  1-C ) :   0.9310 B(  0-C ,  5-H ) :   0.9789 B(  0-C ,  6-H ) :   0.9527
B(  0-C ,  7-H ) :   0.9761 B(  1-C ,  2-F ) :   0.8609 B(  1-C ,  3-H ) :   0.9931
B(  1-C ,  4-H ) :   0.9899

Dispersion correction           -0.002808038
FINAL SINGLE POINT ENERGY      -178.938286268836

DIPOLE MOMENT
-------------
                                X             Y             Z
Electronic contribution:      3.62196      -1.35992       3.42873
Nuclear contribution   :     -4.15401       1.70894      -3.75000
                        -----------------------------------------
Total Dipole Moment    :     -0.53205       0.34902      -0.32127
                        -----------------------------------------
Magnitude (a.u.)       :      0.71282
Magnitude (Debye)      :      1.81184

Rotational constants in cm-1:     1.266842     0.300492     0.266603
Rotational constants in MHz : 37978.968232  9008.526876  7992.551454

                             ****ORCA TERMINATED NORMALLY****
TOTAL RUN TIME: 0 days 0 hours 0 minutes 12 seconds 366 msec
