                         Program Version 5.0.0 -  RELEASE  -
|  1> !PBE0 D3BJ RIJCOSX def2-TZVPD def2/J TightSCF
|  2> *xyz 0 1
|  3> C          1.64703       -2.34528       -5.02041
|  4> C          2.20996       -2.81239       -3.66571
|  5> C          2.48901       -1.66851       -2.73754
|  6> C          3.59631       -0.94761       -2.95225
|  7> N          1.66394       -1.41369       -1.77781
|  8> H          0.81164       -1.96318       -1.70275
|  9> H          1.84550       -0.63508       -1.15875
| 10> H          4.20535       -1.17600       -3.73383
| 11> H          3.81723       -0.12585       -2.40604
| 12> H          3.14311       -3.36280       -3.81152
| 13> H          1.48768       -3.45893       -3.16521
| 14> H          1.46566       -3.19589       -5.64368
| 15> H          2.35406       -1.69850       -5.49654
| 16> H          0.73014       -1.81680       -4.86253
| 17> *
| 18>
| 19> %MaxCore 64000
| 20> %pal nprocs 4
| 21> end
| 22>
| 23> %scf
| 24>   MaxIter 150
| 25> end
| 26>
| 27>
| 28>                          ****END OF INPUT****

CARTESIAN COORDINATES (ANGSTROEM)
---------------------------------
  C      1.647030   -2.345280   -5.020410
  C      2.209960   -2.812390   -3.665710
  C      2.489010   -1.668510   -2.737540
  C      3.596310   -0.947610   -2.952250
  N      1.663940   -1.413690   -1.777810
  H      0.811640   -1.963180   -1.702750
  H      1.845500   -0.635080   -1.158750
  H      4.205350   -1.176000   -3.733830
  H      3.817230   -0.125850   -2.406040
  H      3.143110   -3.362800   -3.811520
  H      1.487680   -3.458930   -3.165210
  H      1.465660   -3.195890   -5.643680
  H      2.354060   -1.698500   -5.496540
  H      0.730140   -1.816800   -4.862530

 Total Charge           Charge          ....    0
 Multiplicity           Mult            ....    1
 Number of Electrons    NEL             ....   40
 Basis Dimension        Dim             ....  266

ORBITAL ENERGIES
----------------

  NO   OCC          E(Eh)            E(eV)
   0   2.0000     -14.389417      -391.5559
   1   2.0000     -10.241036      -278.6728
   2   2.0000     -10.221279      -278.1351
   3   2.0000     -10.203170      -277.6424
   4   2.0000     -10.148864      -276.1646
   5   2.0000      -0.967154       -26.3176
   6   2.0000      -0.802337       -21.8327
   7   2.0000      -0.730449       -19.8765
   8   2.0000      -0.658229       -17.9113
   9   2.0000      -0.586089       -15.9483
  10   2.0000      -0.548314       -14.9204
  11   2.0000      -0.494956       -13.4684
  12   2.0000      -0.455185       -12.3862
  13   2.0000      -0.424984       -11.5644
  14   2.0000      -0.407162       -11.0794
  15   2.0000      -0.393930       -10.7194
  16   2.0000      -0.362884        -9.8746
  17   2.0000      -0.347787        -9.4638
  18   2.0000      -0.345452        -9.4002
  19   2.0000      -0.194541        -5.2937
  20   0.0000       0.008089         0.2201
  21   0.0000       0.033862         0.9214
  22   0.0000       0.041693         1.1345
  23   0.0000       0.046099         1.2544
  24   0.0000       0.059073         1.6075

MULLIKEN ATOMIC CHARGES
-----------------------
   0 C :   -0.760786
   1 C :   -0.206044
   2 C :    0.817674
   3 C :   -1.208785
   4 N :   -0.303578
   5 H :    0.163387
   6 H :    0.146161
   7 H :    0.218883
   8 H :    0.189302
   9 H :    0.163480
  10 H :    0.149206
  11 H :    0.185919
  12 H :    0.240930
  13 H :    0.204249
Sum of atomic charges:    0.0000000

LOEWDIN ATOMIC CHARGES
----------------------
   0 C :   -0.091088
   1 C :   -0.200341
   2 C :   -0.512775
   3 C :    0.014768
   4 N :    0.107400
   5 H :    0.114581
   6 H :    0.119449
   7 H :    0.021377
   8 H :    0.012786
   9 H :    0.114996
  10 H :    0.102696
  11 H :    0.061382
  12 H :    0.066086
  13 H :    0.068683

  Mayer bond orders larger than 0.100000
B(  0-C ,  1-C ) :   0.7486 B(  0-C ,  2-C ) :   0.1600 B(  0-C , 11-H ) :   0.9897
B(  0-C , 12-H ) :   0.9721 B(  0-C , 13-H ) :   0.9879 B(  1-C ,  2-C ) :   0.7817
B(  1-C ,  3-C ) :   0.1000 B(  1-C ,  9-H ) :   0.9408 B(  1-C , 10-H ) :   1.0448
B(  2-C ,  3-C ) :   1.1661 B(  2-C ,  4-N ) :   1.1232 B(  3-C ,  4-N ) :   0.1099
B(  3-C ,  7-H ) :   0.9855 B(  3-C ,  8-H ) :   1.0849 B(  4-N ,  5-H ) :   1.0056
B(  4-N ,  6-H ) :   1.0189

Dispersion correction           -0.008866053
FINAL SINGLE POINT ENERGY      -212.389353092696

DIPOLE MOMENT
-------------
                                X             Y             Z
Electronic contribution:     -0.04772       0.65499       3.01881
Nuclear contribution   :     -0.69146      -0.83112      -2.71336
                        -----------------------------------------
Total Dipole Moment    :     -0.73919      -0.17612       0.30545
                        -----------------------------------------
Magnitude (a.u.)       :      0.81897
Magnitude (Debye)      :      2.08166

Rotational constants in cm-1:     0.270661     0.129240     0.102040
Rotational constants in MHz :  8114.202941  3874.518141  3059.074383

                             ****ORCA TERMINATED NORMALLY****
TOTAL RUN TIME: 0 days 0 hours 0 minutes 38 seconds 423 msec
