                         Program Version 5.0.0 -  RELEASE  -
|  1> !PBE0 D3BJ RIJCOSX def2-TZVPD def2/J TightSCF
|  2> *xyz 0 1
|  3> C          1.64703       -2.34528       -5.02041
|  4> C          2.20996       -2.81239       -3.66571
|  5> C          2.48901       -1.66851       -2.73754
|  6> N          3.59631       -0.94761       -2.95225
|  7> C          1.66394       -1.41369       -1.77781
|  8> H          0.81164       -1.96318       -1.70275
|  9> H          1.84550       -0.63508       -1.15875
| 10> H          4.20535       -1.17600       -3.73383
| 11> H          3.81723       -0.12585       -2.40604
| 12> H          3.14311       -3.36280       -3.81152
| 13> H          1.48768       -3.45893       -3.16521
| 14> H          1.46566       -3.19589       -5.64368
| 15> H          2.35406       -1.69850       -5.49654
| 16> H          0.73014       -1.81680       -4.86253
| 17> *
| 18>
| 19> %MaxCore 64000
| 20> %pal nprocs 4
| 21> end
| 22>
| 23> %scf
| 24>   MaxIter 150
| 25> end
| 26>
| 27>
| 28>                          ****END OF INPUT****

CARTESIAN COORDINATES (ANGSTROEM)
---------------------------------
  C      1.647030   -2.345280   -5.020410
  C      2.209960   -2.812390   -3.665710
  C      2.489010   -1.668510   -2.737540
  N      3.596310   -0.947610   -2.952250
  C      1.663940   -1.413690   -1.777810
  H      0.811640   -1.963180   -1.702750
  H      1.845500   -0.635080   -1.158750
  H      4.205350   -1.176000   -3.733830
  H      3.817230   -0.125850   -2.406040
  H      3.143110   -3.362800   -3.811520
  H      1.487680   -3.458930   -3.165210
  H      1.465660   -3.195890   -5.643680
  H      2.354060   -1.698500   -5.496540
  H      0.730140   -1.816800   -4.862530

 Total Charge           Charge          ....    0
 Multiplicity           Mult            ....    1
 Number of Electrons    NEL             ....   40
 Basis Dimension        Dim             ....  266

ORBITAL ENERGIES
----------------

  NO   OCC          E(Eh)            E(eV)
   0   2.0000     -14.382725      -391.3739
   1   2.0000     -10.237943      -278.5886
   2   2.0000     -10.219625      -278.0901
   3   2.0000     -10.204239      -277.6715
   4   2.0000     -10.151279      -276.2304
   5   2.0000      -0.947970       -25.7956
   6   2.0000      -0.802738       -21.8436
   7   2.0000      -0.744672       -20.2635
   8   2.0000      -0.653682       -17.7876
   9   2.0000      -0.581950       -15.8357
  10   2.0000      -0.535954       -14.5841
  11   2.0000      -0.494958       -13.4685
  12   2.0000      -0.447858       -12.1868
  13   2.0000      -0.436165       -11.8687
  14   2.0000      -0.410524       -11.1709
  15   2.0000      -0.396121       -10.7790
  16   2.0000      -0.362823        -9.8729
  17   2.0000      -0.344689        -9.3795
  18   2.0000      -0.338749        -9.2178
  19   2.0000      -0.205971        -5.6048
  20   0.0000       0.008996         0.2448
  21   0.0000       0.035400         0.9633
  22   0.0000       0.043079         1.1722
  23   0.0000       0.046226         1.2579
  24   0.0000       0.061209         1.6656

MULLIKEN ATOMIC CHARGES
-----------------------
   0 C :   -0.735886
   1 C :   -0.220599
   2 C :    0.726548
   3 N :   -0.344823
   4 C :   -1.082562
   5 H :    0.208859
   6 H :    0.214018
   7 H :    0.152465
   8 H :    0.142677
   9 H :    0.182226
  10 H :    0.126942
  11 H :    0.183548
  12 H :    0.216425
  13 H :    0.230162
Sum of atomic charges:   -0.0000000

LOEWDIN ATOMIC CHARGES
----------------------
   0 C :   -0.092239
   1 C :   -0.201236
   2 C :   -0.504178
   3 N :    0.098665
   4 C :    0.015717
   5 H :    0.031277
   6 H :    0.026958
   7 H :    0.104862
   8 H :    0.107210
   9 H :    0.110951
  10 H :    0.108477
  11 H :    0.061658
  12 H :    0.060610
  13 H :    0.071267

  Mayer bond orders larger than 0.100000
B(  0-C ,  1-C ) :   0.7786 B(  0-C ,  2-C ) :   0.1288 B(  0-C , 11-H ) :   0.9981
B(  0-C , 12-H ) :   0.9579 B(  0-C , 13-H ) :   1.0040 B(  1-C ,  2-C ) :   0.8382
B(  1-C ,  3-N ) :   0.1328 B(  1-C ,  9-H ) :   0.9793 B(  1-C , 10-H ) :   0.9722
B(  2-C ,  3-N ) :   0.9876 B(  2-C ,  4-C ) :   1.3726 B(  3-N ,  7-H ) :   1.0185
B(  3-N ,  8-H ) :   1.0241 B(  4-C ,  5-H ) :   0.9841 B(  4-C ,  6-H ) :   1.0437

Dispersion correction           -0.008857027
FINAL SINGLE POINT ENERGY      -212.393269732593

DIPOLE MOMENT
-------------
                                X             Y             Z
Electronic contribution:      1.63981       1.06973       1.99803
Nuclear contribution   :     -1.13902      -0.93906      -2.44135
                        -----------------------------------------
Total Dipole Moment    :      0.50079       0.13066      -0.44332
                        -----------------------------------------
Magnitude (a.u.)       :      0.68147
Magnitude (Debye)      :      1.73216

Rotational constants in cm-1:     0.267243     0.130607     0.102304
Rotational constants in MHz :  8011.748167  3915.504600  3066.999841

                             ****ORCA TERMINATED NORMALLY****
TOTAL RUN TIME: 0 days 0 hours 0 minutes 38 seconds 471 msec
