                         Program Version 5.0.0 -  RELEASE  -
|  1> !PBE0 D3BJ RIJCOSX def2-TZVPD def2/J TightSCF xyzfile
|  2>
|  3> *xyzfile 0 1 D1.xyz
|  4>
|  5> %MaxCore 64000
|  6>
|  7> %pal nprocs 4
|  8> end
|  9>
| 10> %scf
| 11>   MaxIter 150
| 12> end
| 13>
| 14>
| 15>                          ****END OF INPUT****

CARTESIAN COORDINATES (ANGSTROEM)
---------------------------------
  C      1.647032   -2.345276   -5.020411
  C      0.217628   -1.814022   -4.924389
  C      2.209964   -2.812388   -3.665708
  C     -0.811356   -2.908780   -4.607625
  C     -1.916579   -2.485081   -3.643665
  H     -2.554525   -1.712428   -4.091993
  C     -1.363531   -1.981337   -2.293608
  H     -2.553448   -3.355667   -3.458815
  F     -0.350395   -2.749689   -1.796006
  H      2.308385   -1.588704   -5.457128
  H      1.674286   -3.203478   -5.697392
  C      2.489007   -1.668510   -2.737538
  C      3.596314   -0.947608   -2.952247
  N      1.663936   -1.413685   -1.777806
  H      0.811642   -1.963178   -1.702755
  H      1.845503   -0.635078   -1.158749
  H      4.205351   -1.176003   -3.733825
  H      3.817230   -0.125845   -2.406041
  H     -1.244829   -3.280884   -5.541040
  H     -0.306331   -3.757746   -4.142734
  H     -0.036244   -1.318555   -5.865303
  H      0.175004   -1.035382   -4.158095
  H      3.143106   -3.362803   -3.811524
  H      1.487683   -3.458935   -3.165211
  H     -2.226220   -1.908386   -1.602039
  H     -1.051353   -0.915671   -2.443331

 Total Charge           Charge          ....    0
 Multiplicity           Mult            ....    1
 Number of Electrons    NEL             ....   80
 Basis Dimension        Dim             ....  517

ORBITAL ENERGIES
----------------

  NO   OCC          E(Eh)            E(eV)
   0   2.0000     -24.807584      -675.0487
   1   2.0000     -14.353636      -390.5823
   2   2.0000     -10.319557      -280.8094
   3   2.0000     -10.239463      -278.6299
   4   2.0000     -10.225289      -278.2443
   5   2.0000     -10.223526      -278.1963
   6   2.0000     -10.215123      -277.9676
   7   2.0000     -10.212149      -277.8867
   8   2.0000     -10.208091      -277.7763
   9   2.0000     -10.133637      -275.7503
  10   2.0000      -1.290195       -35.1080
  11   2.0000      -0.945138       -25.7185
  12   2.0000      -0.845734       -23.0136
  13   2.0000      -0.803771       -21.8717
  14   2.0000      -0.758890       -20.6505
  15   2.0000      -0.714167       -19.4335
  16   2.0000      -0.687552       -18.7092
  17   2.0000      -0.632198       -17.2030
  18   2.0000      -0.607208       -16.5230
  19   2.0000      -0.594176       -16.1684
  20   2.0000      -0.552153       -15.0248
  21   2.0000      -0.548299       -14.9200
  22   2.0000      -0.527723       -14.3601
  23   2.0000      -0.501768       -13.6538
  24   2.0000      -0.481386       -13.0992
  25   2.0000      -0.473289       -12.8788
  26   2.0000      -0.454268       -12.3613
  27   2.0000      -0.433102       -11.7853
  28   2.0000      -0.431953       -11.7541
  29   2.0000      -0.401695       -10.9307
  30   2.0000      -0.382831       -10.4174
  31   2.0000      -0.375341       -10.2135
  32   2.0000      -0.373013       -10.1502
  33   2.0000      -0.367473        -9.9994
  34   2.0000      -0.351076        -9.5533
  35   2.0000      -0.343063        -9.3352
  36   2.0000      -0.331897        -9.0314
  37   2.0000      -0.321966        -8.7611
  38   2.0000      -0.319226        -8.6866
  39   2.0000      -0.177568        -4.8319
  40   0.0000       0.006885         0.1874
  41   0.0000       0.019051         0.5184
  42   0.0000       0.025843         0.7032
  43   0.0000       0.030320         0.8250
  44   0.0000       0.045547         1.2394

MULLIKEN ATOMIC CHARGES
-----------------------
   0 C :   -0.182369
   1 C :   -0.325181
   2 C :   -0.251745
   3 C :   -0.260223
   4 C :   -0.260376
   5 H :    0.124366
   6 C :   -0.179160
   7 H :    0.167046
   8 F :   -0.348971
   9 H :    0.230114
  10 H :    0.091591
  11 C :    0.541932
  12 C :   -1.300151
  13 N :   -0.272551
  14 H :    0.279859
  15 H :    0.095181
  16 H :    0.239526
  17 H :    0.208076
  18 H :    0.121721
  19 H :    0.171437
  20 H :    0.158429
  21 H :    0.183400
  22 H :    0.182059
  23 H :    0.190390
  24 H :    0.139034
  25 H :    0.256564
Sum of atomic charges:    0.0000000

LOEWDIN ATOMIC CHARGES
----------------------
   0 C :   -0.192378
   1 C :   -0.201928
   2 C :   -0.145297
   3 C :   -0.211213
   4 C :   -0.177450
   5 H :    0.121530
   6 C :   -0.212668
   7 H :    0.109233
   8 F :   -0.025376
   9 H :    0.112116
  10 H :    0.110616
  11 C :   -0.491678
  12 C :    0.010735
  13 N :    0.128044
  14 H :    0.019366
  15 H :    0.123638
  16 H :    0.017437
  17 H :    0.010188
  18 H :    0.114909
  19 H :    0.101438
  20 H :    0.111879
  21 H :    0.098677
  22 H :    0.121051
  23 H :    0.097816
  24 H :    0.124582
  25 H :    0.124733

  Mayer bond orders larger than 0.100000
B(  0-C ,  1-C ) :   1.0911 B(  0-C ,  2-C ) :   0.8833 B(  0-C ,  3-C ) :   0.2476
B(  0-C ,  9-H ) :   0.8549 B(  0-C , 10-H ) :   0.9670 B(  0-C , 11-C ) :   0.2701
B(  1-C ,  3-C ) :   0.8090 B(  1-C ,  4-C ) :   0.2032 B(  1-C ,  6-C ) :   0.1306
B(  1-C , 11-C ) :   0.1109 B(  1-C , 20-H ) :   0.9258 B(  1-C , 21-H ) :   1.0060
B(  2-C , 11-C ) :   0.7987 B(  2-C , 22-H ) :   0.9332 B(  2-C , 23-H ) :   0.9668
B(  3-C ,  4-C ) :   1.0118 B(  3-C , 18-H ) :   0.9778 B(  3-C , 19-H ) :   0.9845
B(  4-C ,  5-H ) :   0.9633 B(  4-C ,  6-C ) :   1.0225 B(  4-C ,  7-H ) :   0.9289
B(  4-C ,  8-F ) :   0.1377 B(  6-C ,  8-F ) :   0.7438 B(  6-C , 24-H ) :   0.9695
B(  6-C , 25-H ) :   0.9642 B(  8-F , 14-H ) :   0.1408 B( 11-C , 12-C ) :   1.1465
B( 11-C , 13-N ) :   1.1626 B( 12-C , 13-N ) :   0.1153 B( 12-C , 16-H ) :   0.9975
B( 12-C , 17-H ) :   1.0366 B( 13-N , 14-H ) :   0.7945 B( 13-N , 15-H ) :   1.0177

Dispersion correction           -0.022934275
FINAL SINGLE POINT ENERGY      -468.678911979547

DIPOLE MOMENT
-------------
                                X             Y             Z
Electronic contribution:     -1.29567      -1.75023       6.92406
Nuclear contribution   :     -0.37390       1.73388      -6.94752
                        -----------------------------------------
Total Dipole Moment    :     -1.66957      -0.01635      -0.02346
                        -----------------------------------------
Magnitude (a.u.)       :      1.66982
Magnitude (Debye)      :      4.24434

Rotational constants in cm-1:     0.062220     0.032742     0.024374
Rotational constants in MHz :  1865.297979   981.573941   730.711364

                             ****ORCA TERMINATED NORMALLY****
TOTAL RUN TIME: 0 days 0 hours 3 minutes 12 seconds 772 msec
