                         Program Version 5.0.0 -  RELEASE  -
|  1> !PBE0 D3BJ RIJCOSX def2-TZVPD def2/J TightSCF xyzfile
|  2>
|  3> *xyzfile 0 1 D2.xyz
|  4>
|  5> %MaxCore 64000
|  6>
|  7> %pal nprocs 4
|  8> end
|  9>
| 10> %scf
| 11>   MaxIter 150
| 12> end
| 13>
| 14>
| 15>                          ****END OF INPUT****

CARTESIAN COORDINATES (ANGSTROEM)
---------------------------------
  C      1.647032   -2.345276   -5.020411
  C      0.217628   -1.814022   -4.924389
  C      2.209964   -2.812388   -3.665708
  C     -0.811356   -2.908780   -4.607625
  C     -1.916579   -2.485081   -3.643665
  H     -2.554525   -1.712428   -4.091993
  C     -1.363531   -1.981337   -2.293608
  H     -2.553448   -3.355667   -3.458815
  F     -0.350395   -2.749689   -1.796006
  H      2.308385   -1.588704   -5.457128
  H      1.674286   -3.203478   -5.697392
  C      2.489007   -1.668510   -2.737538
  N      3.596314   -0.947608   -2.952247
  C      1.663936   -1.413685   -1.777806
  H      0.811642   -1.963178   -1.702755
  H      1.845503   -0.635078   -1.158749
  H      4.205351   -1.176003   -3.733825
  H      3.817230   -0.125845   -2.406041
  H     -1.244829   -3.280884   -5.541040
  H     -0.306331   -3.757746   -4.142734
  H     -0.036244   -1.318555   -5.865303
  H      0.175004   -1.035382   -4.158095
  H      3.143106   -3.362803   -3.811524
  H      1.487683   -3.458935   -3.165211
  H     -2.226220   -1.908386   -1.602039
  H     -1.051353   -0.915671   -2.443331

 Total Charge           Charge          ....    0
 Multiplicity           Mult            ....    1
 Number of Electrons    NEL             ....   80
 Basis Dimension        Dim             ....  517

ORBITAL ENERGIES
----------------

  NO   OCC          E(Eh)            E(eV)
   0   2.0000     -24.774293      -674.1428
   1   2.0000     -14.369481      -391.0135
   2   2.0000     -10.300449      -280.2895
   3   2.0000     -10.227349      -278.3003
   4   2.0000     -10.221390      -278.1382
   5   2.0000     -10.215704      -277.9834
   6   2.0000     -10.213005      -277.9100
   7   2.0000     -10.208818      -277.7961
   8   2.0000     -10.207581      -277.7624
   9   2.0000     -10.119014      -275.3524
  10   2.0000      -1.259136       -34.2628
  11   2.0000      -0.934574       -25.4310
  12   2.0000      -0.836378       -22.7590
  13   2.0000      -0.800852       -21.7923
  14   2.0000      -0.750570       -20.4241
  15   2.0000      -0.722872       -19.6704
  16   2.0000      -0.677809       -18.4441
  17   2.0000      -0.623069       -16.9546
  18   2.0000      -0.587908       -15.9978
  19   2.0000      -0.584315       -15.9000
  20   2.0000      -0.543255       -14.7827
  21   2.0000      -0.528985       -14.3944
  22   2.0000      -0.513673       -13.9778
  23   2.0000      -0.502817       -13.6823
  24   2.0000      -0.477241       -12.9864
  25   2.0000      -0.460094       -12.5198
  26   2.0000      -0.455935       -12.4066
  27   2.0000      -0.443984       -12.0814
  28   2.0000      -0.415441       -11.3047
  29   2.0000      -0.395348       -10.7580
  30   2.0000      -0.381003       -10.3676
  31   2.0000      -0.369971       -10.0674
  32   2.0000      -0.362299        -9.8586
  33   2.0000      -0.349221        -9.5028
  34   2.0000      -0.338631        -9.2146
  35   2.0000      -0.335039        -9.1169
  36   2.0000      -0.322545        -8.7769
  37   2.0000      -0.317983        -8.6528
  38   2.0000      -0.305590        -8.3155
  39   2.0000      -0.190186        -5.1752
  40   0.0000       0.013361         0.3636
  41   0.0000       0.019678         0.5355
  42   0.0000       0.026030         0.7083
  43   0.0000       0.035935         0.9779
  44   0.0000       0.048019         1.3067

MULLIKEN ATOMIC CHARGES
-----------------------
   0 C :   -0.078533
   1 C :   -0.272007
   2 C :   -0.309785
   3 C :   -0.291516
   4 C :   -0.250513
   5 H :    0.122397
   6 C :   -0.201614
   7 H :    0.162435
   8 F :   -0.261335
   9 H :    0.182989
  10 H :    0.077971
  11 C :    0.616112
  12 N :   -0.350173
  13 C :   -1.615768
  14 H :    0.679567
  15 H :    0.127674
  16 H :    0.156412
  17 H :    0.130951
  18 H :    0.129272
  19 H :    0.167311
  20 H :    0.151036
  21 H :    0.193018
  22 H :    0.204742
  23 H :    0.129553
  24 H :    0.131137
  25 H :    0.268664
Sum of atomic charges:   -0.0000000

LOEWDIN ATOMIC CHARGES
----------------------
   0 C :   -0.195939
   1 C :   -0.202810
   2 C :   -0.144428
   3 C :   -0.210408
   4 C :   -0.178721
   5 H :    0.119365
   6 C :   -0.217073
   7 H :    0.107842
   8 F :   -0.046160
   9 H :    0.106997
  10 H :    0.109835
  11 C :   -0.475087
  12 N :    0.096684
  13 C :    0.032373
  14 H :   -0.036746
  15 H :    0.037960
  16 H :    0.101334
  17 H :    0.104833
  18 H :    0.113101
  19 H :    0.102092
  20 H :    0.110523
  21 H :    0.097949
  22 H :    0.116785
  23 H :    0.102874
  24 H :    0.122759
  25 H :    0.124065

  Mayer bond orders larger than 0.100000
B(  0-C ,  1-C ) :   1.1229 B(  0-C ,  2-C ) :   0.9385 B(  0-C ,  3-C ) :   0.2601
B(  0-C ,  9-H ) :   0.8227 B(  0-C , 10-H ) :   0.9707 B(  0-C , 11-C ) :   0.1598
B(  1-C ,  3-C ) :   0.8107 B(  1-C ,  4-C ) :   0.1983 B(  1-C ,  6-C ) :   0.1365
B(  1-C , 11-C ) :   0.1197 B(  1-C , 20-H ) :   0.9370 B(  1-C , 21-H ) :   1.0047
B(  2-C , 11-C ) :   0.8796 B(  2-C , 12-N ) :   0.1914 B(  2-C , 22-H ) :   0.9507
B(  2-C , 23-H ) :   0.9696 B(  3-C ,  4-C ) :   1.0241 B(  3-C , 18-H ) :   0.9728
B(  3-C , 19-H ) :   0.9859 B(  4-C ,  5-H ) :   0.9620 B(  4-C ,  6-C ) :   1.0344
B(  4-C ,  7-H ) :   0.9254 B(  4-C ,  8-F ) :   0.1293 B(  6-C ,  8-F ) :   0.7858
B(  6-C , 13-C ) :   0.2194 B(  6-C , 24-H ) :   0.9531 B(  6-C , 25-H ) :   0.9411
B(  8-F , 13-C ) :   0.1105 B(  8-F , 14-H ) :  -0.2047 B( 11-C , 12-N ) :   0.9356
B( 11-C , 13-C ) :   1.2030 B( 11-C , 15-H ) :  -0.1371 B( 12-N , 16-H ) :   1.0300
B( 12-N , 17-H ) :   1.0270 B( 13-C , 14-H ) :   0.5592 B( 13-C , 15-H ) :   1.1653

Dispersion correction           -0.023056784
FINAL SINGLE POINT ENERGY      -468.662259116547

DIPOLE MOMENT
-------------
                                X             Y             Z
Electronic contribution:      0.41994      -1.32450       6.07884
Nuclear contribution   :     -0.73748       1.64619      -6.72655
                        -----------------------------------------
Total Dipole Moment    :     -0.31755       0.32169      -0.64771
                        -----------------------------------------
Magnitude (a.u.)       :      0.78984
Magnitude (Debye)      :      2.00762

Rotational constants in cm-1:     0.063169     0.031711     0.023958
Rotational constants in MHz :  1893.751676   950.657187   718.229932

                             ****ORCA TERMINATED NORMALLY****
TOTAL RUN TIME: 0 days 0 hours 3 minutes 1 seconds 543 msec
