                         Program Version 5.0.0 -  RELEASE  -
|  1> !LC-PBE RIJCOSX def2-SVPD def2/J TightSCF
|  2> *xyz -1 1
|  3> C          0.70466        1.44313       -4.50363
|  4> C          1.72854        1.42432       -5.63944
|  5> H          2.64672        1.95379       -5.38105
|  6> H          1.29992        1.93061       -6.50361
|  7> S          2.25263       -0.18811       -6.27184
|  8> O          3.56261       -0.44446       -5.63155
|  9> O          2.34494       -0.03374       -7.69650
| 10> O          1.26606       -1.15918       -5.80536
| 11> H         -0.17385        0.91270       -4.80656
| 12> H          0.44778        2.45562       -4.27173
| 13> H          1.12367        0.97423       -3.63791
| 14> *
| 15>
| 16> %MaxCore 64000
| 17>
| 18> %pal nprocs 4
| 19> end
| 20>
| 21> %scf
| 22>   MaxIter 150
| 23> end
| 24>
| 25>
| 26>                          ****END OF INPUT****

CARTESIAN COORDINATES (ANGSTROEM)
---------------------------------
  C      0.704660    1.443130   -4.503630
  C      1.728540    1.424320   -5.639440
  H      2.646720    1.953790   -5.381050
  H      1.299920    1.930610   -6.503610
  S      2.252630   -0.188110   -6.271840
  O      3.562610   -0.444460   -5.631550
  O      2.344940   -0.033740   -7.696500
  O      1.266060   -1.159180   -5.805360
  H     -0.173850    0.912700   -4.806560
  H      0.447780    2.455620   -4.271730
  H      1.123670    0.974230   -3.637910

 Total Charge           Charge          ....   -1
 Multiplicity           Mult            ....    1
 Number of Electrons    NEL             ....   58
 Basis Dimension        Dim             ....  176

ORBITAL ENERGIES
----------------

  NO   OCC          E(Eh)            E(eV)
   0   2.0000     -88.314749     -2403.1665
   1   2.0000     -18.777446      -510.9603
   2   2.0000     -18.769888      -510.7546
   3   2.0000     -18.760979      -510.5122
   4   2.0000      -9.995256      -271.9847
   5   2.0000      -9.989273      -271.8219
   6   2.0000      -7.936605      -215.9660
   7   2.0000      -5.958919      -162.1504
   8   2.0000      -5.958825      -162.1479
   9   2.0000      -5.958568      -162.1409
  10   2.0000      -1.109311       -30.1859
  11   2.0000      -0.954251       -25.9665
  12   2.0000      -0.930287       -25.3144
  13   2.0000      -0.809825       -22.0364
  14   2.0000      -0.674248       -18.3472
  15   2.0000      -0.535505       -14.5718
  16   2.0000      -0.470293       -12.7973
  17   2.0000      -0.468922       -12.7600
  18   2.0000      -0.426633       -11.6093
  19   2.0000      -0.410256       -11.1636
  20   2.0000      -0.406097       -11.0505
  21   2.0000      -0.367335        -9.9957
  22   2.0000      -0.355527        -9.6744
  23   2.0000      -0.293959        -7.9990
  24   2.0000      -0.292040        -7.9468
  25   2.0000      -0.252301        -6.8655
  26   2.0000      -0.241240        -6.5645
  27   2.0000      -0.233952        -6.3662
  28   2.0000      -0.197976        -5.3872
  29   0.0000       0.202990         5.5236
  30   0.0000       0.226266         6.1570
  31   0.0000       0.228848         6.2273
  32   0.0000       0.235302         6.4029
  33   0.0000       0.256195         6.9714

MULLIKEN ATOMIC CHARGES
-----------------------
   0 C :    0.500549
   1 C :   -0.501710
   2 H :    0.044162
   3 H :    0.089312
   4 S :    1.203167
   5 O :   -0.799299
   6 O :   -0.742592
   7 O :   -0.784205
   8 H :    0.021389
   9 H :   -0.037538
  10 H :    0.006766
Sum of atomic charges:   -1.0000000

LOEWDIN ATOMIC CHARGES
----------------------
   0 C :    0.069115
   1 C :   -0.146164
   2 H :    0.013823
   3 H :    0.005831
   4 S :    0.847468
   5 O :   -0.602093
   6 O :   -0.573071
   7 O :   -0.580471
   8 H :   -0.010536
   9 H :   -0.020859
  10 H :   -0.003044

  Mayer bond orders larger than 0.100000
B(  0-C ,  1-C ) :   1.2901 B(  0-C ,  8-H ) :   0.8471 B(  0-C ,  9-H ) :   0.8213
B(  0-C , 10-H ) :   0.8580 B(  1-C ,  2-H ) :   0.9934 B(  1-C ,  3-H ) :   0.9782
B(  1-C ,  4-S ) :   0.9175 B(  1-C ,  8-H ) :   0.1704 B(  1-C ,  9-H ) :   0.1624
B(  1-C , 10-H ) :   0.1542 B(  4-S ,  5-O ) :   1.3135 B(  4-S ,  6-O ) :   1.3814
B(  4-S ,  7-O ) :   1.3336

FINAL SINGLE POINT ENERGY      -701.574139816065

DIPOLE MOMENT
-------------
                                X             Y             Z
Electronic contribution:      3.58368      -5.47656      -4.24150
Nuclear contribution   :     -4.50297       7.24642       5.01775
                        -----------------------------------------
Total Dipole Moment    :     -0.91930       1.76985       0.77625
                        -----------------------------------------
Magnitude (a.u.)       :      2.14011
Magnitude (Debye)      :      5.43972

Rotational constants in cm-1:     0.162459     0.081286     0.079601
Rotational constants in MHz :  4870.394399  2436.893583  2386.374948

                             ****ORCA TERMINATED NORMALLY****
TOTAL RUN TIME: 0 days 0 hours 0 minutes 24 seconds 319 msec
