                         Program Version 5.0.0 -  RELEASE  -
|  1> !LC-PBE RIJCOSX def2-SVPD def2/J TightSCF
|  2> *xyz 1 1
|  3> C          2.91632       -1.24259       -1.54313
|  4> C          3.46659       -1.59097       -2.88908
|  5> N          4.65227       -1.14316       -3.25969
|  6> N          2.75226       -2.29204       -3.72803
|  7> H          1.77836       -2.48960       -3.51274
|  8> H          2.94861       -2.20854       -4.71681
|  9> H          5.14672       -0.51251       -2.63385
| 10> H          4.78303       -1.00720       -4.25350
| 11> C          2.80408        0.29070       -1.35924
| 12> H          1.94047       -1.71653       -1.44116
| 13> H          3.55857       -1.66343       -0.76637
| 14> H          2.17393        0.69633       -2.12297
| 15> H          3.77707        0.73043       -1.42880
| 16> H          2.38369        0.50492       -0.39889
| 17> *
| 18>
| 19> %MaxCore 64000
| 20>
| 21> %pal nprocs 4
| 22> end
| 23>
| 24> %scf
| 25>   MaxIter 150
| 26> end
| 27>
| 28>
| 29>                          ****END OF INPUT****

CARTESIAN COORDINATES (ANGSTROEM)
---------------------------------
  C      2.916320   -1.242590   -1.543130
  C      3.466590   -1.590970   -2.889080
  N      4.652270   -1.143160   -3.259690
  N      2.752260   -2.292040   -3.728030
  H      1.778360   -2.489600   -3.512740
  H      2.948610   -2.208540   -4.716810
  H      5.146720   -0.512510   -2.633850
  H      4.783030   -1.007200   -4.253500
  C      2.804080    0.290700   -1.359240
  H      1.940470   -1.716530   -1.441160
  H      3.558570   -1.663430   -0.766370
  H      2.173930    0.696330   -2.122970
  H      3.777070    0.730430   -1.428800
  H      2.383690    0.504920   -0.398890

 Total Charge           Charge          ....    1
 Multiplicity           Mult            ....    1
 Number of Electrons    NEL             ....   40
 Basis Dimension        Dim             ....  172

ORBITAL ENERGIES
----------------

  NO   OCC          E(Eh)            E(eV)
   0   2.0000     -14.480470      -394.0336
   1   2.0000     -14.474748      -393.8779
   2   2.0000     -10.463578      -284.7284
   3   2.0000     -10.332022      -281.1486
   4   2.0000     -10.290242      -280.0117
   5   2.0000      -1.384259       -37.6676
   6   2.0000      -1.274326       -34.6762
   7   2.0000      -1.144918       -31.1548
   8   2.0000      -1.024014       -27.8648
   9   2.0000      -0.975082       -26.5333
  10   2.0000      -0.921705       -25.0809
  11   2.0000      -0.903584       -24.5878
  12   2.0000      -0.841084       -22.8871
  13   2.0000      -0.817692       -22.2505
  14   2.0000      -0.769520       -20.9397
  15   2.0000      -0.745140       -20.2763
  16   2.0000      -0.688823       -18.7438
  17   2.0000      -0.676760       -18.4156
  18   2.0000      -0.661836       -18.0095
  19   2.0000      -0.631250       -17.1772
  20   0.0000      -0.130609        -3.5540
  21   0.0000      -0.079471        -2.1625
  22   0.0000      -0.037259        -1.0139
  23   0.0000      -0.036311        -0.9881
  24   0.0000      -0.009574        -0.2605

MULLIKEN ATOMIC CHARGES
-----------------------
   0 C :   -0.393436
   1 C :    0.425514
   2 N :    0.027129
   3 N :   -0.018146
   4 H :    0.105614
   5 H :   -0.024213
   6 H :    0.095195
   7 H :   -0.004312
   8 C :    0.447337
   9 H :    0.126900
  10 H :    0.140796
  11 H :    0.008064
  12 H :   -0.030314
  13 H :    0.093872
Sum of atomic charges:    1.0000000

LOEWDIN ATOMIC CHARGES
----------------------
   0 C :   -0.003130
   1 C :   -0.052646
   2 N :    0.271901
   3 N :    0.269058
   4 H :    0.065093
   5 H :    0.058507
   6 H :    0.055030
   7 H :    0.056147
   8 C :    0.143971
   9 H :    0.046407
  10 H :    0.066115
  11 H :    0.011316
  12 H :   -0.006959
  13 H :    0.019190

  Mayer bond orders larger than 0.100000
B(  0-C ,  1-C ) :   1.2405 B(  0-C ,  8-C ) :   1.2542 B(  0-C ,  9-H ) :   0.9051
B(  0-C , 10-H ) :   0.8494 B(  0-C , 11-H ) :   0.1209 B(  0-C , 12-H ) :   0.1390
B(  0-C , 13-H ) :   0.1145 B(  1-C ,  2-N ) :   1.1357 B(  1-C ,  3-N ) :   1.1385
B(  1-C ,  9-H ) :   0.1143 B(  1-C , 10-H ) :   0.1293 B(  2-N ,  3-N ) :   0.1522
B(  2-N ,  6-H ) :   0.9748 B(  2-N ,  7-H ) :   1.1696 B(  3-N ,  4-H ) :   1.0195
B(  3-N ,  5-H ) :   1.1729 B(  4-H ,  5-H ) :  -0.1243 B(  6-H ,  7-H ) :  -0.1209
B(  8-C , 11-H ) :   0.8726 B(  8-C , 12-H ) :   0.8489 B(  8-C , 13-H ) :   0.8777

FINAL SINGLE POINT ENERGY      -228.128471737677

DIPOLE MOMENT
-------------
                                X             Y             Z
Electronic contribution:      1.30243      -2.85136      -2.78363
Nuclear contribution   :     -1.30215       2.77761       1.84194
                        -----------------------------------------
Total Dipole Moment    :      0.00028      -0.07375      -0.94169
                        -----------------------------------------
Magnitude (a.u.)       :      0.94458
Magnitude (Debye)      :      2.40093

Rotational constants in cm-1:     0.267442     0.127541     0.099068
Rotational constants in MHz :  8017.703171  3823.592522  2969.992494

                             ****ORCA TERMINATED NORMALLY****
TOTAL RUN TIME: 0 days 0 hours 0 minutes 26 seconds 250 msec
