                         Program Version 5.0.0 -  RELEASE  -
|  1> !LC-PBE RIJCOSX def2-SVPD def2/J TightSCF xyzfile
|  2>
|  3> *xyzfile 0 1 B.xyz
|  4>
|  5> %MaxCore 64000
|  6>
|  7> %pal nprocs 4
|  8> end
|  9>
| 10> %scf
| 11>   MaxIter 150
| 12> end
| 13>
| 14>
| 15>                          ****END OF INPUT****

CARTESIAN COORDINATES (ANGSTROEM)
---------------------------------
  C      2.916324   -1.242589   -1.543125
  C      0.704661    1.443129   -4.503630
  C      1.728539    1.424320   -5.639443
  H      2.646718    1.953794   -5.381054
  H      1.299916    1.930613   -6.503614
  S      2.252625   -0.188115   -6.271840
  C      3.466585   -1.590971   -2.889082
  N      4.652275   -1.143164   -3.259692
  N      2.752264   -2.292043   -3.728029
  H      1.778364   -2.489604   -3.512738
  H      2.948612   -2.208544   -4.716813
  H      5.146723   -0.512508   -2.633852
  H      4.783030   -1.007203   -4.253498
  O      3.562607   -0.444464   -5.631552
  O      2.344944   -0.033742   -7.696501
  C      2.804084    0.290698   -1.359243
  C      1.052550    0.695659   -3.214915
  H     -0.232483    1.032925   -4.884449
  H      0.511700    2.495794   -4.267966
  C      2.388380    1.093669   -2.597108
  H      3.763425    0.674718   -0.999889
  H      2.094788    0.461222   -0.545756
  O      1.266058   -1.159177   -5.805365
  H      3.167316    1.013242   -3.359430
  H      2.357690    2.149375   -2.310997
  H      1.039284   -0.368429   -3.449329
  H      0.250787    0.865605   -2.488283
  H      1.940472   -1.716529   -1.441161
  H      3.558569   -1.663433   -0.766371

 Total Charge           Charge          ....    0
 Multiplicity           Mult            ....    1
 Number of Electrons    NEL             ....  112
 Basis Dimension        Dim             ....  404

ORBITAL ENERGIES
----------------

  NO   OCC          E(Eh)            E(eV)
   0   2.0000     -88.471793     -2407.4399
   1   2.0000     -18.936900      -515.2992
   2   2.0000     -18.928575      -515.0727
   3   2.0000     -18.919214      -514.8180
   4   2.0000     -14.303872      -389.2281
   5   2.0000     -14.303787      -389.2258
   6   2.0000     -10.299315      -280.2586
   7   2.0000     -10.195787      -277.4415
   8   2.0000     -10.174919      -276.8736
   9   2.0000     -10.145725      -276.0792
  10   2.0000     -10.133080      -275.7351
  11   2.0000     -10.130216      -275.6572
  12   2.0000     -10.129923      -275.6492
  13   2.0000      -8.092292      -220.2025
  14   2.0000      -6.115513      -166.4116
  15   2.0000      -6.114435      -166.3822
  16   2.0000      -6.113576      -166.3589
  17   2.0000      -1.267147       -34.4808
  18   2.0000      -1.214493       -33.0480
  19   2.0000      -1.107747       -30.1433
  20   2.0000      -1.103402       -30.0251
  21   2.0000      -1.098636       -29.8954
  22   2.0000      -1.025338       -27.9009
  23   2.0000      -0.977525       -26.5998
  24   2.0000      -0.925809       -25.1925
  25   2.0000      -0.867566       -23.6077
  26   2.0000      -0.830845       -22.6084
  27   2.0000      -0.798716       -21.7342
  28   2.0000      -0.757891       -20.6233
  29   2.0000      -0.748308       -20.3625
  30   2.0000      -0.735057       -20.0019
  31   2.0000      -0.690268       -18.7832
  32   2.0000      -0.670791       -18.2531
  33   2.0000      -0.666746       -18.1431
  34   2.0000      -0.646335       -17.5877
  35   2.0000      -0.622942       -16.9511
  36   2.0000      -0.616116       -16.7654
  37   2.0000      -0.597995       -16.2723
  38   2.0000      -0.583685       -15.8829
  39   2.0000      -0.578220       -15.7342
  40   2.0000      -0.572660       -15.5829
  41   2.0000      -0.559574       -15.2268
  42   2.0000      -0.550709       -14.9856
  43   2.0000      -0.522852       -14.2275
  44   2.0000      -0.514665       -14.0048
  45   2.0000      -0.509144       -13.8545
  46   2.0000      -0.479967       -13.0606
  47   2.0000      -0.472539       -12.8584
  48   2.0000      -0.457702       -12.4547
  49   2.0000      -0.456821       -12.4307
  50   2.0000      -0.447280       -12.1711
  51   2.0000      -0.442894       -12.0518
  52   2.0000      -0.405900       -11.0451
  53   2.0000      -0.399050       -10.8587
  54   2.0000      -0.384215       -10.4550
  55   2.0000      -0.361064        -9.8250
  56   0.0000       0.029013         0.7895
  57   0.0000       0.057348         1.5605
  58   0.0000       0.078417         2.1338
  59   0.0000       0.092150         2.5075
  60   0.0000       0.096663         2.6303

MULLIKEN ATOMIC CHARGES
-----------------------
   0 C :    0.217199
   1 C :    0.295610
   2 C :   -0.030536
   3 H :    0.166919
   4 H :   -0.072866
   5 S :    1.158529
   6 C :    0.205725
   7 N :    0.187016
   8 N :    0.221774
   9 H :    0.130191
  10 H :   -0.149634
  11 H :    0.099395
  12 H :   -0.169232
  13 O :   -0.811106
  14 O :   -0.696238
  15 C :    0.218590
  16 C :    0.090278
  17 H :    0.100956
  18 H :    0.021749
  19 C :   -0.176012
  20 H :    0.051425
  21 H :   -0.013030
  22 O :   -0.826987
  23 H :    0.035878
  24 H :   -0.080185
  25 H :   -0.300588
  26 H :    0.003507
  27 H :    0.203441
  28 H :   -0.081770
Sum of atomic charges:   -0.0000000

LOEWDIN ATOMIC CHARGES
----------------------
   0 C :    0.029253
   1 C :   -0.053382
   2 C :   -0.075958
   3 H :    0.019631
   4 H :    0.024011
   5 S :    0.915339
   6 C :   -0.067051
   7 N :    0.275585
   8 N :    0.290550
   9 H :    0.049778
  10 H :   -0.018637
  11 H :    0.048479
  12 H :   -0.029200
  13 O :   -0.565440
  14 O :   -0.509760
  15 C :   -0.027683
  16 C :   -0.042323
  17 H :    0.042061
  18 H :    0.038674
  19 C :   -0.043414
  20 H :    0.030383
  21 H :    0.039479
  22 O :   -0.544046
  23 H :    0.007944
  24 H :    0.044418
  25 H :   -0.009716
  26 H :    0.041620
  27 H :    0.039784
  28 H :    0.049624

  Mayer bond orders larger than 0.100000
B(  0-C ,  6-C ) :   1.1927 B(  0-C , 15-C ) :   1.1697 B(  0-C , 27-H ) :   0.7660
B(  0-C , 28-H ) :   0.7832 B(  1-C ,  2-C ) :   1.2429 B(  1-C ,  4-H ) :   0.1704
B(  1-C , 16-C ) :   1.2644 B(  1-C , 17-H ) :   0.7162 B(  1-C , 18-H ) :   0.8044
B(  2-C ,  3-H ) :   0.8805 B(  2-C ,  4-H ) :   0.9285 B(  2-C ,  5-S ) :   0.9370
B(  2-C , 17-H ) :   0.1068 B(  2-C , 18-H ) :   0.1339 B(  5-S , 13-O ) :   1.1907
B(  5-S , 14-O ) :   1.4976 B(  5-S , 22-O ) :   1.2832 B(  6-C ,  7-N ) :   1.1000
B(  6-C ,  8-N ) :   1.2196 B(  6-C , 27-H ) :   0.1523 B(  6-C , 28-H ) :   0.2244
B(  7-N ,  8-N ) :   0.1500 B(  7-N , 11-H ) :   0.9797 B(  7-N , 12-H ) :   1.1149
B(  8-N ,  9-H ) :   0.9500 B(  8-N , 10-H ) :   1.0964 B(  9-H , 10-H ) :  -0.1348
B( 10-H , 13-O ) :   0.1266 B( 11-H , 12-H ) :  -0.1509 B( 12-H , 13-O ) :   0.1155
B( 15-C , 19-C ) :   1.2631 B( 15-C , 20-H ) :   0.7593 B( 15-C , 21-H ) :   0.8813
B( 15-C , 23-H ) :   0.1116 B( 15-C , 27-H ) :   0.1040 B( 16-C , 17-H ) :   0.2375
B( 16-C , 19-C ) :   1.2711 B( 16-C , 23-H ) :   0.1324 B( 16-C , 24-H ) :   0.1623
B( 16-C , 25-H ) :   0.9551 B( 16-C , 26-H ) :   0.7597 B( 19-C , 20-H ) :   0.2187
B( 19-C , 21-H ) :   0.1418 B( 19-C , 23-H ) :   0.8987 B( 19-C , 24-H ) :   0.8793
B( 19-C , 25-H ) :   0.1059 B( 19-C , 26-H ) :   0.1945 B( 20-H , 21-H ) :  -0.1051

FINAL SINGLE POINT ENERGY     -1006.989431612788

DIPOLE MOMENT
-------------
                                X             Y             Z
Electronic contribution:      2.72748      -6.19423     -13.19390
Nuclear contribution   :     -1.90023       6.18953      17.82209
                        -----------------------------------------
Total Dipole Moment    :      0.82725      -0.00471       4.62818
                        -----------------------------------------
Magnitude (a.u.)       :      4.70154
Magnitude (Debye)      :     11.95036

Rotational constants in cm-1:     0.036337     0.018755     0.015005
Rotational constants in MHz :  1089.341704   562.266628   449.834770

                             ****ORCA TERMINATED NORMALLY****
TOTAL RUN TIME: 0 days 0 hours 2 minutes 31 seconds 307 msec
