                         Program Version 5.0.0 -  RELEASE  -
|  1> !LC-PBE RIJCOSX def2-SVPD def2/J TightSCF
|  2> *xyz 0 1
|  3> C          0.70466        1.44313       -4.50363
|  4> C          1.72854        1.42432       -5.63944
|  5> H          2.64672        1.95379       -5.38105
|  6> H          1.29992        1.93061       -6.50361
|  7> S          2.25263       -0.18811       -6.27184
|  8> F          3.56261       -0.44446       -5.63155
|  9> O          2.34494       -0.03374       -7.69650
| 10> O          1.26606       -1.15918       -5.80536
| 11> H         -0.17385        0.91270       -4.80656
| 12> H          0.44778        2.45562       -4.27173
| 13> H          1.12367        0.97423       -3.63791
| 14> *
| 15>
| 16> %MaxCore 64000
| 17>
| 18> %pal nprocs 4
| 19> end
| 20>
| 21> %scf
| 22>   MaxIter 150
| 23> end
| 24>
| 25>
| 26>                          ****END OF INPUT****

CARTESIAN COORDINATES (ANGSTROEM)
---------------------------------
  C      0.704660    1.443130   -4.503630
  C      1.728540    1.424320   -5.639440
  H      2.646720    1.953790   -5.381050
  H      1.299920    1.930610   -6.503610
  S      2.252630   -0.188110   -6.271840
  F      3.562610   -0.444460   -5.631550
  O      2.344940   -0.033740   -7.696500
  O      1.266060   -1.159180   -5.805360
  H     -0.173850    0.912700   -4.806560
  H      0.447780    2.455620   -4.271730
  H      1.123670    0.974230   -3.637910

 Total Charge           Charge          ....    0
 Multiplicity           Mult            ....    1
 Number of Electrons    NEL             ....   58
 Basis Dimension        Dim             ....  176

ORBITAL ENERGIES
----------------

  NO   OCC          E(Eh)            E(eV)
   0   2.0000     -88.575348     -2410.2577
   1   2.0000     -24.613234      -669.7602
   2   2.0000     -19.013292      -517.3780
   3   2.0000     -19.005284      -517.1601
   4   2.0000     -10.197929      -277.4998
   5   2.0000     -10.150172      -276.2002
   6   2.0000      -8.197920      -223.0767
   7   2.0000      -6.224884      -169.3877
   8   2.0000      -6.217841      -169.1960
   9   2.0000      -6.216719      -169.1655
  10   2.0000      -1.512245       -41.1503
  11   2.0000      -1.290337       -35.1119
  12   2.0000      -1.185233       -32.2518
  13   2.0000      -1.000838       -27.2342
  14   2.0000      -0.891143       -24.2492
  15   2.0000      -0.835952       -22.7474
  16   2.0000      -0.739263       -20.1164
  17   2.0000      -0.725171       -19.7329
  18   2.0000      -0.705910       -19.2088
  19   2.0000      -0.645289       -17.5592
  20   2.0000      -0.632501       -17.2112
  21   2.0000      -0.604742       -16.4559
  22   2.0000      -0.576786       -15.6952
  23   2.0000      -0.545168       -14.8348
  24   2.0000      -0.543712       -14.7952
  25   2.0000      -0.522580       -14.2201
  26   2.0000      -0.477547       -12.9947
  27   2.0000      -0.466591       -12.6966
  28   2.0000      -0.457526       -12.4499
  29   0.0000       0.063413         1.7256
  30   0.0000       0.086695         2.3591
  31   0.0000       0.093100         2.5334
  32   0.0000       0.095119         2.5883
  33   0.0000       0.120298         3.2735

MULLIKEN ATOMIC CHARGES
-----------------------
   0 C :    0.502781
   1 C :   -0.542235
   2 H :    0.092991
   3 H :    0.147761
   4 S :    1.372374
   5 F :   -0.384019
   6 O :   -0.613823
   7 O :   -0.655751
   8 H :    0.051298
   9 H :    0.008654
  10 H :    0.019969
Sum of atomic charges:   -0.0000000

LOEWDIN ATOMIC CHARGES
----------------------
   0 C :    0.103979
   1 C :   -0.103922
   2 H :    0.030609
   3 H :    0.034720
   4 S :    1.107492
   5 F :   -0.263853
   6 O :   -0.459926
   7 O :   -0.469001
   8 H :    0.006025
   9 H :    0.006384
  10 H :    0.007492

  Mayer bond orders larger than 0.100000
B(  0-C ,  1-C ) :   1.3339 B(  0-C ,  8-H ) :   0.8489 B(  0-C ,  9-H ) :   0.8230
B(  0-C , 10-H ) :   0.8567 B(  1-C ,  2-H ) :   0.9616 B(  1-C ,  3-H ) :   0.9704
B(  1-C ,  4-S ) :   0.9783 B(  1-C ,  8-H ) :   0.1630 B(  1-C ,  9-H ) :   0.1581
B(  1-C , 10-H ) :   0.1494 B(  4-S ,  5-F ) :   0.6809 B(  4-S ,  6-O ) :   1.5955
B(  4-S ,  7-O ) :   1.5491

FINAL SINGLE POINT ENERGY      -726.045655878414

DIPOLE MOMENT
-------------
                                X             Y             Z
Electronic contribution:      6.29680      -6.38325      -3.65018
Nuclear contribution   :     -6.09914       7.80989       4.64238
                        -----------------------------------------
Total Dipole Moment    :      0.19766       1.42663       0.99220
                        -----------------------------------------
Magnitude (a.u.)       :      1.74895
Magnitude (Debye)      :      4.44548

Rotational constants in cm-1:     0.154372     0.078826     0.078033
Rotational constants in MHz :  4627.943144  2363.154585  2339.382767

                             ****ORCA TERMINATED NORMALLY****
TOTAL RUN TIME: 0 days 0 hours 0 minutes 25 seconds 291 msec
