                         Program Version 5.0.0 -  RELEASE  -
|  1> !LC-PBE RIJCOSX def2-SVPD def2/J TightSCF
|  2> *xyz 0 1
|  3> C          2.91632       -1.24259       -1.54313
|  4> C          3.46659       -1.59097       -2.88908
|  5> C          4.65227       -1.14316       -3.25969
|  6> N          2.75226       -2.29204       -3.72803
|  7> H          1.77836       -2.48960       -3.51274
|  8> H          2.94861       -2.20854       -4.71681
|  9> H          5.14672       -0.51251       -2.63385
| 10> H          4.78303       -1.00720       -4.25350
| 11> C          2.80408        0.29070       -1.35924
| 12> H          1.94047       -1.71653       -1.44116
| 13> H          3.55857       -1.66343       -0.76637
| 14> H          2.17393        0.69633       -2.12297
| 15> H          3.77707        0.73043       -1.42880
| 16> H          2.38369        0.50492       -0.39889
| 17> *
| 18>
| 19> %MaxCore 64000
| 20>
| 21> %pal nprocs 4
| 22> end
| 23>
| 24> %scf
| 25>   MaxIter 150
| 26> end
| 27>
| 28>
| 29>                          ****END OF INPUT****

CARTESIAN COORDINATES (ANGSTROEM)
---------------------------------
  C      2.916320   -1.242590   -1.543130
  C      3.466590   -1.590970   -2.889080
  C      4.652270   -1.143160   -3.259690
  N      2.752260   -2.292040   -3.728030
  H      1.778360   -2.489600   -3.512740
  H      2.948610   -2.208540   -4.716810
  H      5.146720   -0.512510   -2.633850
  H      4.783030   -1.007200   -4.253500
  C      2.804080    0.290700   -1.359240
  H      1.940470   -1.716530   -1.441160
  H      3.558570   -1.663430   -0.766370
  H      2.173930    0.696330   -2.122970
  H      3.777070    0.730430   -1.428800
  H      2.383690    0.504920   -0.398890

 Total Charge           Charge          ....    0
 Multiplicity           Mult            ....    1
 Number of Electrons    NEL             ....   40
 Basis Dimension        Dim             ....  172

ORBITAL ENERGIES
----------------

  NO   OCC          E(Eh)            E(eV)
   0   2.0000     -14.231928      -387.2705
   1   2.0000     -10.154492      -276.3178
   2   2.0000     -10.131779      -275.6997
   3   2.0000     -10.114695      -275.2348
   4   2.0000     -10.055334      -273.6195
   5   2.0000      -1.105904       -30.0932
   6   2.0000      -0.953665       -25.9506
   7   2.0000      -0.876858       -23.8605
   8   2.0000      -0.805241       -21.9117
   9   2.0000      -0.715881       -19.4801
  10   2.0000      -0.670416       -18.2430
  11   2.0000      -0.627484       -17.0747
  12   2.0000      -0.595946       -16.2165
  13   2.0000      -0.550436       -14.9781
  14   2.0000      -0.529405       -14.4058
  15   2.0000      -0.513110       -13.9624
  16   2.0000      -0.490313       -13.3421
  17   2.0000      -0.474376       -12.9084
  18   2.0000      -0.461505       -12.5582
  19   2.0000      -0.309981        -8.4350
  20   0.0000       0.090241         2.4556
  21   0.0000       0.112112         3.0507
  22   0.0000       0.120669         3.2836
  23   0.0000       0.129154         3.5145
  24   0.0000       0.141855         3.8601

MULLIKEN ATOMIC CHARGES
-----------------------
   0 C :   -0.213392
   1 C :   -0.174889
   2 C :    0.252104
   3 N :    0.060047
   4 H :   -0.020828
   5 H :   -0.046737
   6 H :   -0.074626
   7 H :   -0.296307
   8 C :    0.452286
   9 H :    0.027522
  10 H :    0.072656
  11 H :   -0.040767
  12 H :   -0.059085
  13 H :    0.062015
Sum of atomic charges:    0.0000000

LOEWDIN ATOMIC CHARGES
----------------------
   0 C :   -0.044220
   1 C :   -0.271347
   2 C :    0.141319
   3 N :    0.150637
   4 H :    0.011243
   5 H :    0.018101
   6 H :   -0.072791
   7 H :   -0.073112
   8 C :    0.108190
   9 H :    0.020048
  10 H :    0.041015
  11 H :   -0.002337
  12 H :   -0.017205
  13 H :   -0.009541

  Mayer bond orders larger than 0.100000
B(  0-C ,  1-C ) :   1.1972 B(  0-C ,  8-C ) :   1.2674 B(  0-C ,  9-H ) :   0.8595
B(  0-C , 10-H ) :   0.8671 B(  0-C , 11-H ) :   0.1329 B(  0-C , 12-H ) :   0.1485
B(  0-C , 13-H ) :   0.1280 B(  1-C ,  2-C ) :   2.0305 B(  1-C ,  3-N ) :   1.1035
B(  1-C ,  6-H ) :   0.1259 B(  1-C ,  7-H ) :   0.1780 B(  1-C ,  9-H ) :   0.1528
B(  1-C , 10-H ) :   0.1483 B(  2-C ,  3-N ) :   0.2264 B(  2-C ,  6-H ) :   0.7539
B(  2-C ,  7-H ) :   0.8862 B(  3-N ,  4-H ) :   1.0381 B(  3-N ,  5-H ) :   1.0932
B(  4-H ,  5-H ) :  -0.1129 B(  6-H ,  7-H ) :   0.1083 B(  8-C , 11-H ) :   0.8838
B(  8-C , 12-H ) :   0.8823 B(  8-C , 13-H ) :   0.8386

FINAL SINGLE POINT ENERGY      -211.685468575889

DIPOLE MOMENT
-------------
                                X             Y             Z
Electronic contribution:      0.08273      -2.71322      -1.80543
Nuclear contribution   :     -0.99366       2.78648       1.68526
                        -----------------------------------------
Total Dipole Moment    :     -0.91093       0.07325      -0.12017
                        -----------------------------------------
Magnitude (a.u.)       :      0.92173
Magnitude (Debye)      :      2.34286

Rotational constants in cm-1:     0.282898     0.128664     0.101801
Rotational constants in MHz :  8481.061354  3857.240210  3051.924245

                             ****ORCA TERMINATED NORMALLY****
TOTAL RUN TIME: 0 days 0 hours 0 minutes 23 seconds 465 msec
