                         Program Version 5.0.0 -  RELEASE  -
|  1> !LC-PBE RIJCOSX def2-SVPD def2/J TightSCF
|  2> *xyz 0 1
|  3> C          0.70466        1.44313       -4.50363
|  4> C          1.72854        1.42432       -5.63944
|  5> H          2.64672        1.95379       -5.38105
|  6> H          1.29992        1.93061       -6.50361
|  7> S          2.25263       -0.18811       -6.27184
|  8> O          3.56261       -0.44446       -5.63155
|  9> F          2.34494       -0.03374       -7.69650
| 10> O          1.26606       -1.15918       -5.80536
| 11> H         -0.17385        0.91270       -4.80656
| 12> H          0.44778        2.45562       -4.27173
| 13> H          1.12367        0.97423       -3.63791
| 14> *
| 15>
| 16> %MaxCore 64000
| 17>
| 18> %pal nprocs 4
| 19> end
| 20>
| 21> %scf
| 22>   MaxIter 150
| 23> end
| 24>
| 25>
| 26>                          ****END OF INPUT****

CARTESIAN COORDINATES (ANGSTROEM)
---------------------------------
  C      0.704660    1.443130   -4.503630
  C      1.728540    1.424320   -5.639440
  H      2.646720    1.953790   -5.381050
  H      1.299920    1.930610   -6.503610
  S      2.252630   -0.188110   -6.271840
  O      3.562610   -0.444460   -5.631550
  F      2.344940   -0.033740   -7.696500
  O      1.266060   -1.159180   -5.805360
  H     -0.173850    0.912700   -4.806560
  H      0.447780    2.455620   -4.271730
  H      1.123670    0.974230   -3.637910

 Total Charge           Charge          ....    0
 Multiplicity           Mult            ....    1
 Number of Electrons    NEL             ....   58
 Basis Dimension        Dim             ....  176

ORBITAL ENERGIES
----------------

  NO   OCC          E(Eh)            E(eV)
   0   2.0000     -88.577343     -2410.3120
   1   2.0000     -24.636927      -670.4049
   2   2.0000     -19.005613      -517.1690
   3   2.0000     -18.996976      -516.9340
   4   2.0000     -10.199185      -277.5339
   5   2.0000     -10.150633      -276.2128
   6   2.0000      -8.200090      -223.1358
   7   2.0000      -6.227207      -169.4509
   8   2.0000      -6.219818      -169.2498
   9   2.0000      -6.218639      -169.2178
  10   2.0000      -1.550331       -42.1867
  11   2.0000      -1.277427       -34.7606
  12   2.0000      -1.164769       -31.6950
  13   2.0000      -1.001719       -27.2582
  14   2.0000      -0.905799       -24.6480
  15   2.0000      -0.845048       -22.9949
  16   2.0000      -0.754251       -20.5242
  17   2.0000      -0.752069       -20.4648
  18   2.0000      -0.710525       -19.3344
  19   2.0000      -0.644884       -17.5482
  20   2.0000      -0.635583       -17.2951
  21   2.0000      -0.590923       -16.0798
  22   2.0000      -0.574275       -15.6268
  23   2.0000      -0.547673       -14.9029
  24   2.0000      -0.531121       -14.4525
  25   2.0000      -0.524224       -14.2649
  26   2.0000      -0.469609       -12.7787
  27   2.0000      -0.457026       -12.4363
  28   2.0000      -0.441405       -12.0112
  29   0.0000       0.061712         1.6793
  30   0.0000       0.083644         2.2761
  31   0.0000       0.091560         2.4915
  32   0.0000       0.096402         2.6232
  33   0.0000       0.119515         3.2522

MULLIKEN ATOMIC CHARGES
-----------------------
   0 C :    0.478227
   1 C :   -0.541913
   2 H :    0.096899
   3 H :    0.141369
   4 S :    1.374464
   5 O :   -0.658201
   6 F :   -0.348964
   7 O :   -0.644802
   8 H :    0.051033
   9 H :    0.010790
  10 H :    0.041096
Sum of atomic charges:    0.0000000

LOEWDIN ATOMIC CHARGES
----------------------
   0 C :    0.111110
   1 C :   -0.108631
   2 H :    0.035380
   3 H :    0.022944
   4 S :    1.111110
   5 O :   -0.485847
   6 F :   -0.242025
   7 O :   -0.469704
   8 H :    0.004721
   9 H :    0.007502
  10 H :    0.013440

  Mayer bond orders larger than 0.100000
B(  0-C ,  1-C ) :   1.3446 B(  0-C ,  8-H ) :   0.8440 B(  0-C ,  9-H ) :   0.8247
B(  0-C , 10-H ) :   0.8607 B(  1-C ,  2-H ) :   0.9900 B(  1-C ,  3-H ) :   0.9346
B(  1-C ,  4-S ) :   0.9661 B(  1-C ,  8-H ) :   0.1651 B(  1-C ,  9-H ) :   0.1549
B(  1-C , 10-H ) :   0.1450 B(  4-S ,  5-O ) :   1.5290 B(  4-S ,  6-F ) :   0.7475
B(  4-S ,  7-O ) :   1.5453

FINAL SINGLE POINT ENERGY      -726.024840678664

DIPOLE MOMENT
-------------
                                X             Y             Z
Electronic contribution:      4.16612      -5.67486      -7.21435
Nuclear contribution   :     -4.83029       7.38191       6.79413
                        -----------------------------------------
Total Dipole Moment    :     -0.66416       1.70705      -0.42022
                        -----------------------------------------
Magnitude (a.u.)       :      1.87928
Magnitude (Debye)      :      4.77676

Rotational constants in cm-1:     0.156575     0.079070     0.076729
Rotational constants in MHz :  4694.010604  2370.444114  2300.280155

                             ****ORCA TERMINATED NORMALLY****
TOTAL RUN TIME: 0 days 0 hours 0 minutes 27 seconds 587 msec
