                         Program Version 5.0.0 -  RELEASE  -
|  1> !LC-PBE RIJCOSX def2-SVPD def2/J TightSCF
|  2> *xyz 0 1
|  3> C          2.91632       -1.24259       -1.54313
|  4> C          3.46659       -1.59097       -2.88908
|  5> N          4.65227       -1.14316       -3.25969
|  6> C          2.75226       -2.29204       -3.72803
|  7> H          1.77836       -2.48960       -3.51274
|  8> H          2.94861       -2.20854       -4.71681
|  9> H          5.14672       -0.51251       -2.63385
| 10> H          4.78303       -1.00720       -4.25350
| 11> C          2.80408        0.29070       -1.35924
| 12> H          1.94047       -1.71653       -1.44116
| 13> H          3.55857       -1.66343       -0.76637
| 14> H          2.17393        0.69633       -2.12297
| 15> H          3.77707        0.73043       -1.42880
| 16> H          2.38369        0.50492       -0.39889
| 17> *
| 18>
| 19> %MaxCore 64000
| 20>
| 21> %pal nprocs 4
| 22> end
| 23>
| 24> %scf
| 25>   MaxIter 150
| 26> end
| 27>
| 28>
| 29>                          ****END OF INPUT****

CARTESIAN COORDINATES (ANGSTROEM)
---------------------------------
  C      2.916320   -1.242590   -1.543130
  C      3.466590   -1.590970   -2.889080
  N      4.652270   -1.143160   -3.259690
  C      2.752260   -2.292040   -3.728030
  H      1.778360   -2.489600   -3.512740
  H      2.948610   -2.208540   -4.716810
  H      5.146720   -0.512510   -2.633850
  H      4.783030   -1.007200   -4.253500
  C      2.804080    0.290700   -1.359240
  H      1.940470   -1.716530   -1.441160
  H      3.558570   -1.663430   -0.766370
  H      2.173930    0.696330   -2.122970
  H      3.777070    0.730430   -1.428800
  H      2.383690    0.504920   -0.398890

 Total Charge           Charge          ....    0
 Multiplicity           Mult            ....    1
 Number of Electrons    NEL             ....   40
 Basis Dimension        Dim             ....  172

ORBITAL ENERGIES
----------------

  NO   OCC          E(Eh)            E(eV)
   0   2.0000     -14.228000      -387.1636
   1   2.0000     -10.152586      -276.2659
   2   2.0000     -10.130299      -275.6594
   3   2.0000     -10.119897      -275.3764
   4   2.0000     -10.059393      -273.7300
   5   2.0000      -1.100957       -29.9586
   6   2.0000      -0.950334       -25.8599
   7   2.0000      -0.889546       -24.2058
   8   2.0000      -0.796613       -21.6769
   9   2.0000      -0.715965       -19.4824
  10   2.0000      -0.674606       -18.3570
  11   2.0000      -0.624594       -16.9961
  12   2.0000      -0.579941       -15.7810
  13   2.0000      -0.578584       -15.7441
  14   2.0000      -0.524740       -14.2789
  15   2.0000      -0.519181       -14.1276
  16   2.0000      -0.488371       -13.2893
  17   2.0000      -0.477122       -12.9831
  18   2.0000      -0.454801       -12.3758
  19   2.0000      -0.317501        -8.6396
  20   0.0000       0.087651         2.3851
  21   0.0000       0.114856         3.1254
  22   0.0000       0.122127         3.3232
  23   0.0000       0.133242         3.6257
  24   0.0000       0.138512         3.7691

MULLIKEN ATOMIC CHARGES
-----------------------
   0 C :   -0.310519
   1 C :   -0.296231
   2 N :    0.134623
   3 C :    0.160458
   4 H :    0.008735
   5 H :   -0.273915
   6 H :   -0.038737
   7 H :   -0.041818
   8 C :    0.480636
   9 H :    0.187116
  10 H :    0.032547
  11 H :    0.008419
  12 H :   -0.047826
  13 H :   -0.003487
Sum of atomic charges:   -0.0000000

LOEWDIN ATOMIC CHARGES
----------------------
   0 C :   -0.045759
   1 C :   -0.279855
   2 N :    0.157248
   3 C :    0.141290
   4 H :   -0.066217
   5 H :   -0.069673
   6 H :    0.004668
   7 H :    0.016230
   8 C :    0.106187
   9 H :    0.031698
  10 H :    0.035807
  11 H :   -0.000249
  12 H :   -0.023362
  13 H :   -0.008014

  Mayer bond orders larger than 0.100000
B(  0-C ,  1-C ) :   1.3179 B(  0-C ,  8-C ) :   1.2530 B(  0-C ,  9-H ) :   0.8900
B(  0-C , 10-H ) :   0.8583 B(  0-C , 11-H ) :   0.1262 B(  0-C , 12-H ) :   0.1616
B(  0-C , 13-H ) :   0.1602 B(  1-C ,  2-N ) :   1.0868 B(  1-C ,  3-C ) :   2.0984
B(  1-C ,  5-H ) :   0.2308 B(  1-C , 10-H ) :   0.1852 B(  2-N ,  3-C ) :   0.2502
B(  2-N ,  6-H ) :   0.9897 B(  2-N ,  7-H ) :   1.0708 B(  3-C ,  4-H ) :   0.9116
B(  3-C ,  5-H ) :   0.7586 B(  4-H ,  5-H ) :   0.1370 B(  6-H ,  7-H ) :  -0.1006
B(  8-C , 11-H ) :   0.8658 B(  8-C , 12-H ) :   0.8353 B(  8-C , 13-H ) :   0.8723

FINAL SINGLE POINT ENERGY      -211.689560076676

DIPOLE MOMENT
-------------
                                X             Y             Z
Electronic contribution:      1.70767      -1.72132      -1.40010
Nuclear contribution   :     -1.43372       2.52039       1.57679
                        -----------------------------------------
Total Dipole Moment    :      0.27396       0.79906       0.17669
                        -----------------------------------------
Magnitude (a.u.)       :      0.86300
Magnitude (Debye)      :      2.19357

Rotational constants in cm-1:     0.274962     0.131786     0.102554
Rotational constants in MHz :  8243.150005  3950.846092  3074.493018

                             ****ORCA TERMINATED NORMALLY****
TOTAL RUN TIME: 0 days 0 hours 0 minutes 27 seconds 86 msec
