                         Program Version 5.0.0 -  RELEASE  -
|  1> !LC-PBE RIJCOSX def2-SVPD def2/J TightSCF
|  2> *xyz 0 1
|  3> C          0.70466        1.44313       -4.50363
|  4> C          1.72854        1.42432       -5.63944
|  5> H          2.64672        1.95379       -5.38105
|  6> H          1.29992        1.93061       -6.50361
|  7> S          2.25263       -0.18811       -6.27184
|  8> O          3.56261       -0.44446       -5.63155
|  9> O          2.34494       -0.03374       -7.69650
| 10> F          1.26606       -1.15918       -5.80536
| 11> H         -0.17385        0.91270       -4.80656
| 12> H          0.44778        2.45562       -4.27173
| 13> H          1.12367        0.97423       -3.63791
| 14> *
| 15>
| 16> %MaxCore 64000
| 17>
| 18> %pal nprocs 4
| 19> end
| 20>
| 21> %scf
| 22>   MaxIter 150
| 23> end
| 24>
| 25>
| 26>                          ****END OF INPUT****

CARTESIAN COORDINATES (ANGSTROEM)
---------------------------------
  C      0.704660    1.443130   -4.503630
  C      1.728540    1.424320   -5.639440
  H      2.646720    1.953790   -5.381050
  H      1.299920    1.930610   -6.503610
  S      2.252630   -0.188110   -6.271840
  O      3.562610   -0.444460   -5.631550
  O      2.344940   -0.033740   -7.696500
  F      1.266060   -1.159180   -5.805360
  H     -0.173850    0.912700   -4.806560
  H      0.447780    2.455620   -4.271730
  H      1.123670    0.974230   -3.637910

 Total Charge           Charge          ....    0
 Multiplicity           Mult            ....    1
 Number of Electrons    NEL             ....   58
 Basis Dimension        Dim             ....  176

ORBITAL ENERGIES
----------------

  NO   OCC          E(Eh)            E(eV)
   0   2.0000     -88.575887     -2410.2724
   1   2.0000     -24.624018      -670.0536
   2   2.0000     -19.013310      -517.3785
   3   2.0000     -18.996453      -516.9198
   4   2.0000     -10.197874      -277.4983
   5   2.0000     -10.158458      -276.4257
   6   2.0000      -8.198552      -223.0940
   7   2.0000      -6.225699      -169.4099
   8   2.0000      -6.218386      -169.2109
   9   2.0000      -6.217152      -169.1773
  10   2.0000      -1.528558       -41.5942
  11   2.0000      -1.286774       -35.0149
  12   2.0000      -1.173426       -31.9306
  13   2.0000      -1.005061       -27.3491
  14   2.0000      -0.893688       -24.3185
  15   2.0000      -0.846118       -23.0241
  16   2.0000      -0.755338       -20.5538
  17   2.0000      -0.737837       -20.0776
  18   2.0000      -0.697925       -18.9915
  19   2.0000      -0.648809       -17.6550
  20   2.0000      -0.627078       -17.0636
  21   2.0000      -0.599413       -16.3108
  22   2.0000      -0.590450       -16.0670
  23   2.0000      -0.555837       -15.1251
  24   2.0000      -0.534558       -14.5461
  25   2.0000      -0.530652       -14.4398
  26   2.0000      -0.473541       -12.8857
  27   2.0000      -0.459238       -12.4965
  28   2.0000      -0.447944       -12.1892
  29   0.0000       0.060467         1.6454
  30   0.0000       0.088005         2.3947
  31   0.0000       0.093401         2.5416
  32   0.0000       0.095429         2.5967
  33   0.0000       0.123628         3.3641

MULLIKEN ATOMIC CHARGES
-----------------------
   0 C :    0.482154
   1 C :   -0.521981
   2 H :    0.102097
   3 H :    0.149941
   4 S :    1.358877
   5 O :   -0.662092
   6 O :   -0.603858
   7 F :   -0.383360
   8 H :    0.033068
   9 H :    0.015704
  10 H :    0.029450
Sum of atomic charges:   -0.0000000

LOEWDIN ATOMIC CHARGES
----------------------
   0 C :    0.098757
   1 C :   -0.097701
   2 H :    0.043101
   3 H :    0.029767
   4 S :    1.107036
   5 O :   -0.486884
   6 O :   -0.459194
   7 F :   -0.251251
   8 H :    0.000746
   9 H :    0.007316
  10 H :    0.008308

  Mayer bond orders larger than 0.100000
B(  0-C ,  1-C ) :   1.3020 B(  0-C ,  8-H ) :   0.8517 B(  0-C ,  9-H ) :   0.8243
B(  0-C , 10-H ) :   0.8655 B(  1-C ,  2-H ) :   0.9805 B(  1-C ,  3-H ) :   0.9681
B(  1-C ,  4-S ) :   0.9857 B(  1-C ,  8-H ) :   0.1517 B(  1-C ,  9-H ) :   0.1596
B(  1-C , 10-H ) :   0.1385 B(  4-S ,  5-O ) :   1.5309 B(  4-S ,  6-O ) :   1.5939
B(  4-S ,  7-F ) :   0.7068

FINAL SINGLE POINT ENERGY      -726.035515255175

DIPOLE MOMENT
-------------
                                X             Y             Z
Electronic contribution:      2.30587      -7.57949      -3.94979
Nuclear contribution   :     -3.70606       8.55465       4.82350
                        -----------------------------------------
Total Dipole Moment    :     -1.40019       0.97516       0.87371
                        -----------------------------------------
Magnitude (a.u.)       :      1.91699
Magnitude (Debye)      :      4.87259

Rotational constants in cm-1:     0.153201     0.080978     0.077494
Rotational constants in MHz :  4592.852844  2427.650814  2323.207507

                             ****ORCA TERMINATED NORMALLY****
TOTAL RUN TIME: 0 days 0 hours 0 minutes 23 seconds 571 msec
