                         Program Version 5.0.0 -  RELEASE  -
|  1> !LC-PBE RIJCOSX def2-SVPD def2/J TightSCF xyzfile
|  2>
|  3> *xyzfile 0 1 D4.xyz
|  4>
|  5> %MaxCore 64000
|  6>
|  7> %pal nprocs 4
|  8> end
|  9>
| 10> %scf
| 11>   MaxIter 150
| 12> end
| 13>
| 14>
| 15>                          ****END OF INPUT****

CARTESIAN COORDINATES (ANGSTROEM)
---------------------------------
  C      2.916324   -1.242589   -1.543125
  C      0.704661    1.443129   -4.503630
  C      1.728539    1.424320   -5.639443
  H      2.646718    1.953794   -5.381054
  H      1.299916    1.930613   -6.503614
  S      2.252625   -0.188115   -6.271840
  C      3.466585   -1.590971   -2.889082
  N      4.652275   -1.143164   -3.259692
  C      2.752264   -2.292043   -3.728029
  H      1.778364   -2.489604   -3.512738
  H      2.948612   -2.208544   -4.716813
  H      5.146723   -0.512508   -2.633852
  H      4.783030   -1.007203   -4.253498
  O      3.562607   -0.444464   -5.631552
  F      2.344944   -0.033742   -7.696501
  C      2.804084    0.290698   -1.359243
  C      1.052550    0.695659   -3.214915
  H     -0.232483    1.032925   -4.884449
  H      0.511700    2.495794   -4.267966
  C      2.388380    1.093669   -2.597108
  H      3.763425    0.674718   -0.999889
  H      2.094788    0.461222   -0.545756
  O      1.266058   -1.159177   -5.805365
  H      3.167316    1.013242   -3.359430
  H      2.357690    2.149375   -2.310997
  H      1.039284   -0.368429   -3.449329
  H      0.250787    0.865605   -2.488283
  H      1.940472   -1.716529   -1.441161
  H      3.558569   -1.663433   -0.766371

 Total Charge           Charge          ....    0
 Multiplicity           Mult            ....    1
 Number of Electrons    NEL             ....  112
 Basis Dimension        Dim             ....  404

ORBITAL ENERGIES
----------------

  NO   OCC          E(Eh)            E(eV)
   0   2.0000     -88.587010     -2410.5751
   1   2.0000     -24.642977      -670.5695
   2   2.0000     -19.011254      -517.3225
   3   2.0000     -19.008530      -517.2484
   4   2.0000     -14.197984      -386.3468
   5   2.0000     -10.200131      -277.5597
   6   2.0000     -10.158962      -276.4394
   7   2.0000     -10.126765      -275.5633
   8   2.0000     -10.125658      -275.5332
   9   2.0000     -10.124768      -275.5089
  10   2.0000     -10.123609      -275.4774
  11   2.0000     -10.114731      -275.2358
  12   2.0000     -10.031825      -272.9798
  13   2.0000      -8.208021      -223.3516
  14   2.0000      -6.235152      -169.6671
  15   2.0000      -6.228077      -169.4746
  16   2.0000      -6.226555      -169.4332
  17   2.0000      -1.555525       -42.3280
  18   2.0000      -1.286515       -35.0078
  19   2.0000      -1.175158       -31.9777
  20   2.0000      -1.075471       -29.2651
  21   2.0000      -1.017334       -27.6831
  22   2.0000      -0.969652       -26.3856
  23   2.0000      -0.928941       -25.2778
  24   2.0000      -0.894136       -24.3307
  25   2.0000      -0.870760       -23.6946
  26   2.0000      -0.837202       -22.7814
  27   2.0000      -0.790637       -21.5143
  28   2.0000      -0.762032       -20.7360
  29   2.0000      -0.753861       -20.5136
  30   2.0000      -0.725049       -19.7296
  31   2.0000      -0.717022       -19.5112
  32   2.0000      -0.683977       -18.6120
  33   2.0000      -0.657323       -17.8867
  34   2.0000      -0.649615       -17.6769
  35   2.0000      -0.644732       -17.5441
  36   2.0000      -0.623241       -16.9592
  37   2.0000      -0.603112       -16.4115
  38   2.0000      -0.595405       -16.2018
  39   2.0000      -0.584838       -15.9143
  40   2.0000      -0.571054       -15.5392
  41   2.0000      -0.550306       -14.9746
  42   2.0000      -0.540788       -14.7156
  43   2.0000      -0.521724       -14.1968
  44   2.0000      -0.516510       -14.0550
  45   2.0000      -0.504751       -13.7350
  46   2.0000      -0.491211       -13.3665
  47   2.0000      -0.485386       -13.2080
  48   2.0000      -0.477151       -12.9839
  49   2.0000      -0.459168       -12.4946
  50   2.0000      -0.454485       -12.3672
  51   2.0000      -0.452419       -12.3109
  52   2.0000      -0.442780       -12.0487
  53   2.0000      -0.435528       -11.8513
  54   2.0000      -0.425087       -11.5672
  55   2.0000      -0.290026        -7.8920
  56   0.0000       0.056564         1.5392
  57   0.0000       0.078843         2.1454
  58   0.0000       0.081742         2.2243
  59   0.0000       0.093314         2.5392
  60   0.0000       0.106647         2.9020

MULLIKEN ATOMIC CHARGES
-----------------------
   0 C :    0.270960
   1 C :    0.246335
   2 C :   -0.095327
   3 H :    0.233447
   4 H :   -0.045612
   5 S :    1.443426
   6 C :   -0.693142
   7 N :    0.298198
   8 C :    0.609044
   9 H :   -0.025453
  10 H :   -0.419185
  11 H :    0.039085
  12 H :   -0.202405
  13 O :   -0.696704
  14 F :   -0.426271
  15 C :    0.304779
  16 C :    0.122581
  17 H :    0.108125
  18 H :    0.043926
  19 C :   -0.209025
  20 H :    0.051675
  21 H :   -0.034385
  22 O :   -0.689383
  23 H :    0.049719
  24 H :   -0.133164
  25 H :   -0.358833
  26 H :    0.018927
  27 H :    0.336960
  28 H :   -0.148299
Sum of atomic charges:   -0.0000000

LOEWDIN ATOMIC CHARGES
----------------------
   0 C :    0.001726
   1 C :   -0.042710
   2 C :   -0.055139
   3 H :    0.032593
   4 H :    0.024989
   5 S :    1.157960
   6 C :   -0.267350
   7 N :    0.178256
   8 C :    0.144548
   9 H :   -0.055860
  10 H :   -0.111946
  11 H :    0.012190
  12 H :   -0.048998
  13 O :   -0.477639
  14 F :   -0.232140
  15 C :   -0.036533
  16 C :   -0.031953
  17 H :    0.043196
  18 H :    0.047582
  19 C :   -0.045801
  20 H :    0.024838
  21 H :    0.029239
  22 O :   -0.444345
  23 H :    0.006090
  24 H :    0.035762
  25 H :   -0.000232
  26 H :    0.045093
  27 H :    0.032802
  28 H :    0.033783

  Mayer bond orders larger than 0.100000
B(  0-C ,  6-C ) :   1.3838 B(  0-C , 15-C ) :   1.1516 B(  0-C , 20-H ) :   0.1023
B(  0-C , 21-H ) :   0.1731 B(  0-C , 27-H ) :   0.7947 B(  0-C , 28-H ) :   0.6798
B(  1-C ,  2-C ) :   1.2924 B(  1-C ,  4-H ) :   0.1984 B(  1-C , 16-C ) :   1.2669
B(  1-C , 17-H ) :   0.7238 B(  1-C , 18-H ) :   0.8011 B(  2-C ,  3-H ) :   0.8695
B(  2-C ,  4-H ) :   0.8707 B(  2-C ,  5-S ) :   0.9901 B(  2-C , 18-H ) :   0.1280
B(  5-S , 13-O ) :   1.4048 B(  5-S , 14-F ) :   0.6571 B(  5-S , 22-O ) :   1.5170
B(  6-C ,  7-N ) :   0.9833 B(  6-C ,  8-C ) :   2.2039 B(  6-C , 10-H ) :   0.4866
B(  6-C , 15-C ) :   0.1568 B(  6-C , 28-H ) :   0.3513 B(  7-N ,  8-C ) :   0.3940
B(  7-N ,  9-H ) :   0.1358 B(  7-N , 11-H ) :   0.9484 B(  7-N , 12-H ) :   0.9338
B(  8-C ,  9-H ) :   0.6306 B(  8-C , 10-H ) :   0.2171 B(  8-C , 27-H ) :  -0.1020
B(  9-H , 10-H ) :   0.1131 B( 10-H , 12-H ) :   0.1454 B( 11-H , 12-H ) :  -0.1489
B( 13-O , 22-O ) :   0.1189 B( 15-C , 19-C ) :   1.2373 B( 15-C , 20-H ) :   0.7263
B( 15-C , 21-H ) :   0.8464 B( 16-C , 17-H ) :   0.2348 B( 16-C , 19-C ) :   1.2774
B( 16-C , 23-H ) :   0.1133 B( 16-C , 24-H ) :   0.1580 B( 16-C , 25-H ) :   0.9980
B( 16-C , 26-H ) :   0.7327 B( 19-C , 20-H ) :   0.2388 B( 19-C , 21-H ) :   0.1506
B( 19-C , 23-H ) :   0.9000 B( 19-C , 24-H ) :   0.9072 B( 19-C , 25-H ) :   0.1373
B( 19-C , 26-H ) :   0.1777 B( 20-H , 21-H ) :  -0.1122

FINAL SINGLE POINT ENERGY     -1014.826255071238

DIPOLE MOMENT
-------------
                                X             Y             Z
Electronic contribution:      1.27431      -3.33306     -22.18774
Nuclear contribution   :     -1.74760       5.67788      21.66873
                        -----------------------------------------
Total Dipole Moment    :     -0.47329       2.34482      -0.51902
                        -----------------------------------------
Magnitude (a.u.)       :      2.44777
Magnitude (Debye)      :      6.22173

Rotational constants in cm-1:     0.036818     0.018222     0.014682
Rotational constants in MHz :  1103.783048   546.296792   440.157914

                             ****ORCA TERMINATED NORMALLY****
TOTAL RUN TIME: 0 days 0 hours 3 minutes 1 seconds 37 msec
