                         Program Version 5.0.0 -  RELEASE  -
|  1> !LC-PBE RIJCOSX def2-SVPD def2/J TightSCF xyzfile
|  2>
|  3> *xyzfile 0 1 D5.xyz
|  4>
|  5> %MaxCore 64000
|  6>
|  7> %pal nprocs 4
|  8> end
|  9>
| 10> %scf
| 11>   MaxIter 150
| 12> end
| 13>
| 14>
| 15>                          ****END OF INPUT****

CARTESIAN COORDINATES (ANGSTROEM)
---------------------------------
  C      2.916324   -1.242589   -1.543125
  C      0.704661    1.443129   -4.503630
  C      1.728539    1.424320   -5.639443
  H      2.646718    1.953794   -5.381054
  H      1.299916    1.930613   -6.503614
  S      2.252625   -0.188115   -6.271840
  C      3.466585   -1.590971   -2.889082
  C      4.652275   -1.143164   -3.259692
  N      2.752264   -2.292043   -3.728029
  H      1.778364   -2.489604   -3.512738
  H      2.948612   -2.208544   -4.716813
  H      5.146723   -0.512508   -2.633852
  H      4.783030   -1.007203   -4.253498
  O      3.562607   -0.444464   -5.631552
  O      2.344944   -0.033742   -7.696501
  C      2.804084    0.290698   -1.359243
  C      1.052550    0.695659   -3.214915
  H     -0.232483    1.032925   -4.884449
  H      0.511700    2.495794   -4.267966
  C      2.388380    1.093669   -2.597108
  H      3.763425    0.674718   -0.999889
  H      2.094788    0.461222   -0.545756
  F      1.266058   -1.159177   -5.805365
  H      3.167316    1.013242   -3.359430
  H      2.357690    2.149375   -2.310997
  H      1.039284   -0.368429   -3.449329
  H      0.250787    0.865605   -2.488283
  H      1.940472   -1.716529   -1.441161
  H      3.558569   -1.663433   -0.766371

 Total Charge           Charge          ....    0
 Multiplicity           Mult            ....    1
 Number of Electrons    NEL             ....  112
 Basis Dimension        Dim             ....  404

ORBITAL ENERGIES
----------------

  NO   OCC          E(Eh)            E(eV)
   0   2.0000     -88.586891     -2410.5719
   1   2.0000     -24.636185      -670.3847
   2   2.0000     -19.022020      -517.6155
   3   2.0000     -19.008191      -517.2392
   4   2.0000     -14.218368      -386.9015
   5   2.0000     -10.200434      -277.5679
   6   2.0000     -10.168419      -276.6967
   7   2.0000     -10.144145      -276.0362
   8   2.0000     -10.140044      -275.9246
   9   2.0000     -10.130140      -275.6551
  10   2.0000     -10.128729      -275.6167
  11   2.0000     -10.126235      -275.5489
  12   2.0000     -10.036990      -273.1204
  13   2.0000      -8.208205      -223.3566
  14   2.0000      -6.235491      -169.6763
  15   2.0000      -6.228211      -169.4782
  16   2.0000      -6.226641      -169.4355
  17   2.0000      -1.540708       -41.9248
  18   2.0000      -1.296629       -35.2831
  19   2.0000      -1.186585       -32.2886
  20   2.0000      -1.094874       -29.7930
  21   2.0000      -1.026528       -27.9332
  22   2.0000      -0.977379       -26.5958
  23   2.0000      -0.934799       -25.4372
  24   2.0000      -0.892382       -24.2829
  25   2.0000      -0.871300       -23.7093
  26   2.0000      -0.846157       -23.0251
  27   2.0000      -0.804736       -21.8980
  28   2.0000      -0.765550       -20.8317
  29   2.0000      -0.755088       -20.5470
  30   2.0000      -0.735135       -20.0040
  31   2.0000      -0.711966       -19.3736
  32   2.0000      -0.695687       -18.9306
  33   2.0000      -0.660529       -17.9739
  34   2.0000      -0.651185       -17.7196
  35   2.0000      -0.647286       -17.6136
  36   2.0000      -0.630358       -17.1529
  37   2.0000      -0.619911       -16.8686
  38   2.0000      -0.604278       -16.4432
  39   2.0000      -0.596380       -16.2283
  40   2.0000      -0.576816       -15.6960
  41   2.0000      -0.559403       -15.2221
  42   2.0000      -0.549731       -14.9589
  43   2.0000      -0.527962       -14.3666
  44   2.0000      -0.526587       -14.3292
  45   2.0000      -0.514070       -13.9886
  46   2.0000      -0.506062       -13.7707
  47   2.0000      -0.491589       -13.3768
  48   2.0000      -0.485080       -13.1997
  49   2.0000      -0.476046       -12.9539
  50   2.0000      -0.464735       -12.6461
  51   2.0000      -0.459870       -12.5137
  52   2.0000      -0.450730       -12.2650
  53   2.0000      -0.443035       -12.0556
  54   2.0000      -0.436837       -11.8869
  55   2.0000      -0.294882        -8.0241
  56   0.0000       0.057657         1.5689
  57   0.0000       0.077902         2.1198
  58   0.0000       0.084759         2.3064
  59   0.0000       0.090344         2.4584
  60   0.0000       0.099021         2.6945

MULLIKEN ATOMIC CHARGES
-----------------------
   0 C :    0.377356
   1 C :    0.295643
   2 C :   -0.058035
   3 H :    0.210041
   4 H :   -0.050365
   5 S :    1.293379
   6 C :   -0.555896
   7 C :    0.494382
   8 N :    0.267451
   9 H :    0.061056
  10 H :   -0.182053
  11 H :    0.023948
  12 H :   -0.460561
  13 O :   -0.677623
  14 O :   -0.582537
  15 C :    0.180153
  16 C :    0.140531
  17 H :    0.086317
  18 H :    0.055642
  19 C :   -0.142284
  20 H :    0.069188
  21 H :   -0.043016
  22 F :   -0.446870
  23 H :    0.002326
  24 H :   -0.071114
  25 H :   -0.323659
  26 H :   -0.009523
  27 H :    0.148418
  28 H :   -0.102296
Sum of atomic charges:   -0.0000000

LOEWDIN ATOMIC CHARGES
----------------------
   0 C :    0.003043
   1 C :   -0.055461
   2 C :   -0.042006
   3 H :    0.042406
   4 H :    0.031903
   5 S :    1.135472
   6 C :   -0.261796
   7 C :    0.156743
   8 N :    0.168119
   9 H :    0.009207
  10 H :   -0.039136
  11 H :   -0.058760
  12 H :   -0.120035
  13 O :   -0.464780
  14 O :   -0.440529
  15 C :   -0.031841
  16 C :   -0.041402
  17 H :    0.039128
  18 H :    0.048415
  19 C :   -0.041745
  20 H :    0.032661
  21 H :    0.028433
  22 F :   -0.248405
  23 H :    0.009389
  24 H :    0.039128
  25 H :   -0.005610
  26 H :    0.045640
  27 H :    0.021303
  28 H :    0.040516

  Mayer bond orders larger than 0.100000
B(  0-C ,  6-C ) :   1.2970 B(  0-C , 15-C ) :   1.1438 B(  0-C , 21-H ) :   0.1645
B(  0-C , 27-H ) :   0.6591 B(  0-C , 28-H ) :   0.8004 B(  1-C ,  2-C ) :   1.2426
B(  1-C ,  4-H ) :   0.1842 B(  1-C , 16-C ) :   1.2470 B(  1-C , 17-H ) :   0.7285
B(  1-C , 18-H ) :   0.7865 B(  2-C ,  3-H ) :   0.8751 B(  2-C ,  4-H ) :   0.9398
B(  2-C ,  5-S ) :   1.0065 B(  2-C , 18-H ) :   0.1285 B(  5-S , 13-O ) :   1.4610
B(  5-S , 14-O ) :   1.6436 B(  5-S , 22-F ) :   0.6654 B(  6-C ,  7-C ) :   2.3066
B(  6-C ,  8-N ) :   1.0066 B(  6-C , 11-H ) :   0.1041 B(  6-C , 12-H ) :   0.3235
B(  6-C , 27-H ) :   0.2251 B(  6-C , 28-H ) :   0.2056 B(  7-C ,  8-N ) :   0.3182
B(  7-C , 11-H ) :   0.6093 B(  7-C , 12-H ) :   0.5604 B(  8-N ,  9-H ) :   0.8975
B(  8-N , 10-H ) :   0.9709 B(  8-N , 11-H ) :   0.1494 B(  9-H , 10-H ) :  -0.1427
B( 10-H , 13-O ) :   0.1062 B( 12-H , 13-O ) :   0.2349 B( 15-C , 19-C ) :   1.2576
B( 15-C , 20-H ) :   0.7432 B( 15-C , 21-H ) :   0.8749 B( 15-C , 23-H ) :   0.1500
B( 15-C , 27-H ) :   0.1093 B( 16-C , 17-H ) :   0.2311 B( 16-C , 19-C ) :   1.2540
B( 16-C , 23-H ) :   0.1324 B( 16-C , 24-H ) :   0.1641 B( 16-C , 25-H ) :   0.9277
B( 16-C , 26-H ) :   0.7742 B( 19-C , 20-H ) :   0.2340 B( 19-C , 21-H ) :   0.1601
B( 19-C , 23-H ) :   0.8896 B( 19-C , 24-H ) :   0.8687 B( 19-C , 25-H ) :   0.1419
B( 19-C , 26-H ) :   0.1987 B( 20-H , 21-H ) :  -0.1061

FINAL SINGLE POINT ENERGY     -1014.828425044631

DIPOLE MOMENT
-------------
                                X             Y             Z
Electronic contribution:     -1.80423      -5.96983     -18.94044
Nuclear contribution   :     -0.26930       7.11259      19.56706
                        -----------------------------------------
Total Dipole Moment    :     -2.07353       1.14275       0.62662
                        -----------------------------------------
Magnitude (a.u.)       :      2.44910
Magnitude (Debye)      :      6.22511

Rotational constants in cm-1:     0.036519     0.018683     0.015073
Rotational constants in MHz :  1094.801738   560.111127   451.890222

                             ****ORCA TERMINATED NORMALLY****
TOTAL RUN TIME: 0 days 0 hours 2 minutes 52 seconds 668 msec
