                         Program Version 5.0.0 -  RELEASE  -
|  1> !LC-PBE RIJCOSX def2-SVPD def2/J TightSCF xyzfile
|  2>
|  3> *xyzfile 0 1 D6.xyz
|  4>
|  5> %MaxCore 64000
|  6>
|  7> %pal nprocs 4
|  8> end
|  9>
| 10> %scf
| 11>   MaxIter 150
| 12> end
| 13>
| 14>
| 15>                          ****END OF INPUT****

CARTESIAN COORDINATES (ANGSTROEM)
---------------------------------
  C      2.916324   -1.242589   -1.543125
  C      0.704661    1.443129   -4.503630
  C      1.728539    1.424320   -5.639443
  H      2.646718    1.953794   -5.381054
  H      1.299916    1.930613   -6.503614
  S      2.252625   -0.188115   -6.271840
  C      3.466585   -1.590971   -2.889082
  N      4.652275   -1.143164   -3.259692
  C      2.752264   -2.292043   -3.728029
  H      1.778364   -2.489604   -3.512738
  H      2.948612   -2.208544   -4.716813
  H      5.146723   -0.512508   -2.633852
  H      4.783030   -1.007203   -4.253498
  O      3.562607   -0.444464   -5.631552
  O      2.344944   -0.033742   -7.696501
  C      2.804084    0.290698   -1.359243
  C      1.052550    0.695659   -3.214915
  H     -0.232483    1.032925   -4.884449
  H      0.511700    2.495794   -4.267966
  C      2.388380    1.093669   -2.597108
  H      3.763425    0.674718   -0.999889
  H      2.094788    0.461222   -0.545756
  F      1.266058   -1.159177   -5.805365
  H      3.167316    1.013242   -3.359430
  H      2.357690    2.149375   -2.310997
  H      1.039284   -0.368429   -3.449329
  H      0.250787    0.865605   -2.488283
  H      1.940472   -1.716529   -1.441161
  H      3.558569   -1.663433   -0.766371

 Total Charge           Charge          ....    0
 Multiplicity           Mult            ....    1
 Number of Electrons    NEL             ....  112
 Basis Dimension        Dim             ....  404

ORBITAL ENERGIES
----------------

  NO   OCC          E(Eh)            E(eV)
   0   2.0000     -88.583966     -2410.4923
   1   2.0000     -24.625207      -670.0859
   2   2.0000     -19.018275      -517.5136
   3   2.0000     -19.004389      -517.1357
   4   2.0000     -14.208078      -386.6215
   5   2.0000     -10.197533      -277.4890
   6   2.0000     -10.164649      -276.5942
   7   2.0000     -10.142855      -276.0011
   8   2.0000     -10.137940      -275.8674
   9   2.0000     -10.134866      -275.7837
  10   2.0000     -10.132473      -275.7186
  11   2.0000     -10.125821      -275.5376
  12   2.0000     -10.048506      -273.4338
  13   2.0000      -8.204756      -223.2628
  14   2.0000      -6.231913      -169.5790
  15   2.0000      -6.224960      -169.3898
  16   2.0000      -6.223318      -169.3451
  17   2.0000      -1.530043       -41.6346
  18   2.0000      -1.292181       -35.1620
  19   2.0000      -1.182677       -32.1823
  20   2.0000      -1.086550       -29.5665
  21   2.0000      -1.023109       -27.8402
  22   2.0000      -0.975616       -26.5479
  23   2.0000      -0.928737       -25.2722
  24   2.0000      -0.897820       -24.4309
  25   2.0000      -0.872384       -23.7388
  26   2.0000      -0.844438       -22.9783
  27   2.0000      -0.796161       -21.6647
  28   2.0000      -0.759711       -20.6728
  29   2.0000      -0.744479       -20.2583
  30   2.0000      -0.731322       -19.9003
  31   2.0000      -0.714785       -19.4503
  32   2.0000      -0.690898       -18.8003
  33   2.0000      -0.657625       -17.8949
  34   2.0000      -0.647826       -17.6283
  35   2.0000      -0.644548       -17.5390
  36   2.0000      -0.627894       -17.0859
  37   2.0000      -0.614498       -16.7213
  38   2.0000      -0.605006       -16.4630
  39   2.0000      -0.589332       -16.0365
  40   2.0000      -0.581932       -15.8352
  41   2.0000      -0.556345       -15.1389
  42   2.0000      -0.548326       -14.9207
  43   2.0000      -0.535670       -14.5763
  44   2.0000      -0.524487       -14.2720
  45   2.0000      -0.518784       -14.1168
  46   2.0000      -0.501256       -13.6399
  47   2.0000      -0.496025       -13.4975
  48   2.0000      -0.486261       -13.2318
  49   2.0000      -0.469604       -12.7786
  50   2.0000      -0.463023       -12.5995
  51   2.0000      -0.454918       -12.3789
  52   2.0000      -0.451738       -12.2924
  53   2.0000      -0.441158       -12.0045
  54   2.0000      -0.436879       -11.8881
  55   2.0000      -0.304830        -8.2949
  56   0.0000       0.063012         1.7146
  57   0.0000       0.080790         2.1984
  58   0.0000       0.087410         2.3785
  59   0.0000       0.090215         2.4549
  60   0.0000       0.104667         2.8481

MULLIKEN ATOMIC CHARGES
-----------------------
   0 C :    0.271033
   1 C :    0.269670
   2 C :   -0.067521
   3 H :    0.228403
   4 H :   -0.055266
   5 S :    1.265983
   6 C :   -0.668631
   7 N :    0.303177
   8 C :    0.594311
   9 H :   -0.013382
  10 H :   -0.460702
  11 H :    0.044667
  12 H :   -0.204188
  13 O :   -0.646554
  14 O :   -0.584634
  15 C :    0.297890
  16 C :    0.152832
  17 H :    0.079540
  18 H :    0.049145
  19 C :   -0.211219
  20 H :    0.056355
  21 H :   -0.034033
  22 F :   -0.425392
  23 H :    0.050555
  24 H :   -0.126804
  25 H :   -0.380416
  26 H :    0.024311
  27 H :    0.334221
  28 H :   -0.143349
Sum of atomic charges:    0.0000000

LOEWDIN ATOMIC CHARGES
----------------------
   0 C :    0.003385
   1 C :   -0.055094
   2 C :   -0.044011
   3 H :    0.039870
   4 H :    0.031485
   5 S :    1.138963
   6 C :   -0.263115
   7 N :    0.184844
   8 C :    0.134239
   9 H :   -0.060570
  10 H :   -0.112265
  11 H :    0.015505
  12 H :   -0.045785
  13 O :   -0.474039
  14 O :   -0.441165
  15 C :   -0.034745
  16 C :   -0.037993
  17 H :    0.039966
  18 H :    0.046935
  19 C :   -0.043589
  20 H :    0.026520
  21 H :    0.030351
  22 F :   -0.236472
  23 H :    0.007238
  24 H :    0.038313
  25 H :   -0.003161
  26 H :    0.045660
  27 H :    0.032671
  28 H :    0.036061

  Mayer bond orders larger than 0.100000
B(  0-C ,  6-C ) :   1.3862 B(  0-C , 15-C ) :   1.1546 B(  0-C , 20-H ) :   0.1030
B(  0-C , 21-H ) :   0.1720 B(  0-C , 27-H ) :   0.7933 B(  0-C , 28-H ) :   0.6815
B(  1-C ,  2-C ) :   1.2464 B(  1-C ,  4-H ) :   0.1853 B(  1-C , 16-C ) :   1.2620
B(  1-C , 17-H ) :   0.7338 B(  1-C , 18-H ) :   0.7971 B(  2-C ,  3-H ) :   0.8650
B(  2-C ,  4-H ) :   0.9361 B(  2-C ,  5-S ) :   0.9956 B(  2-C , 18-H ) :   0.1250
B(  5-S , 13-O ) :   1.4474 B(  5-S , 14-O ) :   1.6334 B(  5-S , 22-F ) :   0.6965
B(  6-C ,  7-N ) :   1.0038 B(  6-C ,  8-C ) :   2.2074 B(  6-C , 10-H ) :   0.4698
B(  6-C , 15-C ) :   0.1600 B(  6-C , 28-H ) :   0.3444 B(  7-N ,  8-C ) :   0.3860
B(  7-N ,  9-H ) :   0.1316 B(  7-N , 11-H ) :   0.9437 B(  7-N , 12-H ) :   0.9348
B(  8-C ,  9-H ) :   0.6153 B(  8-C , 10-H ) :   0.1936 B( 10-H , 12-H ) :   0.1393
B( 11-H , 12-H ) :  -0.1504 B( 12-H , 13-O ) :   0.1130 B( 15-C , 19-C ) :   1.2441
B( 15-C , 20-H ) :   0.7265 B( 15-C , 21-H ) :   0.8490 B( 15-C , 27-H ) :   0.1013
B( 16-C , 17-H ) :   0.2246 B( 16-C , 19-C ) :   1.2725 B( 16-C , 23-H ) :   0.1162
B( 16-C , 24-H ) :   0.1548 B( 16-C , 25-H ) :   0.9736 B( 16-C , 26-H ) :   0.7378
B( 19-C , 20-H ) :   0.2372 B( 19-C , 21-H ) :   0.1518 B( 19-C , 23-H ) :   0.9023
B( 19-C , 24-H ) :   0.9087 B( 19-C , 25-H ) :   0.1494 B( 19-C , 26-H ) :   0.1764
B( 20-H , 21-H ) :  -0.1109

FINAL SINGLE POINT ENERGY     -1014.838898779562

DIPOLE MOMENT
-------------
                                X             Y             Z
Electronic contribution:     -0.52344      -5.25276     -18.58210
Nuclear contribution   :     -0.51418       6.96452      19.50670
                        -----------------------------------------
Total Dipole Moment    :     -1.03762       1.71176       0.92460
                        -----------------------------------------
Magnitude (a.u.)       :      2.20492
Magnitude (Debye)      :      5.60446

Rotational constants in cm-1:     0.036455     0.018603     0.015008
Rotational constants in MHz :  1092.895336   557.693628   449.926016

                             ****ORCA TERMINATED NORMALLY****
TOTAL RUN TIME: 0 days 0 hours 2 minutes 54 seconds 823 msec
