                         Program Version 5.0.0 -  RELEASE  -
|  1> !LC-PBE RIJCOSX def2-SVP def2/J TightSCF
|  2> *xyz -1 1
|  3> C          4.08422        1.74208       -2.11472
|  4> C          4.26524        2.50052       -0.79589
|  5> H          4.86853        3.39267       -0.98113
|  6> H          3.30764        2.82457       -0.38781
|  7> C          4.98224        1.65026        0.24742
|  8> O          4.36806        1.38927        1.31371
|  9> O          6.12892        1.23351       -0.04562
| 10> H          3.57911        2.36849       -2.81997
| 11> H          3.50424        0.85965       -1.94198
| 12> H          5.04288        1.46841       -2.50327
| 13> *
| 14> %MaxCore 64000
| 15> %pal nprocs 8
| 16> end
| 17> %scf
| 18>   MaxIter 150
| 19> end
| 20>
| 21>
| 22>                          ****END OF INPUT****

CARTESIAN COORDINATES (ANGSTROEM)
---------------------------------
  C      4.084220    1.742080   -2.114720
  C      4.265240    2.500520   -0.795890
  H      4.868530    3.392670   -0.981130
  H      3.307640    2.824570   -0.387810
  C      4.982240    1.650260    0.247420
  O      4.368060    1.389270    1.313710
  O      6.128920    1.233510   -0.045620
  H      3.579110    2.368490   -2.819970
  H      3.504240    0.859650   -1.941980
  H      5.042880    1.468410   -2.503270

 Total Charge           Charge          ....   -1
 Multiplicity           Mult            ....    1
 Number of Electrons    NEL             ....   40
 Basis Dimension        Dim             ....   95

ORBITAL ENERGIES
----------------

  NO   OCC          E(Eh)            E(eV)
   0   2.0000     -18.684324      -508.4263
   1   2.0000     -18.683492      -508.4037
   2   2.0000      -9.984061      -271.6801
   3   2.0000      -9.957489      -270.9570
   4   2.0000      -9.937354      -270.4092
   5   2.0000      -0.945631       -25.7319
   6   2.0000      -0.840251       -22.8644
   7   2.0000      -0.766351       -20.8535
   8   2.0000      -0.621737       -16.9183
   9   2.0000      -0.453934       -12.3522
  10   2.0000      -0.428137       -11.6502
  11   2.0000      -0.381269       -10.3748
  12   2.0000      -0.355326        -9.6689
  13   2.0000      -0.335400        -9.1267
  14   2.0000      -0.326439        -8.8829
  15   2.0000      -0.289893        -7.8884
  16   2.0000      -0.278968        -7.5911
  17   2.0000      -0.142501        -3.8777
  18   2.0000      -0.141204        -3.8424
  19   2.0000      -0.128444        -3.4951
  20   0.0000       0.305911         8.3242
  21   0.0000       0.358486         9.7549
  22   0.0000       0.373346        10.1593
  23   0.0000       0.374437        10.1890
  24   0.0000       0.384134        10.4528

MULLIKEN ATOMIC CHARGES
-----------------------
   0 C :   -0.124831
   1 C :   -0.121482
   2 H :    0.014997
   3 H :    0.005735
   4 C :    0.006108
   5 O :   -0.429830
   6 O :   -0.435660
   7 H :    0.001367
   8 H :    0.036049
   9 H :    0.047546
Sum of atomic charges:   -1.0000000

LOEWDIN ATOMIC CHARGES
----------------------
   0 C :   -0.095313
   1 C :   -0.118265
   2 H :    0.018196
   3 H :    0.011226
   4 C :   -0.061835
   5 O :   -0.403545
   6 O :   -0.406443
   7 H :    0.005996
   8 H :    0.023685
   9 H :    0.026297

  Mayer bond orders larger than 0.100000
B(  0-C ,  1-C ) :   1.0710 B(  0-C ,  7-H ) :   0.9781 B(  0-C ,  8-H ) :   0.9784
B(  0-C ,  9-H ) :   0.9681 B(  1-C ,  2-H ) :   0.9541 B(  1-C ,  3-H ) :   0.9566
B(  1-C ,  4-C ) :   0.9170 B(  4-C ,  5-O ) :   1.8958 B(  4-C ,  6-O ) :   1.8572
B(  5-O ,  6-O ) :   0.1061

FINAL SINGLE POINT ENERGY      -266.832811905746

DIPOLE MOMENT
-------------
                                X             Y             Z
Electronic contribution:      2.46449      -1.51270       5.16631
Nuclear contribution   :     -3.31311       2.28398      -6.76358
                        -----------------------------------------
Total Dipole Moment    :     -0.84862       0.77129      -1.59727
                        -----------------------------------------
Magnitude (a.u.)       :      1.96629
Magnitude (Debye)      :      4.99792

Rotational constants in cm-1:     0.309287     0.135287     0.107346
Rotational constants in MHz :  9272.201029  4055.789113  3218.155789

                             ****ORCA TERMINATED NORMALLY****
TOTAL RUN TIME: 0 days 0 hours 0 minutes 10 seconds 926 msec
