                         Program Version 5.0.0 -  RELEASE  -
|  1> !LC-PBE RIJCOSX def2-SVP def2/J TightSCF
|  2> *xyz 1 1
|  3> C          3.91385       -1.65829        3.01513
|  4> N          5.03927       -0.90115        2.49282
|  5> C          6.21038       -1.41726        2.17824
|  6> N          6.53591       -2.67712        2.55608
|  7> N          7.07675       -0.70082        1.47891
|  8> H          7.95464       -1.12155        1.20755
|  9> H          6.75616        0.10664        0.96028
| 10> H          4.84217        0.01761        2.11519
| 11> H          5.99388       -3.12692        3.28278
| 12> C          3.13916       -2.37657        1.91061
| 13> H          3.26723       -0.93940        3.52069
| 14> H          4.24720       -2.35509        3.79006
| 15> H          7.49844       -2.97548        2.46878
| 16> H          2.82969       -1.66654        1.17238
| 17> H          2.27790       -2.85264        2.33072
| 18> H          3.76754       -3.11338        1.45548
| 19> *
| 20> %MaxCore 64000
| 21> %pal nprocs 8
| 22> end
| 23> %scf
| 24>   MaxIter 150
| 25> end
| 26>
| 27>
| 28>                          ****END OF INPUT****

CARTESIAN COORDINATES (ANGSTROEM)
---------------------------------
  C      3.913850   -1.658290    3.015130
  N      5.039270   -0.901150    2.492820
  C      6.210380   -1.417260    2.178240
  N      6.535910   -2.677120    2.556080
  N      7.076750   -0.700820    1.478910
  H      7.954640   -1.121550    1.207550
  H      6.756160    0.106640    0.960280
  H      4.842170    0.017610    2.115190
  H      5.993880   -3.126920    3.282780
  C      3.139160   -2.376570    1.910610
  H      3.267230   -0.939400    3.520690
  H      4.247200   -2.355090    3.790060
  H      7.498440   -2.975480    2.468780
  H      2.829690   -1.666540    1.172380
  H      2.277900   -2.852640    2.330720
  H      3.767540   -3.113380    1.455480

 Total Charge           Charge          ....    1
 Multiplicity           Mult            ....    1
 Number of Electrons    NEL             ....   48
 Basis Dimension        Dim             ....  134

ORBITAL ENERGIES
----------------

  NO   OCC          E(Eh)            E(eV)
   0   2.0000     -14.455199      -393.3460
   1   2.0000     -14.453016      -393.2865
   2   2.0000     -14.449606      -393.1938
   3   2.0000     -10.471287      -284.9382
   4   2.0000     -10.334305      -281.2107
   5   2.0000     -10.259608      -279.1781
   6   2.0000      -1.390921       -37.8489
   7   2.0000      -1.272714       -34.6323
   8   2.0000      -1.252458       -34.0811
   9   2.0000      -1.098874       -29.9019
  10   2.0000      -0.997258       -27.1368
  11   2.0000      -0.957963       -26.0675
  12   2.0000      -0.940101       -25.5814
  13   2.0000      -0.893294       -24.3078
  14   2.0000      -0.836352       -22.7583
  15   2.0000      -0.827103       -22.5066
  16   2.0000      -0.804373       -21.8881
  17   2.0000      -0.777288       -21.1511
  18   2.0000      -0.742854       -20.2141
  19   2.0000      -0.701663       -19.0932
  20   2.0000      -0.664073       -18.0704
  21   2.0000      -0.641226       -17.4487
  22   2.0000      -0.611017       -16.6266
  23   2.0000      -0.577822       -15.7233
  24   0.0000      -0.065307        -1.7771
  25   0.0000      -0.040841        -1.1114
  26   0.0000      -0.009723        -0.2646
  27   0.0000       0.001001         0.0272
  28   0.0000       0.022975         0.6252

MULLIKEN ATOMIC CHARGES
-----------------------
   0 C :   -0.106683
   1 N :   -0.160577
   2 C :    0.105987
   3 N :   -0.132224
   4 N :   -0.098208
   5 H :    0.201857
   6 H :    0.203650
   7 H :    0.197323
   8 H :    0.197978
   9 C :   -0.121146
  10 H :    0.125948
  11 H :    0.104378
  12 H :    0.199085
  13 H :    0.088205
  14 H :    0.115012
  15 H :    0.079415
Sum of atomic charges:    1.0000000

LOEWDIN ATOMIC CHARGES
----------------------
   0 C :    0.010700
   1 N :    0.025642
   2 C :    0.158927
   3 N :    0.013540
   4 N :    0.031392
   5 H :    0.119645
   6 H :    0.120442
   7 H :    0.117157
   8 H :    0.113472
   9 C :   -0.083706
  10 H :    0.063059
  11 H :    0.045506
  12 H :    0.117590
  13 H :    0.045925
  14 H :    0.060369
  15 H :    0.040339

  Mayer bond orders larger than 0.100000
B(  0-C ,  1-N ) :   0.9223 B(  0-C ,  9-C ) :   1.0605 B(  0-C , 10-H ) :   0.9513
B(  0-C , 11-H ) :   0.9605 B(  1-N ,  2-C ) :   1.3963 B(  1-N ,  7-H ) :   0.9078
B(  2-C ,  3-N ) :   1.3693 B(  2-C ,  4-N ) :   1.4019 B(  3-N ,  8-H ) :   0.9206
B(  3-N , 12-H ) :   0.9235 B(  4-N ,  5-H ) :   0.9232 B(  4-N ,  6-H ) :   0.9217
B(  9-C , 13-H ) :   0.9703 B(  9-C , 14-H ) :   0.9665 B(  9-C , 15-H ) :   0.9695

FINAL SINGLE POINT ENERGY      -283.295791901965

DIPOLE MOMENT
-------------
                                X             Y             Z
Electronic contribution:      4.79777       1.93182       0.06010
Nuclear contribution   :     -3.67981      -1.62355      -0.28562
                        -----------------------------------------
Total Dipole Moment    :      1.11796       0.30827      -0.22552
                        -----------------------------------------
Magnitude (a.u.)       :      1.18140
Magnitude (Debye)      :      3.00289

Rotational constants in cm-1:     0.222027     0.074735     0.065694
Rotational constants in MHz :  6656.200457  2240.503315  1969.451902

                             ****ORCA TERMINATED NORMALLY****
TOTAL RUN TIME: 0 days 0 hours 0 minutes 17 seconds 500 msec
