                         Program Version 5.0.0 -  RELEASE  -
|  1> !LC-PBE RIJCOSX def2-TZVP def2/J TightSCF xyzfile
|  2>
|  3> *xyzfile 0 1 B.xyz
|  4>
|  5> %MaxCore 64000
|  6>
|  7> %pal nprocs 18
|  8> end
|  9>
| 10> %scf
| 11>   MaxIter 150
| 12> end
| 13>
| 14>
| 15>                          ****END OF INPUT****

CARTESIAN COORDINATES (ANGSTROEM)
---------------------------------
  C      3.913853   -1.658291    3.015134
  N      5.039266   -0.901154    2.492821
  C      4.084215    1.742081   -2.114724
  C      4.265245    2.500518   -0.795890
  H      4.868534    3.392674   -0.981134
  H      3.307640    2.824571   -0.387809
  C      4.982240    1.650257    0.247422
  C      6.210384   -1.417261    2.178244
  N      6.535913   -2.677122    2.556078
  N      7.076754   -0.700820    1.478906
  H      7.954643   -1.121554    1.207554
  H      6.756161    0.106637    0.960278
  H      4.842168    0.017609    2.115191
  H      5.993876   -3.126918    3.282784
  H      7.498441   -2.975482    2.468776
  O      4.368065    1.389270    1.313706
  O      6.128919    1.233512   -0.045620
  C      3.139159   -2.376572    1.910609
  H      3.267235   -0.939401    3.520693
  H      4.247195   -2.355095    3.790065
  C      1.997274    0.430918   -1.399218
  C      3.412746    0.376886   -1.965497
  H      4.047407   -0.246590   -1.326706
  H      3.390774   -0.118719   -2.942839
  H      5.068475    1.598504   -2.565728
  H      3.503356    2.363939   -2.804565
  C      2.399946   -1.389579    1.009490
  H      2.440750   -3.087118    2.362976
  H      3.844475   -2.970462    1.318677
  C      2.070177   -1.936705   -0.372401
  H      1.481611   -1.061542    1.509912
  H      3.008628   -0.490001    0.897451
  C      1.322238   -0.935775   -1.256413
  H      1.472747   -2.850902   -0.283997
  H      3.003539   -2.234041   -0.862535
  H      1.376444    1.058920   -2.047420
  H      2.015341    0.929780   -0.426535
  H      0.316648   -0.787213   -0.848278
  H      1.185611   -1.379252   -2.248613

 Total Charge           Charge          ....    0
 Multiplicity           Mult            ....    1
 Number of Electrons    NEL             ....  126
 Basis Dimension        Dim             ....  634

ORBITAL ENERGIES
----------------

  NO   OCC          E(Eh)            E(eV)
   0   2.0000     -18.893957      -514.1307
   1   2.0000     -18.892457      -514.0899
   2   2.0000     -14.281414      -388.6170
   3   2.0000     -14.247846      -387.7036
   4   2.0000     -14.239689      -387.4816
   5   2.0000     -10.283371      -279.8248
   6   2.0000     -10.178914      -276.9823
   7   2.0000     -10.172903      -276.8188
   8   2.0000     -10.122205      -275.4392
   9   2.0000     -10.099719      -274.8273
  10   2.0000     -10.099016      -274.8082
  11   2.0000     -10.095710      -274.7182
  12   2.0000     -10.086345      -274.4634
  13   2.0000     -10.084881      -274.4236
  14   2.0000     -10.084637      -274.4169
  15   2.0000     -10.075723      -274.1744
  16   2.0000      -1.222978       -33.2789
  17   2.0000      -1.176957       -32.0266
  18   2.0000      -1.107481       -30.1361
  19   2.0000      -1.090081       -29.6626
  20   2.0000      -1.071945       -29.1691
  21   2.0000      -0.993139       -27.0247
  22   2.0000      -0.966325       -26.2950
  23   2.0000      -0.935119       -25.4459
  24   2.0000      -0.890111       -24.2212
  25   2.0000      -0.848437       -23.0871
  26   2.0000      -0.824515       -22.4362
  27   2.0000      -0.794608       -21.6224
  28   2.0000      -0.772829       -21.0297
  29   2.0000      -0.761418       -20.7192
  30   2.0000      -0.733236       -19.9524
  31   2.0000      -0.721596       -19.6356
  32   2.0000      -0.694575       -18.9004
  33   2.0000      -0.668248       -18.1839
  34   2.0000      -0.665678       -18.1140
  35   2.0000      -0.647119       -17.6090
  36   2.0000      -0.617844       -16.8124
  37   2.0000      -0.615209       -16.7407
  38   2.0000      -0.607171       -16.5220
  39   2.0000      -0.599899       -16.3241
  40   2.0000      -0.585661       -15.9366
  41   2.0000      -0.568551       -15.4711
  42   2.0000      -0.563499       -15.3336
  43   2.0000      -0.557518       -15.1708
  44   2.0000      -0.547168       -14.8892
  45   2.0000      -0.541167       -14.7259
  46   2.0000      -0.523143       -14.2354
  47   2.0000      -0.509756       -13.8712
  48   2.0000      -0.499575       -13.5941
  49   2.0000      -0.488497       -13.2927
  50   2.0000      -0.479224       -13.0404
  51   2.0000      -0.470733       -12.8093
  52   2.0000      -0.455954       -12.4071
  53   2.0000      -0.448895       -12.2150
  54   2.0000      -0.443463       -12.0672
  55   2.0000      -0.436943       -11.8898
  56   2.0000      -0.423732       -11.5303
  57   2.0000      -0.418676       -11.3928
  58   2.0000      -0.411113       -11.1870
  59   2.0000      -0.401782       -10.9330
  60   2.0000      -0.362178        -9.8554
  61   2.0000      -0.352254        -9.5853
  62   2.0000      -0.349536        -9.5114
  63   0.0000       0.074789         2.0351
  64   0.0000       0.095819         2.6074
  65   0.0000       0.106980         2.9111
  66   0.0000       0.125923         3.4266
  67   0.0000       0.138673         3.7735

MULLIKEN ATOMIC CHARGES
-----------------------
   0 C :   -0.309106
   1 N :   -0.210599
   2 C :   -0.258193
   3 C :   -0.300488
   4 H :    0.147763
   5 H :    0.162896
   6 C :    0.283781
   7 C :    0.346617
   8 N :   -0.472192
   9 N :   -0.403397
  10 H :    0.250369
  11 H :    0.301498
  12 H :    0.290274
  13 H :    0.276939
  14 H :    0.268499
  15 O :   -0.526395
  16 O :   -0.514109
  17 C :   -0.246267
  18 H :    0.193931
  19 H :    0.151961
  20 C :   -0.367662
  21 C :   -0.331761
  22 H :    0.165456
  23 H :    0.143171
  24 H :    0.155515
  25 H :    0.135059
  26 C :   -0.306908
  27 H :    0.152316
  28 H :    0.159651
  29 C :   -0.345678
  30 H :    0.149912
  31 H :    0.159067
  32 C :   -0.250253
  33 H :    0.144920
  34 H :    0.165714
  35 H :    0.147136
  36 H :    0.197779
  37 H :    0.146861
  38 H :    0.145926
Sum of atomic charges:   -0.0000000

LOEWDIN ATOMIC CHARGES
----------------------
   0 C :   -0.292564
   1 N :    0.177056
   2 C :   -0.283300
   3 C :   -0.254133
   4 H :    0.151338
   5 H :    0.144766
   6 C :   -0.643596
   7 C :   -0.423950
   8 N :   -0.000300
   9 N :    0.054363
  10 H :    0.180577
  11 H :    0.154197
  12 H :    0.175957
  13 H :    0.183465
  14 H :    0.183910
  15 O :   -0.062301
  16 O :   -0.049112
  17 C :   -0.284536
  18 H :    0.157663
  19 H :    0.131264
  20 C :   -0.287834
  21 C :   -0.285910
  22 H :    0.147557
  23 H :    0.142062
  24 H :    0.148758
  25 H :    0.140429
  26 C :   -0.284569
  27 H :    0.145287
  28 H :    0.147109
  29 C :   -0.292366
  30 H :    0.146763
  31 H :    0.154228
  32 C :   -0.286947
  33 H :    0.141379
  34 H :    0.143534
  35 H :    0.143562
  36 H :    0.149861
  37 H :    0.143340
  38 H :    0.142994

  Mayer bond orders larger than 0.100000
B(  0-C ,  1-N ) :   0.9217 B(  0-C , 17-C ) :   0.9005 B(  0-C , 18-H ) :   0.9689
B(  0-C , 19-H ) :   1.0087 B(  1-N ,  7-C ) :   1.4499 B(  1-N , 12-H ) :   0.7686
B(  2-C ,  3-C ) :   0.9261 B(  2-C , 21-C ) :   0.9668 B(  2-C , 24-H ) :   0.9766
B(  2-C , 25-H ) :   0.9790 B(  3-C ,  4-H ) :   0.9670 B(  3-C ,  5-H ) :   0.9950
B(  3-C ,  6-C ) :   0.9301 B(  6-C , 15-O ) :   1.6499 B(  6-C , 16-O ) :   1.6789
B(  7-C ,  8-N ) :   1.2296 B(  7-C ,  9-N ) :   1.4100 B(  8-N , 13-H ) :   0.9004
B(  8-N , 14-H ) :   0.9121 B(  9-N , 10-H ) :   0.9190 B(  9-N , 11-H ) :   0.7523
B( 11-H , 16-O ) :   0.2202 B( 12-H , 15-O ) :   0.2094 B( 17-C , 26-C ) :   0.9082
B( 17-C , 27-H ) :   0.9734 B( 17-C , 28-H ) :   0.9864 B( 20-C , 21-C ) :   0.8900
B( 20-C , 32-C ) :   0.9356 B( 20-C , 35-H ) :   0.9764 B( 20-C , 36-H ) :   0.9772
B( 21-C , 22-H ) :   0.9708 B( 21-C , 23-H ) :   0.9777 B( 26-C , 29-C ) :   0.9063
B( 26-C , 30-H ) :   0.9721 B( 26-C , 31-H ) :   0.9740 B( 29-C , 32-C ) :   0.9513
B( 29-C , 33-H ) :   0.9832 B( 29-C , 34-H ) :   0.9845 B( 32-C , 37-H ) :   0.9928
B( 32-C , 38-H ) :   0.9901

FINAL SINGLE POINT ENERGY      -745.699888546283

DIPOLE MOMENT
-------------
                                X             Y             Z
Electronic contribution:     12.31886       3.24293       7.68331
Nuclear contribution   :    -11.44764      -6.21818      -6.18483
                        -----------------------------------------
Total Dipole Moment    :      0.87122      -2.97525       1.49848
                        -----------------------------------------
Magnitude (a.u.)       :      3.44334
Magnitude (Debye)      :      8.75227

Rotational constants in cm-1:     0.020281     0.013510     0.009451
Rotational constants in MHz :   608.005987   405.034308   283.324538

                             ****ORCA TERMINATED NORMALLY****
TOTAL RUN TIME: 0 days 0 hours 1 minutes 39 seconds 114 msec
