                         Program Version 5.0.0 -  RELEASE  -
|  1> !LC-PBE RIJCOSX def2-SVP def2/J TightSCF
|  2> *xyz 0 1
|  3> C          4.08422        1.74208       -2.11472
|  4> C          4.26524        2.50052       -0.79589
|  5> H          4.86853        3.39267       -0.98113
|  6> H          3.30764        2.82457       -0.38781
|  7> C          4.98224        1.65026        0.24742
|  8> F          4.36806        1.38927        1.31371
|  9> O          6.12892        1.23351       -0.04562
| 10> H          3.57911        2.36849       -2.81997
| 11> H          3.50424        0.85965       -1.94198
| 12> H          5.04288        1.46841       -2.50327
| 13> *
| 14> %MaxCore 64000
| 15> %pal nprocs 8
| 16> end
| 17> %scf
| 18>   MaxIter 150
| 19> end
| 20>
| 21>
| 22>                          ****END OF INPUT****

CARTESIAN COORDINATES (ANGSTROEM)
---------------------------------
  C      4.084220    1.742080   -2.114720
  C      4.265240    2.500520   -0.795890
  H      4.868530    3.392670   -0.981130
  H      3.307640    2.824570   -0.387810
  C      4.982240    1.650260    0.247420
  F      4.368060    1.389270    1.313710
  O      6.128920    1.233510   -0.045620
  H      3.579110    2.368490   -2.819970
  H      3.504240    0.859650   -1.941980
  H      5.042880    1.468410   -2.503270

 Total Charge           Charge          ....    0
 Multiplicity           Mult            ....    1
 Number of Electrons    NEL             ....   40
 Basis Dimension        Dim             ....   95

ORBITAL ENERGIES
----------------

  NO   OCC          E(Eh)            E(eV)
   0   2.0000     -24.563324      -668.4020
   1   2.0000     -18.988028      -516.6905
   2   2.0000     -10.305068      -280.4152
   3   2.0000     -10.156454      -276.3712
   4   2.0000     -10.131238      -275.6850
   5   2.0000      -1.454008       -39.5656
   6   2.0000      -1.183252       -32.1979
   7   2.0000      -0.972515       -26.4635
   8   2.0000      -0.844847       -22.9895
   9   2.0000      -0.788384       -21.4530
  10   2.0000      -0.700309       -19.0564
  11   2.0000      -0.683200       -18.5908
  12   2.0000      -0.650886       -17.7115
  13   2.0000      -0.608469       -16.5573
  14   2.0000      -0.572408       -15.5760
  15   2.0000      -0.535486       -14.5713
  16   2.0000      -0.511893       -13.9293
  17   2.0000      -0.505083       -13.7440
  18   2.0000      -0.476160       -12.9570
  19   2.0000      -0.423653       -11.5282
  20   0.0000       0.077980         2.1219
  21   0.0000       0.155085         4.2201
  22   0.0000       0.199078         5.4172
  23   0.0000       0.202526         5.5110
  24   0.0000       0.222725         6.0606

MULLIKEN ATOMIC CHARGES
-----------------------
   0 C :   -0.138018
   1 C :   -0.201961
   2 H :    0.112955
   3 H :    0.079493
   4 C :    0.218912
   5 F :   -0.058552
   6 O :   -0.250759
   7 H :    0.074688
   8 H :    0.070798
   9 H :    0.092443
Sum of atomic charges:   -0.0000000

LOEWDIN ATOMIC CHARGES
----------------------
   0 C :   -0.072897
   1 C :   -0.100848
   2 H :    0.063799
   3 H :    0.040977
   4 C :    0.094144
   5 F :    0.050181
   6 O :   -0.198288
   7 H :    0.040142
   8 H :    0.037942
   9 H :    0.044848

  Mayer bond orders larger than 0.100000
B(  0-C ,  1-C ) :   1.0657 B(  0-C ,  7-H ) :   0.9753 B(  0-C ,  8-H ) :   0.9790
B(  0-C ,  9-H ) :   0.9699 B(  1-C ,  2-H ) :   0.9409 B(  1-C ,  3-H ) :   0.9497
B(  1-C ,  4-C ) :   0.9823 B(  4-C ,  5-F ) :   1.2301 B(  4-C ,  6-O ) :   2.0956

FINAL SINGLE POINT ENERGY      -291.359582185065

DIPOLE MOMENT
-------------
                                X             Y             Z
Electronic contribution:      1.93578      -2.04755       8.16224
Nuclear contribution   :     -2.87511       2.61564      -8.50037
                        -----------------------------------------
Total Dipole Moment    :     -0.93932       0.56809      -0.33813
                        -----------------------------------------
Magnitude (a.u.)       :      1.14864
Magnitude (Debye)      :      2.91962

Rotational constants in cm-1:     0.297822     0.128965     0.102219
Rotational constants in MHz :  8928.481997  3866.271686  3064.463504

                             ****ORCA TERMINATED NORMALLY****
TOTAL RUN TIME: 0 days 0 hours 0 minutes 11 seconds 340 msec
