                         Program Version 5.0.0 -  RELEASE  -
|  1> !LC-PBE RIJCOSX def2-SVP def2/J TightSCF
|  2> *xyz 0 1
|  3> C          3.91385       -1.65829        3.01513
|  4> C          5.03927       -0.90115        2.49282
|  5> C          6.21038       -1.41726        2.17824
|  6> N          6.53591       -2.67712        2.55608
|  7> N          7.07675       -0.70082        1.47891
|  8> H          7.95464       -1.12155        1.20755
|  9> H          6.75616        0.10664        0.96028
| 10> H          4.84217        0.01761        2.11519
| 11> H          5.99388       -3.12692        3.28278
| 12> C          3.13916       -2.37657        1.91061
| 13> H          3.26723       -0.93940        3.52069
| 14> H          4.24720       -2.35509        3.79006
| 15> H          7.49844       -2.97548        2.46878
| 16> H          2.82969       -1.66654        1.17238
| 17> H          2.27790       -2.85264        2.33072
| 18> H          3.76754       -3.11338        1.45548
| 19> *
| 20> %MaxCore 64000
| 21> %pal nprocs 8
| 22> end
| 23> %scf
| 24>   MaxIter 150
| 25> end
| 26>
| 27>
| 28>                          ****END OF INPUT****

CARTESIAN COORDINATES (ANGSTROEM)
---------------------------------
  C      3.913850   -1.658290    3.015130
  C      5.039270   -0.901150    2.492820
  C      6.210380   -1.417260    2.178240
  N      6.535910   -2.677120    2.556080
  N      7.076750   -0.700820    1.478910
  H      7.954640   -1.121550    1.207550
  H      6.756160    0.106640    0.960280
  H      4.842170    0.017610    2.115190
  H      5.993880   -3.126920    3.282780
  C      3.139160   -2.376570    1.910610
  H      3.267230   -0.939400    3.520690
  H      4.247200   -2.355090    3.790060
  H      7.498440   -2.975480    2.468780
  H      2.829690   -1.666540    1.172380
  H      2.277900   -2.852640    2.330720
  H      3.767540   -3.113380    1.455480

 Total Charge           Charge          ....    0
 Multiplicity           Mult            ....    1
 Number of Electrons    NEL             ....   48
 Basis Dimension        Dim             ....  134

ORBITAL ENERGIES
----------------

  NO   OCC          E(Eh)            E(eV)
   0   2.0000     -14.220676      -386.9643
   1   2.0000     -14.218661      -386.9094
   2   2.0000     -10.166868      -276.6545
   3   2.0000     -10.096194      -274.7314
   4   2.0000     -10.085416      -274.4381
   5   2.0000     -10.038627      -273.1649
   6   2.0000      -1.122290       -30.5391
   7   2.0000      -1.022274       -27.8175
   8   2.0000      -0.939873       -25.5753
   9   2.0000      -0.850190       -23.1348
  10   2.0000      -0.766586       -20.8599
  11   2.0000      -0.722466       -19.6593
  12   2.0000      -0.682895       -18.5825
  13   2.0000      -0.650453       -17.6997
  14   2.0000      -0.606003       -16.4902
  15   2.0000      -0.574671       -15.6376
  16   2.0000      -0.558764       -15.2047
  17   2.0000      -0.526675       -14.3316
  18   2.0000      -0.513039       -13.9605
  19   2.0000      -0.485400       -13.2084
  20   2.0000      -0.452394       -12.3103
  21   2.0000      -0.440691       -11.9918
  22   2.0000      -0.393955       -10.7201
  23   2.0000      -0.268450        -7.3049
  24   0.0000       0.140865         3.8331
  25   0.0000       0.172028         4.6811
  26   0.0000       0.177625         4.8334
  27   0.0000       0.200190         5.4475
  28   0.0000       0.204381         5.5615

MULLIKEN ATOMIC CHARGES
-----------------------
   0 C :   -0.095639
   1 C :   -0.241691
   2 C :    0.007601
   3 N :   -0.170395
   4 N :   -0.143196
   5 H :    0.129405
   6 H :    0.153454
   7 H :   -0.044073
   8 H :    0.147556
   9 C :   -0.079456
  10 H :    0.045783
  11 H :    0.025058
  12 H :    0.131692
  13 H :    0.044372
  14 H :    0.042801
  15 H :    0.046729
Sum of atomic charges:   -0.0000000

LOEWDIN ATOMIC CHARGES
----------------------
   0 C :   -0.067388
   1 C :   -0.238712
   2 C :    0.030748
   3 N :   -0.055168
   4 N :   -0.039993
   5 H :    0.072883
   6 H :    0.091242
   7 H :    0.000633
   8 H :    0.084614
   9 C :   -0.088293
  10 H :    0.035489
  11 H :    0.019527
  12 H :    0.072825
  13 H :    0.029966
  14 H :    0.023789
  15 H :    0.027839

  Mayer bond orders larger than 0.100000
B(  0-C ,  1-C ) :   1.0540 B(  0-C ,  9-C ) :   1.0607 B(  0-C , 10-H ) :   0.9447
B(  0-C , 11-H ) :   0.9586 B(  1-C ,  2-C ) :   1.7403 B(  1-C ,  7-H ) :   0.9603
B(  2-C ,  3-N ) :   1.2232 B(  2-C ,  4-N ) :   1.2248 B(  3-N ,  8-H ) :   0.9422
B(  3-N , 12-H ) :   0.9517 B(  4-N ,  5-H ) :   0.9537 B(  4-N ,  6-H ) :   0.9425
B(  9-C , 13-H ) :   0.9736 B(  9-C , 14-H ) :   0.9752 B(  9-C , 15-H ) :   0.9765

FINAL SINGLE POINT ENERGY      -266.842393410078

DIPOLE MOMENT
-------------
                                X             Y             Z
Electronic contribution:      4.77020       1.16918      -0.07035
Nuclear contribution   :     -3.74303      -1.46908      -0.23637
                        -----------------------------------------
Total Dipole Moment    :      1.02718      -0.29990      -0.30672
                        -----------------------------------------
Magnitude (a.u.)       :      1.11315
Magnitude (Debye)      :      2.82940

Rotational constants in cm-1:     0.225937     0.074877     0.065953
Rotational constants in MHz :  6773.424301  2244.750632  1977.214101

                             ****ORCA TERMINATED NORMALLY****
TOTAL RUN TIME: 0 days 0 hours 0 minutes 16 seconds 849 msec
