                         Program Version 5.0.0 -  RELEASE  -
|  1> !LC-PBE RIJCOSX def2-SVP def2/J TightSCF
|  2> *xyz 0 1
|  3> C          4.08422        1.74208       -2.11472
|  4> C          4.26524        2.50052       -0.79589
|  5> H          4.86853        3.39267       -0.98113
|  6> H          3.30764        2.82457       -0.38781
|  7> C          4.98224        1.65026        0.24742
|  8> O          4.36806        1.38927        1.31371
|  9> F          6.12892        1.23351       -0.04562
| 10> H          3.57911        2.36849       -2.81997
| 11> H          3.50424        0.85965       -1.94198
| 12> H          5.04288        1.46841       -2.50327
| 13> *
| 14> %MaxCore 64000
| 15> %pal nprocs 8
| 16> end
| 17> %scf
| 18>   MaxIter 150
| 19> end
| 20>
| 21>
| 22>                          ****END OF INPUT****

CARTESIAN COORDINATES (ANGSTROEM)
---------------------------------
  C      4.084220    1.742080   -2.114720
  C      4.265240    2.500520   -0.795890
  H      4.868530    3.392670   -0.981130
  H      3.307640    2.824570   -0.387810
  C      4.982240    1.650260    0.247420
  O      4.368060    1.389270    1.313710
  F      6.128920    1.233510   -0.045620
  H      3.579110    2.368490   -2.819970
  H      3.504240    0.859650   -1.941980
  H      5.042880    1.468410   -2.503270

 Total Charge           Charge          ....    0
 Multiplicity           Mult            ....    1
 Number of Electrons    NEL             ....   40
 Basis Dimension        Dim             ....   95

ORBITAL ENERGIES
----------------

  NO   OCC          E(Eh)            E(eV)
   0   2.0000     -24.565124      -668.4510
   1   2.0000     -18.986917      -516.6603
   2   2.0000     -10.304398      -280.3969
   3   2.0000     -10.155828      -276.3541
   4   2.0000     -10.135953      -275.8133
   5   2.0000      -1.456916       -39.6447
   6   2.0000      -1.179769       -32.1032
   7   2.0000      -0.976847       -26.5813
   8   2.0000      -0.842042       -22.9131
   9   2.0000      -0.794156       -21.6101
  10   2.0000      -0.703591       -19.1457
  11   2.0000      -0.689311       -18.7571
  12   2.0000      -0.643710       -17.5162
  13   2.0000      -0.607949       -16.5431
  14   2.0000      -0.573899       -15.6166
  15   2.0000      -0.539335       -14.6761
  16   2.0000      -0.516895       -14.0654
  17   2.0000      -0.507491       -13.8095
  18   2.0000      -0.479154       -13.0384
  19   2.0000      -0.418492       -11.3878
  20   0.0000       0.081853         2.2273
  21   0.0000       0.150964         4.1079
  22   0.0000       0.195946         5.3320
  23   0.0000       0.204124         5.5545
  24   0.0000       0.225146         6.1265

MULLIKEN ATOMIC CHARGES
-----------------------
   0 C :   -0.158275
   1 C :   -0.195308
   2 H :    0.096257
   3 H :    0.106243
   4 C :    0.217400
   5 O :   -0.246520
   6 F :   -0.059064
   7 H :    0.080490
   8 H :    0.082000
   9 H :    0.076777
Sum of atomic charges:    0.0000000

LOEWDIN ATOMIC CHARGES
----------------------
   0 C :   -0.081444
   1 C :   -0.096843
   2 H :    0.053060
   3 H :    0.057536
   4 C :    0.091962
   5 O :   -0.197565
   6 F :    0.052422
   7 H :    0.042681
   8 H :    0.040752
   9 H :    0.037439

  Mayer bond orders larger than 0.100000
B(  0-C ,  1-C ) :   1.0504 B(  0-C ,  7-H ) :   0.9743 B(  0-C ,  8-H ) :   0.9771
B(  0-C ,  9-H ) :   0.9745 B(  1-C ,  2-H ) :   0.9419 B(  1-C ,  3-H ) :   0.9560
B(  1-C ,  4-C ) :   0.9913 B(  4-C ,  5-O ) :   2.1159 B(  4-C ,  6-F ) :   1.2179

FINAL SINGLE POINT ENERGY      -291.358612663007

DIPOLE MOMENT
-------------
                                X             Y             Z
Electronic contribution:      4.85973      -2.30604       5.88391
Nuclear contribution   :     -4.79499       2.78546      -7.01827
                        -----------------------------------------
Total Dipole Moment    :      0.06474       0.47943      -1.13436
                        -----------------------------------------
Magnitude (a.u.)       :      1.23321
Magnitude (Debye)      :      3.13458

Rotational constants in cm-1:     0.286098     0.133492     0.103343
Rotational constants in MHz :  8577.003657  4001.981591  3098.148068

                             ****ORCA TERMINATED NORMALLY****
TOTAL RUN TIME: 0 days 0 hours 0 minutes 10 seconds 948 msec
