                         Program Version 5.0.0 -  RELEASE  -
|  1> !LC-PBE RIJCOSX def2-SVP def2/J TightSCF
|  2> *xyz 0 1
|  3> C          3.91385       -1.65829        3.01513
|  4> N          5.03927       -0.90115        2.49282
|  5> C          6.21038       -1.41726        2.17824
|  6> C          6.53591       -2.67712        2.55608
|  7> N          7.07675       -0.70082        1.47891
|  8> H          7.95464       -1.12155        1.20755
|  9> H          6.75616        0.10664        0.96028
| 10> H          4.84217        0.01761        2.11519
| 11> H          5.99388       -3.12692        3.28278
| 12> C          3.13916       -2.37657        1.91061
| 13> H          3.26723       -0.93940        3.52069
| 14> H          4.24720       -2.35509        3.79006
| 15> H          7.49844       -2.97548        2.46878
| 16> H          2.82969       -1.66654        1.17238
| 17> H          2.27790       -2.85264        2.33072
| 18> H          3.76754       -3.11338        1.45548
| 19> *
| 20> %MaxCore 64000
| 21> %pal nprocs 8
| 22> end
| 23> %scf
| 24>   MaxIter 150
| 25> end
| 26>
| 27>
| 28>                          ****END OF INPUT****

CARTESIAN COORDINATES (ANGSTROEM)
---------------------------------
  C      3.913850   -1.658290    3.015130
  N      5.039270   -0.901150    2.492820
  C      6.210380   -1.417260    2.178240
  C      6.535910   -2.677120    2.556080
  N      7.076750   -0.700820    1.478910
  H      7.954640   -1.121550    1.207550
  H      6.756160    0.106640    0.960280
  H      4.842170    0.017610    2.115190
  H      5.993880   -3.126920    3.282780
  C      3.139160   -2.376570    1.910610
  H      3.267230   -0.939400    3.520690
  H      4.247200   -2.355090    3.790060
  H      7.498440   -2.975480    2.468780
  H      2.829690   -1.666540    1.172380
  H      2.277900   -2.852640    2.330720
  H      3.767540   -3.113380    1.455480

 Total Charge           Charge          ....    0
 Multiplicity           Mult            ....    1
 Number of Electrons    NEL             ....   48
 Basis Dimension        Dim             ....  134

ORBITAL ENERGIES
----------------

  NO   OCC          E(Eh)            E(eV)
   0   2.0000     -14.227635      -387.1536
   1   2.0000     -14.223616      -387.0443
   2   2.0000     -10.175180      -276.8807
   3   2.0000     -10.156339      -276.3680
   4   2.0000     -10.104577      -274.9595
   5   2.0000     -10.028969      -272.9021
   6   2.0000      -1.138706       -30.9858
   7   2.0000      -1.047981       -28.5170
   8   2.0000      -0.917443       -24.9649
   9   2.0000      -0.863317       -23.4920
  10   2.0000      -0.796661       -21.6783
  11   2.0000      -0.709448       -19.3051
  12   2.0000      -0.696806       -18.9611
  13   2.0000      -0.661195       -17.9920
  14   2.0000      -0.607743       -16.5375
  15   2.0000      -0.578986       -15.7550
  16   2.0000      -0.560146       -15.2424
  17   2.0000      -0.531424       -14.4608
  18   2.0000      -0.508088       -13.8258
  19   2.0000      -0.498678       -13.5697
  20   2.0000      -0.493129       -13.4187
  21   2.0000      -0.470448       -12.8015
  22   2.0000      -0.377361       -10.2685
  23   2.0000      -0.273425        -7.4403
  24   0.0000       0.138470         3.7680
  25   0.0000       0.169533         4.6132
  26   0.0000       0.181756         4.9458
  27   0.0000       0.191774         5.2184
  28   0.0000       0.211475         5.7545

MULLIKEN ATOMIC CHARGES
-----------------------
   0 C :   -0.041714
   1 N :   -0.204157
   2 C :    0.010112
   3 C :   -0.219419
   4 N :   -0.153589
   5 H :    0.156201
   6 H :    0.131768
   7 H :    0.131620
   8 H :   -0.009446
   9 C :   -0.109123
  10 H :    0.059569
  11 H :    0.085331
  12 H :   -0.017724
  13 H :    0.045162
  14 H :    0.057482
  15 H :    0.077927
Sum of atomic charges:    0.0000000

LOEWDIN ATOMIC CHARGES
----------------------
   0 C :    0.014248
   1 N :   -0.034407
   2 C :    0.044126
   3 C :   -0.309722
   4 N :   -0.035452
   5 H :    0.093250
   6 H :    0.073404
   7 H :    0.075216
   8 H :   -0.000581
   9 C :   -0.096642
  10 H :    0.032641
  11 H :    0.041601
  12 H :   -0.001623
  13 H :    0.028133
  14 H :    0.034507
  15 H :    0.041300

  Mayer bond orders larger than 0.100000
B(  0-C ,  1-N ) :   0.9884 B(  0-C ,  9-C ) :   1.0718 B(  0-C , 10-H ) :   0.9674
B(  0-C , 11-H ) :   0.9567 B(  1-N ,  2-C ) :   1.1930 B(  1-N ,  7-H ) :   0.9398
B(  2-C ,  3-C ) :   1.7293 B(  2-C ,  4-N ) :   1.2353 B(  3-C ,  8-H ) :   0.9552
B(  3-C , 12-H ) :   0.9569 B(  4-N ,  5-H ) :   0.9446 B(  4-N ,  6-H ) :   0.9533
B(  9-C , 13-H ) :   0.9734 B(  9-C , 14-H ) :   0.9729 B(  9-C , 15-H ) :   0.9667

FINAL SINGLE POINT ENERGY      -266.832129310719

DIPOLE MOMENT
-------------
                                X             Y             Z
Electronic contribution:      3.08354       2.92999      -0.27420
Nuclear contribution   :     -3.42552      -1.84584      -0.22295
                        -----------------------------------------
Total Dipole Moment    :     -0.34198       1.08415      -0.49715
                        -----------------------------------------
Magnitude (a.u.)       :      1.24076
Magnitude (Debye)      :      3.15376

Rotational constants in cm-1:     0.233526     0.075277     0.067092
Rotational constants in MHz :  7000.931279  2256.752901  2011.361214

                             ****ORCA TERMINATED NORMALLY****
TOTAL RUN TIME: 0 days 0 hours 0 minutes 15 seconds 104 msec
