                         Program Version 5.0.0 -  RELEASE  -
|  1> !LC-PBE RIJCOSX def2-SVP def2/J TightSCF
|  2> *xyz 0 1
|  3> C          3.91385       -1.65829        3.01513
|  4> N          5.03927       -0.90115        2.49282
|  5> C          6.21038       -1.41726        2.17824
|  6> N          6.53591       -2.67712        2.55608
|  7> C          7.07675       -0.70082        1.47891
|  8> H          7.95464       -1.12155        1.20755
|  9> H          6.75616        0.10664        0.96028
| 10> H          4.84217        0.01761        2.11519
| 11> H          5.99388       -3.12692        3.28278
| 12> C          3.13916       -2.37657        1.91061
| 13> H          3.26723       -0.93940        3.52069
| 14> H          4.24720       -2.35509        3.79006
| 15> H          7.49844       -2.97548        2.46878
| 16> H          2.82969       -1.66654        1.17238
| 17> H          2.27790       -2.85264        2.33072
| 18> H          3.76754       -3.11338        1.45548
| 19> *
| 20> %MaxCore 64000
| 21> %pal nprocs 8
| 22> end
| 23> %scf
| 24>   MaxIter 150
| 25> end
| 26>
| 27>
| 28>                          ****END OF INPUT****

CARTESIAN COORDINATES (ANGSTROEM)
---------------------------------
  C      3.913850   -1.658290    3.015130
  N      5.039270   -0.901150    2.492820
  C      6.210380   -1.417260    2.178240
  N      6.535910   -2.677120    2.556080
  C      7.076750   -0.700820    1.478910
  H      7.954640   -1.121550    1.207550
  H      6.756160    0.106640    0.960280
  H      4.842170    0.017610    2.115190
  H      5.993880   -3.126920    3.282780
  C      3.139160   -2.376570    1.910610
  H      3.267230   -0.939400    3.520690
  H      4.247200   -2.355090    3.790060
  H      7.498440   -2.975480    2.468780
  H      2.829690   -1.666540    1.172380
  H      2.277900   -2.852640    2.330720
  H      3.767540   -3.113380    1.455480

 Total Charge           Charge          ....    0
 Multiplicity           Mult            ....    1
 Number of Electrons    NEL             ....   48
 Basis Dimension        Dim             ....  134

ORBITAL ENERGIES
----------------

  NO   OCC          E(Eh)            E(eV)
   0   2.0000     -14.223743      -387.0477
   1   2.0000     -14.220765      -386.9667
   2   2.0000     -10.171554      -276.7820
   3   2.0000     -10.166260      -276.6380
   4   2.0000     -10.113318      -275.1974
   5   2.0000     -10.029376      -272.9132
   6   2.0000      -1.134318       -30.8664
   7   2.0000      -1.039406       -28.2837
   8   2.0000      -0.937386       -25.5076
   9   2.0000      -0.860435       -23.4136
  10   2.0000      -0.783725       -21.3262
  11   2.0000      -0.747598       -20.3432
  12   2.0000      -0.679995       -18.5036
  13   2.0000      -0.641078       -17.4446
  14   2.0000      -0.614268       -16.7151
  15   2.0000      -0.578862       -15.7516
  16   2.0000      -0.573896       -15.6165
  17   2.0000      -0.540235       -14.7005
  18   2.0000      -0.512027       -13.9330
  19   2.0000      -0.502062       -13.6618
  20   2.0000      -0.492505       -13.4017
  21   2.0000      -0.484205       -13.1759
  22   2.0000      -0.381046       -10.3688
  23   2.0000      -0.274477        -7.4689
  24   0.0000       0.137890         3.7522
  25   0.0000       0.164317         4.4713
  26   0.0000       0.178787         4.8650
  27   0.0000       0.194717         5.2985
  28   0.0000       0.202890         5.5209

MULLIKEN ATOMIC CHARGES
-----------------------
   0 C :   -0.067442
   1 N :   -0.188626
   2 C :    0.021091
   3 N :   -0.179854
   4 C :   -0.203708
   5 H :   -0.015459
   6 H :   -0.011167
   7 H :    0.153704
   8 H :    0.130346
   9 C :   -0.105548
  10 H :    0.067589
  11 H :    0.060139
  12 H :    0.153744
  13 H :    0.059776
  14 H :    0.057625
  15 H :    0.067791
Sum of atomic charges:    0.0000000

LOEWDIN ATOMIC CHARGES
----------------------
   0 C :    0.001167
   1 N :   -0.034804
   2 C :    0.045785
   3 N :   -0.052058
   4 C :   -0.287124
   5 H :    0.000299
   6 H :    0.000927
   7 H :    0.093933
   8 H :    0.069619
   9 C :   -0.098998
  10 H :    0.036818
  11 H :    0.028144
  12 H :    0.091292
  13 H :    0.034603
  14 H :    0.033905
  15 H :    0.036494

  Mayer bond orders larger than 0.100000
B(  0-C ,  1-N ) :   1.0090 B(  0-C ,  9-C ) :   1.0546 B(  0-C , 10-H ) :   0.9645
B(  0-C , 11-H ) :   0.9653 B(  1-N ,  2-C ) :   1.2026 B(  1-N ,  7-H ) :   0.9296
B(  2-C ,  3-N ) :   1.2009 B(  2-C ,  4-C ) :   1.7692 B(  3-N ,  8-H ) :   0.9525
B(  3-N , 12-H ) :   0.9450 B(  4-C ,  5-H ) :   0.9550 B(  4-C ,  6-H ) :   0.9567
B(  9-C , 13-H ) :   0.9726 B(  9-C , 14-H ) :   0.9712 B(  9-C , 15-H ) :   0.9693

FINAL SINGLE POINT ENERGY      -266.832886461694

DIPOLE MOMENT
-------------
                                X             Y             Z
Electronic contribution:      2.52169       0.87500       1.02085
Nuclear contribution   :     -3.31079      -1.42658      -0.45147
                        -----------------------------------------
Total Dipole Moment    :     -0.78910      -0.55158       0.56939
                        -----------------------------------------
Magnitude (a.u.)       :      1.11854
Magnitude (Debye)      :      2.84310

Rotational constants in cm-1:     0.225507     0.077571     0.068070
Rotational constants in MHz :  6760.542142  2325.533779  2040.680522

                             ****ORCA TERMINATED NORMALLY****
TOTAL RUN TIME: 0 days 0 hours 0 minutes 16 seconds 659 msec
