                         Program Version 5.0.0 -  RELEASE  -
|  1> !LC-PBE RIJCOSX def2-TZVP def2/J TightSCF xyzfile
|  2>
|  3> *xyzfile 0 1 D1.xyz
|  4>
|  5> %MaxCore 64000
|  6>
|  7> %pal nprocs 18
|  8> end
|  9>
| 10> %scf
| 11>   MaxIter 150
| 12> end
| 13>
| 14>
| 15>                          ****END OF INPUT****

CARTESIAN COORDINATES (ANGSTROEM)
---------------------------------
  C      3.913853   -1.658291    3.015134
  C      5.039266   -0.901154    2.492821
  C      4.084215    1.742081   -2.114724
  C      4.265245    2.500518   -0.795890
  H      4.868534    3.392674   -0.981134
  H      3.307640    2.824571   -0.387809
  C      4.982240    1.650257    0.247422
  C      6.210384   -1.417261    2.178244
  N      6.535913   -2.677122    2.556078
  N      7.076754   -0.700820    1.478906
  H      7.954643   -1.121554    1.207554
  H      6.756161    0.106637    0.960278
  H      4.842168    0.017609    2.115191
  H      5.993876   -3.126918    3.282784
  H      7.498441   -2.975482    2.468776
  F      4.368065    1.389270    1.313706
  O      6.128919    1.233512   -0.045620
  C      3.139159   -2.376572    1.910609
  H      3.267235   -0.939401    3.520693
  H      4.247195   -2.355095    3.790065
  C      1.997274    0.430918   -1.399218
  C      3.412746    0.376886   -1.965497
  H      4.047407   -0.246590   -1.326706
  H      3.390774   -0.118719   -2.942839
  H      5.068475    1.598504   -2.565728
  H      3.503356    2.363939   -2.804565
  C      2.399946   -1.389579    1.009490
  H      2.440750   -3.087118    2.362976
  H      3.844475   -2.970462    1.318677
  C      2.070177   -1.936705   -0.372401
  H      1.481611   -1.061542    1.509912
  H      3.008628   -0.490001    0.897451
  C      1.322238   -0.935775   -1.256413
  H      1.472747   -2.850902   -0.283997
  H      3.003539   -2.234041   -0.862535
  H      1.376444    1.058920   -2.047420
  H      2.015341    0.929780   -0.426535
  H      0.316648   -0.787213   -0.848278
  H      1.185611   -1.379252   -2.248613

 Total Charge           Charge          ....    0
 Multiplicity           Mult            ....    1
 Number of Electrons    NEL             ....  126
 Basis Dimension        Dim             ....  634

ORBITAL ENERGIES
----------------

  NO   OCC          E(Eh)            E(eV)
   0   2.0000     -24.575242      -668.7263
   1   2.0000     -19.006466      -517.1922
   2   2.0000     -14.195552      -386.2806
   3   2.0000     -14.168878      -385.5548
   4   2.0000     -10.322829      -280.8985
   5   2.0000     -10.154737      -276.3244
   6   2.0000     -10.140931      -275.9488
   7   2.0000     -10.134149      -275.7642
   8   2.0000     -10.117484      -275.3107
   9   2.0000     -10.112376      -275.1717
  10   2.0000     -10.106231      -275.0045
  11   2.0000     -10.097965      -274.7796
  12   2.0000     -10.091302      -274.5983
  13   2.0000     -10.082564      -274.3605
  14   2.0000     -10.077020      -274.2097
  15   2.0000     -10.007896      -272.3287
  16   2.0000      -1.495712       -40.7004
  17   2.0000      -1.228156       -33.4198
  18   2.0000      -1.113118       -30.2895
  19   2.0000      -1.017376       -27.6842
  20   2.0000      -1.011833       -27.5334
  21   2.0000      -0.985136       -26.8069
  22   2.0000      -0.953545       -25.9473
  23   2.0000      -0.920277       -25.0420
  24   2.0000      -0.879102       -23.9216
  25   2.0000      -0.852911       -23.2089
  26   2.0000      -0.824259       -22.4292
  27   2.0000      -0.799648       -21.7595
  28   2.0000      -0.765277       -20.8242
  29   2.0000      -0.746198       -20.3051
  30   2.0000      -0.726192       -19.7607
  31   2.0000      -0.716317       -19.4920
  32   2.0000      -0.711973       -19.3738
  33   2.0000      -0.706955       -19.2372
  34   2.0000      -0.676150       -18.3990
  35   2.0000      -0.661656       -18.0046
  36   2.0000      -0.636107       -17.3093
  37   2.0000      -0.628615       -17.1055
  38   2.0000      -0.624713       -16.9993
  39   2.0000      -0.605037       -16.4639
  40   2.0000      -0.589289       -16.0354
  41   2.0000      -0.577370       -15.7110
  42   2.0000      -0.568782       -15.4774
  43   2.0000      -0.558418       -15.1953
  44   2.0000      -0.554060       -15.0767
  45   2.0000      -0.548266       -14.9191
  46   2.0000      -0.530416       -14.4333
  47   2.0000      -0.526409       -14.3243
  48   2.0000      -0.508822       -13.8457
  49   2.0000      -0.499591       -13.5946
  50   2.0000      -0.498103       -13.5541
  51   2.0000      -0.493128       -13.4187
  52   2.0000      -0.479135       -13.0379
  53   2.0000      -0.466694       -12.6994
  54   2.0000      -0.463208       -12.6045
  55   2.0000      -0.452214       -12.3054
  56   2.0000      -0.437956       -11.9174
  57   2.0000      -0.434002       -11.8098
  58   2.0000      -0.428465       -11.6591
  59   2.0000      -0.422800       -11.5050
  60   2.0000      -0.416130       -11.3235
  61   2.0000      -0.375911       -10.2291
  62   2.0000      -0.257155        -6.9976
  63   0.0000       0.049239         1.3399
  64   0.0000       0.112155         3.0519
  65   0.0000       0.123800         3.3688
  66   0.0000       0.130400         3.5484
  67   0.0000       0.132646         3.6095

MULLIKEN ATOMIC CHARGES
-----------------------
   0 C :   -0.366337
   1 C :   -0.493351
   2 C :   -0.267632
   3 C :   -0.344119
   4 H :    0.191678
   5 H :    0.194454
   6 C :    0.359491
   7 C :    0.354939
   8 N :   -0.505896
   9 N :   -0.488838
  10 H :    0.221062
  11 H :    0.267916
  12 H :    0.148774
  13 H :    0.254353
  14 H :    0.233162
  15 F :   -0.060789
  16 O :   -0.338177
  17 C :   -0.207667
  18 H :    0.138661
  19 H :    0.128620
  20 C :   -0.357662
  21 C :   -0.383768
  22 H :    0.202875
  23 H :    0.162166
  24 H :    0.179866
  25 H :    0.159975
  26 C :   -0.245118
  27 H :    0.127355
  28 H :    0.152246
  29 C :   -0.356132
  30 H :    0.150373
  31 H :    0.083652
  32 C :   -0.251456
  33 H :    0.151929
  34 H :    0.171488
  35 H :    0.155537
  36 H :    0.174213
  37 H :    0.151924
  38 H :    0.150231
Sum of atomic charges:   -0.0000000

LOEWDIN ATOMIC CHARGES
----------------------
   0 C :   -0.305206
   1 C :   -0.308913
   2 C :   -0.273267
   3 C :   -0.243936
   4 H :    0.168229
   5 H :    0.153511
   6 C :   -0.484347
   7 C :   -0.464582
   8 N :   -0.039686
   9 N :   -0.023467
  10 H :    0.161014
  11 H :    0.146186
  12 H :    0.117640
  13 H :    0.174036
  14 H :    0.163618
  15 F :    0.359059
  16 O :    0.090545
  17 C :   -0.276902
  18 H :    0.149161
  19 H :    0.134474
  20 C :   -0.290423
  21 C :   -0.284567
  22 H :    0.152992
  23 H :    0.150014
  24 H :    0.154788
  25 H :    0.150078
  26 C :   -0.284898
  27 H :    0.134958
  28 H :    0.147549
  29 C :   -0.290681
  30 H :    0.143563
  31 H :    0.140085
  32 C :   -0.286066
  33 H :    0.144915
  34 H :    0.144584
  35 H :    0.145079
  36 H :    0.141577
  37 H :    0.145311
  38 H :    0.143974

  Mayer bond orders larger than 0.100000
B(  0-C ,  1-C ) :   0.9762 B(  0-C , 17-C ) :   0.8949 B(  0-C , 18-H ) :   0.9999
B(  0-C , 19-H ) :   1.0135 B(  1-C ,  7-C ) :   1.5995 B(  1-C , 12-H ) :   1.0388
B(  2-C ,  3-C ) :   0.9191 B(  2-C , 21-C ) :   0.9529 B(  2-C , 24-H ) :   0.9756
B(  2-C , 25-H ) :   0.9744 B(  3-C ,  4-H ) :   0.9526 B(  3-C ,  5-H ) :   0.9774
B(  3-C ,  6-C ) :   0.9438 B(  6-C , 15-F ) :   1.1784 B(  6-C , 16-O ) :   1.9346
B(  7-C ,  8-N ) :   1.1309 B(  7-C ,  9-N ) :   1.1952 B(  8-N , 13-H ) :   0.9164
B(  8-N , 14-H ) :   0.9290 B(  9-N , 10-H ) :   0.9343 B(  9-N , 11-H ) :   0.8572
B( 11-H , 16-O ) :   0.1115 B( 17-C , 26-C ) :   0.9620 B( 17-C , 27-H ) :   0.9812
B( 17-C , 28-H ) :   0.9832 B( 20-C , 21-C ) :   0.8824 B( 20-C , 32-C ) :   0.9473
B( 20-C , 35-H ) :   0.9747 B( 20-C , 36-H ) :   0.9791 B( 21-C , 22-H ) :   0.9659
B( 21-C , 23-H ) :   0.9734 B( 26-C , 29-C ) :   0.9080 B( 26-C , 30-H ) :   0.9698
B( 26-C , 31-H ) :   0.9750 B( 29-C , 32-C ) :   0.9379 B( 29-C , 33-H ) :   0.9824
B( 29-C , 34-H ) :   0.9882 B( 32-C , 37-H ) :   0.9913 B( 32-C , 38-H ) :   0.9909

FINAL SINGLE POINT ENERGY      -753.564504125789

DIPOLE MOMENT
-------------
                                X             Y             Z
Electronic contribution:     11.31852       8.94394       5.88583
Nuclear contribution   :    -11.48003      -8.36271      -6.78621
                        -----------------------------------------
Total Dipole Moment    :     -0.16151       0.58123      -0.90039
                        -----------------------------------------
Magnitude (a.u.)       :      1.08380
Magnitude (Debye)      :      2.75479

Rotational constants in cm-1:     0.020055     0.013548     0.009477
Rotational constants in MHz :   601.234832   406.162779   284.104317

                             ****ORCA TERMINATED NORMALLY****
TOTAL RUN TIME: 0 days 0 hours 1 minutes 30 seconds 440 msec
