                         Program Version 5.0.0 -  RELEASE  -
|  1> !LC-PBE RIJCOSX def2-TZVP def2/J TightSCF xyzfile
|  2>
|  3> *xyzfile 0 1 D6.xyz
|  4>
|  5> %MaxCore 64000
|  6>
|  7> %pal nprocs 18
|  8> end
|  9>
| 10> %scf
| 11>   MaxIter 150
| 12> end
| 13>
| 14>
| 15>                          ****END OF INPUT****

CARTESIAN COORDINATES (ANGSTROEM)
---------------------------------
  C      3.913853   -1.658291    3.015134
  N      5.039266   -0.901154    2.492821
  C      4.084215    1.742081   -2.114724
  C      4.265245    2.500518   -0.795890
  H      4.868534    3.392674   -0.981134
  H      3.307640    2.824571   -0.387809
  C      4.982240    1.650257    0.247422
  C      6.210384   -1.417261    2.178244
  N      6.535913   -2.677122    2.556078
  C      7.076754   -0.700820    1.478906
  H      7.954643   -1.121554    1.207554
  H      6.756161    0.106637    0.960278
  H      4.842168    0.017609    2.115191
  H      5.993876   -3.126918    3.282784
  H      7.498441   -2.975482    2.468776
  O      4.368065    1.389270    1.313706
  F      6.128919    1.233512   -0.045620
  C      3.139159   -2.376572    1.910609
  H      3.267235   -0.939401    3.520693
  H      4.247195   -2.355095    3.790065
  C      1.997274    0.430918   -1.399218
  C      3.412746    0.376886   -1.965497
  H      4.047407   -0.246590   -1.326706
  H      3.390774   -0.118719   -2.942839
  H      5.068475    1.598504   -2.565728
  H      3.503356    2.363939   -2.804565
  C      2.399946   -1.389579    1.009490
  H      2.440750   -3.087118    2.362976
  H      3.844475   -2.970462    1.318677
  C      2.070177   -1.936705   -0.372401
  H      1.481611   -1.061542    1.509912
  H      3.008628   -0.490001    0.897451
  C      1.322238   -0.935775   -1.256413
  H      1.472747   -2.850902   -0.283997
  H      3.003539   -2.234041   -0.862535
  H      1.376444    1.058920   -2.047420
  H      2.015341    0.929780   -0.426535
  H      0.316648   -0.787213   -0.848278
  H      1.185611   -1.379252   -2.248613

 Total Charge           Charge          ....    0
 Multiplicity           Mult            ....    1
 Number of Electrons    NEL             ....  126
 Basis Dimension        Dim             ....  634

ORBITAL ENERGIES
----------------

  NO   OCC          E(Eh)            E(eV)
   0   2.0000     -24.574569      -668.7080
   1   2.0000     -19.006518      -517.1937
   2   2.0000     -14.194133      -386.2420
   3   2.0000     -14.177502      -385.7894
   4   2.0000     -10.323020      -280.9037
   5   2.0000     -10.155205      -276.3372
   6   2.0000     -10.144180      -276.0372
   7   2.0000     -10.138704      -275.8882
   8   2.0000     -10.133958      -275.7590
   9   2.0000     -10.121946      -275.4322
  10   2.0000     -10.113808      -275.2107
  11   2.0000     -10.109900      -275.1044
  12   2.0000     -10.104012      -274.9441
  13   2.0000     -10.098798      -274.8023
  14   2.0000     -10.098555      -274.7957
  15   2.0000      -9.994571      -271.9661
  16   2.0000      -1.496481       -40.7213
  17   2.0000      -1.226206       -33.3668
  18   2.0000      -1.122936       -30.5566
  19   2.0000      -1.033007       -28.1096
  20   2.0000      -1.020287       -27.7634
  21   2.0000      -0.986584       -26.8463
  22   2.0000      -0.952315       -25.9138
  23   2.0000      -0.912226       -24.8229
  24   2.0000      -0.884532       -24.0693
  25   2.0000      -0.844217       -22.9723
  26   2.0000      -0.836004       -22.7488
  27   2.0000      -0.803233       -21.8571
  28   2.0000      -0.772366       -21.0171
  29   2.0000      -0.754615       -20.5341
  30   2.0000      -0.731321       -19.9002
  31   2.0000      -0.725101       -19.7310
  32   2.0000      -0.721372       -19.6295
  33   2.0000      -0.706853       -19.2344
  34   2.0000      -0.673429       -18.3249
  35   2.0000      -0.656867       -17.8743
  36   2.0000      -0.637233       -17.3400
  37   2.0000      -0.632800       -17.2194
  38   2.0000      -0.620292       -16.8790
  39   2.0000      -0.607391       -16.5279
  40   2.0000      -0.597863       -16.2687
  41   2.0000      -0.576380       -15.6841
  42   2.0000      -0.574389       -15.6299
  43   2.0000      -0.566387       -15.4122
  44   2.0000      -0.557137       -15.1605
  45   2.0000      -0.550162       -14.9707
  46   2.0000      -0.531836       -14.4720
  47   2.0000      -0.521656       -14.1950
  48   2.0000      -0.518622       -14.1124
  49   2.0000      -0.510352       -13.8874
  50   2.0000      -0.504355       -13.7242
  51   2.0000      -0.486888       -13.2489
  52   2.0000      -0.483963       -13.1693
  53   2.0000      -0.473650       -12.8887
  54   2.0000      -0.470796       -12.8110
  55   2.0000      -0.464905       -12.6507
  56   2.0000      -0.451295       -12.2804
  57   2.0000      -0.438825       -11.9410
  58   2.0000      -0.436707       -11.8834
  59   2.0000      -0.432536       -11.7699
  60   2.0000      -0.428768       -11.6674
  61   2.0000      -0.363571        -9.8933
  62   2.0000      -0.259825        -7.0702
  63   0.0000       0.051167         1.3923
  64   0.0000       0.108945         2.9645
  65   0.0000       0.124147         3.3782
  66   0.0000       0.127971         3.4823
  67   0.0000       0.130199         3.5429

MULLIKEN ATOMIC CHARGES
-----------------------
   0 C :   -0.319527
   1 N :   -0.288018
   2 C :   -0.292518
   3 C :   -0.344465
   4 H :    0.188034
   5 H :    0.205710
   6 C :    0.376968
   7 C :    0.335907
   8 N :   -0.512707
   9 C :   -0.596154
  10 H :    0.106077
  11 H :    0.067939
  12 H :    0.272861
  13 H :    0.237640
  14 H :    0.256556
  15 O :   -0.360591
  16 F :   -0.051748
  17 C :   -0.203808
  18 H :    0.167172
  19 H :    0.148794
  20 C :   -0.362439
  21 C :   -0.365649
  22 H :    0.193288
  23 H :    0.164177
  24 H :    0.178050
  25 H :    0.163080
  26 C :   -0.288966
  27 H :    0.136969
  28 H :    0.160207
  29 C :   -0.354674
  30 H :    0.149173
  31 H :    0.111931
  32 C :   -0.256272
  33 H :    0.152676
  34 H :    0.174132
  35 H :    0.155772
  36 H :    0.189877
  37 H :    0.153174
  38 H :    0.151374
Sum of atomic charges:   -0.0000000

LOEWDIN ATOMIC CHARGES
----------------------
   0 C :   -0.312861
   1 N :    0.121505
   2 C :   -0.279370
   3 C :   -0.240664
   4 H :    0.162860
   5 H :    0.163282
   6 C :   -0.482890
   7 C :   -0.469136
   8 N :   -0.036746
   9 C :   -0.379445
  10 H :    0.097590
  11 H :    0.088708
  12 H :    0.169832
  13 H :    0.162242
  14 H :    0.177488
  15 O :    0.077249
  16 F :    0.370411
  17 C :   -0.286631
  18 H :    0.144944
  19 H :    0.131067
  20 C :   -0.288494
  21 C :   -0.283685
  22 H :    0.151338
  23 H :    0.150219
  24 H :    0.151469
  25 H :    0.151418
  26 C :   -0.287359
  27 H :    0.140314
  28 H :    0.150039
  29 C :   -0.290661
  30 H :    0.144861
  31 H :    0.144302
  32 C :   -0.285410
  33 H :    0.144851
  34 H :    0.145184
  35 H :    0.145314
  36 H :    0.146741
  37 H :    0.145807
  38 H :    0.144318

  Mayer bond orders larger than 0.100000
B(  0-C ,  1-N ) :   0.9683 B(  0-C , 17-C ) :   0.8850 B(  0-C , 18-H ) :   0.9868
B(  0-C , 19-H ) :   1.0113 B(  1-N ,  7-C ) :   1.2316 B(  1-N , 12-H ) :   0.8642
B(  2-C ,  3-C ) :   0.9114 B(  2-C , 21-C ) :   0.9387 B(  2-C , 24-H ) :   0.9825
B(  2-C , 25-H ) :   0.9727 B(  3-C ,  4-H ) :   0.9567 B(  3-C ,  5-H ) :   0.9792
B(  3-C ,  6-C ) :   0.9511 B(  6-C , 15-O ) :   1.9207 B(  6-C , 16-F ) :   1.1782
B(  7-C ,  8-N ) :   1.1152 B(  7-C ,  9-C ) :   1.6175 B(  8-N , 13-H ) :   0.9211
B(  8-N , 14-H ) :   0.9246 B(  9-C , 10-H ) :   1.0107 B(  9-C , 11-H ) :   1.0382
B( 17-C , 26-C ) :   0.9343 B( 17-C , 27-H ) :   0.9733 B( 17-C , 28-H ) :   0.9794
B( 20-C , 21-C ) :   0.8811 B( 20-C , 32-C ) :   0.9443 B( 20-C , 35-H ) :   0.9738
B( 20-C , 36-H ) :   0.9760 B( 21-C , 22-H ) :   0.9695 B( 21-C , 23-H ) :   0.9727
B( 26-C , 29-C ) :   0.9064 B( 26-C , 30-H ) :   0.9711 B( 26-C , 31-H ) :   0.9803
B( 29-C , 32-C ) :   0.9397 B( 29-C , 33-H ) :   0.9825 B( 29-C , 34-H ) :   0.9870
B( 32-C , 37-H ) :   0.9908 B( 32-C , 38-H ) :   0.9906

FINAL SINGLE POINT ENERGY      -753.552857659758

DIPOLE MOMENT
-------------
                                X             Y             Z
Electronic contribution:     12.38327       8.51362       4.37007
Nuclear contribution   :    -13.25777      -8.13937      -5.31678
                        -----------------------------------------
Total Dipole Moment    :     -0.87450       0.37425      -0.94671
                        -----------------------------------------
Magnitude (a.u.)       :      1.34204
Magnitude (Debye)      :      3.41119

Rotational constants in cm-1:     0.020021     0.013636     0.009443
Rotational constants in MHz :   600.208195   408.782966   283.102361

                             ****ORCA TERMINATED NORMALLY****
TOTAL RUN TIME: 0 days 0 hours 1 minutes 32 seconds 26 msec
