                         Program Version 5.0.0 -  RELEASE  -
|  1> !LC-BLYP RIJCOSX def2-TZVPD def2/J TightSCF
|  2> *xyz -1 1
|  3> C          0.61188        1.65763       -4.50029
|  4> C          1.69499        1.54179       -5.57045
|  5> H          2.69733        1.73466       -5.18400
|  6> H          1.50666        2.27224       -6.35808
|  7> S          1.78029       -0.03313       -6.42874
|  8> O          2.56929        0.21366       -7.60736
|  9> O          0.41688       -0.46297       -6.61859
| 10> O          2.50513       -0.93326       -5.48257
| 11> H         -0.34424        1.45871       -4.93752
| 12> H          0.61845        2.64655       -4.09174
| 13> H          0.80247        0.94882       -3.72173
| 14> *
| 15> %MaxCore 64000
| 16>
| 17> %pal nprocs 4
| 18> end
| 19>
| 20> %scf
| 21>   MaxIter 150
| 22> end
| 23>
| 24>
| 25>                          ****END OF INPUT****

CARTESIAN COORDINATES (ANGSTROEM)
---------------------------------
  C      0.611880    1.657630   -4.500290
  C      1.694990    1.541790   -5.570450
  H      2.697330    1.734660   -5.184000
  H      1.506660    2.272240   -6.358080
  S      1.780290   -0.033130   -6.428740
  O      2.569290    0.213660   -7.607360
  O      0.416880   -0.462970   -6.618590
  O      2.505130   -0.933260   -5.482570
  H     -0.344240    1.458710   -4.937520
  H      0.618450    2.646550   -4.091740
  H      0.802470    0.948820   -3.721730

 Total Charge           Charge          ....   -1
 Multiplicity           Mult            ....    1
 Number of Electrons    NEL             ....   58
 Basis Dimension        Dim             ....  285

ORBITAL ENERGIES
----------------

  NO   OCC          E(Eh)            E(eV)
   0   2.0000     -88.259693     -2401.6683
   1   2.0000     -18.723239      -509.4852
   2   2.0000     -18.722485      -509.4647
   3   2.0000     -18.703960      -508.9606
   4   2.0000      -9.931915      -270.2612
   5   2.0000      -9.924778      -270.0669
   6   2.0000      -7.802056      -212.3047
   7   2.0000      -5.830146      -158.6463
   8   2.0000      -5.829137      -158.6189
   9   2.0000      -5.828741      -158.6081
  10   2.0000      -1.024121       -27.8678
  11   2.0000      -0.892941       -24.2981
  12   2.0000      -0.860122       -23.4051
  13   2.0000      -0.744651       -20.2630
  14   2.0000      -0.618205       -16.8222
  15   2.0000      -0.487782       -13.2732
  16   2.0000      -0.426766       -11.6129
  17   2.0000      -0.422480       -11.4963
  18   2.0000      -0.381774       -10.3886
  19   2.0000      -0.365859        -9.9555
  20   2.0000      -0.358458        -9.7541
  21   2.0000      -0.331676        -9.0254
  22   2.0000      -0.314486        -8.5576
  23   2.0000      -0.257360        -7.0031
  24   2.0000      -0.256086        -6.9684
  25   2.0000      -0.221003        -6.0138
  26   2.0000      -0.211243        -5.7482
  27   2.0000      -0.196724        -5.3531
  28   2.0000      -0.162815        -4.4304
  29   0.0000       0.161637         4.3984
  30   0.0000       0.175152         4.7661
  31   0.0000       0.175678         4.7804
  32   0.0000       0.184146         5.0109
  33   0.0000       0.207246         5.6394

MULLIKEN ATOMIC CHARGES
-----------------------
   0 C :   -1.268764
   1 C :   -0.697365
   2 H :    0.381336
   3 H :    0.389295
   4 S :    1.075060
   5 O :   -0.647640
   6 O :   -0.656356
   7 O :   -0.717616
   8 H :    0.368704
   9 H :    0.421239
  10 H :    0.352106
Sum of atomic charges:   -1.0000000

LOEWDIN ATOMIC CHARGES
----------------------
   0 C :   -0.157229
   1 C :   -0.345418
   2 H :    0.091024
   3 H :    0.085339
   4 S :    0.305813
   5 O :   -0.375388
   6 O :   -0.369254
   7 O :   -0.417830
   8 H :    0.060394
   9 H :    0.054612
  10 H :    0.067936

  Mayer bond orders larger than 0.100000
B(  0-C ,  1-C ) :   0.4493 B(  0-C ,  8-H ) :   0.9435 B(  0-C ,  9-H ) :   0.8639
B(  0-C , 10-H ) :   0.9568 B(  1-C ,  2-H ) :   0.9124 B(  1-C ,  3-H ) :   0.9001
B(  1-C ,  4-S ) :   0.9599 B(  1-C ,  5-O ) :   0.1133 B(  1-C ,  7-O ) :   0.1098
B(  4-S ,  5-O ) :   1.5236 B(  4-S ,  6-O ) :   1.5077 B(  4-S ,  7-O ) :   1.4687

FINAL SINGLE POINT ENERGY      -702.483702746591

DIPOLE MOMENT
-------------
                                X             Y             Z
Electronic contribution:      2.22326      -5.57257      -4.97252
Nuclear contribution   :     -2.69163       7.29476       5.86550
                        -----------------------------------------
Total Dipole Moment    :     -0.46837       1.72219       0.89298
                        -----------------------------------------
Magnitude (a.u.)       :      1.99567
Magnitude (Debye)      :      5.07259

Rotational constants in cm-1:     0.163060     0.082831     0.081111
Rotational constants in MHz :  4888.419330  2483.225008  2431.646841

                             ****ORCA TERMINATED NORMALLY****
TOTAL RUN TIME: 0 days 0 hours 0 minutes 40 seconds 33 msec
