                         Program Version 5.0.0 -  RELEASE  -
|  1> !LC-BLYP RIJCOSX def2-TZVPD def2/J TightSCF
|  2> *xyz 1 1
|  3> C          1.96337       -1.74915       -1.89689
|  4> N          2.73849       -2.01517       -3.09711
|  5> C          4.04974       -2.15472       -3.15204
|  6> N          4.65821       -1.98629       -4.31866
|  7> N          4.76423       -2.45444       -2.05049
|  8> H          4.28736       -2.77626       -1.21750
|  9> H          5.75082       -2.65835       -2.12599
| 10> H          2.34518       -1.69027       -3.97145
| 11> H          4.10900       -1.59268       -5.07176
| 12> H          5.64910       -2.15646       -4.42724
| 13> C          2.08852       -0.30091       -1.41520
| 14> H          2.23127       -2.45162       -1.10264
| 15> H          0.93025       -1.97780       -2.15544
| 16> H          1.82118        0.36368       -2.21003
| 17> H          3.09792       -0.11068       -1.11551
| 18> H          1.43391       -0.14382       -0.58352
| 19> *
| 20> %MaxCore 64000
| 21>
| 22> %pal nprocs 4
| 23> end
| 24>
| 25> %scf
| 26>   MaxIter 150
| 27> end
| 28>
| 29>
| 30>                          ****END OF INPUT****

CARTESIAN COORDINATES (ANGSTROEM)
---------------------------------
  C      1.963370   -1.749150   -1.896890
  N      2.738490   -2.015170   -3.097110
  C      4.049740   -2.154720   -3.152040
  N      4.658210   -1.986290   -4.318660
  N      4.764230   -2.454440   -2.050490
  H      4.287360   -2.776260   -1.217500
  H      5.750820   -2.658350   -2.125990
  H      2.345180   -1.690270   -3.971450
  H      4.109000   -1.592680   -5.071760
  H      5.649100   -2.156460   -4.427240
  C      2.088520   -0.300910   -1.415200
  H      2.231270   -2.451620   -1.102640
  H      0.930250   -1.977800   -2.155440
  H      1.821180    0.363680   -2.210030
  H      3.097920   -0.110680   -1.115510
  H      1.433910   -0.143820   -0.583520

 Total Charge           Charge          ....    1
 Multiplicity           Mult            ....    1
 Number of Electrons    NEL             ....   48
 Basis Dimension        Dim             ....  312

ORBITAL ENERGIES
----------------

  NO   OCC          E(Eh)            E(eV)
   0   2.0000     -14.394544      -391.6954
   1   2.0000     -14.394012      -391.6810
   2   2.0000     -14.392533      -391.6407
   3   2.0000     -10.407087      -283.1912
   4   2.0000     -10.275655      -279.6148
   5   2.0000     -10.202766      -277.6314
   6   2.0000      -1.319672       -35.9101
   7   2.0000      -1.208029       -32.8721
   8   2.0000      -1.194809       -32.5124
   9   2.0000      -1.039589       -28.2887
  10   2.0000      -0.948407       -25.8075
  11   2.0000      -0.912636       -24.8341
  12   2.0000      -0.890579       -24.2339
  13   2.0000      -0.850110       -23.1327
  14   2.0000      -0.797229       -21.6937
  15   2.0000      -0.787539       -21.4300
  16   2.0000      -0.765329       -20.8257
  17   2.0000      -0.733556       -19.9611
  18   2.0000      -0.704771       -19.1778
  19   2.0000      -0.667721       -18.1696
  20   2.0000      -0.632089       -17.2000
  21   2.0000      -0.610812       -16.6210
  22   2.0000      -0.577961       -15.7271
  23   2.0000      -0.547868       -14.9083
  24   0.0000      -0.108922        -2.9639
  25   0.0000      -0.094656        -2.5757
  26   0.0000      -0.076984        -2.0948
  27   0.0000      -0.068991        -1.8773
  28   0.0000      -0.040875        -1.1123

MULLIKEN ATOMIC CHARGES
-----------------------
   0 C :   -0.720717
   1 N :   -0.228280
   2 C :    0.738360
   3 N :   -0.331921
   4 N :   -0.324116
   5 H :    0.207892
   6 H :    0.206943
   7 H :    0.174838
   8 H :    0.201305
   9 H :    0.205151
  10 C :   -1.225091
  11 H :    0.426453
  12 H :    0.431779
  13 H :    0.391841
  14 H :    0.377257
  15 H :    0.468306
Sum of atomic charges:    1.0000000

LOEWDIN ATOMIC CHARGES
----------------------
   0 C :   -0.218101
   1 N :    0.083497
   2 C :   -0.452153
   3 N :    0.214596
   4 N :    0.223043
   5 H :    0.127601
   6 H :    0.137466
   7 H :    0.166307
   8 H :    0.139799
   9 H :    0.142463
  10 C :   -0.067700
  11 H :    0.123764
  12 H :    0.135237
  13 H :    0.082148
  14 H :    0.074535
  15 H :    0.087497

  Mayer bond orders larger than 0.100000
B(  0-C ,  1-N ) :   0.7325 B(  0-C ,  2-C ) :  -0.1150 B(  0-C , 10-C ) :   0.5173
B(  0-C , 11-H ) :   0.8507 B(  0-C , 12-H ) :   0.8555 B(  1-N ,  2-C ) :   1.2271
B(  1-N ,  7-H ) :   1.0441 B(  2-C ,  3-N ) :   1.0154 B(  2-C ,  4-N ) :   1.1040
B(  3-N ,  8-H ) :   0.9890 B(  3-N ,  9-H ) :   1.0162 B(  4-N ,  5-H ) :   0.9544
B(  4-N ,  6-H ) :   1.0130 B( 10-C , 13-H ) :   0.9317 B( 10-C , 14-H ) :   0.9061
B( 10-C , 15-H ) :   0.8680

FINAL SINGLE POINT ENERGY      -283.780673447640

DIPOLE MOMENT
-------------
                                X             Y             Z
Electronic contribution:      3.00754      -2.70716      -3.08392
Nuclear contribution   :     -2.17768       2.37118       2.44574
                        -----------------------------------------
Total Dipole Moment    :      0.82986      -0.33598      -0.63819
                        -----------------------------------------
Magnitude (a.u.)       :      1.09947
Magnitude (Debye)      :      2.79462

Rotational constants in cm-1:     0.215650     0.075183     0.066454
Rotational constants in MHz :  6465.033740  2253.919004  1992.232519

                             ****ORCA TERMINATED NORMALLY****
TOTAL RUN TIME: 0 days 0 hours 0 minutes 55 seconds 569 msec
