                         Program Version 5.0.0 -  RELEASE  -
|  1> !LC-BLYP RIJCOSX def2-TZVPD def2/J TightSCF xyzfile
|  2>
|  3> *xyzfile 0 1 B.xyz
|  4>
|  5> %MaxCore 64000
|  6>
|  7> %pal nprocs 4
|  8> end
|  9>
| 10> %scf
| 11>   MaxIter 150
| 12> end
| 13>
| 14>
| 15>                          ****END OF INPUT****

CARTESIAN COORDINATES (ANGSTROEM)
---------------------------------
  C      1.963365   -1.749150   -1.896887
  N      2.738490   -2.015170   -3.097113
  C      0.611877    1.657634   -4.500288
  C      1.694991    1.541794   -5.570447
  H      2.697326    1.734659   -5.183996
  H      1.506656    2.272239   -6.358076
  S      1.780287   -0.033128   -6.428739
  C      4.049736   -2.154717   -3.152044
  N      4.658206   -1.986293   -4.318655
  N      4.764231   -2.454435   -2.050491
  H      4.287363   -2.776259   -1.217496
  H      5.750825   -2.658351   -2.125988
  H      2.345176   -1.690274   -3.971447
  H      4.109004   -1.592677   -5.071760
  H      5.649095   -2.156462   -4.427237
  O      2.569287    0.213657   -7.607360
  O      0.416880   -0.462969   -6.618595
  C      2.088520   -0.300912   -1.415204
  H      2.231272   -2.451616   -1.102643
  H      0.930249   -1.977801   -2.155438
  C      0.680356    0.655418   -3.348038
  H     -0.356865    1.549231   -4.991128
  H      0.650228    2.675438   -4.096000
  C      1.968993    0.733582   -2.535654
  H      3.051356   -0.168602   -0.911868
  H      1.316501   -0.136231   -0.657252
  O      2.505129   -0.933263   -5.482570
  H      2.824195    0.624726   -3.208464
  H      2.058919    1.730331   -2.093112
  H      0.542252   -0.344731   -3.766662
  H     -0.174219    0.829692   -2.685182

 Total Charge           Charge          ....    0
 Multiplicity           Mult            ....    1
 Number of Electrons    NEL             ....  120
 Basis Dimension        Dim             ....  689

ORBITAL ENERGIES
----------------

  NO   OCC          E(Eh)            E(eV)
   0   2.0000     -88.406948     -2405.6753
   1   2.0000     -18.880418      -513.7623
   2   2.0000     -18.860548      -513.2216
   3   2.0000     -18.859169      -513.1841
   4   2.0000     -14.257838      -387.9755
   5   2.0000     -14.228675      -387.1819
   6   2.0000     -14.225607      -387.0984
   7   2.0000     -10.255305      -279.0610
   8   2.0000     -10.141651      -275.9684
   9   2.0000     -10.091956      -274.6161
  10   2.0000     -10.072527      -274.0874
  11   2.0000     -10.060741      -273.7667
  12   2.0000     -10.059041      -273.7204
  13   2.0000     -10.057147      -273.6689
  14   2.0000      -7.949616      -216.3200
  15   2.0000      -5.978228      -162.6758
  16   2.0000      -5.976789      -162.6367
  17   2.0000      -5.975605      -162.6045
  18   2.0000      -1.173544       -31.9338
  19   2.0000      -1.166711       -31.7478
  20   2.0000      -1.059873       -28.8406
  21   2.0000      -1.045590       -28.4519
  22   2.0000      -1.030112       -28.0308
  23   2.0000      -1.029134       -28.0042
  24   2.0000      -0.933252       -25.3951
  25   2.0000      -0.894003       -24.3271
  26   2.0000      -0.845394       -23.0043
  27   2.0000      -0.805839       -21.9280
  28   2.0000      -0.778846       -21.1935
  29   2.0000      -0.744546       -20.2601
  30   2.0000      -0.736640       -20.0450
  31   2.0000      -0.702712       -19.1218
  32   2.0000      -0.681655       -18.5488
  33   2.0000      -0.662265       -18.0212
  34   2.0000      -0.644365       -17.5341
  35   2.0000      -0.630423       -17.1547
  36   2.0000      -0.609898       -16.5962
  37   2.0000      -0.587526       -15.9874
  38   2.0000      -0.584933       -15.9168
  39   2.0000      -0.578971       -15.7546
  40   2.0000      -0.562375       -15.3030
  41   2.0000      -0.545310       -14.8386
  42   2.0000      -0.533252       -14.5105
  43   2.0000      -0.522047       -14.2056
  44   2.0000      -0.504079       -13.7167
  45   2.0000      -0.496208       -13.5025
  46   2.0000      -0.479577       -13.0500
  47   2.0000      -0.471573       -12.8321
  48   2.0000      -0.464951       -12.6520
  49   2.0000      -0.438017       -11.9190
  50   2.0000      -0.434672       -11.8280
  51   2.0000      -0.429190       -11.6788
  52   2.0000      -0.411911       -11.2087
  53   2.0000      -0.408627       -11.1193
  54   2.0000      -0.402338       -10.9482
  55   2.0000      -0.393951       -10.7200
  56   2.0000      -0.365003        -9.9322
  57   2.0000      -0.355650        -9.6777
  58   2.0000      -0.346762        -9.4359
  59   2.0000      -0.319933        -8.7058
  60   0.0000       0.007121         0.1938
  61   0.0000       0.034408         0.9363
  62   0.0000       0.041087         1.1180
  63   0.0000       0.056193         1.5291
  64   0.0000       0.063039         1.7154

MULLIKEN ATOMIC CHARGES
-----------------------
   0 C :   -1.207787
   1 N :   -0.206784
   2 C :   -0.950269
   3 C :   -0.954896
   4 H :    0.410588
   5 H :    0.464020
   6 S :    1.023378
   7 C :    0.670736
   8 N :   -0.292378
   9 N :   -0.327203
  10 H :    0.201768
  11 H :    0.186620
  12 H :    0.516586
  13 H :    0.345242
  14 H :    0.119246
  15 O :   -0.654615
  16 O :   -0.642505
  17 C :   -0.644168
  18 H :    0.516560
  19 H :    0.478265
  20 C :   -0.776025
  21 H :    0.434088
  22 H :    0.428794
  23 C :   -0.641327
  24 H :    0.381337
  25 H :    0.459694
  26 O :   -0.890637
  27 H :    0.325388
  28 H :    0.441909
  29 H :    0.405049
  30 H :    0.379331
Sum of atomic charges:   -0.0000000

LOEWDIN ATOMIC CHARGES
----------------------
   0 C :   -0.180523
   1 N :    0.095559
   2 C :   -0.238642
   3 C :   -0.263270
   4 H :    0.099654
   5 H :    0.105905
   6 S :    0.406000
   7 C :   -0.456705
   8 N :    0.211062
   9 N :    0.194495
  10 H :    0.112476
  11 H :    0.121381
  12 H :    0.082023
  13 H :    0.076174
  14 H :    0.130858
  15 O :   -0.320051
  16 O :   -0.310184
  17 C :   -0.192457
  18 H :    0.116070
  19 H :    0.131516
  20 C :   -0.225663
  21 H :    0.116014
  22 H :    0.118614
  23 C :   -0.219257
  24 H :    0.111211
  25 H :    0.121718
  26 O :   -0.404011
  27 H :    0.106203
  28 H :    0.125889
  29 H :    0.102239
  30 H :    0.125703

  Mayer bond orders larger than 0.100000
B(  0-C ,  1-N ) :   0.7805 B(  0-C ,  7-C ) :  -0.1626 B(  0-C , 12-H ) :  -0.1850
B(  0-C , 17-C ) :   0.5026 B(  0-C , 18-H ) :   0.7456 B(  0-C , 19-H ) :   0.8499
B(  1-N ,  7-C ) :   1.2640 B(  1-N , 12-H ) :   0.7970 B(  1-N , 26-O ) :  -0.1002
B(  2-C ,  3-C ) :   0.5879 B(  2-C , 20-C ) :   0.7329 B(  2-C , 21-H ) :   0.9126
B(  2-C , 22-H ) :   0.8924 B(  3-C ,  4-H ) :   0.8639 B(  3-C ,  5-H ) :   0.8550
B(  3-C ,  6-S ) :   0.9066 B(  3-C , 15-O ) :   0.1463 B(  6-S , 15-O ) :   1.4579
B(  6-S , 16-O ) :   1.5146 B(  6-S , 26-O ) :   1.5397 B(  7-C ,  8-N ) :   1.0630
B(  7-C ,  9-N ) :   1.0051 B(  8-N , 13-H ) :   0.8420 B(  8-N , 14-H ) :   1.1028
B(  9-N , 10-H ) :   0.9573 B(  9-N , 11-H ) :   1.0291 B( 12-H , 26-O ) :  -0.1151
B( 17-C , 23-C ) :   0.6504 B( 17-C , 24-H ) :   0.9256 B( 17-C , 25-H ) :   0.9109
B( 20-C , 23-C ) :   0.1596 B( 20-C , 29-H ) :   0.9103 B( 20-C , 30-H ) :   0.9570
B( 23-C , 27-H ) :   1.0344 B( 23-C , 28-H ) :   0.8609 B( 23-C , 29-H ) :  -0.1207

FINAL SINGLE POINT ENERGY     -1063.669107810837

DIPOLE MOMENT
-------------
                                X             Y             Z
Electronic contribution:      2.23616      -4.93975     -14.17966
Nuclear contribution   :      0.44641       3.59123      19.13564
                        -----------------------------------------
Total Dipole Moment    :      2.68258      -1.34852       4.95598
                        -----------------------------------------
Magnitude (a.u.)       :      5.79452
Magnitude (Debye)      :     14.72850

Rotational constants in cm-1:     0.029186     0.014646     0.011115
Rotational constants in MHz :   874.975540   439.070287   333.231642

                             ****ORCA TERMINATED NORMALLY****
TOTAL RUN TIME: 0 days 0 hours 7 minutes 39 seconds 47 msec
