                         Program Version 5.0.0 -  RELEASE  -
|  1> !LC-BLYP RIJCOSX def2-TZVPD def2/J TightSCF
|  2> *xyz 0 1
|  3> C          0.61188        1.65763       -4.50029
|  4> C          1.69499        1.54179       -5.57045
|  5> H          2.69733        1.73466       -5.18400
|  6> H          1.50666        2.27224       -6.35808
|  7> S          1.78029       -0.03313       -6.42874
|  8> F          2.56929        0.21366       -7.60736
|  9> O          0.41688       -0.46297       -6.61859
| 10> O          2.50513       -0.93326       -5.48257
| 11> H         -0.34424        1.45871       -4.93752
| 12> H          0.61845        2.64655       -4.09174
| 13> H          0.80247        0.94882       -3.72173
| 14> *
| 15> %MaxCore 64000
| 16>
| 17> %pal nprocs 4
| 18> end
| 19>
| 20> %scf
| 21>   MaxIter 150
| 22> end
| 23>
| 24>
| 25>                          ****END OF INPUT****

CARTESIAN COORDINATES (ANGSTROEM)
---------------------------------
  C      0.611880    1.657630   -4.500290
  C      1.694990    1.541790   -5.570450
  H      2.697330    1.734660   -5.184000
  H      1.506660    2.272240   -6.358080
  S      1.780290   -0.033130   -6.428740
  F      2.569290    0.213660   -7.607360
  O      0.416880   -0.462970   -6.618590
  O      2.505130   -0.933260   -5.482570
  H     -0.344240    1.458710   -4.937520
  H      0.618450    2.646550   -4.091740
  H      0.802470    0.948820   -3.721730

 Total Charge           Charge          ....    0
 Multiplicity           Mult            ....    1
 Number of Electrons    NEL             ....   58
 Basis Dimension        Dim             ....  285

ORBITAL ENERGIES
----------------

  NO   OCC          E(Eh)            E(eV)
   0   2.0000     -88.520710     -2408.7710
   1   2.0000     -24.579595      -668.8448
   2   2.0000     -18.956493      -515.8324
   3   2.0000     -18.937132      -515.3056
   4   2.0000     -10.133152      -275.7371
   5   2.0000     -10.087279      -274.4888
   6   2.0000      -8.063546      -219.4202
   7   2.0000      -6.095208      -165.8590
   8   2.0000      -6.088390      -165.6735
   9   2.0000      -6.088152      -165.6670
  10   2.0000      -1.469981       -40.0002
  11   2.0000      -1.201522       -32.6951
  12   2.0000      -1.095399       -29.8073
  13   2.0000      -0.934899       -25.4399
  14   2.0000      -0.845638       -23.0110
  15   2.0000      -0.785667       -21.3791
  16   2.0000      -0.695484       -18.9251
  17   2.0000      -0.695277       -18.9195
  18   2.0000      -0.661874       -18.0105
  19   2.0000      -0.603217       -16.4144
  20   2.0000      -0.588765       -16.0211
  21   2.0000      -0.543977       -14.8024
  22   2.0000      -0.535795       -14.5797
  23   2.0000      -0.511815       -13.9272
  24   2.0000      -0.490786       -13.3550
  25   2.0000      -0.488547       -13.2940
  26   2.0000      -0.438020       -11.9191
  27   2.0000      -0.419550       -11.4165
  28   2.0000      -0.404661       -11.0114
  29   0.0000       0.032581         0.8866
  30   0.0000       0.050064         1.3623
  31   0.0000       0.056154         1.5280
  32   0.0000       0.060484         1.6458
  33   0.0000       0.086269         2.3475

MULLIKEN ATOMIC CHARGES
-----------------------
   0 C :   -1.300216
   1 C :   -0.714104
   2 H :    0.443472
   3 H :    0.447091
   4 S :    1.063192
   5 F :   -0.089174
   6 O :   -0.517211
   7 O :   -0.563571
   8 H :    0.410402
   9 H :    0.429412
  10 H :    0.390707
Sum of atomic charges:   -0.0000000

LOEWDIN ATOMIC CHARGES
----------------------
   0 C :   -0.112484
   1 C :   -0.301953
   2 H :    0.108997
   3 H :    0.102136
   4 S :    0.553872
   5 F :   -0.034620
   6 O :   -0.257248
   7 O :   -0.299090
   8 H :    0.076182
   9 H :    0.080212
  10 H :    0.083998

  Mayer bond orders larger than 0.100000
B(  0-C ,  1-C ) :   0.5257 B(  0-C ,  8-H ) :   0.8961 B(  0-C ,  9-H ) :   0.8629
B(  0-C , 10-H ) :   0.9180 B(  1-C ,  2-H ) :   0.8465 B(  1-C ,  3-H ) :   0.8169
B(  1-C ,  4-S ) :   0.9313 B(  4-S ,  5-F ) :   1.0316 B(  4-S ,  6-O ) :   1.7080
B(  4-S ,  7-O ) :   1.6621

FINAL SINGLE POINT ENERGY      -726.984007433536

DIPOLE MOMENT
-------------
                                X             Y             Z
Electronic contribution:      3.86673      -5.61047      -7.53477
Nuclear contribution   :     -3.66946       7.33549       7.42434
                        -----------------------------------------
Total Dipole Moment    :      0.19726       1.72502      -0.11042
                        -----------------------------------------
Magnitude (a.u.)       :      1.73977
Magnitude (Debye)      :      4.42214

Rotational constants in cm-1:     0.158379     0.080294     0.077843
Rotational constants in MHz :  4748.076444  2407.152850  2333.668303

                             ****ORCA TERMINATED NORMALLY****
TOTAL RUN TIME: 0 days 0 hours 0 minutes 39 seconds 726 msec
