                         Program Version 5.0.0 -  RELEASE  -
|  1> !LC-BLYP RIJCOSX def2-TZVPD def2/J TightSCF
|  2> *xyz 0 1
|  3> C          1.96337       -1.74915       -1.89689
|  4> C          2.73849       -2.01517       -3.09711
|  5> C          4.04974       -2.15472       -3.15204
|  6> N          4.65821       -1.98629       -4.31866
|  7> N          4.76423       -2.45444       -2.05049
|  8> H          4.28736       -2.77626       -1.21750
|  9> H          5.75082       -2.65835       -2.12599
| 10> H          2.34518       -1.69027       -3.97145
| 11> H          4.10900       -1.59268       -5.07176
| 12> H          5.64910       -2.15646       -4.42724
| 13> C          2.08852       -0.30091       -1.41520
| 14> H          2.23127       -2.45162       -1.10264
| 15> H          0.93025       -1.97780       -2.15544
| 16> H          1.82118        0.36368       -2.21003
| 17> H          3.09792       -0.11068       -1.11551
| 18> H          1.43391       -0.14382       -0.58352
| 19> *
| 20> %MaxCore 64000
| 21>
| 22> %pal nprocs 4
| 23> end
| 24>
| 25> %scf
| 26>   MaxIter 150
| 27> end
| 28>
| 29>
| 30>                          ****END OF INPUT****

CARTESIAN COORDINATES (ANGSTROEM)
---------------------------------
  C      1.963370   -1.749150   -1.896890
  C      2.738490   -2.015170   -3.097110
  C      4.049740   -2.154720   -3.152040
  N      4.658210   -1.986290   -4.318660
  N      4.764230   -2.454440   -2.050490
  H      4.287360   -2.776260   -1.217500
  H      5.750820   -2.658350   -2.125990
  H      2.345180   -1.690270   -3.971450
  H      4.109000   -1.592680   -5.071760
  H      5.649100   -2.156460   -4.427240
  C      2.088520   -0.300910   -1.415200
  H      2.231270   -2.451620   -1.102640
  H      0.930250   -1.977800   -2.155440
  H      1.821180    0.363680   -2.210030
  H      3.097920   -0.110680   -1.115510
  H      1.433910   -0.143820   -0.583520

 Total Charge           Charge          ....    0
 Multiplicity           Mult            ....    1
 Number of Electrons    NEL             ....   48
 Basis Dimension        Dim             ....  312

ORBITAL ENERGIES
----------------

  NO   OCC          E(Eh)            E(eV)
   0   2.0000     -14.171988      -385.6394
   1   2.0000     -14.169144      -385.5620
   2   2.0000     -10.114137      -275.2197
   3   2.0000     -10.042287      -273.2645
   4   2.0000     -10.030600      -272.9465
   5   2.0000      -9.988727      -271.8071
   6   2.0000      -1.062476       -28.9114
   7   2.0000      -0.972579       -26.4652
   8   2.0000      -0.882628       -24.0175
   9   2.0000      -0.801406       -21.8074
  10   2.0000      -0.724234       -19.7074
  11   2.0000      -0.686337       -18.6762
  12   2.0000      -0.648087       -17.6353
  13   2.0000      -0.614769       -16.7287
  14   2.0000      -0.574019       -15.6199
  15   2.0000      -0.543212       -14.7816
  16   2.0000      -0.527402       -14.3513
  17   2.0000      -0.492015       -13.3884
  18   2.0000      -0.482099       -13.1186
  19   2.0000      -0.457348       -12.4451
  20   2.0000      -0.426400       -11.6029
  21   2.0000      -0.414861       -11.2889
  22   2.0000      -0.366662        -9.9774
  23   2.0000      -0.253913        -6.9093
  24   0.0000       0.046706         1.2709
  25   0.0000       0.072304         1.9675
  26   0.0000       0.076267         2.0753
  27   0.0000       0.086237         2.3466
  28   0.0000       0.102604         2.7920

MULLIKEN ATOMIC CHARGES
-----------------------
   0 C :   -0.861136
   1 C :   -0.394924
   2 C :    0.420850
   3 N :   -0.381036
   4 N :   -0.374141
   5 H :    0.165822
   6 H :    0.136320
   7 H :    0.263215
   8 H :    0.163736
   9 H :    0.151309
  10 C :   -1.211149
  11 H :    0.443987
  12 H :    0.339624
  13 H :    0.375926
  14 H :    0.346964
  15 H :    0.414633
Sum of atomic charges:   -0.0000000

LOEWDIN ATOMIC CHARGES
----------------------
   0 C :   -0.296722
   1 C :   -0.164328
   2 C :   -0.559507
   3 N :    0.115246
   4 N :    0.135905
   5 H :    0.100302
   6 H :    0.096817
   7 H :    0.070396
   8 H :    0.109753
   9 H :    0.100243
  10 C :   -0.113072
  11 H :    0.099719
  12 H :    0.106415
  13 H :    0.070706
  14 H :    0.065747
  15 H :    0.062380

  Mayer bond orders larger than 0.100000
B(  0-C ,  1-C ) :   0.4497 B(  0-C , 10-C ) :   0.4473 B(  0-C , 11-H ) :   0.8833
B(  0-C , 12-H ) :   1.0975 B(  1-C ,  2-C ) :   1.1565 B(  1-C ,  7-H ) :   1.2540
B(  1-C , 11-H ) :  -0.1041 B(  1-C , 12-H ) :  -0.1170 B(  2-C ,  3-N ) :   0.9783
B(  2-C ,  4-N ) :   0.8756 B(  2-C ,  7-H ) :  -0.3048 B(  3-N ,  8-H ) :   1.0089
B(  3-N ,  9-H ) :   1.0690 B(  4-N ,  5-H ) :   0.9889 B(  4-N ,  6-H ) :   1.0850
B( 10-C , 13-H ) :   0.9613 B( 10-C , 14-H ) :   0.9416 B( 10-C , 15-H ) :   0.8985
B( 11-H , 12-H ) :   0.1104

FINAL SINGLE POINT ENERGY      -267.300264642633

DIPOLE MOMENT
-------------
                                X             Y             Z
Electronic contribution:      3.26537      -2.43015      -2.51312
Nuclear contribution   :     -2.31778       2.31977       2.35294
                        -----------------------------------------
Total Dipole Moment    :      0.94760      -0.11038      -0.16019
                        -----------------------------------------
Magnitude (a.u.)       :      0.96736
Magnitude (Debye)      :      2.45883

Rotational constants in cm-1:     0.219415     0.075373     0.066689
Rotational constants in MHz :  6577.897266  2259.621393  1999.290981

                             ****ORCA TERMINATED NORMALLY****
TOTAL RUN TIME: 0 days 0 hours 0 minutes 58 seconds 946 msec
