                         Program Version 5.0.0 -  RELEASE  -
|  1> !LC-BLYP RIJCOSX def2-TZVPD def2/J TightSCF
|  2> *xyz 0 1
|  3> C          0.61188        1.65763       -4.50029
|  4> C          1.69499        1.54179       -5.57045
|  5> H          2.69733        1.73466       -5.18400
|  6> H          1.50666        2.27224       -6.35808
|  7> S          1.78029       -0.03313       -6.42874
|  8> O          2.56929        0.21366       -7.60736
|  9> F          0.41688       -0.46297       -6.61859
| 10> O          2.50513       -0.93326       -5.48257
| 11> H         -0.34424        1.45871       -4.93752
| 12> H          0.61845        2.64655       -4.09174
| 13> H          0.80247        0.94882       -3.72173
| 14> *
| 15> %MaxCore 64000
| 16>
| 17> %pal nprocs 4
| 18> end
| 19>
| 20> %scf
| 21>   MaxIter 150
| 22> end
| 23>
| 24>
| 25>                          ****END OF INPUT****

CARTESIAN COORDINATES (ANGSTROEM)
---------------------------------
  C      0.611880    1.657630   -4.500290
  C      1.694990    1.541790   -5.570450
  H      2.697330    1.734660   -5.184000
  H      1.506660    2.272240   -6.358080
  S      1.780290   -0.033130   -6.428740
  O      2.569290    0.213660   -7.607360
  F      0.416880   -0.462970   -6.618590
  O      2.505130   -0.933260   -5.482570
  H     -0.344240    1.458710   -4.937520
  H      0.618450    2.646550   -4.091740
  H      0.802470    0.948820   -3.721730

 Total Charge           Charge          ....    0
 Multiplicity           Mult            ....    1
 Number of Electrons    NEL             ....   58
 Basis Dimension        Dim             ....  285

ORBITAL ENERGIES
----------------

  NO   OCC          E(Eh)            E(eV)
   0   2.0000     -88.520370     -2408.7617
   1   2.0000     -24.579048      -668.8299
   2   2.0000     -18.956042      -515.8201
   3   2.0000     -18.937256      -515.3089
   4   2.0000     -10.132848      -275.7288
   5   2.0000     -10.093030      -274.6453
   6   2.0000      -8.063221      -219.4114
   7   2.0000      -6.095075      -165.8554
   8   2.0000      -6.087934      -165.6611
   9   2.0000      -6.087786      -165.6571
  10   2.0000      -1.468404       -39.9573
  11   2.0000      -1.202428       -32.7197
  12   2.0000      -1.095157       -29.8007
  13   2.0000      -0.938799       -25.5460
  14   2.0000      -0.841168       -22.8893
  15   2.0000      -0.791160       -21.5286
  16   2.0000      -0.707683       -19.2570
  17   2.0000      -0.693469       -18.8702
  18   2.0000      -0.651349       -17.7241
  19   2.0000      -0.604116       -16.4388
  20   2.0000      -0.582086       -15.8394
  21   2.0000      -0.556673       -15.1478
  22   2.0000      -0.540662       -14.7122
  23   2.0000      -0.516331       -14.0501
  24   2.0000      -0.498874       -13.5750
  25   2.0000      -0.485345       -13.2069
  26   2.0000      -0.436625       -11.8812
  27   2.0000      -0.419514       -11.4156
  28   2.0000      -0.404923       -11.0185
  29   0.0000       0.032638         0.8881
  30   0.0000       0.050013         1.3609
  31   0.0000       0.056291         1.5317
  32   0.0000       0.060051         1.6341
  33   0.0000       0.085912         2.3378

MULLIKEN ATOMIC CHARGES
-----------------------
   0 C :   -1.319459
   1 C :   -0.669518
   2 H :    0.424576
   3 H :    0.447117
   4 S :    1.055528
   5 O :   -0.505998
   6 F :   -0.107967
   7 O :   -0.564587
   8 H :    0.419590
   9 H :    0.423468
  10 H :    0.397251
Sum of atomic charges:   -0.0000000

LOEWDIN ATOMIC CHARGES
----------------------
   0 C :   -0.122603
   1 C :   -0.293572
   2 H :    0.118396
   3 H :    0.104985
   4 S :    0.551416
   5 O :   -0.258822
   6 F :   -0.033707
   7 O :   -0.298313
   8 H :    0.072030
   9 H :    0.079410
  10 H :    0.080781

  Mayer bond orders larger than 0.100000
B(  0-C ,  1-C ) :   0.4387 B(  0-C ,  8-H ) :   0.8681 B(  0-C ,  9-H ) :   0.8860
B(  0-C , 10-H ) :   0.9343 B(  1-C ,  2-H ) :   0.8629 B(  1-C ,  3-H ) :   0.8495
B(  1-C ,  4-S ) :   0.9410 B(  4-S ,  5-O ) :   1.7228 B(  4-S ,  6-F ) :   1.0288
B(  4-S ,  7-O ) :   1.6687

FINAL SINGLE POINT ENERGY      -726.983885526078

DIPOLE MOMENT
-------------
                                X             Y             Z
Electronic contribution:      0.23364      -6.73741      -5.83903
Nuclear contribution   :     -1.42658       8.04056       6.39401
                        -----------------------------------------
Total Dipole Moment    :     -1.19294       1.30315       0.55498
                        -----------------------------------------
Magnitude (a.u.)       :      1.85184
Magnitude (Debye)      :      4.70701

Rotational constants in cm-1:     0.153659     0.082363     0.078978
Rotational constants in MHz :  4606.587369  2469.179541  2367.702074

                             ****ORCA TERMINATED NORMALLY****
TOTAL RUN TIME: 0 days 0 hours 0 minutes 39 seconds 144 msec
