                         Program Version 5.0.0 -  RELEASE  -
|  1> !LC-BLYP RIJCOSX def2-TZVPD def2/J TightSCF
|  2> *xyz 0 1
|  3> C          1.96337       -1.74915       -1.89689
|  4> N          2.73849       -2.01517       -3.09711
|  5> C          4.04974       -2.15472       -3.15204
|  6> C          4.65821       -1.98629       -4.31866
|  7> N          4.76423       -2.45444       -2.05049
|  8> H          4.28736       -2.77626       -1.21750
|  9> H          5.75082       -2.65835       -2.12599
| 10> H          2.34518       -1.69027       -3.97145
| 11> H          4.10900       -1.59268       -5.07176
| 12> H          5.64910       -2.15646       -4.42724
| 13> C          2.08852       -0.30091       -1.41520
| 14> H          2.23127       -2.45162       -1.10264
| 15> H          0.93025       -1.97780       -2.15544
| 16> H          1.82118        0.36368       -2.21003
| 17> H          3.09792       -0.11068       -1.11551
| 18> H          1.43391       -0.14382       -0.58352
| 19> *
| 20> %MaxCore 64000
| 21>
| 22> %pal nprocs 4
| 23> end
| 24>
| 25> %scf
| 26>   MaxIter 150
| 27> end
| 28>
| 29>
| 30>                          ****END OF INPUT****

CARTESIAN COORDINATES (ANGSTROEM)
---------------------------------
  C      1.963370   -1.749150   -1.896890
  N      2.738490   -2.015170   -3.097110
  C      4.049740   -2.154720   -3.152040
  C      4.658210   -1.986290   -4.318660
  N      4.764230   -2.454440   -2.050490
  H      4.287360   -2.776260   -1.217500
  H      5.750820   -2.658350   -2.125990
  H      2.345180   -1.690270   -3.971450
  H      4.109000   -1.592680   -5.071760
  H      5.649100   -2.156460   -4.427240
  C      2.088520   -0.300910   -1.415200
  H      2.231270   -2.451620   -1.102640
  H      0.930250   -1.977800   -2.155440
  H      1.821180    0.363680   -2.210030
  H      3.097920   -0.110680   -1.115510
  H      1.433910   -0.143820   -0.583520

 Total Charge           Charge          ....    0
 Multiplicity           Mult            ....    1
 Number of Electrons    NEL             ....   48
 Basis Dimension        Dim             ....  312

ORBITAL ENERGIES
----------------

  NO   OCC          E(Eh)            E(eV)
   0   2.0000     -14.170379      -385.5956
   1   2.0000     -14.169173      -385.5628
   2   2.0000     -10.115908      -275.2679
   3   2.0000     -10.108361      -275.0625
   4   2.0000     -10.055741      -273.6306
   5   2.0000      -9.980243      -271.5762
   6   2.0000      -1.071256       -29.1504
   7   2.0000      -0.985514       -26.8172
   8   2.0000      -0.880242       -23.9526
   9   2.0000      -0.809303       -22.0223
  10   2.0000      -0.737848       -20.0779
  11   2.0000      -0.705563       -19.1993
  12   2.0000      -0.642184       -17.4747
  13   2.0000      -0.601562       -16.3693
  14   2.0000      -0.581846       -15.8328
  15   2.0000      -0.542277       -14.7561
  16   2.0000      -0.538516       -14.6538
  17   2.0000      -0.504463       -13.7271
  18   2.0000      -0.484782       -13.1916
  19   2.0000      -0.474948       -12.9240
  20   2.0000      -0.462472       -12.5845
  21   2.0000      -0.455253       -12.3881
  22   2.0000      -0.353793        -9.6272
  23   2.0000      -0.258152        -7.0247
  24   0.0000       0.047038         1.2800
  25   0.0000       0.070994         1.9318
  26   0.0000       0.074361         2.0235
  27   0.0000       0.077671         2.1135
  28   0.0000       0.105108         2.8601

MULLIKEN ATOMIC CHARGES
-----------------------
   0 C :   -0.714083
   1 N :   -0.277212
   2 C :    0.781607
   3 C :   -1.198801
   4 N :   -0.376045
   5 H :    0.161565
   6 H :    0.157738
   7 H :    0.141120
   8 H :    0.273679
   9 H :    0.288296
  10 C :   -1.200419
  11 H :    0.390425
  12 H :    0.414671
  13 H :    0.350025
  14 H :    0.358156
  15 H :    0.449280
Sum of atomic charges:   -0.0000000

LOEWDIN ATOMIC CHARGES
----------------------
   0 C :   -0.256280
   1 N :    0.012375
   2 C :   -0.580596
   3 C :   -0.006322
   4 N :    0.130563
   5 H :    0.090147
   6 H :    0.108289
   7 H :    0.142254
   8 H :    0.011666
   9 H :    0.010751
  10 C :   -0.094842
  11 H :    0.108365
  12 H :    0.116154
  13 H :    0.072038
  14 H :    0.067885
  15 H :    0.067552

  Mayer bond orders larger than 0.100000
B(  0-C ,  1-N ) :   0.7399 B(  0-C ,  2-C ) :  -0.1341 B(  0-C , 10-C ) :   0.5171
B(  0-C , 11-H ) :   0.8906 B(  0-C , 12-H ) :   0.8731 B(  1-N ,  2-C ) :   1.0149
B(  1-N ,  3-C ) :   0.1096 B(  1-N ,  7-H ) :   1.0161 B(  2-C ,  3-C ) :   0.8853
B(  2-C ,  4-N ) :   0.8564 B(  2-C ,  8-H ) :  -0.1119 B(  2-C ,  9-H ) :  -0.1426
B(  3-C ,  8-H ) :   1.0308 B(  3-C ,  9-H ) :   1.1196 B(  4-N ,  5-H ) :   1.0189
B(  4-N ,  6-H ) :   1.0330 B( 10-C , 13-H ) :   0.9601 B( 10-C , 14-H ) :   0.9310
B( 10-C , 15-H ) :   0.8884

FINAL SINGLE POINT ENERGY      -267.295299803667

DIPOLE MOMENT
-------------
                                X             Y             Z
Electronic contribution:      1.39085      -2.32800      -1.19959
Nuclear contribution   :     -1.91052       2.32590       2.09379
                        -----------------------------------------
Total Dipole Moment    :     -0.51967      -0.00211       0.89420
                        -----------------------------------------
Magnitude (a.u.)       :      1.03424
Magnitude (Debye)      :      2.62883

Rotational constants in cm-1:     0.219448     0.077923     0.068804
Rotational constants in MHz :  6578.886179  2336.083179  2062.700476

                             ****ORCA TERMINATED NORMALLY****
TOTAL RUN TIME: 0 days 0 hours 0 minutes 55 seconds 295 msec
