                         Program Version 5.0.0 -  RELEASE  -
|  1> !LC-BLYP RIJCOSX def2-TZVPD def2/J TightSCF
|  2> *xyz 0 1
|  3> C          0.61188        1.65763       -4.50029
|  4> C          1.69499        1.54179       -5.57045
|  5> H          2.69733        1.73466       -5.18400
|  6> H          1.50666        2.27224       -6.35808
|  7> S          1.78029       -0.03313       -6.42874
|  8> O          2.56929        0.21366       -7.60736
|  9> O          0.41688       -0.46297       -6.61859
| 10> F          2.50513       -0.93326       -5.48257
| 11> H         -0.34424        1.45871       -4.93752
| 12> H          0.61845        2.64655       -4.09174
| 13> H          0.80247        0.94882       -3.72173
| 14> *
| 15> %MaxCore 64000
| 16>
| 17> %pal nprocs 4
| 18> end
| 19>
| 20> %scf
| 21>   MaxIter 150
| 22> end
| 23>
| 24>
| 25>                          ****END OF INPUT****

CARTESIAN COORDINATES (ANGSTROEM)
---------------------------------
  C      0.611880    1.657630   -4.500290
  C      1.694990    1.541790   -5.570450
  H      2.697330    1.734660   -5.184000
  H      1.506660    2.272240   -6.358080
  S      1.780290   -0.033130   -6.428740
  O      2.569290    0.213660   -7.607360
  O      0.416880   -0.462970   -6.618590
  F      2.505130   -0.933260   -5.482570
  H     -0.344240    1.458710   -4.937520
  H      0.618450    2.646550   -4.091740
  H      0.802470    0.948820   -3.721730

 Total Charge           Charge          ....    0
 Multiplicity           Mult            ....    1
 Number of Electrons    NEL             ....   58
 Basis Dimension        Dim             ....  285

ORBITAL ENERGIES
----------------

  NO   OCC          E(Eh)            E(eV)
   0   2.0000     -88.517648     -2408.6877
   1   2.0000     -24.551419      -668.0781
   2   2.0000     -18.956110      -515.8220
   3   2.0000     -18.955364      -515.8017
   4   2.0000     -10.131807      -275.7005
   5   2.0000     -10.087929      -274.5065
   6   2.0000      -8.060491      -219.3371
   7   2.0000      -6.092401      -165.7827
   8   2.0000      -6.085490      -165.5946
   9   2.0000      -6.084898      -165.5785
  10   2.0000      -1.425737       -38.7963
  11   2.0000      -1.213333       -33.0165
  12   2.0000      -1.122112       -30.5342
  13   2.0000      -0.935338       -25.4518
  14   2.0000      -0.828005       -22.5312
  15   2.0000      -0.777714       -21.1627
  16   2.0000      -0.682720       -18.5778
  17   2.0000      -0.663086       -18.0435
  18   2.0000      -0.652563       -17.7571
  19   2.0000      -0.602077       -16.3833
  20   2.0000      -0.583916       -15.8892
  21   2.0000      -0.561044       -15.2668
  22   2.0000      -0.537719       -14.6321
  23   2.0000      -0.510066       -13.8796
  24   2.0000      -0.506554       -13.7840
  25   2.0000      -0.484072       -13.1723
  26   2.0000      -0.444739       -12.1020
  27   2.0000      -0.436038       -11.8652
  28   2.0000      -0.425389       -11.5754
  29   0.0000       0.035558         0.9676
  30   0.0000       0.052444         1.4271
  31   0.0000       0.056633         1.5411
  32   0.0000       0.059136         1.6092
  33   0.0000       0.087296         2.3754

MULLIKEN ATOMIC CHARGES
-----------------------
   0 C :   -1.264947
   1 C :   -0.721036
   2 H :    0.453559
   3 H :    0.429734
   4 S :    1.071439
   5 O :   -0.515677
   6 O :   -0.520406
   7 F :   -0.156537
   8 H :    0.406624
   9 H :    0.430710
  10 H :    0.386537
Sum of atomic charges:    0.0000000

LOEWDIN ATOMIC CHARGES
----------------------
   0 C :   -0.122101
   1 C :   -0.293896
   2 H :    0.108347
   3 H :    0.112940
   4 S :    0.554079
   5 O :   -0.260261
   6 O :   -0.255531
   7 F :   -0.075916
   8 H :    0.075257
   9 H :    0.078671
  10 H :    0.078411

  Mayer bond orders larger than 0.100000
B(  0-C ,  1-C ) :   0.4749 B(  0-C ,  8-H ) :   0.9220 B(  0-C ,  9-H ) :   0.8750
B(  0-C , 10-H ) :   0.9034 B(  1-C ,  2-H ) :   0.8275 B(  1-C ,  3-H ) :   0.8588
B(  1-C ,  4-S ) :   0.9399 B(  4-S ,  5-O ) :   1.7132 B(  4-S ,  6-O ) :   1.7054
B(  4-S ,  7-F ) :   0.9752

FINAL SINGLE POINT ENERGY      -727.007380385682

DIPOLE MOMENT
-------------
                                X             Y             Z
Electronic contribution:      3.77833      -7.57378      -3.90332
Nuclear contribution   :     -3.60260       8.53062       5.21025
                        -----------------------------------------
Total Dipole Moment    :      0.17572       0.95684       1.30692
                        -----------------------------------------
Magnitude (a.u.)       :      1.62925
Magnitude (Debye)      :      4.14123

Rotational constants in cm-1:     0.154011     0.080858     0.079602
Rotational constants in MHz :  4617.134198  2424.070332  2386.404775

                             ****ORCA TERMINATED NORMALLY****
TOTAL RUN TIME: 0 days 0 hours 0 minutes 39 seconds 660 msec
