                         Program Version 5.0.0 -  RELEASE  -
|  1> !LC-BLYP RIJCOSX def2-TZVPD def2/J TightSCF
|  2> *xyz 0 1
|  3> C          1.96337       -1.74915       -1.89689
|  4> N          2.73849       -2.01517       -3.09711
|  5> C          4.04974       -2.15472       -3.15204
|  6> N          4.65821       -1.98629       -4.31866
|  7> C          4.76423       -2.45444       -2.05049
|  8> H          4.28736       -2.77626       -1.21750
|  9> H          5.75082       -2.65835       -2.12599
| 10> H          2.34518       -1.69027       -3.97145
| 11> H          4.10900       -1.59268       -5.07176
| 12> H          5.64910       -2.15646       -4.42724
| 13> C          2.08852       -0.30091       -1.41520
| 14> H          2.23127       -2.45162       -1.10264
| 15> H          0.93025       -1.97780       -2.15544
| 16> H          1.82118        0.36368       -2.21003
| 17> H          3.09792       -0.11068       -1.11551
| 18> H          1.43391       -0.14382       -0.58352
| 19> *
| 20> %MaxCore 64000
| 21>
| 22> %pal nprocs 4
| 23> end
| 24>
| 25> %scf
| 26>   MaxIter 150
| 27> end
| 28>
| 29>
| 30>                          ****END OF INPUT****

CARTESIAN COORDINATES (ANGSTROEM)
---------------------------------
  C      1.963370   -1.749150   -1.896890
  N      2.738490   -2.015170   -3.097110
  C      4.049740   -2.154720   -3.152040
  N      4.658210   -1.986290   -4.318660
  C      4.764230   -2.454440   -2.050490
  H      4.287360   -2.776260   -1.217500
  H      5.750820   -2.658350   -2.125990
  H      2.345180   -1.690270   -3.971450
  H      4.109000   -1.592680   -5.071760
  H      5.649100   -2.156460   -4.427240
  C      2.088520   -0.300910   -1.415200
  H      2.231270   -2.451620   -1.102640
  H      0.930250   -1.977800   -2.155440
  H      1.821180    0.363680   -2.210030
  H      3.097920   -0.110680   -1.115510
  H      1.433910   -0.143820   -0.583520

 Total Charge           Charge          ....    0
 Multiplicity           Mult            ....    1
 Number of Electrons    NEL             ....   48
 Basis Dimension        Dim             ....  312

ORBITAL ENERGIES
----------------

  NO   OCC          E(Eh)            E(eV)
   0   2.0000     -14.173781      -385.6882
   1   2.0000     -14.172406      -385.6508
   2   2.0000     -10.117873      -275.3213
   3   2.0000     -10.101817      -274.8844
   4   2.0000     -10.049041      -273.4483
   5   2.0000      -9.980746      -271.5899
   6   2.0000      -1.076911       -29.3042
   7   2.0000      -0.990001       -26.9393
   8   2.0000      -0.862693       -23.4751
   9   2.0000      -0.815321       -22.1860
  10   2.0000      -0.751644       -20.4533
  11   2.0000      -0.667990       -18.1769
  12   2.0000      -0.653413       -17.7803
  13   2.0000      -0.629243       -17.1226
  14   2.0000      -0.573129       -15.5956
  15   2.0000      -0.544587       -14.8190
  16   2.0000      -0.523413       -14.2428
  17   2.0000      -0.500584       -13.6216
  18   2.0000      -0.481733       -13.1086
  19   2.0000      -0.469777       -12.7833
  20   2.0000      -0.465642       -12.6708
  21   2.0000      -0.444528       -12.0962
  22   2.0000      -0.350662        -9.5420
  23   2.0000      -0.260240        -7.0815
  24   0.0000       0.047306         1.2873
  25   0.0000       0.067934         1.8486
  26   0.0000       0.077630         2.1124
  27   0.0000       0.079468         2.1624
  28   0.0000       0.105535         2.8718

MULLIKEN ATOMIC CHARGES
-----------------------
   0 C :   -0.669190
   1 N :   -0.296367
   2 C :    0.723723
   3 N :   -0.346628
   4 C :   -1.214609
   5 H :    0.266276
   6 H :    0.334791
   7 H :    0.135618
   8 H :    0.157949
   9 H :    0.164781
  10 C :   -1.253202
  11 H :    0.392989
  12 H :    0.413256
  13 H :    0.360853
  14 H :    0.372999
  15 H :    0.456760
Sum of atomic charges:    0.0000000

LOEWDIN ATOMIC CHARGES
----------------------
   0 C :   -0.251444
   1 N :    0.011157
   2 C :   -0.583212
   3 N :    0.122314
   4 C :    0.001133
   5 H :    0.004433
   6 H :    0.008034
   7 H :    0.135054
   8 H :    0.099718
   9 H :    0.113309
  10 C :   -0.094048
  11 H :    0.113574
  12 H :    0.115654
  13 H :    0.068766
  14 H :    0.066896
  15 H :    0.068663

  Mayer bond orders larger than 0.100000
B(  0-C ,  1-N ) :   0.6743 B(  0-C ,  4-C ) :   0.1243 B(  0-C , 10-C ) :   0.5015
B(  0-C , 11-H ) :   0.8930 B(  0-C , 12-H ) :   0.8496 B(  1-N ,  2-C ) :   0.9633
B(  1-N ,  7-H ) :   1.0859 B(  2-C ,  3-N ) :   0.8530 B(  2-C ,  4-C ) :   1.0809
B(  2-C ,  6-H ) :  -0.1137 B(  3-N ,  8-H ) :   1.0432 B(  3-N ,  9-H ) :   1.0271
B(  4-C ,  5-H ) :   1.0242 B(  4-C ,  6-H ) :   1.0281 B( 10-C , 13-H ) :   0.9432
B( 10-C , 14-H ) :   0.9487 B( 10-C , 15-H ) :   0.8637

FINAL SINGLE POINT ENERGY      -267.294957233131

DIPOLE MOMENT
-------------
                                X             Y             Z
Electronic contribution:      1.33015      -1.82003      -3.40654
Nuclear contribution   :     -1.88803       2.22658       2.57497
                        -----------------------------------------
Total Dipole Moment    :     -0.55788       0.40655      -0.83156
                        -----------------------------------------
Magnitude (a.u.)       :      1.08075
Magnitude (Debye)      :      2.74704

Rotational constants in cm-1:     0.226509     0.075782     0.067928
Rotational constants in MHz :  6790.555051  2271.890226  2036.439218

                             ****ORCA TERMINATED NORMALLY****
TOTAL RUN TIME: 0 days 0 hours 0 minutes 52 seconds 95 msec
