                         Program Version 5.0.0 -  RELEASE  -
|  1> !LC-BLYP RIJCOSX def2-TZVPD def2/J TightSCF xyzfile
|  2>
|  3> *xyzfile 0 1 D1.xyz
|  4>
|  5> %MaxCore 64000
|  6>
|  7> %pal nprocs 4
|  8> end
|  9>
| 10> %scf
| 11>   MaxIter 150
| 12> end
| 13>
| 14>
| 15>                          ****END OF INPUT****

CARTESIAN COORDINATES (ANGSTROEM)
---------------------------------
  C      1.963365   -1.749150   -1.896887
  C      2.738490   -2.015170   -3.097113
  C      0.611877    1.657634   -4.500288
  C      1.694991    1.541794   -5.570447
  H      2.697326    1.734659   -5.183996
  H      1.506656    2.272239   -6.358076
  S      1.780287   -0.033128   -6.428739
  C      4.049736   -2.154717   -3.152044
  N      4.658206   -1.986293   -4.318655
  N      4.764231   -2.454435   -2.050491
  H      4.287363   -2.776259   -1.217496
  H      5.750825   -2.658351   -2.125988
  H      2.345176   -1.690274   -3.971447
  H      4.109004   -1.592677   -5.071760
  H      5.649095   -2.156462   -4.427237
  F      2.569287    0.213657   -7.607360
  O      0.416880   -0.462969   -6.618595
  C      2.088520   -0.300912   -1.415204
  H      2.231272   -2.451616   -1.102643
  H      0.930249   -1.977801   -2.155438
  C      0.680356    0.655418   -3.348038
  H     -0.356865    1.549231   -4.991128
  H      0.650228    2.675438   -4.096000
  C      1.968993    0.733582   -2.535654
  H      3.051356   -0.168602   -0.911868
  H      1.316501   -0.136231   -0.657252
  O      2.505129   -0.933263   -5.482570
  H      2.824195    0.624726   -3.208464
  H      2.058919    1.730331   -2.093112
  H      0.542252   -0.344731   -3.766662
  H     -0.174219    0.829692   -2.685182

 Total Charge           Charge          ....    0
 Multiplicity           Mult            ....    1
 Number of Electrons    NEL             ....  120
 Basis Dimension        Dim             ....  689

ORBITAL ENERGIES
----------------

  NO   OCC          E(Eh)            E(eV)
   0   2.0000     -88.530306     -2409.0321
   1   2.0000     -24.587422      -669.0578
   2   2.0000     -18.965370      -516.0740
   3   2.0000     -18.951175      -515.6877
   4   2.0000     -14.153885      -385.1468
   5   2.0000     -14.138525      -384.7288
   6   2.0000     -10.133768      -275.7538
   7   2.0000     -10.093523      -274.6587
   8   2.0000     -10.091049      -274.5914
   9   2.0000     -10.062000      -273.8010
  10   2.0000     -10.050694      -273.4933
  11   2.0000     -10.040546      -273.2171
  12   2.0000     -10.028657      -272.8936
  13   2.0000      -9.957250      -270.9506
  14   2.0000      -8.073608      -219.6941
  15   2.0000      -6.105304      -166.1338
  16   2.0000      -6.098421      -165.9465
  17   2.0000      -6.098165      -165.9395
  18   2.0000      -1.478317       -40.2271
  19   2.0000      -1.213516       -33.0214
  20   2.0000      -1.113509       -30.3001
  21   2.0000      -1.039939       -28.2982
  22   2.0000      -0.951410       -25.8892
  23   2.0000      -0.947479       -25.7822
  24   2.0000      -0.902459       -24.5571
  25   2.0000      -0.864033       -23.5115
  26   2.0000      -0.833049       -22.6684
  27   2.0000      -0.799723       -21.7616
  28   2.0000      -0.761925       -20.7330
  29   2.0000      -0.729273       -19.8445
  30   2.0000      -0.709956       -19.3189
  31   2.0000      -0.695808       -18.9339
  32   2.0000      -0.692356       -18.8400
  33   2.0000      -0.658067       -17.9069
  34   2.0000      -0.655241       -17.8300
  35   2.0000      -0.631205       -17.1759
  36   2.0000      -0.605610       -16.4795
  37   2.0000      -0.601411       -16.3652
  38   2.0000      -0.590468       -16.0674
  39   2.0000      -0.569681       -15.5018
  40   2.0000      -0.569048       -15.4846
  41   2.0000      -0.547823       -14.9070
  42   2.0000      -0.538660       -14.6577
  43   2.0000      -0.529785       -14.4162
  44   2.0000      -0.517521       -14.0825
  45   2.0000      -0.505038       -13.7428
  46   2.0000      -0.486226       -13.2309
  47   2.0000      -0.479762       -13.0550
  48   2.0000      -0.473519       -12.8851
  49   2.0000      -0.464094       -12.6286
  50   2.0000      -0.451722       -12.2920
  51   2.0000      -0.434836       -11.8325
  52   2.0000      -0.429448       -11.6859
  53   2.0000      -0.422999       -11.5104
  54   2.0000      -0.421050       -11.4574
  55   2.0000      -0.409465       -11.1421
  56   2.0000      -0.395100       -10.7512
  57   2.0000      -0.380656       -10.3582
  58   2.0000      -0.344480        -9.3738
  59   2.0000      -0.231621        -6.3027
  60   0.0000       0.025539         0.6949
  61   0.0000       0.044953         1.2232
  62   0.0000       0.049090         1.3358
  63   0.0000       0.057449         1.5633
  64   0.0000       0.070199         1.9102

MULLIKEN ATOMIC CHARGES
-----------------------
   0 C :   -1.031434
   1 C :   -0.655386
   2 C :   -0.965537
   3 C :   -0.972796
   4 H :    0.499211
   5 H :    0.512023
   6 S :    0.968874
   7 C :   -0.032500
   8 N :   -0.348541
   9 N :   -0.357567
  10 H :    0.182591
  11 H :    0.126948
  12 H :    1.030203
  13 H :    0.289247
  14 H :    0.076335
  15 F :   -0.084519
  16 O :   -0.553846
  17 C :   -0.782137
  18 H :    0.653746
  19 H :    0.325953
  20 C :   -0.699348
  21 H :    0.425930
  22 H :    0.440334
  23 C :   -0.704238
  24 H :    0.366532
  25 H :    0.408981
  26 O :   -0.695042
  27 H :    0.397855
  28 H :    0.427280
  29 H :    0.336071
  30 H :    0.414778
Sum of atomic charges:    0.0000000

LOEWDIN ATOMIC CHARGES
----------------------
   0 C :   -0.236269
   1 C :   -0.158032
   2 C :   -0.225920
   3 C :   -0.236362
   4 H :    0.112771
   5 H :    0.108733
   6 S :    0.620015
   7 C :   -0.542601
   8 N :    0.122685
   9 N :    0.133050
  10 H :    0.096633
  11 H :    0.092633
  12 H :    0.021532
  13 H :    0.055219
  14 H :    0.099063
  15 F :   -0.022585
  16 O :   -0.229775
  17 C :   -0.207227
  18 H :    0.103689
  19 H :    0.109801
  20 C :   -0.216776
  21 H :    0.117926
  22 H :    0.128254
  23 C :   -0.220737
  24 H :    0.112790
  25 H :    0.111063
  26 O :   -0.315567
  27 H :    0.107873
  28 H :    0.119855
  29 H :    0.108637
  30 H :    0.129626

  Mayer bond orders larger than 0.100000
B(  0-C ,  7-C ) :   0.2352 B(  0-C , 17-C ) :   0.5403 B(  0-C , 18-H ) :   0.6526
B(  0-C , 19-H ) :   1.1357 B(  0-C , 23-C ) :  -0.1156 B(  1-C ,  7-C ) :   1.4076
B(  1-C , 12-H ) :   0.5150 B(  1-C , 17-C ) :  -0.2693 B(  1-C , 18-H ) :  -0.1684
B(  1-C , 26-O ) :   0.2826 B(  2-C ,  3-C ) :   0.6728 B(  2-C , 20-C ) :   0.6874
B(  2-C , 21-H ) :   0.9164 B(  2-C , 22-H ) :   0.8774 B(  3-C ,  4-H ) :   0.7904
B(  3-C ,  5-H ) :   0.7661 B(  3-C ,  6-S ) :   0.8862 B(  6-S , 15-F ) :   0.9694
B(  6-S , 16-O ) :   1.7014 B(  6-S , 26-O ) :   1.7802 B(  7-C ,  8-N ) :   0.8910
B(  7-C ,  9-N ) :   0.8767 B(  7-C , 12-H ) :  -0.2881 B(  8-N , 13-H ) :   0.9143
B(  8-N , 14-H ) :   1.1505 B(  9-N , 10-H ) :   0.9772 B(  9-N , 11-H ) :   1.0896
B( 12-H , 26-O ) :  -0.4641 B( 17-C , 23-C ) :   0.6972 B( 17-C , 24-H ) :   0.9547
B( 17-C , 25-H ) :   0.8888 B( 20-C , 23-C ) :   0.2108 B( 20-C , 27-H ) :  -0.1057
B( 20-C , 29-H ) :   0.9865 B( 20-C , 30-H ) :   0.8988 B( 23-C , 27-H ) :   1.0057
B( 23-C , 28-H ) :   0.8905 B( 23-C , 29-H ) :  -0.1030 B( 27-H , 28-H ) :   0.1184

FINAL SINGLE POINT ENERGY     -1071.516563075199

DIPOLE MOMENT
-------------
                                X             Y             Z
Electronic contribution:      0.69072      -0.96723     -23.52955
Nuclear contribution   :      0.18720       2.58739      22.98820
                        -----------------------------------------
Total Dipole Moment    :      0.87792       1.62017      -0.54135
                        -----------------------------------------
Magnitude (a.u.)       :      1.92061
Magnitude (Debye)      :      4.88181

Rotational constants in cm-1:     0.028798     0.014448     0.010940
Rotational constants in MHz :   863.355869   433.126694   327.985023

                             ****ORCA TERMINATED NORMALLY****
TOTAL RUN TIME: 0 days 0 hours 8 minutes 18 seconds 931 msec
