                         Program Version 5.0.0 -  RELEASE  -
|  1> !LC-BLYP RIJCOSX def2-TZVPD def2/J TightSCF xyzfile
|  2>
|  3> *xyzfile 0 1 D2.xyz
|  4>
|  5> %MaxCore 64000
|  6>
|  7> %pal nprocs 4
|  8> end
|  9>
| 10> %scf
| 11>   MaxIter 150
| 12> end
| 13>
| 14>
| 15>                          ****END OF INPUT****

CARTESIAN COORDINATES (ANGSTROEM)
---------------------------------
  C      1.963365   -1.749150   -1.896887
  N      2.738490   -2.015170   -3.097113
  C      0.611877    1.657634   -4.500288
  C      1.694991    1.541794   -5.570447
  H      2.697326    1.734659   -5.183996
  H      1.506656    2.272239   -6.358076
  S      1.780287   -0.033128   -6.428739
  C      4.049736   -2.154717   -3.152044
  C      4.658206   -1.986293   -4.318655
  N      4.764231   -2.454435   -2.050491
  H      4.287363   -2.776259   -1.217496
  H      5.750825   -2.658351   -2.125988
  H      2.345176   -1.690274   -3.971447
  H      4.109004   -1.592677   -5.071760
  H      5.649095   -2.156462   -4.427237
  F      2.569287    0.213657   -7.607360
  O      0.416880   -0.462969   -6.618595
  C      2.088520   -0.300912   -1.415204
  H      2.231272   -2.451616   -1.102643
  H      0.930249   -1.977801   -2.155438
  C      0.680356    0.655418   -3.348038
  H     -0.356865    1.549231   -4.991128
  H      0.650228    2.675438   -4.096000
  C      1.968993    0.733582   -2.535654
  H      3.051356   -0.168602   -0.911868
  H      1.316501   -0.136231   -0.657252
  O      2.505129   -0.933263   -5.482570
  H      2.824195    0.624726   -3.208464
  H      2.058919    1.730331   -2.093112
  H      0.542252   -0.344731   -3.766662
  H     -0.174219    0.829692   -2.685182

 Total Charge           Charge          ....    0
 Multiplicity           Mult            ....    1
 Number of Electrons    NEL             ....  120
 Basis Dimension        Dim             ....  689

ORBITAL ENERGIES
----------------

  NO   OCC          E(Eh)            E(eV)
   0   2.0000     -88.532797     -2409.0999
   1   2.0000     -24.588792      -669.0950
   2   2.0000     -18.966950      -516.1170
   3   2.0000     -18.950567      -515.6711
   4   2.0000     -14.151464      -385.0809
   5   2.0000     -14.136814      -384.6823
   6   2.0000     -10.137036      -275.8428
   7   2.0000     -10.101193      -274.8674
   8   2.0000     -10.092244      -274.6239
   9   2.0000     -10.091245      -274.5967
  10   2.0000     -10.075664      -274.1728
  11   2.0000     -10.065841      -273.9054
  12   2.0000     -10.061057      -273.7753
  13   2.0000      -9.949972      -270.7525
  14   2.0000      -8.075896      -219.7563
  15   2.0000      -6.107371      -166.1900
  16   2.0000      -6.100868      -166.0131
  17   2.0000      -6.100535      -166.0040
  18   2.0000      -1.479217       -40.2515
  19   2.0000      -1.215015       -33.0622
  20   2.0000      -1.114243       -30.3201
  21   2.0000      -1.048357       -28.5272
  22   2.0000      -0.967275       -26.3209
  23   2.0000      -0.954097       -25.9623
  24   2.0000      -0.903701       -24.5910
  25   2.0000      -0.869576       -23.6624
  26   2.0000      -0.830616       -22.6022
  27   2.0000      -0.806522       -21.9466
  28   2.0000      -0.768520       -20.9125
  29   2.0000      -0.736851       -20.0507
  30   2.0000      -0.712409       -19.3856
  31   2.0000      -0.702462       -19.1150
  32   2.0000      -0.694098       -18.8874
  33   2.0000      -0.672626       -18.3031
  34   2.0000      -0.663552       -18.0562
  35   2.0000      -0.623366       -16.9627
  36   2.0000      -0.610915       -16.6238
  37   2.0000      -0.607342       -16.5266
  38   2.0000      -0.583754       -15.8848
  39   2.0000      -0.579310       -15.7638
  40   2.0000      -0.569127       -15.4867
  41   2.0000      -0.561052       -15.2670
  42   2.0000      -0.546837       -14.8802
  43   2.0000      -0.535567       -14.5735
  44   2.0000      -0.519582       -14.1385
  45   2.0000      -0.505036       -13.7427
  46   2.0000      -0.490692       -13.3524
  47   2.0000      -0.485247       -13.2043
  48   2.0000      -0.473028       -12.8718
  49   2.0000      -0.467787       -12.7291
  50   2.0000      -0.455931       -12.4065
  51   2.0000      -0.454969       -12.3803
  52   2.0000      -0.447592       -12.1796
  53   2.0000      -0.433482       -11.7957
  54   2.0000      -0.427971       -11.6457
  55   2.0000      -0.421142       -11.4599
  56   2.0000      -0.416541       -11.3347
  57   2.0000      -0.401688       -10.9305
  58   2.0000      -0.331342        -9.0163
  59   2.0000      -0.234529        -6.3819
  60   0.0000       0.027023         0.7353
  61   0.0000       0.046159         1.2561
  62   0.0000       0.049935         1.3588
  63   0.0000       0.054626         1.4864
  64   0.0000       0.068540         1.8651

MULLIKEN ATOMIC CHARGES
-----------------------
   0 C :   -1.204585
   1 N :   -0.257803
   2 C :   -0.978310
   3 C :   -0.975884
   4 H :    0.503221
   5 H :    0.521431
   6 S :    0.983991
   7 C :    0.696320
   8 C :   -1.259401
   9 N :   -0.360013
  10 H :    0.166601
  11 H :    0.171292
  12 H :    0.441247
  13 H :    0.451509
  14 H :    0.311031
  15 F :   -0.083666
  16 O :   -0.562041
  17 C :   -0.692197
  18 H :    0.501462
  19 H :    0.448193
  20 C :   -0.743220
  21 H :    0.428628
  22 H :    0.437416
  23 C :   -0.705849
  24 H :    0.410061
  25 H :    0.457115
  26 O :   -0.719987
  27 H :    0.409273
  28 H :    0.426321
  29 H :    0.379498
  30 H :    0.398345
Sum of atomic charges:   -0.0000000

LOEWDIN ATOMIC CHARGES
----------------------
   0 C :   -0.203100
   1 N :    0.028983
   2 C :   -0.224828
   3 C :   -0.234964
   4 H :    0.114548
   5 H :    0.109561
   6 S :    0.621708
   7 C :   -0.563823
   8 C :   -0.001993
   9 N :    0.127711
  10 H :    0.086298
  11 H :    0.104513
  12 H :    0.074460
  13 H :   -0.026775
  14 H :    0.012998
  15 F :   -0.014223
  16 O :   -0.234003
  17 C :   -0.195469
  18 H :    0.111929
  19 H :    0.118749
  20 C :   -0.220983
  21 H :    0.118653
  22 H :    0.129282
  23 C :   -0.217197
  24 H :    0.113340
  25 H :    0.114599
  26 O :   -0.316427
  27 H :    0.108970
  28 H :    0.122893
  29 H :    0.104982
  30 H :    0.129609

  Mayer bond orders larger than 0.100000
B(  0-C ,  1-N ) :   0.8145 B(  0-C ,  7-C ) :  -0.1783 B(  0-C ,  9-N ) :   0.1157
B(  0-C , 12-H ) :  -0.1760 B(  0-C , 17-C ) :   0.4811 B(  0-C , 18-H ) :   0.7733
B(  0-C , 19-H ) :   0.8975 B(  1-N ,  7-C ) :   0.8968 B(  1-N , 12-H ) :   0.8218
B(  2-C ,  3-C ) :   0.6662 B(  2-C , 20-C ) :   0.6962 B(  2-C , 21-H ) :   0.9148
B(  2-C , 22-H ) :   0.8768 B(  3-C ,  4-H ) :   0.7891 B(  3-C ,  5-H ) :   0.7580
B(  3-C ,  6-S ) :   0.8808 B(  6-S , 15-F ) :   0.9779 B(  6-S , 16-O ) :   1.6939
B(  6-S , 26-O ) :   1.7847 B(  7-C ,  8-C ) :   0.9410 B(  7-C ,  9-N ) :   0.8567
B(  7-C , 12-H ) :  -0.1078 B(  7-C , 14-H ) :  -0.1688 B(  8-C , 13-H ) :   0.9196
B(  8-C , 14-H ) :   1.1326 B(  8-C , 26-O ) :   0.1806 B(  9-N , 10-H ) :   1.0119
B(  9-N , 11-H ) :   1.0246 B( 12-H , 26-O ) :  -0.1150 B( 13-H , 26-O ) :  -0.2212
B( 17-C , 23-C ) :   0.7064 B( 17-C , 24-H ) :   0.8933 B( 17-C , 25-H ) :   0.9302
B( 20-C , 23-C ) :   0.1651 B( 20-C , 29-H ) :   0.9482 B( 20-C , 30-H ) :   0.9403
B( 23-C , 27-H ) :   0.9815 B( 23-C , 28-H ) :   0.8791 B( 23-C , 29-H ) :  -0.1108
B( 27-H , 28-H ) :   0.1125

FINAL SINGLE POINT ENERGY     -1071.512765363254

DIPOLE MOMENT
-------------
                                X             Y             Z
Electronic contribution:     -0.90537      -0.77800     -22.49702
Nuclear contribution   :      0.43347       2.59110      22.83150
                        -----------------------------------------
Total Dipole Moment    :     -0.47190       1.81309       0.33448
                        -----------------------------------------
Magnitude (a.u.)       :      1.90312
Magnitude (Debye)      :      4.83736

Rotational constants in cm-1:     0.029257     0.014415     0.010996
Rotational constants in MHz :   877.098782   432.159206   329.643335

                             ****ORCA TERMINATED NORMALLY****
TOTAL RUN TIME: 0 days 0 hours 8 minutes 21 seconds 37 msec
