                         Program Version 5.0.0 -  RELEASE  -
|  1> !LC-BLYP RIJCOSX def2-TZVPD def2/J TightSCF xyzfile
|  2>
|  3> *xyzfile 0 1 D3.xyz
|  4>
|  5> %MaxCore 64000
|  6>
|  7> %pal nprocs 4
|  8> end
|  9>
| 10> %scf
| 11>   MaxIter 150
| 12> end
| 13>
| 14>
| 15>                          ****END OF INPUT****

CARTESIAN COORDINATES (ANGSTROEM)
---------------------------------
  C      1.963365   -1.749150   -1.896887
  N      2.738490   -2.015170   -3.097113
  C      0.611877    1.657634   -4.500288
  C      1.694991    1.541794   -5.570447
  H      2.697326    1.734659   -5.183996
  H      1.506656    2.272239   -6.358076
  S      1.780287   -0.033128   -6.428739
  C      4.049736   -2.154717   -3.152044
  N      4.658206   -1.986293   -4.318655
  C      4.764231   -2.454435   -2.050491
  H      4.287363   -2.776259   -1.217496
  H      5.750825   -2.658351   -2.125988
  H      2.345176   -1.690274   -3.971447
  H      4.109004   -1.592677   -5.071760
  H      5.649095   -2.156462   -4.427237
  F      2.569287    0.213657   -7.607360
  O      0.416880   -0.462969   -6.618595
  C      2.088520   -0.300912   -1.415204
  H      2.231272   -2.451616   -1.102643
  H      0.930249   -1.977801   -2.155438
  C      0.680356    0.655418   -3.348038
  H     -0.356865    1.549231   -4.991128
  H      0.650228    2.675438   -4.096000
  C      1.968993    0.733582   -2.535654
  H      3.051356   -0.168602   -0.911868
  H      1.316501   -0.136231   -0.657252
  O      2.505129   -0.933263   -5.482570
  H      2.824195    0.624726   -3.208464
  H      2.058919    1.730331   -2.093112
  H      0.542252   -0.344731   -3.766662
  H     -0.174219    0.829692   -2.685182

 Total Charge           Charge          ....    0
 Multiplicity           Mult            ....    1
 Number of Electrons    NEL             ....  120
 Basis Dimension        Dim             ....  689

ORBITAL ENERGIES
----------------

  NO   OCC          E(Eh)            E(eV)
   0   2.0000     -88.549339     -2409.5500
   1   2.0000     -24.603574      -669.4973
   2   2.0000     -18.981536      -516.5139
   3   2.0000     -18.972544      -516.2692
   4   2.0000     -14.138508      -384.7284
   5   2.0000     -14.138165      -384.7190
   6   2.0000     -10.147916      -276.1388
   7   2.0000     -10.107413      -275.0367
   8   2.0000     -10.094194      -274.6770
   9   2.0000     -10.084383      -274.4100
  10   2.0000     -10.078740      -274.2565
  11   2.0000     -10.066622      -273.9267
  12   2.0000     -10.055422      -273.6219
  13   2.0000      -9.958610      -270.9875
  14   2.0000      -8.092378      -220.2048
  15   2.0000      -6.123941      -166.6409
  16   2.0000      -6.117509      -166.4659
  17   2.0000      -6.116810      -166.4469
  18   2.0000      -1.494207       -40.6594
  19   2.0000      -1.231412       -33.5084
  20   2.0000      -1.133146       -30.8345
  21   2.0000      -1.049297       -28.5528
  22   2.0000      -0.967924       -26.3386
  23   2.0000      -0.960081       -26.1251
  24   2.0000      -0.907083       -24.6830
  25   2.0000      -0.869570       -23.6622
  26   2.0000      -0.833011       -22.6674
  27   2.0000      -0.797510       -21.7013
  28   2.0000      -0.789322       -21.4785
  29   2.0000      -0.749086       -20.3837
  30   2.0000      -0.722703       -19.6657
  31   2.0000      -0.711876       -19.3711
  32   2.0000      -0.697418       -18.9777
  33   2.0000      -0.678715       -18.4688
  34   2.0000      -0.647227       -17.6119
  35   2.0000      -0.631795       -17.1920
  36   2.0000      -0.623469       -16.9655
  37   2.0000      -0.615737       -16.7551
  38   2.0000      -0.602076       -16.3833
  39   2.0000      -0.586016       -15.9463
  40   2.0000      -0.564865       -15.3708
  41   2.0000      -0.563415       -15.3313
  42   2.0000      -0.546732       -14.8773
  43   2.0000      -0.528766       -14.3885
  44   2.0000      -0.524120       -14.2620
  45   2.0000      -0.520918       -14.1749
  46   2.0000      -0.493104       -13.4180
  47   2.0000      -0.487424       -13.2635
  48   2.0000      -0.475500       -12.9390
  49   2.0000      -0.469005       -12.7623
  50   2.0000      -0.464860       -12.6495
  51   2.0000      -0.451761       -12.2930
  52   2.0000      -0.449203       -12.2234
  53   2.0000      -0.442755       -12.0480
  54   2.0000      -0.435396       -11.8477
  55   2.0000      -0.428482       -11.6596
  56   2.0000      -0.423979       -11.5371
  57   2.0000      -0.411692       -11.2027
  58   2.0000      -0.323225        -8.7954
  59   2.0000      -0.237026        -6.4498
  60   0.0000       0.018120         0.4931
  61   0.0000       0.038550         1.0490
  62   0.0000       0.042870         1.1666
  63   0.0000       0.055094         1.4992
  64   0.0000       0.068373         1.8605

MULLIKEN ATOMIC CHARGES
-----------------------
   0 C :   -1.187092
   1 N :   -0.333050
   2 C :   -0.968439
   3 C :   -0.967881
   4 H :    0.499485
   5 H :    0.515826
   6 S :    0.983734
   7 C :    0.732880
   8 N :   -0.322533
   9 C :   -1.313702
  10 H :    0.286066
  11 H :    0.383756
  12 H :    0.510723
  13 H :    0.323644
  14 H :    0.088555
  15 F :   -0.081316
  16 O :   -0.541445
  17 C :   -0.704179
  18 H :    0.516324
  19 H :    0.452559
  20 C :   -0.731521
  21 H :    0.430081
  22 H :    0.443670
  23 C :   -0.701873
  24 H :    0.415309
  25 H :    0.453993
  26 O :   -0.740787
  27 H :    0.372137
  28 H :    0.423304
  29 H :    0.367239
  30 H :    0.394534
Sum of atomic charges:   -0.0000000

LOEWDIN ATOMIC CHARGES
----------------------
   0 C :   -0.198053
   1 N :    0.027084
   2 C :   -0.224030
   3 C :   -0.233920
   4 H :    0.114320
   5 H :    0.110965
   6 S :    0.626203
   7 C :   -0.569430
   8 N :    0.126328
   9 C :   -0.005267
  10 H :   -0.001435
  11 H :    0.002367
  12 H :    0.069510
  13 H :    0.047885
  14 H :    0.112177
  15 F :   -0.014235
  16 O :   -0.225569
  17 C :   -0.191404
  18 H :    0.117030
  19 H :    0.118462
  20 C :   -0.221174
  21 H :    0.119170
  22 H :    0.130505
  23 C :   -0.218428
  24 H :    0.113609
  25 H :    0.116302
  26 O :   -0.314731
  27 H :    0.107622
  28 H :    0.123070
  29 H :    0.104353
  30 H :    0.130713

  Mayer bond orders larger than 0.100000
B(  0-C ,  1-N ) :   0.7423 B(  0-C ,  9-C ) :   0.1444 B(  0-C , 12-H ) :  -0.2168
B(  0-C , 17-C ) :   0.5175 B(  0-C , 18-H ) :   0.7781 B(  0-C , 19-H ) :   0.8782
B(  1-N ,  7-C ) :   0.8838 B(  1-N ,  9-C ) :   0.1496 B(  1-N , 12-H ) :   0.7550
B(  2-C ,  3-C ) :   0.6623 B(  2-C , 20-C ) :   0.6965 B(  2-C , 21-H ) :   0.9192
B(  2-C , 22-H ) :   0.8727 B(  3-C ,  4-H ) :   0.7904 B(  3-C ,  5-H ) :   0.7606
B(  3-C ,  6-S ) :   0.8822 B(  6-S , 15-F ) :   0.9831 B(  6-S , 16-O ) :   1.7078
B(  6-S , 26-O ) :   1.7609 B(  7-C ,  8-N ) :   0.8446 B(  7-C ,  9-C ) :   0.9364
B(  7-C , 10-H ) :  -0.1069 B(  7-C , 11-H ) :  -0.1256 B(  8-N ,  9-C ) :   0.1075
B(  8-N , 13-H ) :   0.8890 B(  8-N , 14-H ) :   1.1044 B(  9-C , 10-H ) :   1.0588
B(  9-C , 11-H ) :   0.9979 B( 12-H , 26-O ) :  -0.1252 B( 17-C , 23-C ) :   0.7432
B( 17-C , 24-H ) :   0.8882 B( 17-C , 25-H ) :   0.9132 B( 20-C , 23-C ) :   0.1590
B( 20-C , 27-H ) :  -0.1048 B( 20-C , 29-H ) :   0.9551 B( 20-C , 30-H ) :   0.9433
B( 23-C , 27-H ) :   0.9985 B( 23-C , 28-H ) :   0.8747 B( 23-C , 29-H ) :  -0.1119
B( 27-H , 28-H ) :   0.1138

FINAL SINGLE POINT ENERGY     -1071.524338122503

DIPOLE MOMENT
-------------
                                X             Y             Z
Electronic contribution:     -1.14382      -0.18908     -24.53092
Nuclear contribution   :      0.44707       2.53104      23.12246
                        -----------------------------------------
Total Dipole Moment    :     -0.69675       2.34197      -1.40846
                        -----------------------------------------
Magnitude (a.u.)       :      2.82029
Magnitude (Debye)      :      7.16861

Rotational constants in cm-1:     0.028906     0.014696     0.011110
Rotational constants in MHz :   866.591909   440.585554   333.081943

                             ****ORCA TERMINATED NORMALLY****
TOTAL RUN TIME: 0 days 0 hours 7 minutes 14 seconds 591 msec
