                         Program Version 5.0.0 -  RELEASE  -
|  1> !LC-BLYP RIJCOSX def2-TZVPD def2/J TightSCF xyzfile
|  2>
|  3> *xyzfile 0 1 D4.xyz
|  4>
|  5> %MaxCore 64000
|  6>
|  7> %pal nprocs 4
|  8> end
|  9>
| 10> %scf
| 11>   MaxIter 150
| 12> end
| 13>
| 14>
| 15>                          ****END OF INPUT****

CARTESIAN COORDINATES (ANGSTROEM)
---------------------------------
  C      1.963365   -1.749150   -1.896887
  C      2.738490   -2.015170   -3.097113
  C      0.611877    1.657634   -4.500288
  C      1.694991    1.541794   -5.570447
  H      2.697326    1.734659   -5.183996
  H      1.506656    2.272239   -6.358076
  S      1.780287   -0.033128   -6.428739
  C      4.049736   -2.154717   -3.152044
  N      4.658206   -1.986293   -4.318655
  N      4.764231   -2.454435   -2.050491
  H      4.287363   -2.776259   -1.217496
  H      5.750825   -2.658351   -2.125988
  H      2.345176   -1.690274   -3.971447
  H      4.109004   -1.592677   -5.071760
  H      5.649095   -2.156462   -4.427237
  O      2.569287    0.213657   -7.607360
  F      0.416880   -0.462969   -6.618595
  C      2.088520   -0.300912   -1.415204
  H      2.231272   -2.451616   -1.102643
  H      0.930249   -1.977801   -2.155438
  C      0.680356    0.655418   -3.348038
  H     -0.356865    1.549231   -4.991128
  H      0.650228    2.675438   -4.096000
  C      1.968993    0.733582   -2.535654
  H      3.051356   -0.168602   -0.911868
  H      1.316501   -0.136231   -0.657252
  O      2.505129   -0.933263   -5.482570
  H      2.824195    0.624726   -3.208464
  H      2.058919    1.730331   -2.093112
  H      0.542252   -0.344731   -3.766662
  H     -0.174219    0.829692   -2.685182

 Total Charge           Charge          ....    0
 Multiplicity           Mult            ....    1
 Number of Electrons    NEL             ....  120
 Basis Dimension        Dim             ....  689

ORBITAL ENERGIES
----------------

  NO   OCC          E(Eh)            E(eV)
   0   2.0000     -88.530659     -2409.0417
   1   2.0000     -24.587156      -669.0505
   2   2.0000     -18.964547      -516.0516
   3   2.0000     -18.949105      -515.6314
   4   2.0000     -14.154417      -385.1613
   5   2.0000     -14.137871      -384.7110
   6   2.0000     -10.133509      -275.7468
   7   2.0000     -10.098459      -274.7930
   8   2.0000     -10.091774      -274.6111
   9   2.0000     -10.070463      -274.0312
  10   2.0000     -10.055105      -273.6133
  11   2.0000     -10.043614      -273.3006
  12   2.0000     -10.031377      -272.9676
  13   2.0000      -9.957029      -270.9445
  14   2.0000      -8.073843      -219.7004
  15   2.0000      -6.105572      -166.1411
  16   2.0000      -6.098892      -165.9593
  17   2.0000      -6.098141      -165.9389
  18   2.0000      -1.476545       -40.1788
  19   2.0000      -1.214166       -33.0391
  20   2.0000      -1.112640       -30.2765
  21   2.0000      -1.039992       -28.2996
  22   2.0000      -0.954405       -25.9707
  23   2.0000      -0.949581       -25.8394
  24   2.0000      -0.904482       -24.6122
  25   2.0000      -0.862759       -23.4769
  26   2.0000      -0.834078       -22.6964
  27   2.0000      -0.804289       -21.8858
  28   2.0000      -0.763302       -20.7705
  29   2.0000      -0.732289       -19.9266
  30   2.0000      -0.709531       -19.3073
  31   2.0000      -0.706768       -19.2321
  32   2.0000      -0.690255       -18.7828
  33   2.0000      -0.661770       -18.0077
  34   2.0000      -0.650565       -17.7028
  35   2.0000      -0.628339       -17.0980
  36   2.0000      -0.604564       -16.4510
  37   2.0000      -0.603304       -16.4167
  38   2.0000      -0.582579       -15.8528
  39   2.0000      -0.578627       -15.7453
  40   2.0000      -0.570912       -15.5353
  41   2.0000      -0.547983       -14.9114
  42   2.0000      -0.543618       -14.7926
  43   2.0000      -0.537176       -14.6173
  44   2.0000      -0.523301       -14.2397
  45   2.0000      -0.499588       -13.5945
  46   2.0000      -0.490035       -13.3345
  47   2.0000      -0.481534       -13.1032
  48   2.0000      -0.475824       -12.9478
  49   2.0000      -0.470395       -12.8001
  50   2.0000      -0.454407       -12.3650
  51   2.0000      -0.440575       -11.9886
  52   2.0000      -0.436807       -11.8861
  53   2.0000      -0.429114       -11.6768
  54   2.0000      -0.417316       -11.3557
  55   2.0000      -0.412077       -11.2132
  56   2.0000      -0.398529       -10.8445
  57   2.0000      -0.376533       -10.2460
  58   2.0000      -0.344343        -9.3701
  59   2.0000      -0.232219        -6.3190
  60   0.0000       0.029627         0.8062
  61   0.0000       0.045285         1.2323
  62   0.0000       0.050677         1.3790
  63   0.0000       0.056280         1.5315
  64   0.0000       0.069017         1.8781

MULLIKEN ATOMIC CHARGES
-----------------------
   0 C :   -1.031984
   1 C :   -0.621808
   2 C :   -0.960628
   3 C :   -0.910045
   4 H :    0.472087
   5 H :    0.473935
   6 S :    0.982651
   7 C :   -0.031561
   8 N :   -0.345464
   9 N :   -0.358395
  10 H :    0.181394
  11 H :    0.128811
  12 H :    1.004039
  13 H :    0.279995
  14 H :    0.081048
  15 O :   -0.553718
  16 F :   -0.124139
  17 C :   -0.780203
  18 H :    0.649665
  19 H :    0.320683
  20 C :   -0.601376
  21 H :    0.425365
  22 H :    0.440906
  23 C :   -0.719696
  24 H :    0.369267
  25 H :    0.408327
  26 O :   -0.692968
  27 H :    0.394899
  28 H :    0.433850
  29 H :    0.281945
  30 H :    0.403117
Sum of atomic charges:   -0.0000000

LOEWDIN ATOMIC CHARGES
----------------------
   0 C :   -0.238644
   1 C :   -0.163007
   2 C :   -0.235510
   3 C :   -0.227213
   4 H :    0.121962
   5 H :    0.111562
   6 S :    0.618163
   7 C :   -0.542218
   8 N :    0.128119
   9 N :    0.133467
  10 H :    0.096480
  11 H :    0.093275
  12 H :    0.016839
  13 H :    0.061171
  14 H :    0.101176
  15 O :   -0.242242
  16 F :   -0.012080
  17 C :   -0.206979
  18 H :    0.103589
  19 H :    0.107791
  20 C :   -0.221931
  21 H :    0.114189
  22 H :    0.127276
  23 C :   -0.218516
  24 H :    0.113566
  25 H :    0.110943
  26 O :   -0.315588
  27 H :    0.109447
  28 H :    0.121075
  29 H :    0.104814
  30 H :    0.129025

  Mayer bond orders larger than 0.100000
B(  0-C ,  7-C ) :   0.2346 B(  0-C , 12-H ) :  -0.1119 B(  0-C , 17-C ) :   0.5366
B(  0-C , 18-H ) :   0.6602 B(  0-C , 19-H ) :   1.1364 B(  0-C , 23-C ) :  -0.1149
B(  1-C ,  7-C ) :   1.4130 B(  1-C , 12-H ) :   0.6484 B(  1-C , 17-C ) :  -0.2694
B(  1-C , 18-H ) :  -0.1703 B(  1-C , 26-O ) :   0.3312 B(  2-C ,  3-C ) :   0.5630
B(  2-C , 20-C ) :   0.6087 B(  2-C , 21-H ) :   0.9371 B(  2-C , 22-H ) :   0.8794
B(  3-C ,  4-H ) :   0.8155 B(  3-C ,  5-H ) :   0.8668 B(  3-C ,  6-S ) :   0.9104
B(  3-C , 15-O ) :   0.1067 B(  3-C , 20-C ) :  -0.1083 B(  6-S , 15-O ) :   1.6346
B(  6-S , 16-F ) :   1.0070 B(  6-S , 26-O ) :   1.7992 B(  7-C ,  8-N ) :   0.8895
B(  7-C ,  9-N ) :   0.8787 B(  7-C , 12-H ) :  -0.2939 B(  8-N , 13-H ) :   0.9156
B(  8-N , 14-H ) :   1.1452 B(  9-N , 10-H ) :   0.9779 B(  9-N , 11-H ) :   1.0881
B( 12-H , 26-O ) :  -0.5453 B( 17-C , 23-C ) :   0.7026 B( 17-C , 24-H ) :   0.9517
B( 17-C , 25-H ) :   0.8887 B( 20-C , 23-C ) :   0.2723 B( 20-C , 27-H ) :  -0.1030
B( 20-C , 29-H ) :   0.9939 B( 20-C , 30-H ) :   0.9237 B( 23-C , 27-H ) :   1.0021
B( 23-C , 28-H ) :   0.8834 B( 27-H , 28-H ) :   0.1198

FINAL SINGLE POINT ENERGY     -1071.516192075209

DIPOLE MOMENT
-------------
                                X             Y             Z
Electronic contribution:     -3.05441      -2.13302     -21.73114
Nuclear contribution   :      2.64598       3.36033      21.85869
                        -----------------------------------------
Total Dipole Moment    :     -0.40842       1.22731       0.12755
                        -----------------------------------------
Magnitude (a.u.)       :      1.29976
Magnitude (Debye)      :      3.30372

Rotational constants in cm-1:     0.028973     0.014435     0.011026
Rotational constants in MHz :   868.588266   432.748309   330.548534

                             ****ORCA TERMINATED NORMALLY****
TOTAL RUN TIME: 0 days 0 hours 8 minutes 26 seconds 171 msec
