                         Program Version 5.0.0 -  RELEASE  -
|  1> !LC-BLYP RIJCOSX def2-TZVPD def2/J TightSCF xyzfile
|  2>
|  3> *xyzfile 0 1 D5.xyz
|  4>
|  5> %MaxCore 64000
|  6>
|  7> %pal nprocs 4
|  8> end
|  9>
| 10> %scf
| 11>   MaxIter 150
| 12> end
| 13>
| 14>
| 15>                          ****END OF INPUT****

CARTESIAN COORDINATES (ANGSTROEM)
---------------------------------
  C      1.963365   -1.749150   -1.896887
  N      2.738490   -2.015170   -3.097113
  C      0.611877    1.657634   -4.500288
  C      1.694991    1.541794   -5.570447
  H      2.697326    1.734659   -5.183996
  H      1.506656    2.272239   -6.358076
  S      1.780287   -0.033128   -6.428739
  C      4.049736   -2.154717   -3.152044
  C      4.658206   -1.986293   -4.318655
  N      4.764231   -2.454435   -2.050491
  H      4.287363   -2.776259   -1.217496
  H      5.750825   -2.658351   -2.125988
  H      2.345176   -1.690274   -3.971447
  H      4.109004   -1.592677   -5.071760
  H      5.649095   -2.156462   -4.427237
  O      2.569287    0.213657   -7.607360
  F      0.416880   -0.462969   -6.618595
  C      2.088520   -0.300912   -1.415204
  H      2.231272   -2.451616   -1.102643
  H      0.930249   -1.977801   -2.155438
  C      0.680356    0.655418   -3.348038
  H     -0.356865    1.549231   -4.991128
  H      0.650228    2.675438   -4.096000
  C      1.968993    0.733582   -2.535654
  H      3.051356   -0.168602   -0.911868
  H      1.316501   -0.136231   -0.657252
  O      2.505129   -0.933263   -5.482570
  H      2.824195    0.624726   -3.208464
  H      2.058919    1.730331   -2.093112
  H      0.542252   -0.344731   -3.766662
  H     -0.174219    0.829692   -2.685182

 Total Charge           Charge          ....    0
 Multiplicity           Mult            ....    1
 Number of Electrons    NEL             ....  120
 Basis Dimension        Dim             ....  689

ORBITAL ENERGIES
----------------

  NO   OCC          E(Eh)            E(eV)
   0   2.0000     -88.531520     -2409.0651
   1   2.0000     -24.588226      -669.0797
   2   2.0000     -18.965602      -516.0803
   3   2.0000     -18.951344      -515.6923
   4   2.0000     -14.151395      -385.0790
   5   2.0000     -14.136938      -384.6856
   6   2.0000     -10.136214      -275.8204
   7   2.0000     -10.105900      -274.9955
   8   2.0000     -10.093985      -274.6713
   9   2.0000     -10.091683      -274.6087
  10   2.0000     -10.083934      -274.3978
  11   2.0000     -10.070184      -274.0236
  12   2.0000     -10.064117      -273.8585
  13   2.0000      -9.949748      -270.7464
  14   2.0000      -8.074711      -219.7241
  15   2.0000      -6.106570      -166.1682
  16   2.0000      -6.099633      -165.9794
  17   2.0000      -6.099038      -165.9633
  18   2.0000      -1.477917       -40.2162
  19   2.0000      -1.214886       -33.0587
  20   2.0000      -1.113982       -30.3130
  21   2.0000      -1.048769       -28.5384
  22   2.0000      -0.968352       -26.3502
  23   2.0000      -0.958848       -26.0916
  24   2.0000      -0.905617       -24.6431
  25   2.0000      -0.868185       -23.6245
  26   2.0000      -0.832141       -22.6437
  27   2.0000      -0.810284       -22.0490
  28   2.0000      -0.769884       -20.9496
  29   2.0000      -0.739479       -20.1222
  30   2.0000      -0.713445       -19.4138
  31   2.0000      -0.710701       -19.3392
  32   2.0000      -0.696747       -18.9595
  33   2.0000      -0.678536       -18.4639
  34   2.0000      -0.653616       -17.7858
  35   2.0000      -0.624721       -16.9995
  36   2.0000      -0.612150       -16.6575
  37   2.0000      -0.602211       -16.3870
  38   2.0000      -0.585119       -15.9219
  39   2.0000      -0.580884       -15.8066
  40   2.0000      -0.572072       -15.5669
  41   2.0000      -0.562602       -15.3092
  42   2.0000      -0.550426       -14.9778
  43   2.0000      -0.535751       -14.5785
  44   2.0000      -0.528559       -14.3828
  45   2.0000      -0.502918       -13.6851
  46   2.0000      -0.499931       -13.6038
  47   2.0000      -0.488783       -13.3005
  48   2.0000      -0.479196       -13.0396
  49   2.0000      -0.469479       -12.7752
  50   2.0000      -0.461845       -12.5674
  51   2.0000      -0.451812       -12.2944
  52   2.0000      -0.440682       -11.9916
  53   2.0000      -0.432824       -11.7777
  54   2.0000      -0.429713       -11.6931
  55   2.0000      -0.424033       -11.5385
  56   2.0000      -0.417676       -11.3656
  57   2.0000      -0.408639       -11.1196
  58   2.0000      -0.332011        -9.0345
  59   2.0000      -0.234221        -6.3735
  60   0.0000       0.027009         0.7350
  61   0.0000       0.043314         1.1786
  62   0.0000       0.049841         1.3562
  63   0.0000       0.054708         1.4887
  64   0.0000       0.066690         1.8147

MULLIKEN ATOMIC CHARGES
-----------------------
   0 C :   -1.206269
   1 N :   -0.266816
   2 C :   -0.976806
   3 C :   -0.918161
   4 H :    0.472947
   5 H :    0.482801
   6 S :    0.987348
   7 C :    0.720322
   8 C :   -1.320552
   9 N :   -0.362490
  10 H :    0.165095
  11 H :    0.171797
  12 H :    0.451974
  13 H :    0.508093
  14 H :    0.302323
  15 O :   -0.546925
  16 F :   -0.125484
  17 C :   -0.693483
  18 H :    0.501999
  19 H :    0.439672
  20 C :   -0.641070
  21 H :    0.427612
  22 H :    0.438112
  23 C :   -0.722770
  24 H :    0.412379
  25 H :    0.457590
  26 O :   -0.708860
  27 H :    0.409095
  28 H :    0.432679
  29 H :    0.318676
  30 H :    0.389171
Sum of atomic charges:   -0.0000000

LOEWDIN ATOMIC CHARGES
----------------------
   0 C :   -0.205111
   1 N :    0.024832
   2 C :   -0.234459
   3 C :   -0.226439
   4 H :    0.123500
   5 H :    0.112276
   6 S :    0.618045
   7 C :   -0.564400
   8 C :    0.004620
   9 N :    0.127249
  10 H :    0.085786
  11 H :    0.104762
  12 H :    0.069734
  13 H :   -0.020441
  14 H :    0.015388
  15 O :   -0.232758
  16 F :   -0.016320
  17 C :   -0.195109
  18 H :    0.111920
  19 H :    0.116882
  20 C :   -0.226393
  21 H :    0.114963
  22 H :    0.128245
  23 C :   -0.214970
  24 H :    0.114134
  25 H :    0.114493
  26 O :   -0.314922
  27 H :    0.110525
  28 H :    0.124114
  29 H :    0.100888
  30 H :    0.128968

  Mayer bond orders larger than 0.100000
B(  0-C ,  1-N ) :   0.8140 B(  0-C ,  7-C ) :  -0.1806 B(  0-C ,  9-N ) :   0.1172
B(  0-C , 12-H ) :  -0.1764 B(  0-C , 17-C ) :   0.4794 B(  0-C , 18-H ) :   0.7712
B(  0-C , 19-H ) :   0.9052 B(  1-N ,  7-C ) :   0.8997 B(  1-N , 12-H ) :   0.8234
B(  2-C ,  3-C ) :   0.5544 B(  2-C , 20-C ) :   0.6180 B(  2-C , 21-H ) :   0.9381
B(  2-C , 22-H ) :   0.8794 B(  3-C ,  4-H ) :   0.8192 B(  3-C ,  5-H ) :   0.8570
B(  3-C ,  6-S ) :   0.9098 B(  3-C , 15-O ) :   0.1148 B(  3-C , 20-C ) :  -0.1063
B(  6-S , 15-O ) :   1.6430 B(  6-S , 16-F ) :   0.9869 B(  6-S , 26-O ) :   1.7823
B(  7-C ,  8-C ) :   0.9173 B(  7-C ,  9-N ) :   0.8524 B(  7-C , 14-H ) :  -0.1689
B(  8-C , 13-H ) :   0.8667 B(  8-C , 14-H ) :   1.1455 B(  8-C , 26-O ) :   0.2048
B(  9-N , 10-H ) :   1.0138 B(  9-N , 11-H ) :   1.0245 B( 12-H , 26-O ) :  -0.1316
B( 13-H , 26-O ) :  -0.1995 B( 17-C , 23-C ) :   0.7142 B( 17-C , 24-H ) :   0.8912
B( 17-C , 25-H ) :   0.9298 B( 20-C , 23-C ) :   0.2279 B( 20-C , 29-H ) :   0.9644
B( 20-C , 30-H ) :   0.9640 B( 23-C , 27-H ) :   0.9774 B( 23-C , 28-H ) :   0.8697
B( 27-H , 28-H ) :   0.1132

FINAL SINGLE POINT ENERGY     -1071.512084906043

DIPOLE MOMENT
-------------
                                X             Y             Z
Electronic contribution:     -4.64902      -1.95214     -20.71034
Nuclear contribution   :      2.89225       3.36404      21.70199
                        -----------------------------------------
Total Dipole Moment    :     -1.75677       1.41190       0.99165
                        -----------------------------------------
Magnitude (a.u.)       :      2.46233
Magnitude (Debye)      :      6.25875

Rotational constants in cm-1:     0.029431     0.014408     0.011084
Rotational constants in MHz :   882.306106   431.946714   332.288152

                             ****ORCA TERMINATED NORMALLY****
TOTAL RUN TIME: 0 days 0 hours 8 minutes 31 seconds 154 msec
