                         Program Version 5.0.0 -  RELEASE  -
|  1> !LC-BLYP RIJCOSX def2-TZVPD def2/J TightSCF xyzfile
|  2>
|  3> *xyzfile 0 1 D6.xyz
|  4>
|  5> %MaxCore 64000
|  6>
|  7> %pal nprocs 4
|  8> end
|  9>
| 10> %scf
| 11>   MaxIter 150
| 12> end
| 13>
| 14>
| 15>                          ****END OF INPUT****

CARTESIAN COORDINATES (ANGSTROEM)
---------------------------------
  C      1.963365   -1.749150   -1.896887
  N      2.738490   -2.015170   -3.097113
  C      0.611877    1.657634   -4.500288
  C      1.694991    1.541794   -5.570447
  H      2.697326    1.734659   -5.183996
  H      1.506656    2.272239   -6.358076
  S      1.780287   -0.033128   -6.428739
  C      4.049736   -2.154717   -3.152044
  N      4.658206   -1.986293   -4.318655
  C      4.764231   -2.454435   -2.050491
  H      4.287363   -2.776259   -1.217496
  H      5.750825   -2.658351   -2.125988
  H      2.345176   -1.690274   -3.971447
  H      4.109004   -1.592677   -5.071760
  H      5.649095   -2.156462   -4.427237
  O      2.569287    0.213657   -7.607360
  F      0.416880   -0.462969   -6.618595
  C      2.088520   -0.300912   -1.415204
  H      2.231272   -2.451616   -1.102643
  H      0.930249   -1.977801   -2.155438
  C      0.680356    0.655418   -3.348038
  H     -0.356865    1.549231   -4.991128
  H      0.650228    2.675438   -4.096000
  C      1.968993    0.733582   -2.535654
  H      3.051356   -0.168602   -0.911868
  H      1.316501   -0.136231   -0.657252
  O      2.505129   -0.933263   -5.482570
  H      2.824195    0.624726   -3.208464
  H      2.058919    1.730331   -2.093112
  H      0.542252   -0.344731   -3.766662
  H     -0.174219    0.829692   -2.685182

 Total Charge           Charge          ....    0
 Multiplicity           Mult            ....    1
 Number of Electrons    NEL             ....  120
 Basis Dimension        Dim             ....  689

ORBITAL ENERGIES
----------------

  NO   OCC          E(Eh)            E(eV)
   0   2.0000     -88.548897     -2409.5380
   1   2.0000     -24.602718      -669.4740
   2   2.0000     -18.980785      -516.4934
   3   2.0000     -18.971952      -516.2531
   4   2.0000     -14.139030      -384.7426
   5   2.0000     -14.137317      -384.6960
   6   2.0000     -10.147432      -276.1257
   7   2.0000     -10.112179      -275.1664
   8   2.0000     -10.094363      -274.6816
   9   2.0000     -10.087391      -274.4919
  10   2.0000     -10.087175      -274.4860
  11   2.0000     -10.071096      -274.0485
  12   2.0000     -10.058691      -273.7109
  13   2.0000      -9.958869      -270.9946
  14   2.0000      -8.091929      -220.1926
  15   2.0000      -6.123674      -166.6336
  16   2.0000      -6.117146      -166.4560
  17   2.0000      -6.116113      -166.4279
  18   2.0000      -1.492237       -40.6058
  19   2.0000      -1.231865       -33.5208
  20   2.0000      -1.132713       -30.8227
  21   2.0000      -1.049671       -28.5630
  22   2.0000      -0.971185       -26.4273
  23   2.0000      -0.962259       -26.1844
  24   2.0000      -0.908460       -24.7205
  25   2.0000      -0.867466       -23.6049
  26   2.0000      -0.837560       -22.7912
  27   2.0000      -0.799535       -21.7565
  28   2.0000      -0.790358       -21.5067
  29   2.0000      -0.751727       -20.4555
  30   2.0000      -0.724963       -19.7273
  31   2.0000      -0.720444       -19.6043
  32   2.0000      -0.695073       -18.9139
  33   2.0000      -0.681312       -18.5394
  34   2.0000      -0.642766       -17.4905
  35   2.0000      -0.632072       -17.1995
  36   2.0000      -0.619135       -16.8475
  37   2.0000      -0.613807       -16.7025
  38   2.0000      -0.604444       -16.4478
  39   2.0000      -0.590975       -16.0813
  40   2.0000      -0.571730       -15.5576
  41   2.0000      -0.563557       -15.3352
  42   2.0000      -0.547584       -14.9005
  43   2.0000      -0.537750       -14.6329
  44   2.0000      -0.529648       -14.4125
  45   2.0000      -0.514577       -14.0023
  46   2.0000      -0.498557       -13.5664
  47   2.0000      -0.493959       -13.4413
  48   2.0000      -0.479355       -13.0439
  49   2.0000      -0.471364       -12.8265
  50   2.0000      -0.463128       -12.6024
  51   2.0000      -0.461546       -12.5593
  52   2.0000      -0.448613       -12.2074
  53   2.0000      -0.441072       -12.0022
  54   2.0000      -0.436031       -11.8650
  55   2.0000      -0.430216       -11.7068
  56   2.0000      -0.426969       -11.6184
  57   2.0000      -0.414570       -11.2810
  58   2.0000      -0.323485        -8.8025
  59   2.0000      -0.237359        -6.4589
  60   0.0000       0.020259         0.5513
  61   0.0000       0.037901         1.0313
  62   0.0000       0.044362         1.2071
  63   0.0000       0.052519         1.4291
  64   0.0000       0.065169         1.7733

MULLIKEN ATOMIC CHARGES
-----------------------
   0 C :   -1.188150
   1 N :   -0.342551
   2 C :   -0.968778
   3 C :   -0.908456
   4 H :    0.474013
   5 H :    0.478766
   6 S :    0.994505
   7 C :    0.736340
   8 N :   -0.322768
   9 C :   -1.310233
  10 H :    0.284371
  11 H :    0.384990
  12 H :    0.529711
  13 H :    0.317090
  14 H :    0.092670
  15 O :   -0.543043
  16 F :   -0.117244
  17 C :   -0.705433
  18 H :    0.517069
  19 H :    0.443922
  20 C :   -0.630799
  21 H :    0.430753
  22 H :    0.443514
  23 C :   -0.719579
  24 H :    0.417863
  25 H :    0.454621
  26 O :   -0.736150
  27 H :    0.373334
  28 H :    0.429573
  29 H :    0.306068
  30 H :    0.384011
Sum of atomic charges:   -0.0000000

LOEWDIN ATOMIC CHARGES
----------------------
   0 C :   -0.199906
   1 N :    0.023477
   2 C :   -0.233804
   3 C :   -0.224919
   4 H :    0.123459
   5 H :    0.113796
   6 S :    0.623601
   7 C :   -0.569679
   8 N :    0.131414
   9 C :   -0.005187
  10 H :   -0.001785
  11 H :    0.002892
  12 H :    0.064896
  13 H :    0.053700
  14 H :    0.113989
  15 O :   -0.231800
  16 F :   -0.009660
  17 C :   -0.191015
  18 H :    0.117066
  19 H :    0.116654
  20 C :   -0.226487
  21 H :    0.115430
  22 H :    0.129442
  23 C :   -0.216164
  24 H :    0.114388
  25 H :    0.116245
  26 O :   -0.314049
  27 H :    0.109245
  28 H :    0.124329
  29 H :    0.100317
  30 H :    0.130116

  Mayer bond orders larger than 0.100000
B(  0-C ,  1-N ) :   0.7429 B(  0-C ,  9-C ) :   0.1439 B(  0-C , 12-H ) :  -0.2171
B(  0-C , 17-C ) :   0.5170 B(  0-C , 18-H ) :   0.7770 B(  0-C , 19-H ) :   0.8846
B(  1-N ,  7-C ) :   0.8822 B(  1-N ,  9-C ) :   0.1514 B(  1-N , 12-H ) :   0.7569
B(  2-C ,  3-C ) :   0.5515 B(  2-C , 20-C ) :   0.6192 B(  2-C , 21-H ) :   0.9389
B(  2-C , 22-H ) :   0.8761 B(  3-C ,  4-H ) :   0.8164 B(  3-C ,  5-H ) :   0.8604
B(  3-C ,  6-S ) :   0.9053 B(  3-C , 15-O ) :   0.1073 B(  3-C , 20-C ) :  -0.1010
B(  6-S , 15-O ) :   1.6510 B(  6-S , 16-F ) :   1.0097 B(  6-S , 26-O ) :   1.7721
B(  7-C ,  8-N ) :   0.8370 B(  7-C ,  9-C ) :   0.9367 B(  7-C , 10-H ) :  -0.1068
B(  7-C , 11-H ) :  -0.1247 B(  8-N ,  9-C ) :   0.1114 B(  8-N , 13-H ) :   0.8896
B(  8-N , 14-H ) :   1.1003 B(  9-C , 10-H ) :   1.0612 B(  9-C , 11-H ) :   0.9958
B( 12-H , 26-O ) :  -0.1468 B( 17-C , 23-C ) :   0.7502 B( 17-C , 24-H ) :   0.8865
B( 17-C , 25-H ) :   0.9132 B( 20-C , 23-C ) :   0.2204 B( 20-C , 27-H ) :  -0.1008
B( 20-C , 29-H ) :   0.9720 B( 20-C , 30-H ) :   0.9687 B( 23-C , 27-H ) :   0.9940
B( 23-C , 28-H ) :   0.8672 B( 23-C , 29-H ) :  -0.1019 B( 27-H , 28-H ) :   0.1142

FINAL SINGLE POINT ENERGY     -1071.524245874533

DIPOLE MOMENT
-------------
                                X             Y             Z
Electronic contribution:     -4.88925      -1.35724     -22.73449
Nuclear contribution   :      2.90585       3.30398      21.99296
                        -----------------------------------------
Total Dipole Moment    :     -1.98340       1.94674      -0.74154
                        -----------------------------------------
Magnitude (a.u.)       :      2.87638
Magnitude (Debye)      :      7.31118

Rotational constants in cm-1:     0.029065     0.014689     0.011200
Rotational constants in MHz :   871.338526   440.374927   335.770911

                             ****ORCA TERMINATED NORMALLY****
TOTAL RUN TIME: 0 days 0 hours 7 minutes 38 seconds 798 msec
