                         Program Version 5.0.0 -  RELEASE  -
|  1> !LC-BLYP RIJCOSX def2-TZVPD def2/J TightSCF xyzfile
|  2>
|  3> *xyzfile 0 1 D7.xyz
|  4>
|  5> %MaxCore 64000
|  6>
|  7> %pal nprocs 4
|  8> end
|  9>
| 10> %scf
| 11>   MaxIter 150
| 12> end
| 13>
| 14>
| 15>                          ****END OF INPUT****

CARTESIAN COORDINATES (ANGSTROEM)
---------------------------------
  C      1.963365   -1.749150   -1.896887
  C      2.738490   -2.015170   -3.097113
  C      0.611877    1.657634   -4.500288
  C      1.694991    1.541794   -5.570447
  H      2.697326    1.734659   -5.183996
  H      1.506656    2.272239   -6.358076
  S      1.780287   -0.033128   -6.428739
  C      4.049736   -2.154717   -3.152044
  N      4.658206   -1.986293   -4.318655
  N      4.764231   -2.454435   -2.050491
  H      4.287363   -2.776259   -1.217496
  H      5.750825   -2.658351   -2.125988
  H      2.345176   -1.690274   -3.971447
  H      4.109004   -1.592677   -5.071760
  H      5.649095   -2.156462   -4.427237
  O      2.569287    0.213657   -7.607360
  O      0.416880   -0.462969   -6.618595
  C      2.088520   -0.300912   -1.415204
  H      2.231272   -2.451616   -1.102643
  H      0.930249   -1.977801   -2.155438
  C      0.680356    0.655418   -3.348038
  H     -0.356865    1.549231   -4.991128
  H      0.650228    2.675438   -4.096000
  C      1.968993    0.733582   -2.535654
  H      3.051356   -0.168602   -0.911868
  H      1.316501   -0.136231   -0.657252
  F      2.505129   -0.933263   -5.482570
  H      2.824195    0.624726   -3.208464
  H      2.058919    1.730331   -2.093112
  H      0.542252   -0.344731   -3.766662
  H     -0.174219    0.829692   -2.685182

 Total Charge           Charge          ....    0
 Multiplicity           Mult            ....    1
 Number of Electrons    NEL             ....  120
 Basis Dimension        Dim             ....  689

ORBITAL ENERGIES
----------------

  NO   OCC          E(Eh)            E(eV)
   0   2.0000     -88.519963     -2408.7506
   1   2.0000     -24.561268      -668.3461
   2   2.0000     -18.958670      -515.8916
   3   2.0000     -18.958265      -515.8806
   4   2.0000     -14.173764      -385.6877
   5   2.0000     -14.168564      -385.5462
   6   2.0000     -10.127976      -275.5962
   7   2.0000     -10.116289      -275.2782
   8   2.0000     -10.091117      -274.5933
   9   2.0000     -10.071559      -274.0610
  10   2.0000     -10.063276      -273.8357
  11   2.0000     -10.054044      -273.5845
  12   2.0000     -10.046163      -273.3700
  13   2.0000      -9.985974      -271.7322
  14   2.0000      -8.063312      -219.4139
  15   2.0000      -6.095433      -165.8652
  16   2.0000      -6.088081      -165.6651
  17   2.0000      -6.087577      -165.6514
  18   2.0000      -1.440618       -39.2012
  19   2.0000      -1.217710       -33.1356
  20   2.0000      -1.124922       -30.6107
  21   2.0000      -1.064746       -28.9732
  22   2.0000      -0.975436       -26.5430
  23   2.0000      -0.949314       -25.8321
  24   2.0000      -0.912044       -24.8180
  25   2.0000      -0.865331       -23.5468
  26   2.0000      -0.841962       -22.9110
  27   2.0000      -0.805032       -21.9060
  28   2.0000      -0.776561       -21.1313
  29   2.0000      -0.736670       -20.0458
  30   2.0000      -0.698938       -19.0191
  31   2.0000      -0.687625       -18.7112
  32   2.0000      -0.683643       -18.6029
  33   2.0000      -0.671808       -18.2808
  34   2.0000      -0.650729       -17.7072
  35   2.0000      -0.647867       -17.6294
  36   2.0000      -0.612926       -16.6786
  37   2.0000      -0.600369       -16.3369
  38   2.0000      -0.597714       -16.2646
  39   2.0000      -0.575468       -15.6593
  40   2.0000      -0.572755       -15.5855
  41   2.0000      -0.559435       -15.2230
  42   2.0000      -0.552913       -15.0455
  43   2.0000      -0.536498       -14.5989
  44   2.0000      -0.526112       -14.3162
  45   2.0000      -0.505034       -13.7427
  46   2.0000      -0.502145       -13.6641
  47   2.0000      -0.494903       -13.4670
  48   2.0000      -0.489237       -13.3128
  49   2.0000      -0.469179       -12.7670
  50   2.0000      -0.458083       -12.4651
  51   2.0000      -0.444616       -12.0986
  52   2.0000      -0.441959       -12.0263
  53   2.0000      -0.432903       -11.7799
  54   2.0000      -0.428205       -11.6521
  55   2.0000      -0.420717       -11.4483
  56   2.0000      -0.410722       -11.1763
  57   2.0000      -0.405563       -11.0359
  58   2.0000      -0.368092       -10.0163
  59   2.0000      -0.256406        -6.9772
  60   0.0000       0.037281         1.0145
  61   0.0000       0.044806         1.2192
  62   0.0000       0.053745         1.4625
  63   0.0000       0.054859         1.4928
  64   0.0000       0.068033         1.8513

MULLIKEN ATOMIC CHARGES
-----------------------
   0 C :   -1.019275
   1 C :   -0.568659
   2 C :   -0.887955
   3 C :   -0.934850
   4 H :    0.478204
   5 H :    0.483410
   6 S :    0.960770
   7 C :    0.020811
   8 N :   -0.369129
   9 N :   -0.361762
  10 H :    0.187311
  11 H :    0.133014
  12 H :    0.877998
  13 H :    0.280903
  14 H :    0.082095
  15 O :   -0.546899
  16 O :   -0.542260
  17 C :   -0.796507
  18 H :    0.653830
  19 H :    0.327368
  20 C :   -0.729992
  21 H :    0.434057
  22 H :    0.446967
  23 C :   -0.653863
  24 H :    0.373564
  25 H :    0.410552
  26 F :   -0.269749
  27 H :    0.374436
  28 H :    0.430899
  29 H :    0.330102
  30 H :    0.394609
Sum of atomic charges:   -0.0000000

LOEWDIN ATOMIC CHARGES
----------------------
   0 C :   -0.233863
   1 C :   -0.156556
   2 C :   -0.233315
   3 C :   -0.232682
   4 H :    0.111269
   5 H :    0.118703
   6 S :    0.583176
   7 C :   -0.538153
   8 N :    0.131209
   9 N :    0.140739
  10 H :    0.100484
  11 H :    0.097427
  12 H :    0.037475
  13 H :    0.077135
  14 H :    0.107415
  15 O :   -0.249485
  16 O :   -0.234603
  17 C :   -0.205797
  18 H :    0.106493
  19 H :    0.111774
  20 C :   -0.220040
  21 H :    0.118038
  22 H :    0.126573
  23 C :   -0.221844
  24 H :    0.113826
  25 H :    0.113444
  26 F :   -0.132354
  27 H :    0.105418
  28 H :    0.122522
  29 H :    0.105052
  30 H :    0.130521

  Mayer bond orders larger than 0.100000
B(  0-C ,  1-C ) :   0.1119 B(  0-C ,  7-C ) :   0.1934 B(  0-C , 12-H ) :  -0.1165
B(  0-C , 17-C ) :   0.5523 B(  0-C , 18-H ) :   0.6466 B(  0-C , 19-H ) :   1.1375
B(  0-C , 23-C ) :  -0.1178 B(  1-C ,  7-C ) :   1.4090 B(  1-C , 12-H ) :   0.6030
B(  1-C , 17-C ) :  -0.2582 B(  1-C , 18-H ) :  -0.1749 B(  1-C , 26-F ) :   0.2405
B(  2-C ,  3-C ) :   0.6011 B(  2-C , 20-C ) :   0.7099 B(  2-C , 21-H ) :   0.9232
B(  2-C , 22-H ) :   0.8793 B(  3-C ,  4-H ) :   0.8152 B(  3-C ,  5-H ) :   0.8181
B(  3-C ,  6-S ) :   0.9188 B(  6-S , 15-O ) :   1.5719 B(  6-S , 16-O ) :   1.6087
B(  6-S , 26-F ) :   1.1682 B(  7-C ,  8-N ) :   0.8150 B(  7-C ,  9-N ) :   0.8792
B(  7-C , 12-H ) :  -0.2489 B(  8-N , 13-H ) :   0.9321 B(  8-N , 14-H ) :   1.1514
B(  9-N , 10-H ) :   0.9723 B(  9-N , 11-H ) :   1.0879 B( 12-H , 26-F ) :  -0.2980
B( 17-C , 23-C ) :   0.7236 B( 17-C , 24-H ) :   0.9521 B( 17-C , 25-H ) :   0.8895
B( 20-C , 23-C ) :   0.1375 B( 20-C , 27-H ) :  -0.1253 B( 20-C , 29-H ) :   1.0205
B( 20-C , 30-H ) :   0.9057 B( 23-C , 27-H ) :   1.0427 B( 23-C , 28-H ) :   0.8766
B( 23-C , 29-H ) :  -0.1573 B( 27-H , 28-H ) :   0.1138

FINAL SINGLE POINT ENERGY     -1071.534556459909

DIPOLE MOMENT
-------------
                                X             Y             Z
Electronic contribution:      0.74756      -3.10742     -19.37435
Nuclear contribution   :      0.26049       3.89757      20.56096
                        -----------------------------------------
Total Dipole Moment    :      1.00805       0.79015       1.18661
                        -----------------------------------------
Magnitude (a.u.)       :      1.74601
Magnitude (Debye)      :      4.43801

Rotational constants in cm-1:     0.029090     0.014735     0.011139
Rotational constants in MHz :   872.086433   441.731892   333.928051

                             ****ORCA TERMINATED NORMALLY****
TOTAL RUN TIME: 0 days 0 hours 8 minutes 21 seconds 767 msec
