                         Program Version 5.0.0 -  RELEASE  -
|  1> !LC-BLYP RIJCOSX def2-TZVPD def2/J TightSCF xyzfile
|  2>
|  3> *xyzfile 0 1 D8.xyz
|  4>
|  5> %MaxCore 64000
|  6>
|  7> %pal nprocs 4
|  8> end
|  9>
| 10> %scf
| 11>   MaxIter 150
| 12> end
| 13>
| 14>
| 15>                          ****END OF INPUT****

CARTESIAN COORDINATES (ANGSTROEM)
---------------------------------
  C      1.963365   -1.749150   -1.896887
  N      2.738490   -2.015170   -3.097113
  C      0.611877    1.657634   -4.500288
  C      1.694991    1.541794   -5.570447
  H      2.697326    1.734659   -5.183996
  H      1.506656    2.272239   -6.358076
  S      1.780287   -0.033128   -6.428739
  C      4.049736   -2.154717   -3.152044
  C      4.658206   -1.986293   -4.318655
  N      4.764231   -2.454435   -2.050491
  H      4.287363   -2.776259   -1.217496
  H      5.750825   -2.658351   -2.125988
  H      2.345176   -1.690274   -3.971447
  H      4.109004   -1.592677   -5.071760
  H      5.649095   -2.156462   -4.427237
  O      2.569287    0.213657   -7.607360
  O      0.416880   -0.462969   -6.618595
  C      2.088520   -0.300912   -1.415204
  H      2.231272   -2.451616   -1.102643
  H      0.930249   -1.977801   -2.155438
  C      0.680356    0.655418   -3.348038
  H     -0.356865    1.549231   -4.991128
  H      0.650228    2.675438   -4.096000
  C      1.968993    0.733582   -2.535654
  H      3.051356   -0.168602   -0.911868
  H      1.316501   -0.136231   -0.657252
  F      2.505129   -0.933263   -5.482570
  H      2.824195    0.624726   -3.208464
  H      2.058919    1.730331   -2.093112
  H      0.542252   -0.344731   -3.766662
  H     -0.174219    0.829692   -2.685182

 Total Charge           Charge          ....    0
 Multiplicity           Mult            ....    1
 Number of Electrons    NEL             ....  120
 Basis Dimension        Dim             ....  689

ORBITAL ENERGIES
----------------

  NO   OCC          E(Eh)            E(eV)
   0   2.0000     -88.521332     -2408.7879
   1   2.0000     -24.562061      -668.3677
   2   2.0000     -18.960253      -515.9347
   3   2.0000     -18.958414      -515.8847
   4   2.0000     -14.171319      -385.6212
   5   2.0000     -14.166805      -385.4984
   6   2.0000     -10.131139      -275.6823
   7   2.0000     -10.117239      -275.3041
   8   2.0000     -10.109649      -275.0975
   9   2.0000     -10.099058      -274.8093
  10   2.0000     -10.086090      -274.4565
  11   2.0000     -10.079098      -274.2662
  12   2.0000     -10.075216      -274.1606
  13   2.0000      -9.978373      -271.5253
  14   2.0000      -8.064599      -219.4489
  15   2.0000      -6.096702      -165.8997
  16   2.0000      -6.089468      -165.7028
  17   2.0000      -6.088807      -165.6849
  18   2.0000      -1.441211       -39.2173
  19   2.0000      -1.218548       -33.1584
  20   2.0000      -1.125707       -30.6321
  21   2.0000      -1.073538       -29.2125
  22   2.0000      -0.989254       -26.9190
  23   2.0000      -0.956426       -26.0257
  24   2.0000      -0.911878       -24.8134
  25   2.0000      -0.876287       -23.8450
  26   2.0000      -0.829587       -22.5742
  27   2.0000      -0.820962       -22.3395
  28   2.0000      -0.782344       -21.2887
  29   2.0000      -0.746585       -20.3156
  30   2.0000      -0.706254       -19.2181
  31   2.0000      -0.703760       -19.1503
  32   2.0000      -0.681375       -18.5411
  33   2.0000      -0.676765       -18.4157
  34   2.0000      -0.657276       -17.8854
  35   2.0000      -0.639779       -17.4093
  36   2.0000      -0.612634       -16.6706
  37   2.0000      -0.607543       -16.5321
  38   2.0000      -0.594242       -16.1701
  39   2.0000      -0.588309       -16.0087
  40   2.0000      -0.576627       -15.6908
  41   2.0000      -0.566781       -15.4229
  42   2.0000      -0.552014       -15.0211
  43   2.0000      -0.541730       -14.7412
  44   2.0000      -0.529102       -14.3976
  45   2.0000      -0.513165       -13.9639
  46   2.0000      -0.505981       -13.7684
  47   2.0000      -0.497937       -13.5496
  48   2.0000      -0.486789       -13.2462
  49   2.0000      -0.478144       -13.0109
  50   2.0000      -0.471466       -12.8292
  51   2.0000      -0.465958       -12.6794
  52   2.0000      -0.450084       -12.2474
  53   2.0000      -0.445806       -12.1310
  54   2.0000      -0.438984       -11.9454
  55   2.0000      -0.431087       -11.7305
  56   2.0000      -0.429882       -11.6977
  57   2.0000      -0.427044       -11.6205
  58   2.0000      -0.354412        -9.6440
  59   2.0000      -0.259677        -7.0662
  60   0.0000       0.038086         1.0364
  61   0.0000       0.045271         1.2319
  62   0.0000       0.050752         1.3810
  63   0.0000       0.054967         1.4957
  64   0.0000       0.066700         1.8150

MULLIKEN ATOMIC CHARGES
-----------------------
   0 C :   -1.182919
   1 N :   -0.288367
   2 C :   -0.907688
   3 C :   -0.940913
   4 H :    0.483282
   5 H :    0.491448
   6 S :    0.978023
   7 C :    0.702808
   8 C :   -1.297172
   9 N :   -0.363286
  10 H :    0.170282
  11 H :    0.174404
  12 H :    0.431156
  13 H :    0.499559
  14 H :    0.298662
  15 O :   -0.538561
  16 O :   -0.549567
  17 C :   -0.698494
  18 H :    0.498034
  19 H :    0.439191
  20 C :   -0.753113
  21 H :    0.439427
  22 H :    0.445728
  23 C :   -0.657283
  24 H :    0.411823
  25 H :    0.459049
  26 F :   -0.296259
  27 H :    0.382716
  28 H :    0.428981
  29 H :    0.364781
  30 H :    0.374269
Sum of atomic charges:   -0.0000000

LOEWDIN ATOMIC CHARGES
----------------------
   0 C :   -0.199980
   1 N :    0.029558
   2 C :   -0.232484
   3 C :   -0.231266
   4 H :    0.113097
   5 H :    0.119595
   6 S :    0.583383
   7 C :   -0.559440
   8 C :    0.007885
   9 N :    0.135490
  10 H :    0.090316
  11 H :    0.108793
  12 H :    0.092502
  13 H :   -0.008248
  14 H :    0.020001
  15 O :   -0.240991
  16 O :   -0.238678
  17 C :   -0.193949
  18 H :    0.114788
  19 H :    0.120550
  20 C :   -0.223698
  21 H :    0.118801
  22 H :    0.127620
  23 C :   -0.217910
  24 H :    0.114519
  25 H :    0.117082
  26 F :   -0.132469
  27 H :    0.107041
  28 H :    0.125684
  29 H :    0.101761
  30 H :    0.130649

  Mayer bond orders larger than 0.100000
B(  0-C ,  1-N ) :   0.8200 B(  0-C ,  7-C ) :  -0.1863 B(  0-C ,  9-N ) :   0.1216
B(  0-C , 12-H ) :  -0.1758 B(  0-C , 17-C ) :   0.4875 B(  0-C , 18-H ) :   0.7787
B(  0-C , 19-H ) :   0.9024 B(  1-N ,  7-C ) :   0.8882 B(  1-N , 12-H ) :   0.8001
B(  2-C ,  3-C ) :   0.5819 B(  2-C , 20-C ) :   0.7333 B(  2-C , 21-H ) :   0.9205
B(  2-C , 22-H ) :   0.8772 B(  3-C ,  4-H ) :   0.8200 B(  3-C ,  5-H ) :   0.8083
B(  3-C ,  6-S ) :   0.9029 B(  3-C , 15-O ) :   0.1076 B(  6-S , 15-O ) :   1.5760
B(  6-S , 16-O ) :   1.6132 B(  6-S , 26-F ) :   1.1755 B(  7-C ,  8-C ) :   0.9422
B(  7-C ,  9-N ) :   0.8686 B(  7-C , 14-H ) :  -0.1710 B(  8-C , 13-H ) :   0.7958
B(  8-C , 14-H ) :   1.1644 B(  8-C , 26-F ) :   0.2169 B(  9-N , 10-H ) :   1.0079
B(  9-N , 11-H ) :   1.0216 B( 12-H , 26-F ) :  -0.1141 B( 17-C , 23-C ) :   0.7324
B( 17-C , 24-H ) :   0.8983 B( 17-C , 25-H ) :   0.9318 B( 20-C , 27-H ) :  -0.1203
B( 20-C , 29-H ) :   0.9870 B( 20-C , 30-H ) :   0.9507 B( 23-C , 27-H ) :   1.0270
B( 23-C , 28-H ) :   0.8620 B( 23-C , 29-H ) :  -0.1696 B( 27-H , 28-H ) :   0.1035

FINAL SINGLE POINT ENERGY     -1071.530666680635

DIPOLE MOMENT
-------------
                                X             Y             Z
Electronic contribution:     -0.87435      -2.91378     -18.31594
Nuclear contribution   :      0.50676       3.90127      20.40426
                        -----------------------------------------
Total Dipole Moment    :     -0.36759       0.98749       2.08832
                        -----------------------------------------
Magnitude (a.u.)       :      2.33909
Magnitude (Debye)      :      5.94550

Rotational constants in cm-1:     0.029548     0.014706     0.011197
Rotational constants in MHz :   885.834387   440.871746   335.667619

                             ****ORCA TERMINATED NORMALLY****
TOTAL RUN TIME: 0 days 0 hours 7 minutes 46 seconds 961 msec
