                         Program Version 5.0.0 -  RELEASE  -
|  1> !LC-BLYP RIJCOSX def2-TZVPD def2/J TightSCF xyzfile
|  2>
|  3> *xyzfile 0 1 D9.xyz
|  4>
|  5> %MaxCore 64000
|  6>
|  7> %pal nprocs 4
|  8> end
|  9>
| 10> %scf
| 11>   MaxIter 150
| 12> end
| 13>
| 14>
| 15>                          ****END OF INPUT****

CARTESIAN COORDINATES (ANGSTROEM)
---------------------------------
  C      1.963365   -1.749150   -1.896887
  N      2.738490   -2.015170   -3.097113
  C      0.611877    1.657634   -4.500288
  C      1.694991    1.541794   -5.570447
  H      2.697326    1.734659   -5.183996
  H      1.506656    2.272239   -6.358076
  S      1.780287   -0.033128   -6.428739
  C      4.049736   -2.154717   -3.152044
  N      4.658206   -1.986293   -4.318655
  C      4.764231   -2.454435   -2.050491
  H      4.287363   -2.776259   -1.217496
  H      5.750825   -2.658351   -2.125988
  H      2.345176   -1.690274   -3.971447
  H      4.109004   -1.592677   -5.071760
  H      5.649095   -2.156462   -4.427237
  O      2.569287    0.213657   -7.607360
  O      0.416880   -0.462969   -6.618595
  C      2.088520   -0.300912   -1.415204
  H      2.231272   -2.451616   -1.102643
  H      0.930249   -1.977801   -2.155438
  C      0.680356    0.655418   -3.348038
  H     -0.356865    1.549231   -4.991128
  H      0.650228    2.675438   -4.096000
  C      1.968993    0.733582   -2.535654
  H      3.051356   -0.168602   -0.911868
  H      1.316501   -0.136231   -0.657252
  F      2.505129   -0.933263   -5.482570
  H      2.824195    0.624726   -3.208464
  H      2.058919    1.730331   -2.093112
  H      0.542252   -0.344731   -3.766662
  H     -0.174219    0.829692   -2.685182

 Total Charge           Charge          ....    0
 Multiplicity           Mult            ....    1
 Number of Electrons    NEL             ....  120
 Basis Dimension        Dim             ....  689

ORBITAL ENERGIES
----------------

  NO   OCC          E(Eh)            E(eV)
   0   2.0000     -88.534947     -2409.1584
   1   2.0000     -24.584139      -668.9684
   2   2.0000     -18.972925      -516.2795
   3   2.0000     -18.972559      -516.2696
   4   2.0000     -14.168636      -385.5482
   5   2.0000     -14.168295      -385.5389
   6   2.0000     -10.141094      -275.9532
   7   2.0000     -10.117316      -275.3062
   8   2.0000     -10.104494      -274.9572
   9   2.0000     -10.102811      -274.9115
  10   2.0000     -10.088559      -274.5236
  11   2.0000     -10.079600      -274.2799
  12   2.0000     -10.069531      -274.0059
  13   2.0000      -9.980319      -271.5783
  14   2.0000      -8.078404      -219.8245
  15   2.0000      -6.110741      -166.2817
  16   2.0000      -6.103035      -166.0720
  17   2.0000      -6.102517      -166.0579
  18   2.0000      -1.462413       -39.7943
  19   2.0000      -1.232589       -33.5404
  20   2.0000      -1.138976       -30.9931
  21   2.0000      -1.077461       -29.3192
  22   2.0000      -0.991726       -26.9862
  23   2.0000      -0.962245       -26.1840
  24   2.0000      -0.912406       -24.8278
  25   2.0000      -0.873393       -23.7662
  26   2.0000      -0.844624       -22.9834
  27   2.0000      -0.807274       -21.9670
  28   2.0000      -0.805105       -21.9080
  29   2.0000      -0.751193       -20.4410
  30   2.0000      -0.716832       -19.5060
  31   2.0000      -0.710189       -19.3252
  32   2.0000      -0.692489       -18.8436
  33   2.0000      -0.673886       -18.3374
  34   2.0000      -0.655139       -17.8272
  35   2.0000      -0.647599       -17.6221
  36   2.0000      -0.626616       -17.0511
  37   2.0000      -0.615841       -16.7579
  38   2.0000      -0.610048       -16.6002
  39   2.0000      -0.590763       -16.0755
  40   2.0000      -0.578603       -15.7446
  41   2.0000      -0.568755       -15.4766
  42   2.0000      -0.552911       -15.0455
  43   2.0000      -0.544211       -14.8087
  44   2.0000      -0.533223       -14.5097
  45   2.0000      -0.518226       -14.1016
  46   2.0000      -0.506976       -13.7955
  47   2.0000      -0.503720       -13.7069
  48   2.0000      -0.484241       -13.1769
  49   2.0000      -0.477173       -12.9845
  50   2.0000      -0.473494       -12.8844
  51   2.0000      -0.466819       -12.7028
  52   2.0000      -0.460619       -12.5341
  53   2.0000      -0.449877       -12.2418
  54   2.0000      -0.443072       -12.0566
  55   2.0000      -0.440063       -11.9747
  56   2.0000      -0.436695       -11.8831
  57   2.0000      -0.425655       -11.5826
  58   2.0000      -0.349536        -9.5114
  59   2.0000      -0.259763        -7.0685
  60   0.0000       0.031949         0.8694
  61   0.0000       0.043955         1.1961
  62   0.0000       0.045962         1.2507
  63   0.0000       0.052562         1.4303
  64   0.0000       0.069619         1.8944

MULLIKEN ATOMIC CHARGES
-----------------------
   0 C :   -1.167003
   1 N :   -0.372483
   2 C :   -0.898546
   3 C :   -0.937111
   4 H :    0.482757
   5 H :    0.487810
   6 S :    0.965479
   7 C :    0.752319
   8 N :   -0.343394
   9 C :   -1.313821
  10 H :    0.291242
  11 H :    0.387913
  12 H :    0.496012
  13 H :    0.311930
  14 H :    0.093152
  15 O :   -0.539686
  16 O :   -0.533222
  17 C :   -0.713321
  18 H :    0.513954
  19 H :    0.447295
  20 C :   -0.743986
  21 H :    0.440863
  22 H :    0.449793
  23 C :   -0.652716
  24 H :    0.414803
  25 H :    0.455835
  26 F :   -0.269167
  27 H :    0.340447
  28 H :    0.427151
  29 H :    0.354434
  30 H :    0.371268
Sum of atomic charges:   -0.0000000

LOEWDIN ATOMIC CHARGES
----------------------
   0 C :   -0.195105
   1 N :    0.026985
   2 C :   -0.231817
   3 C :   -0.230854
   4 H :    0.112569
   5 H :    0.120739
   6 S :    0.585066
   7 C :   -0.567286
   8 N :    0.134180
   9 C :    0.006624
  10 H :    0.004278
  11 H :    0.008514
  12 H :    0.087523
  13 H :    0.069297
  14 H :    0.119329
  15 O :   -0.240997
  16 O :   -0.231893
  17 C :   -0.189851
  18 H :    0.119711
  19 H :    0.120307
  20 C :   -0.224062
  21 H :    0.119243
  22 H :    0.128663
  23 C :   -0.219308
  24 H :    0.114971
  25 H :    0.118685
  26 F :   -0.129352
  27 H :    0.105327
  28 H :    0.125794
  29 H :    0.101088
  30 H :    0.131631

  Mayer bond orders larger than 0.100000
B(  0-C ,  1-N ) :   0.7762 B(  0-C ,  9-C ) :   0.1379 B(  0-C , 12-H ) :  -0.2156
B(  0-C , 17-C ) :   0.5329 B(  0-C , 18-H ) :   0.7760 B(  0-C , 19-H ) :   0.8776
B(  1-N ,  7-C ) :   0.8486 B(  1-N ,  9-C ) :   0.1440 B(  1-N , 12-H ) :   0.7460
B(  2-C ,  3-C ) :   0.5801 B(  2-C , 20-C ) :   0.7353 B(  2-C , 21-H ) :   0.9231
B(  2-C , 22-H ) :   0.8763 B(  3-C ,  4-H ) :   0.8136 B(  3-C ,  5-H ) :   0.8104
B(  3-C ,  6-S ) :   0.9107 B(  6-S , 15-O ) :   1.5921 B(  6-S , 16-O ) :   1.6338
B(  6-S , 26-F ) :   1.1487 B(  7-C ,  8-N ) :   0.7857 B(  7-C ,  9-C ) :   0.9264
B(  7-C , 10-H ) :  -0.1039 B(  7-C , 11-H ) :  -0.1326 B(  8-N ,  9-C ) :   0.1044
B(  8-N , 13-H ) :   0.9029 B(  8-N , 14-H ) :   1.1075 B(  9-C , 10-H ) :   1.0481
B(  9-C , 11-H ) :   0.9917 B( 12-H , 26-F ) :  -0.1178 B( 17-C , 23-C ) :   0.7713
B( 17-C , 24-H ) :   0.8953 B( 17-C , 25-H ) :   0.9146 B( 20-C , 27-H ) :  -0.1319
B( 20-C , 29-H ) :   0.9884 B( 20-C , 30-H ) :   0.9507 B( 23-C , 27-H ) :   1.0482
B( 23-C , 28-H ) :   0.8563 B( 23-C , 29-H ) :  -0.1660 B( 27-H , 28-H ) :   0.1047

FINAL SINGLE POINT ENERGY     -1071.533583567296

DIPOLE MOMENT
-------------
                                X             Y             Z
Electronic contribution:     -1.06113      -2.35439     -20.30628
Nuclear contribution   :      0.52036       3.84122      20.69523
                        -----------------------------------------
Total Dipole Moment    :     -0.54077       1.48683       0.38895
                        -----------------------------------------
Magnitude (a.u.)       :      1.62923
Magnitude (Debye)      :      4.14116

Rotational constants in cm-1:     0.029184     0.014996     0.011314
Rotational constants in MHz :   874.907122   449.569665   339.178205

                             ****ORCA TERMINATED NORMALLY****
TOTAL RUN TIME: 0 days 0 hours 8 minutes 24 seconds 560 msec
