                         Program Version 5.0.0 -  RELEASE  -
|  1> !M062X D3Zero RIJCOSX def2-SVPD def2/J TightSCF
|  2> *xyz -1 1
|  3> C          4.90646       -3.10282       -5.95484
|  4> C          3.51177       -2.80621       -6.49228
|  5> H          2.73604       -3.37345       -5.97374
|  6> H          3.44490       -3.04083       -7.55528
|  7> S          3.00462       -1.09621       -6.38926
|  8> O          4.12886       -0.32965       -6.95372
|  9> O          1.78128       -1.00078       -7.13640
| 10> O          2.85155       -0.78368       -4.95679
| 11> H          5.62703       -2.52424       -6.49422
| 12> H          5.12164       -4.14387       -6.07654
| 13> H          4.95004       -2.84862       -4.91639
| 14> *
| 15>
| 16> %MaxCore 64000
| 17>
| 18> %pal nprocs 4
| 19> end
| 20>
| 21> %scf
| 22>   MaxIter 150
| 23> end
| 24>
| 25>
| 26>                          ****END OF INPUT****

CARTESIAN COORDINATES (ANGSTROEM)
---------------------------------
  C      4.906460   -3.102820   -5.954840
  C      3.511770   -2.806210   -6.492280
  H      2.736040   -3.373450   -5.973740
  H      3.444900   -3.040830   -7.555280
  S      3.004620   -1.096210   -6.389260
  O      4.128860   -0.329650   -6.953720
  O      1.781280   -1.000780   -7.136400
  O      2.851550   -0.783680   -4.956790
  H      5.627030   -2.524240   -6.494220
  H      5.121640   -4.143870   -6.076540
  H      4.950040   -2.848620   -4.916390

 Total Charge           Charge          ....   -1
 Multiplicity           Mult            ....    1
 Number of Electrons    NEL             ....   58
 Basis Dimension        Dim             ....  176

ORBITAL ENERGIES
----------------

  NO   OCC          E(Eh)            E(eV)
   0   2.0000     -89.935381     -2447.2661
   1   2.0000     -19.419935      -528.4433
   2   2.0000     -19.408343      -528.1279
   3   2.0000     -19.407832      -528.1140
   4   2.0000     -10.416296      -283.4418
   5   2.0000     -10.410052      -283.2719
   6   2.0000      -8.258952      -224.7375
   7   2.0000      -6.184239      -168.2817
   8   2.0000      -6.184123      -168.2786
   9   2.0000      -6.183760      -168.2687
  10   2.0000      -1.046862       -28.4866
  11   2.0000      -0.901053       -24.5189
  12   2.0000      -0.879480       -23.9319
  13   2.0000      -0.727441       -19.7947
  14   2.0000      -0.595418       -16.2022
  15   2.0000      -0.463649       -12.6165
  16   2.0000      -0.395673       -10.7668
  17   2.0000      -0.393861       -10.7175
  18   2.0000      -0.354879        -9.6568
  19   2.0000      -0.342937        -9.3318
  20   2.0000      -0.330239        -8.9863
  21   2.0000      -0.298561        -8.1243
  22   2.0000      -0.281056        -7.6479
  23   2.0000      -0.224886        -6.1195
  24   2.0000      -0.223631        -6.0853
  25   2.0000      -0.185208        -5.0398
  26   2.0000      -0.173050        -4.7089
  27   2.0000      -0.169740        -4.6189
  28   2.0000      -0.135056        -3.6751
  29   0.0000       0.156428         4.2566
  30   0.0000       0.177622         4.8333
  31   0.0000       0.181926         4.9505
  32   0.0000       0.190275         5.1776
  33   0.0000       0.209226         5.6933

MULLIKEN ATOMIC CHARGES
-----------------------
   0 C :    0.741068
   1 C :   -0.354368
   2 H :   -0.079344
   3 H :   -0.041775
   4 S :    1.436627
   5 O :   -0.855906
   6 O :   -0.825330
   7 O :   -0.858078
   8 H :   -0.033661
   9 H :   -0.096703
  10 H :   -0.032531
Sum of atomic charges:   -1.0000000

LOEWDIN ATOMIC CHARGES
----------------------
   0 C :    0.106696
   1 C :   -0.141451
   2 H :    0.006443
   3 H :    0.003499
   4 S :    0.891500
   5 O :   -0.603441
   6 O :   -0.587679
   7 O :   -0.606996
   8 H :   -0.020742
   9 H :   -0.032730
  10 H :   -0.015098

  Mayer bond orders larger than 0.100000
B(  0-C ,  1-C ) :   1.2839 B(  0-C ,  8-H ) :   0.8263 B(  0-C ,  9-H ) :   0.7510
B(  0-C , 10-H ) :   0.8108 B(  1-C ,  2-H ) :   1.0029 B(  1-C ,  3-H ) :   0.9985
B(  1-C ,  4-S ) :   0.9066 B(  1-C ,  8-H ) :   0.2011 B(  1-C ,  9-H ) :   0.2171
B(  1-C , 10-H ) :   0.1930 B(  4-S ,  5-O ) :   1.2521 B(  4-S ,  6-O ) :   1.2989
B(  4-S ,  7-O ) :   1.2413

Dispersion correction           -0.000145821
FINAL SINGLE POINT ENERGY      -702.627380124449

DIPOLE MOMENT
-------------
                                X             Y             Z
Electronic contribution:     -4.32444       6.30459      -0.66382
Nuclear contribution   :      5.05690      -8.21735       0.57889
                        -----------------------------------------
Total Dipole Moment    :      0.73246      -1.91276      -0.08492
                        -----------------------------------------
Magnitude (a.u.)       :      2.04997
Magnitude (Debye)      :      5.21061

Rotational constants in cm-1:     0.162547     0.083494     0.081672
Rotational constants in MHz :  4873.033504  2503.090885  2448.458543

                             ****ORCA TERMINATED NORMALLY****
TOTAL RUN TIME: 0 days 0 hours 0 minutes 19 seconds 809 msec
