                         Program Version 5.0.0 -  RELEASE  -
|  1> !M062X D3Zero RIJCOSX def2-SVPD def2/J TightSCF
|  2> *xyz 1 1
|  3> C          4.49059        1.15590       -2.46929
|  4> N          4.30539        1.22276       -3.90832
|  5> C          4.63192        2.24637       -4.67096
|  6> N          4.54169        2.14399       -5.98714
|  7> N          5.08409        3.39358       -4.11855
|  8> H          4.92067        3.57050       -3.13587
|  9> H          5.25465        4.19739       -4.70696
| 10> H          3.82453        0.44911       -4.35093
| 11> H          4.34337        1.24932       -6.41665
| 12> H          4.67671        2.95662       -6.57411
| 13> C          5.94213        0.93950       -2.03689
| 14> H          3.86431        0.32853       -2.13661
| 15> H          4.07623        2.04999       -1.98901
| 16> H          6.32982        0.06401       -2.51451
| 17> H          5.98308        0.81426       -0.97504
| 18> H          6.52865        1.78889       -2.31873
| 19> *
| 20>
| 21> %MaxCore 64000
| 22>
| 23> %pal nprocs 4
| 24> end
| 25>
| 26> %scf
| 27>   MaxIter 150
| 28> end
| 29>
| 30>
| 31>                          ****END OF INPUT****

CARTESIAN COORDINATES (ANGSTROEM)
---------------------------------
  C      4.490590    1.155900   -2.469290
  N      4.305390    1.222760   -3.908320
  C      4.631920    2.246370   -4.670960
  N      4.541690    2.143990   -5.987140
  N      5.084090    3.393580   -4.118550
  H      4.920670    3.570500   -3.135870
  H      5.254650    4.197390   -4.706960
  H      3.824530    0.449110   -4.350930
  H      4.343370    1.249320   -6.416650
  H      4.676710    2.956620   -6.574110
  C      5.942130    0.939500   -2.036890
  H      3.864310    0.328530   -2.136610
  H      4.076230    2.049990   -1.989010
  H      6.329820    0.064010   -2.514510
  H      5.983080    0.814260   -0.975040
  H      6.528650    1.788890   -2.318730

 Total Charge           Charge          ....    1
 Multiplicity           Mult            ....    1
 Number of Electrons    NEL             ....   48
 Basis Dimension        Dim             ....  200

ORBITAL ENERGIES
----------------

  NO   OCC          E(Eh)            E(eV)
   0   2.0000     -14.987445      -407.8291
   1   2.0000     -14.986842      -407.8127
   2   2.0000     -14.984279      -407.7429
   3   2.0000     -10.892362      -296.3962
   4   2.0000     -10.759477      -292.7803
   5   2.0000     -10.685699      -290.7726
   6   2.0000      -1.319846       -35.9148
   7   2.0000      -1.201694       -32.6997
   8   2.0000      -1.184424       -32.2298
   9   2.0000      -1.018937       -27.7267
  10   2.0000      -0.926966       -25.2240
  11   2.0000      -0.881402       -23.9842
  12   2.0000      -0.865529       -23.5522
  13   2.0000      -0.818412       -22.2701
  14   2.0000      -0.764845       -20.8125
  15   2.0000      -0.760296       -20.6887
  16   2.0000      -0.733089       -19.9484
  17   2.0000      -0.698755       -19.0141
  18   2.0000      -0.672729       -18.3059
  19   2.0000      -0.624297       -16.9880
  20   2.0000      -0.595344       -16.2001
  21   2.0000      -0.574377       -15.6296
  22   2.0000      -0.540831       -14.7168
  23   2.0000      -0.511181       -13.9099
  24   0.0000      -0.132153        -3.5961
  25   0.0000      -0.130467        -3.5502
  26   0.0000      -0.097737        -2.6595
  27   0.0000      -0.093016        -2.5311
  28   0.0000      -0.065812        -1.7908

MULLIKEN ATOMIC CHARGES
-----------------------
   0 C :    0.216324
   1 N :   -0.452429
   2 C :    1.555713
   3 N :   -0.151048
   4 N :   -0.085756
   5 H :   -0.007551
   6 H :   -0.163452
   7 H :   -0.221044
   8 H :   -0.038892
   9 H :   -0.031175
  10 C :    0.633127
  11 H :   -0.292390
  12 H :    0.024631
  13 H :   -0.021909
  14 H :    0.045374
  15 H :   -0.009524
Sum of atomic charges:    1.0000000

LOEWDIN ATOMIC CHARGES
----------------------
   0 C :    0.039152
   1 N :    0.029315
   2 C :   -0.020966
   3 N :    0.254520
   4 N :    0.276163
   5 H :    0.018297
   6 H :    0.037472
   7 H :    0.063650
   8 H :    0.044217
   9 H :    0.043343
  10 C :    0.164177
  11 H :    0.041604
  12 H :    0.029966
  13 H :   -0.003136
  14 H :    0.003757
  15 H :   -0.021530

  Mayer bond orders larger than 0.100000
B(  0-C ,  1-N ) :   0.8880 B(  0-C ,  7-H ) :  -0.1551 B(  0-C , 10-C ) :   1.2677
B(  0-C , 11-H ) :   0.9438 B(  0-C , 12-H ) :   0.8741 B(  0-C , 13-H ) :   0.2379
B(  0-C , 14-H ) :   0.1432 B(  0-C , 15-H ) :   0.1891 B(  1-N ,  2-C ) :   0.9858
B(  1-N ,  3-N ) :   0.2524 B(  1-N ,  4-N ) :   0.2294 B(  1-N ,  7-H ) :   1.3248
B(  1-N , 11-H ) :   0.1722 B(  2-C ,  3-N ) :   0.7665 B(  2-C ,  4-N ) :   0.8489
B(  2-C ,  5-H ) :  -0.1246 B(  2-C ,  6-H ) :  -0.1863 B(  2-C ,  7-H ) :  -0.2652
B(  2-C ,  8-H ) :  -0.1740 B(  2-C ,  9-H ) :  -0.1518 B(  3-N ,  4-N ) :   0.1486
B(  3-N ,  8-H ) :   1.1942 B(  3-N ,  9-H ) :   1.2294 B(  4-N ,  5-H ) :   1.0770
B(  4-N ,  6-H ) :   1.2916 B(  5-H ,  6-H ) :  -0.2142 B(  8-H ,  9-H ) :  -0.1852
B( 10-C , 13-H ) :   0.8153 B( 10-C , 14-H ) :   0.8414 B( 10-C , 15-H ) :   0.8185

Dispersion correction           -0.000313641
FINAL SINGLE POINT ENERGY      -284.068702448667

DIPOLE MOMENT
-------------
                                X             Y             Z
Electronic contribution:     -1.80721       1.57322      -4.45005
Nuclear contribution   :      1.34333      -1.11039       3.43667
                        -----------------------------------------
Total Dipole Moment    :     -0.46388       0.46283      -1.01339
                        -----------------------------------------
Magnitude (a.u.)       :      1.20679
Magnitude (Debye)      :      3.06743

Rotational constants in cm-1:     0.227161     0.075356     0.065003
Rotational constants in MHz :  6810.114531  2259.122204  1948.738523

                             ****ORCA TERMINATED NORMALLY****
TOTAL RUN TIME: 0 days 0 hours 0 minutes 23 seconds 864 msec
