                         Program Version 5.0.0 -  RELEASE  -
|  1> !M062X D3Zero RIJCOSX def2-SVPD def2/J TightSCF xyzfile
|  2>
|  3> *xyzfile 0 1 B.xyz
|  4>
|  5> %MaxCore 64000
|  6>
|  7> %pal nprocs 4
|  8> end
|  9>
| 10> %scf
| 11>   MaxIter 150
| 12> end
| 13>
| 14>
| 15>                          ****END OF INPUT****

CARTESIAN COORDINATES (ANGSTROEM)
---------------------------------
  C      4.490588    1.155899   -2.469290
  N      4.305394    1.222762   -3.908317
  C      4.906458   -3.102816   -5.954844
  C      3.511771   -2.806215   -6.492283
  H      2.736044   -3.373445   -5.973736
  H      3.444904   -3.040831   -7.555281
  S      3.004618   -1.096206   -6.389259
  C      4.631918    2.246365   -4.670958
  N      4.541686    2.143990   -5.987139
  N      5.084086    3.393584   -4.118545
  H      4.920675    3.570501   -3.135870
  H      5.254652    4.197390   -4.706956
  H      3.824530    0.449113   -4.350926
  H      4.343373    1.249318   -6.416646
  H      4.676712    2.956624   -6.574113
  O      4.128856   -0.329647   -6.953717
  O      1.781285   -1.000779   -7.136399
  C      5.942129    0.939500   -2.036893
  H      3.864305    0.328532   -2.136611
  H      4.076233    2.049994   -1.989010
  C      6.462677   -3.117775   -3.944671
  C      5.024977   -3.025679   -4.437625
  H      4.423321   -3.818693   -3.977648
  H      4.579350   -2.087131   -4.108727
  H      5.201533   -4.100207   -6.296905
  H      5.605922   -2.397822   -6.413368
  C      6.559957   -0.356290   -2.559086
  H      5.967976    0.952567   -0.942444
  H      6.547184    1.788331   -2.368849
  C      6.006283   -1.615917   -1.899301
  H      7.642360   -0.318000   -2.402059
  H      6.414855   -0.403433   -3.642587
  C      6.608718   -2.917014   -2.435655
  H      6.190324   -1.561115   -0.820948
  H      4.919250   -1.651245   -2.016586
  H      7.066975   -2.374258   -4.475514
  H      6.887808   -4.089747   -4.215332
  H      6.135197   -3.755573   -1.915159
  H      7.671142   -2.955503   -2.172291
  O      2.851546   -0.783683   -4.956789

 Total Charge           Charge          ....    0
 Multiplicity           Mult            ....    1
 Number of Electrons    NEL             ....  144
 Basis Dimension        Dim             ....  540

ORBITAL ENERGIES
----------------

  NO   OCC          E(Eh)            E(eV)
   0   2.0000     -90.093761     -2451.5759
   1   2.0000     -19.579024      -532.7723
   2   2.0000     -19.578563      -532.7598
   3   2.0000     -19.564018      -532.3640
   4   2.0000     -14.839417      -403.8011
   5   2.0000     -14.807540      -402.9336
   6   2.0000     -14.805088      -402.8669
   7   2.0000     -10.728095      -291.9263
   8   2.0000     -10.618303      -288.9387
   9   2.0000     -10.571628      -287.6686
  10   2.0000     -10.555259      -287.2232
  11   2.0000     -10.548358      -287.0354
  12   2.0000     -10.544049      -286.9182
  13   2.0000     -10.543229      -286.8959
  14   2.0000     -10.536477      -286.7121
  15   2.0000     -10.535818      -286.6942
  16   2.0000     -10.527762      -286.4750
  17   2.0000      -8.416622      -229.0279
  18   2.0000      -6.342539      -172.5893
  19   2.0000      -6.341883      -172.5714
  20   2.0000      -6.340785      -172.5415
  21   2.0000      -1.208390       -32.8820
  22   2.0000      -1.156439       -31.4683
  23   2.0000      -1.058043       -28.7908
  24   2.0000      -1.055948       -28.7338
  25   2.0000      -1.037738       -28.2383
  26   2.0000      -1.023241       -27.8438
  27   2.0000      -0.917407       -24.9639
  28   2.0000      -0.891232       -24.2516
  29   2.0000      -0.863037       -23.4844
  30   2.0000      -0.823109       -22.3979
  31   2.0000      -0.785474       -21.3738
  32   2.0000      -0.759277       -20.6610
  33   2.0000      -0.729227       -19.8433
  34   2.0000      -0.708098       -19.2683
  35   2.0000      -0.695748       -18.9323
  36   2.0000      -0.674068       -18.3423
  37   2.0000      -0.652703       -17.7610
  38   2.0000      -0.627211       -17.0673
  39   2.0000      -0.623604       -16.9691
  40   2.0000      -0.613652       -16.6983
  41   2.0000      -0.590032       -16.0556
  42   2.0000      -0.578327       -15.7371
  43   2.0000      -0.557724       -15.1764
  44   2.0000      -0.553675       -15.0663
  45   2.0000      -0.539922       -14.6920
  46   2.0000      -0.537156       -14.6168
  47   2.0000      -0.525865       -14.3095
  48   2.0000      -0.509952       -13.8765
  49   2.0000      -0.506229       -13.7752
  50   2.0000      -0.501034       -13.6338
  51   2.0000      -0.484359       -13.1801
  52   2.0000      -0.480070       -13.0634
  53   2.0000      -0.468201       -12.7404
  54   2.0000      -0.456081       -12.4106
  55   2.0000      -0.446980       -12.1629
  56   2.0000      -0.428867       -11.6701
  57   2.0000      -0.421949       -11.4818
  58   2.0000      -0.412037       -11.2121
  59   2.0000      -0.397472       -10.8158
  60   2.0000      -0.390857       -10.6358
  61   2.0000      -0.388577       -10.5737
  62   2.0000      -0.386687       -10.5223
  63   2.0000      -0.380074       -10.3423
  64   2.0000      -0.373393       -10.1606
  65   2.0000      -0.368749       -10.0342
  66   2.0000      -0.364136        -9.9087
  67   2.0000      -0.347649        -9.4600
  68   2.0000      -0.342314        -9.3148
  69   2.0000      -0.333686        -9.0801
  70   2.0000      -0.317689        -8.6448
  71   2.0000      -0.301001        -8.1907
  72   0.0000      -0.001775        -0.0483
  73   0.0000       0.019907         0.5417
  74   0.0000       0.029616         0.8059
  75   0.0000       0.043178         1.1749
  76   0.0000       0.047232         1.2852

MULLIKEN ATOMIC CHARGES
-----------------------
   0 C :    1.075582
   1 N :    0.115592
   2 C :    0.244826
   3 C :    0.335852
   4 H :   -0.008242
   5 H :   -0.013153
   6 S :    1.442570
   7 C :    1.490220
   8 N :    0.310914
   9 N :    0.050895
  10 H :   -0.022284
  11 H :   -0.206174
  12 H :   -1.067385
  13 H :   -0.338951
  14 H :   -0.163799
  15 O :   -0.843894
  16 O :   -0.855531
  17 C :    0.362464
  18 H :   -0.245545
  19 H :   -0.195113
  20 C :    0.067600
  21 C :    0.300999
  22 H :    0.023542
  23 H :   -0.590067
  24 H :   -0.134142
  25 H :    0.049829
  26 C :    0.149420
  27 H :   -0.120681
  28 H :   -0.062980
  29 C :   -0.134872
  30 H :   -0.198195
  31 H :   -0.099232
  32 C :    0.705964
  33 H :   -0.404640
  34 H :    0.192677
  35 H :    0.105700
  36 H :   -0.384227
  37 H :   -0.042288
  38 H :   -0.006373
  39 O :   -0.886879
Sum of atomic charges:   -0.0000000

LOEWDIN ATOMIC CHARGES
----------------------
   0 C :    0.084664
   1 N :    0.074556
   2 C :   -0.037161
   3 C :   -0.060923
   4 H :    0.026235
   5 H :    0.021154
   6 S :    0.988620
   7 C :   -0.015218
   8 N :    0.282840
   9 N :    0.246194
  10 H :    0.000223
  11 H :    0.018029
  12 H :   -0.082754
  13 H :   -0.099569
  14 H :    0.030173
  15 O :   -0.542829
  16 O :   -0.526208
  17 C :   -0.017830
  18 H :    0.033129
  19 H :    0.018504
  20 C :   -0.038855
  21 C :   -0.030075
  22 H :    0.040646
  23 H :   -0.022749
  24 H :    0.028486
  25 H :    0.022652
  26 C :   -0.028205
  27 H :    0.028158
  28 H :    0.009624
  29 C :   -0.036710
  30 H :    0.029919
  31 H :    0.011433
  32 C :   -0.030593
  33 H :    0.023662
  34 H :    0.008697
  35 H :    0.016550
  36 H :    0.024150
  37 H :    0.024071
  38 H :    0.021743
  39 O :   -0.544434

  Mayer bond orders larger than 0.100000
B(  0-C ,  1-N ) :   0.8915 B(  0-C , 12-H ) :  -0.5220 B(  0-C , 17-C ) :   1.0936
B(  0-C , 18-H ) :   0.6493 B(  0-C , 19-H ) :   0.8504 B(  0-C , 26-C ) :   0.1524
B(  1-N ,  7-C ) :   1.2448 B(  1-N ,  9-N ) :   0.2320 B(  1-N , 12-H ) :   1.1221
B(  1-N , 13-H ) :   0.1620 B(  1-N , 14-H ) :  -0.1221 B(  1-N , 18-H ) :   0.2819
B(  2-C ,  3-C ) :   1.2309 B(  2-C ,  5-H ) :   0.2556 B(  2-C , 20-C ) :   0.1138
B(  2-C , 21-C ) :   1.1291 B(  2-C , 22-H ) :   0.1054 B(  2-C , 24-H ) :   0.8471
B(  2-C , 25-H ) :   0.8460 B(  3-C ,  4-H ) :   0.9287 B(  3-C ,  5-H ) :   0.7321
B(  3-C ,  6-S ) :   0.9698 B(  3-C , 16-O ) :   0.1017 B(  3-C , 21-C ) :   0.1065
B(  6-S , 15-O ) :   1.0733 B(  6-S , 16-O ) :   1.2538 B(  6-S , 39-O ) :   1.1028
B(  7-C ,  8-N ) :   0.8607 B(  7-C ,  9-N ) :   0.8264 B(  7-C , 10-H ) :  -0.1237
B(  7-C , 12-H ) :  -0.7881 B(  7-C , 13-H ) :  -0.3194 B(  7-C , 14-H ) :  -0.1449
B(  8-N ,  9-N ) :   0.1042 B(  8-N , 13-H ) :   1.1765 B(  8-N , 14-H ) :   1.2904
B(  8-N , 15-O ) :  -0.1098 B(  9-N , 10-H ) :   1.0871 B(  9-N , 11-H ) :   1.2453
B( 10-H , 11-H ) :  -0.2125 B( 12-H , 39-O ) :   0.2506 B( 13-H , 14-H ) :  -0.2720
B( 13-H , 15-O ) :   0.1769 B( 17-C , 19-H ) :   0.1005 B( 17-C , 26-C ) :   1.2173
B( 17-C , 27-H ) :   0.9518 B( 17-C , 28-H ) :   0.7110 B( 18-H , 19-H ) :  -0.2175
B( 20-C , 21-C ) :   1.2105 B( 20-C , 22-H ) :   0.1094 B( 20-C , 29-C ) :   0.1389
B( 20-C , 32-C ) :   1.1226 B( 20-C , 35-H ) :   0.8594 B( 20-C , 36-H ) :   0.9980
B( 20-C , 38-H ) :   0.2233 B( 21-C , 22-H ) :   0.6957 B( 21-C , 23-H ) :   0.8491
B( 21-C , 24-H ) :   0.1930 B( 21-C , 36-H ) :   0.2019 B( 22-H , 23-H ) :   0.1973
B( 23-H , 34-H ) :   0.1333 B( 26-C , 28-H ) :   0.2122 B( 26-C , 29-C ) :   1.2114
B( 26-C , 30-H ) :   0.9090 B( 26-C , 31-H ) :   0.9254 B( 26-C , 33-H ) :   0.1234
B( 26-C , 34-H ) :   0.1004 B( 27-H , 28-H ) :  -0.1354 B( 29-C , 30-H ) :   0.1328
B( 29-C , 31-H ) :   0.1220 B( 29-C , 32-C ) :   1.1341 B( 29-C , 33-H ) :   1.0901
B( 29-C , 34-H ) :   0.8250 B( 29-C , 37-H ) :   0.2958 B( 29-C , 38-H ) :   0.1169
B( 31-H , 35-H ) :   0.1179 B( 32-C , 37-H ) :   0.6765 B( 32-C , 38-H ) :   0.7081
B( 37-H , 38-H ) :  -0.1453

Dispersion correction           -0.003090165
FINAL SINGLE POINT ENERGY     -1182.018353547690

DIPOLE MOMENT
-------------
                                X             Y             Z
Electronic contribution:    -14.45909       8.29923     -15.28064
Nuclear contribution   :     16.79156      -5.47215      17.54258
                        -----------------------------------------
Total Dipole Moment    :      2.33248       2.82708       2.26194
                        -----------------------------------------
Magnitude (a.u.)       :      4.30688
Magnitude (Debye)      :     10.94722

Rotational constants in cm-1:     0.014207     0.012373     0.007472
Rotational constants in MHz :   425.900436   370.942493   224.006604

                             ****ORCA TERMINATED NORMALLY****
TOTAL RUN TIME: 0 days 0 hours 5 minutes 15 seconds 345 msec
