                         Program Version 5.0.0 -  RELEASE  -
|  1> !M062X D3Zero RIJCOSX def2-SVPD def2/J TightSCF
|  2> *xyz 0 1
|  3> C          4.90646       -3.10282       -5.95484
|  4> C          3.51177       -2.80621       -6.49228
|  5> H          2.73604       -3.37345       -5.97374
|  6> H          3.44490       -3.04083       -7.55528
|  7> S          3.00462       -1.09621       -6.38926
|  8> F          4.12886       -0.32965       -6.95372
|  9> O          1.78128       -1.00078       -7.13640
| 10> O          2.85155       -0.78368       -4.95679
| 11> H          5.62703       -2.52424       -6.49422
| 12> H          5.12164       -4.14387       -6.07654
| 13> H          4.95004       -2.84862       -4.91639
| 14> *
| 15>
| 16> %MaxCore 64000
| 17>
| 18> %pal nprocs 4
| 19> end
| 20>
| 21> %scf
| 22>   MaxIter 150
| 23> end
| 24>
| 25>
| 26>                          ****END OF INPUT****

CARTESIAN COORDINATES (ANGSTROEM)
---------------------------------
  C      4.906460   -3.102820   -5.954840
  C      3.511770   -2.806210   -6.492280
  H      2.736040   -3.373450   -5.973740
  H      3.444900   -3.040830   -7.555280
  S      3.004620   -1.096210   -6.389260
  F      4.128860   -0.329650   -6.953720
  O      1.781280   -1.000780   -7.136400
  O      2.851550   -0.783680   -4.956790
  H      5.627030   -2.524240   -6.494220
  H      5.121640   -4.143870   -6.076540
  H      4.950040   -2.848620   -4.916390

 Total Charge           Charge          ....    0
 Multiplicity           Mult            ....    1
 Number of Electrons    NEL             ....   58
 Basis Dimension        Dim             ....  176

ORBITAL ENERGIES
----------------

  NO   OCC          E(Eh)            E(eV)
   0   2.0000     -90.196508     -2454.3718
   1   2.0000     -25.365801      -690.2385
   2   2.0000     -19.655834      -534.8624
   3   2.0000     -19.643637      -534.5305
   4   2.0000     -10.620039      -288.9859
   5   2.0000     -10.579387      -287.8798
   6   2.0000      -8.520987      -231.8678
   7   2.0000      -6.449316      -175.4948
   8   2.0000      -6.444160      -175.3545
   9   2.0000      -6.443104      -175.3258
  10   2.0000      -1.492582       -40.6152
  11   2.0000      -1.232481       -33.5375
  12   2.0000      -1.125552       -30.6278
  13   2.0000      -0.925973       -25.1970
  14   2.0000      -0.824038       -22.4232
  15   2.0000      -0.768890       -20.9226
  16   2.0000      -0.682294       -18.5662
  17   2.0000      -0.671980       -18.2855
  18   2.0000      -0.634273       -17.2594
  19   2.0000      -0.574402       -15.6303
  20   2.0000      -0.560919       -15.2634
  21   2.0000      -0.535190       -14.5632
  22   2.0000      -0.513698       -13.9784
  23   2.0000      -0.483392       -13.1538
  24   2.0000      -0.471213       -12.8224
  25   2.0000      -0.455298       -12.3893
  26   2.0000      -0.411492       -11.1973
  27   2.0000      -0.397185       -10.8080
  28   2.0000      -0.387367       -10.5408
  29   0.0000       0.009278         0.2525
  30   0.0000       0.037920         1.0319
  31   0.0000       0.041554         1.1307
  32   0.0000       0.045399         1.2354
  33   0.0000       0.072947         1.9850

MULLIKEN ATOMIC CHARGES
-----------------------
   0 C :    0.719441
   1 C :   -0.419708
   2 H :   -0.000705
   3 H :    0.027713
   4 S :    1.581516
   5 F :   -0.438633
   6 O :   -0.687442
   7 O :   -0.728064
   8 H :   -0.013248
   9 H :   -0.045069
  10 H :    0.004198
Sum of atomic charges:    0.0000000

LOEWDIN ATOMIC CHARGES
----------------------
   0 C :    0.136925
   1 C :   -0.091533
   2 H :    0.039080
   3 H :    0.023525
   4 S :    1.151440
   5 F :   -0.279771
   6 O :   -0.474299
   7 O :   -0.492380
   8 H :   -0.008981
   9 H :   -0.003250
  10 H :   -0.000756

  Mayer bond orders larger than 0.100000
B(  0-C ,  1-C ) :   1.3027 B(  0-C ,  8-H ) :   0.8248 B(  0-C ,  9-H ) :   0.7665
B(  0-C , 10-H ) :   0.8238 B(  1-C ,  2-H ) :   1.0020 B(  1-C ,  3-H ) :   1.0046
B(  1-C ,  4-S ) :   0.9808 B(  1-C ,  8-H ) :   0.1845 B(  1-C ,  9-H ) :   0.2066
B(  1-C , 10-H ) :   0.1859 B(  4-S ,  5-F ) :   0.5924 B(  4-S ,  6-O ) :   1.5301
B(  4-S ,  7-O ) :   1.4736

Dispersion correction           -0.000152421
FINAL SINGLE POINT ENERGY      -727.121376350442

DIPOLE MOMENT
-------------
                                X             Y             Z
Electronic contribution:     -2.93593       8.10377      -1.75820
Nuclear contribution   :      4.18919      -9.36357       1.23251
                        -----------------------------------------
Total Dipole Moment    :      1.25326      -1.25980      -0.52569
                        -----------------------------------------
Magnitude (a.u.)       :      1.85313
Magnitude (Debye)      :      4.71029

Rotational constants in cm-1:     0.153152     0.082513     0.079874
Rotational constants in MHz :  4591.373714  2473.673397  2394.575279

                             ****ORCA TERMINATED NORMALLY****
TOTAL RUN TIME: 0 days 0 hours 0 minutes 18 seconds 210 msec
