                         Program Version 5.0.0 -  RELEASE  -
|  1> !M062X D3Zero RIJCOSX def2-SVPD def2/J TightSCF
|  2> *xyz 0 1
|  3> C          4.49059        1.15590       -2.46929
|  4> C          4.30539        1.22276       -3.90832
|  5> C          4.63192        2.24637       -4.67096
|  6> N          4.54169        2.14399       -5.98714
|  7> N          5.08409        3.39358       -4.11855
|  8> H          4.92067        3.57050       -3.13587
|  9> H          5.25465        4.19739       -4.70696
| 10> H          3.82453        0.44911       -4.35093
| 11> H          4.34337        1.24932       -6.41665
| 12> H          4.67671        2.95662       -6.57411
| 13> C          5.94213        0.93950       -2.03689
| 14> H          3.86431        0.32853       -2.13661
| 15> H          4.07623        2.04999       -1.98901
| 16> H          6.32982        0.06401       -2.51451
| 17> H          5.98308        0.81426       -0.97504
| 18> H          6.52865        1.78889       -2.31873
| 19> *
| 20>
| 21> %MaxCore 64000
| 22>
| 23> %pal nprocs 4
| 24> end
| 25>
| 26> %scf
| 27>   MaxIter 150
| 28> end
| 29>
| 30>
| 31>                          ****END OF INPUT****

CARTESIAN COORDINATES (ANGSTROEM)
---------------------------------
  C      4.490590    1.155900   -2.469290
  C      4.305390    1.222760   -3.908320
  C      4.631920    2.246370   -4.670960
  N      4.541690    2.143990   -5.987140
  N      5.084090    3.393580   -4.118550
  H      4.920670    3.570500   -3.135870
  H      5.254650    4.197390   -4.706960
  H      3.824530    0.449110   -4.350930
  H      4.343370    1.249320   -6.416650
  H      4.676710    2.956620   -6.574110
  C      5.942130    0.939500   -2.036890
  H      3.864310    0.328530   -2.136610
  H      4.076230    2.049990   -1.989010
  H      6.329820    0.064010   -2.514510
  H      5.983080    0.814260   -0.975040
  H      6.528650    1.788890   -2.318730

 Total Charge           Charge          ....    0
 Multiplicity           Mult            ....    1
 Number of Electrons    NEL             ....   48
 Basis Dimension        Dim             ....  200

ORBITAL ENERGIES
----------------

  NO   OCC          E(Eh)            E(eV)
   0   2.0000     -14.762616      -401.7112
   1   2.0000     -14.760321      -401.6488
   2   2.0000     -10.594803      -288.2993
   3   2.0000     -10.524108      -286.3755
   4   2.0000     -10.513517      -286.0874
   5   2.0000     -10.471452      -284.9427
   6   2.0000      -1.059471       -28.8297
   7   2.0000      -0.961699       -26.1692
   8   2.0000      -0.862477       -23.4692
   9   2.0000      -0.778935       -21.1959
  10   2.0000      -0.697011       -18.9666
  11   2.0000      -0.654078       -17.7984
  12   2.0000      -0.616378       -16.7725
  13   2.0000      -0.580384       -15.7931
  14   2.0000      -0.543602       -14.7922
  15   2.0000      -0.505603       -13.7582
  16   2.0000      -0.490619       -13.3504
  17   2.0000      -0.456737       -12.4284
  18   2.0000      -0.454375       -12.3642
  19   2.0000      -0.412581       -11.2269
  20   2.0000      -0.389509       -10.5991
  21   2.0000      -0.377377       -10.2690
  22   2.0000      -0.329590        -8.9686
  23   2.0000      -0.211785        -5.7630
  24   0.0000       0.035267         0.9597
  25   0.0000       0.059729         1.6253
  26   0.0000       0.068864         1.8739
  27   0.0000       0.079522         2.1639
  28   0.0000       0.100167         2.7257

MULLIKEN ATOMIC CHARGES
-----------------------
   0 C :   -0.238989
   1 C :   -0.364326
   2 C :    1.198001
   3 N :   -0.110084
   4 N :   -0.086440
   5 H :   -0.030338
   6 H :   -0.258674
   7 H :   -0.432664
   8 H :   -0.030795
   9 H :   -0.149950
  10 C :    0.653506
  11 H :   -0.012602
  12 H :   -0.031835
  13 H :   -0.040494
  14 H :   -0.008363
  15 H :   -0.055953
Sum of atomic charges:   -0.0000000

LOEWDIN ATOMIC CHARGES
----------------------
   0 C :   -0.107921
   1 C :   -0.037393
   2 C :   -0.215620
   3 N :    0.166341
   4 N :    0.196121
   5 H :   -0.011212
   6 H :   -0.009983
   7 H :   -0.051605
   8 H :    0.011375
   9 H :   -0.005910
  10 C :    0.120850
  11 H :    0.015376
  12 H :    0.006081
  13 H :   -0.018119
  14 H :   -0.026577
  15 H :   -0.031805

  Mayer bond orders larger than 0.100000
B(  0-C ,  1-C ) :   1.2557 B(  0-C ,  7-H ) :   0.2538 B(  0-C , 10-C ) :   1.2443
B(  0-C , 11-H ) :   0.8316 B(  0-C , 12-H ) :   0.8743 B(  0-C , 13-H ) :   0.1870
B(  0-C , 14-H ) :   0.1639 B(  0-C , 15-H ) :   0.2217 B(  1-C ,  2-C ) :   1.4678
B(  1-C ,  3-N ) :   0.3998 B(  1-C ,  4-N ) :   0.2084 B(  1-C ,  7-H ) :   0.9660
B(  1-C , 11-H ) :   0.3179 B(  1-C , 12-H ) :   0.1538 B(  2-C ,  3-N ) :   0.7323
B(  2-C ,  4-N ) :   0.8521 B(  2-C ,  6-H ) :  -0.1930 B(  2-C ,  8-H ) :  -0.1095
B(  3-N ,  4-N ) :   0.1055 B(  3-N ,  8-H ) :   1.1684 B(  3-N ,  9-H ) :   1.2471
B(  4-N ,  5-H ) :   1.0575 B(  4-N ,  6-H ) :   1.3344 B(  5-H ,  6-H ) :  -0.1998
B(  7-H , 11-H ) :  -0.1155 B(  8-H ,  9-H ) :  -0.1772 B( 10-C , 13-H ) :   0.8469
B( 10-C , 14-H ) :   0.8308 B( 10-C , 15-H ) :   0.8080

Dispersion correction           -0.000311773
FINAL SINGLE POINT ENERGY      -267.601907867626

DIPOLE MOMENT
-------------
                                X             Y             Z
Electronic contribution:     -1.26398       1.96031      -4.10678
Nuclear contribution   :      1.23062      -1.24683       3.43056
                        -----------------------------------------
Total Dipole Moment    :     -0.03336       0.71348      -0.67621
                        -----------------------------------------
Magnitude (a.u.)       :      0.98358
Magnitude (Debye)      :      2.50006

Rotational constants in cm-1:     0.231477     0.075416     0.065327
Rotational constants in MHz :  6939.497385  2260.912204  1958.442932

                             ****ORCA TERMINATED NORMALLY****
TOTAL RUN TIME: 0 days 0 hours 0 minutes 24 seconds 164 msec
