                         Program Version 5.0.0 -  RELEASE  -
|  1> !M062X D3Zero RIJCOSX def2-SVPD def2/J TightSCF
|  2> *xyz 0 1
|  3> C          4.90646       -3.10282       -5.95484
|  4> C          3.51177       -2.80621       -6.49228
|  5> H          2.73604       -3.37345       -5.97374
|  6> H          3.44490       -3.04083       -7.55528
|  7> S          3.00462       -1.09621       -6.38926
|  8> O          4.12886       -0.32965       -6.95372
|  9> F          1.78128       -1.00078       -7.13640
| 10> O          2.85155       -0.78368       -4.95679
| 11> H          5.62703       -2.52424       -6.49422
| 12> H          5.12164       -4.14387       -6.07654
| 13> H          4.95004       -2.84862       -4.91639
| 14> *
| 15>
| 16> %MaxCore 64000
| 17>
| 18> %pal nprocs 4
| 19> end
| 20>
| 21> %scf
| 22>   MaxIter 150
| 23> end
| 24>
| 25>
| 26>                          ****END OF INPUT****

CARTESIAN COORDINATES (ANGSTROEM)
---------------------------------
  C      4.906460   -3.102820   -5.954840
  C      3.511770   -2.806210   -6.492280
  H      2.736040   -3.373450   -5.973740
  H      3.444900   -3.040830   -7.555280
  S      3.004620   -1.096210   -6.389260
  O      4.128860   -0.329650   -6.953720
  F      1.781280   -1.000780   -7.136400
  O      2.851550   -0.783680   -4.956790
  H      5.627030   -2.524240   -6.494220
  H      5.121640   -4.143870   -6.076540
  H      4.950040   -2.848620   -4.916390

 Total Charge           Charge          ....    0
 Multiplicity           Mult            ....    1
 Number of Electrons    NEL             ....   58
 Basis Dimension        Dim             ....  176

ORBITAL ENERGIES
----------------

  NO   OCC          E(Eh)            E(eV)
   0   2.0000     -90.198082     -2454.4146
   1   2.0000     -25.384627      -690.7508
   2   2.0000     -19.644086      -534.5427
   3   2.0000     -19.643851      -534.5363
   4   2.0000     -10.620838      -289.0077
   5   2.0000     -10.574581      -287.7490
   6   2.0000      -8.522725      -231.9151
   7   2.0000      -6.451123      -175.5440
   8   2.0000      -6.445707      -175.3966
   9   2.0000      -6.444740      -175.3703
  10   2.0000      -1.524849       -41.4932
  11   2.0000      -1.218232       -33.1498
  12   2.0000      -1.111333       -30.2409
  13   2.0000      -0.923164       -25.1206
  14   2.0000      -0.840989       -22.8845
  15   2.0000      -0.770998       -20.9799
  16   2.0000      -0.695638       -18.9293
  17   2.0000      -0.687262       -18.7014
  18   2.0000      -0.643549       -17.5119
  19   2.0000      -0.574417       -15.6307
  20   2.0000      -0.563034       -15.3209
  21   2.0000      -0.519471       -14.1355
  22   2.0000      -0.504517       -13.7286
  23   2.0000      -0.480014       -13.0618
  24   2.0000      -0.458404       -12.4738
  25   2.0000      -0.455660       -12.3991
  26   2.0000      -0.401710       -10.9311
  27   2.0000      -0.393856       -10.7174
  28   2.0000      -0.376203       -10.2370
  29   0.0000       0.008851         0.2409
  30   0.0000       0.034611         0.9418
  31   0.0000       0.041875         1.1395
  32   0.0000       0.045731         1.2444
  33   0.0000       0.072863         1.9827

MULLIKEN ATOMIC CHARGES
-----------------------
   0 C :    0.700338
   1 C :   -0.444462
   2 H :    0.002191
   3 H :    0.039113
   4 S :    1.603683
   5 O :   -0.715553
   6 F :   -0.428969
   7 O :   -0.718313
   8 H :    0.002456
   9 H :   -0.043144
  10 H :    0.002662
Sum of atomic charges:   -0.0000000

LOEWDIN ATOMIC CHARGES
----------------------
   0 C :    0.152463
   1 C :   -0.104427
   2 H :    0.025255
   3 H :    0.021101
   4 S :    1.156960
   5 O :   -0.492256
   6 F :   -0.264298
   7 O :   -0.493306
   8 H :   -0.002795
   9 H :   -0.001415
  10 H :    0.002720

  Mayer bond orders larger than 0.100000
B(  0-C ,  1-C ) :   1.3528 B(  0-C ,  8-H ) :   0.8277 B(  0-C ,  9-H ) :   0.7701
B(  0-C , 10-H ) :   0.8150 B(  1-C ,  2-H ) :   0.9931 B(  1-C ,  3-H ) :   0.9744
B(  1-C ,  4-S ) :   0.9538 B(  1-C ,  8-H ) :   0.1939 B(  1-C ,  9-H ) :   0.2050
B(  1-C , 10-H ) :   0.1844 B(  4-S ,  5-O ) :   1.4779 B(  4-S ,  6-F ) :   0.6300
B(  4-S ,  7-O ) :   1.4627

Dispersion correction           -0.000140856
FINAL SINGLE POINT ENERGY      -727.105766264426

DIPOLE MOMENT
-------------
                                X             Y             Z
Electronic contribution:     -6.93671       6.97777      -2.06650
Nuclear contribution   :      6.63544      -8.66423       1.42287
                        -----------------------------------------
Total Dipole Moment    :     -0.30127      -1.68646      -0.64363
                        -----------------------------------------
Magnitude (a.u.)       :      1.83007
Magnitude (Debye)      :      4.65168

Rotational constants in cm-1:     0.158118     0.080978     0.078216
Rotational constants in MHz :  4740.271775  2427.649826  2344.849020

                             ****ORCA TERMINATED NORMALLY****
TOTAL RUN TIME: 0 days 0 hours 0 minutes 19 seconds 2 msec
