                         Program Version 5.0.0 -  RELEASE  -
|  1> !M062X D3Zero RIJCOSX def2-SVPD def2/J TightSCF
|  2> *xyz 0 1
|  3> C          4.49059        1.15590       -2.46929
|  4> N          4.30539        1.22276       -3.90832
|  5> C          4.63192        2.24637       -4.67096
|  6> C          4.54169        2.14399       -5.98714
|  7> N          5.08409        3.39358       -4.11855
|  8> H          4.92067        3.57050       -3.13587
|  9> H          5.25465        4.19739       -4.70696
| 10> H          3.82453        0.44911       -4.35093
| 11> H          4.34337        1.24932       -6.41665
| 12> H          4.67671        2.95662       -6.57411
| 13> C          5.94213        0.93950       -2.03689
| 14> H          3.86431        0.32853       -2.13661
| 15> H          4.07623        2.04999       -1.98901
| 16> H          6.32982        0.06401       -2.51451
| 17> H          5.98308        0.81426       -0.97504
| 18> H          6.52865        1.78889       -2.31873
| 19> *
| 20>
| 21> %MaxCore 64000
| 22>
| 23> %pal nprocs 4
| 24> end
| 25>
| 26> %scf
| 27>   MaxIter 150
| 28> end
| 29>
| 30>
| 31>                          ****END OF INPUT****

CARTESIAN COORDINATES (ANGSTROEM)
---------------------------------
  C      4.490590    1.155900   -2.469290
  N      4.305390    1.222760   -3.908320
  C      4.631920    2.246370   -4.670960
  C      4.541690    2.143990   -5.987140
  N      5.084090    3.393580   -4.118550
  H      4.920670    3.570500   -3.135870
  H      5.254650    4.197390   -4.706960
  H      3.824530    0.449110   -4.350930
  H      4.343370    1.249320   -6.416650
  H      4.676710    2.956620   -6.574110
  C      5.942130    0.939500   -2.036890
  H      3.864310    0.328530   -2.136610
  H      4.076230    2.049990   -1.989010
  H      6.329820    0.064010   -2.514510
  H      5.983080    0.814260   -0.975040
  H      6.528650    1.788890   -2.318730

 Total Charge           Charge          ....    0
 Multiplicity           Mult            ....    1
 Number of Electrons    NEL             ....   48
 Basis Dimension        Dim             ....  200

ORBITAL ENERGIES
----------------

  NO   OCC          E(Eh)            E(eV)
   0   2.0000     -14.761148      -401.6713
   1   2.0000     -14.760213      -401.6458
   2   2.0000     -10.596350      -288.3414
   3   2.0000     -10.592178      -288.2278
   4   2.0000     -10.538733      -286.7735
   5   2.0000     -10.460861      -284.6545
   6   2.0000      -1.068163       -29.0662
   7   2.0000      -0.974142       -26.5078
   8   2.0000      -0.859638       -23.3919
   9   2.0000      -0.786790       -21.4097
  10   2.0000      -0.710594       -19.3363
  11   2.0000      -0.674832       -18.3631
  12   2.0000      -0.609460       -16.5843
  13   2.0000      -0.569704       -15.5024
  14   2.0000      -0.549567       -14.9545
  15   2.0000      -0.517383       -14.0787
  16   2.0000      -0.492522       -13.4022
  17   2.0000      -0.469607       -12.7787
  18   2.0000      -0.446951       -12.1621
  19   2.0000      -0.437988       -11.9183
  20   2.0000      -0.424464       -11.5503
  21   2.0000      -0.415922       -11.3178
  22   2.0000      -0.317428        -8.6377
  23   2.0000      -0.213831        -5.8186
  24   0.0000       0.031538         0.8582
  25   0.0000       0.060162         1.6371
  26   0.0000       0.063912         1.7391
  27   0.0000       0.069604         1.8940
  28   0.0000       0.099297         2.7020

MULLIKEN ATOMIC CHARGES
-----------------------
   0 C :    0.236548
   1 N :   -0.370565
   2 C :    0.865760
   3 C :    0.254442
   4 N :    0.065553
   5 H :   -0.100437
   6 H :   -0.192394
   7 H :   -0.282950
   8 H :   -0.284698
   9 H :   -0.361342
  10 C :    0.652439
  11 H :   -0.353538
  12 H :   -0.030395
  13 H :   -0.046403
  14 H :   -0.025923
  15 H :   -0.026097
Sum of atomic charges:    0.0000000

LOEWDIN ATOMIC CHARGES
----------------------
   0 C :    0.007350
   1 N :   -0.032844
   2 C :   -0.233305
   3 C :    0.143103
   4 N :    0.192681
   5 H :   -0.024520
   6 H :    0.006314
   7 H :    0.037858
   8 H :   -0.098475
   9 H :   -0.100863
  10 C :    0.135818
  11 H :    0.020224
  12 H :    0.010164
  13 H :   -0.015001
  14 H :   -0.019841
  15 H :   -0.028663

  Mayer bond orders larger than 0.100000
B(  0-C ,  1-N ) :   0.9094 B(  0-C ,  7-H ) :  -0.1744 B(  0-C , 10-C ) :   1.2506
B(  0-C , 11-H ) :   0.9417 B(  0-C , 12-H ) :   0.8782 B(  0-C , 13-H ) :   0.2468
B(  0-C , 14-H ) :   0.1581 B(  0-C , 15-H ) :   0.2013 B(  1-N ,  2-C ) :   1.0113
B(  1-N ,  3-C ) :   0.2356 B(  1-N ,  4-N ) :   0.1700 B(  1-N ,  7-H ) :   1.2953
B(  1-N , 11-H ) :   0.1727 B(  1-N , 12-H ) :   0.1139 B(  2-C ,  3-C ) :   1.3649
B(  2-C ,  4-N ) :   0.8756 B(  2-C ,  6-H ) :  -0.1381 B(  2-C ,  7-H ) :  -0.2415
B(  2-C ,  9-H ) :   0.1455 B(  3-C ,  4-N ) :   0.1874 B(  3-C ,  8-H ) :   0.8688
B(  3-C ,  9-H ) :   0.8259 B(  4-N ,  5-H ) :   1.0569 B(  4-N ,  6-H ) :   1.2257
B(  5-H ,  6-H ) :  -0.2016 B( 10-C , 13-H ) :   0.8097 B( 10-C , 14-H ) :   0.8507
B( 10-C , 15-H ) :   0.8181

Dispersion correction           -0.000307823
FINAL SINGLE POINT ENERGY      -267.593997375503

DIPOLE MOMENT
-------------
                                X             Y             Z
Electronic contribution:     -1.41668       1.07517      -1.94678
Nuclear contribution   :      1.28075      -1.05140       2.98955
                        -----------------------------------------
Total Dipole Moment    :     -0.13593       0.02377       1.04278
                        -----------------------------------------
Magnitude (a.u.)       :      1.05187
Magnitude (Debye)      :      2.67363

Rotational constants in cm-1:     0.229858     0.078444     0.067377
Rotational constants in MHz :  6890.979812  2351.691803  2019.910665

                             ****ORCA TERMINATED NORMALLY****
TOTAL RUN TIME: 0 days 0 hours 0 minutes 25 seconds 450 msec
