                         Program Version 5.0.0 -  RELEASE  -
|  1> !M062X D3Zero RIJCOSX def2-SVPD def2/J TightSCF
|  2> *xyz 0 1
|  3> C          4.90646       -3.10282       -5.95484
|  4> C          3.51177       -2.80621       -6.49228
|  5> H          2.73604       -3.37345       -5.97374
|  6> H          3.44490       -3.04083       -7.55528
|  7> S          3.00462       -1.09621       -6.38926
|  8> O          4.12886       -0.32965       -6.95372
|  9> O          1.78128       -1.00078       -7.13640
| 10> F          2.85155       -0.78368       -4.95679
| 11> H          5.62703       -2.52424       -6.49422
| 12> H          5.12164       -4.14387       -6.07654
| 13> H          4.95004       -2.84862       -4.91639
| 14> *
| 15>
| 16> %MaxCore 64000
| 17>
| 18> %pal nprocs 4
| 19> end
| 20>
| 21> %scf
| 22>   MaxIter 150
| 23> end
| 24>
| 25>
| 26>                          ****END OF INPUT****

CARTESIAN COORDINATES (ANGSTROEM)
---------------------------------
  C      4.906460   -3.102820   -5.954840
  C      3.511770   -2.806210   -6.492280
  H      2.736040   -3.373450   -5.973740
  H      3.444900   -3.040830   -7.555280
  S      3.004620   -1.096210   -6.389260
  O      4.128860   -0.329650   -6.953720
  O      1.781280   -1.000780   -7.136400
  F      2.851550   -0.783680   -4.956790
  H      5.627030   -2.524240   -6.494220
  H      5.121640   -4.143870   -6.076540
  H      4.950040   -2.848620   -4.916390

 Total Charge           Charge          ....    0
 Multiplicity           Mult            ....    1
 Number of Electrons    NEL             ....   58
 Basis Dimension        Dim             ....  176

ORBITAL ENERGIES
----------------

  NO   OCC          E(Eh)            E(eV)
   0   2.0000     -90.196647     -2454.3755
   1   2.0000     -25.365555      -690.2319
   2   2.0000     -19.656047      -534.8682
   3   2.0000     -19.644138      -534.5442
   4   2.0000     -10.619873      -288.9814
   5   2.0000     -10.576294      -287.7956
   6   2.0000      -8.521101      -231.8709
   7   2.0000      -6.449385      -175.4967
   8   2.0000      -6.444269      -175.3575
   9   2.0000      -6.443284      -175.3307
  10   2.0000      -1.491731       -40.5921
  11   2.0000      -1.232623       -33.5414
  12   2.0000      -1.127342       -30.6765
  13   2.0000      -0.923527       -25.1305
  14   2.0000      -0.823499       -22.4085
  15   2.0000      -0.767823       -20.8935
  16   2.0000      -0.679560       -18.4918
  17   2.0000      -0.671076       -18.2609
  18   2.0000      -0.636029       -17.3072
  19   2.0000      -0.573307       -15.6005
  20   2.0000      -0.562286       -15.3006
  21   2.0000      -0.537768       -14.6334
  22   2.0000      -0.508794       -13.8450
  23   2.0000      -0.480183       -13.0664
  24   2.0000      -0.471636       -12.8339
  25   2.0000      -0.452118       -12.3027
  26   2.0000      -0.412349       -11.2206
  27   2.0000      -0.397371       -10.8130
  28   2.0000      -0.388821       -10.5804
  29   0.0000       0.008873         0.2414
  30   0.0000       0.038333         1.0431
  31   0.0000       0.041352         1.1252
  32   0.0000       0.044824         1.2197
  33   0.0000       0.071007         1.9322

MULLIKEN ATOMIC CHARGES
-----------------------
   0 C :    0.733509
   1 C :   -0.433502
   2 H :   -0.005940
   3 H :    0.036572
   4 S :    1.585667
   5 O :   -0.726994
   6 O :   -0.689944
   7 F :   -0.441248
   8 H :    0.004113
   9 H :   -0.043146
  10 H :   -0.019087
Sum of atomic charges:   -0.0000000

LOEWDIN ATOMIC CHARGES
----------------------
   0 C :    0.137688
   1 C :   -0.093187
   2 H :    0.025070
   3 H :    0.035671
   4 S :    1.153166
   5 O :   -0.490488
   6 O :   -0.474631
   7 F :   -0.279814
   8 H :   -0.004868
   9 H :   -0.003679
  10 H :   -0.004929

  Mayer bond orders larger than 0.100000
B(  0-C ,  1-C ) :   1.3101 B(  0-C ,  8-H ) :   0.8354 B(  0-C ,  9-H ) :   0.7643
B(  0-C , 10-H ) :   0.8075 B(  1-C ,  2-H ) :   1.0017 B(  1-C ,  3-H ) :   0.9957
B(  1-C ,  4-S ) :   0.9849 B(  1-C ,  8-H ) :   0.1957 B(  1-C ,  9-H ) :   0.2039
B(  1-C , 10-H ) :   0.1845 B(  4-S ,  5-O ) :   1.4870 B(  4-S ,  6-O ) :   1.5275
B(  4-S ,  7-F ) :   0.5784

Dispersion correction           -0.000151613
FINAL SINGLE POINT ENERGY      -727.121889069331

DIPOLE MOMENT
-------------
                                X             Y             Z
Electronic contribution:     -5.12114       7.34075       1.65725
Nuclear contribution   :      5.52019      -8.89046      -0.84835
                        -----------------------------------------
Total Dipole Moment    :      0.39905      -1.54971       0.80890
                        -----------------------------------------
Magnitude (a.u.)       :      1.79308
Magnitude (Debye)      :      4.55766

Rotational constants in cm-1:     0.153332     0.082132     0.079755
Rotational constants in MHz :  4596.775407  2462.251277  2391.008596

                             ****ORCA TERMINATED NORMALLY****
TOTAL RUN TIME: 0 days 0 hours 0 minutes 18 seconds 421 msec
