                         Program Version 5.0.0 -  RELEASE  -
|  1> !M062X D3Zero RIJCOSX def2-SVPD def2/J TightSCF
|  2> *xyz 0 1
|  3> C          4.49059        1.15590       -2.46929
|  4> N          4.30539        1.22276       -3.90832
|  5> C          4.63192        2.24637       -4.67096
|  6> N          4.54169        2.14399       -5.98714
|  7> C          5.08409        3.39358       -4.11855
|  8> H          4.92067        3.57050       -3.13587
|  9> H          5.25465        4.19739       -4.70696
| 10> H          3.82453        0.44911       -4.35093
| 11> H          4.34337        1.24932       -6.41665
| 12> H          4.67671        2.95662       -6.57411
| 13> C          5.94213        0.93950       -2.03689
| 14> H          3.86431        0.32853       -2.13661
| 15> H          4.07623        2.04999       -1.98901
| 16> H          6.32982        0.06401       -2.51451
| 17> H          5.98308        0.81426       -0.97504
| 18> H          6.52865        1.78889       -2.31873
| 19> *
| 20>
| 21> %MaxCore 64000
| 22>
| 23> %pal nprocs 4
| 24> end
| 25>
| 26> %scf
| 27>   MaxIter 150
| 28> end
| 29>
| 30>
| 31>                          ****END OF INPUT****

CARTESIAN COORDINATES (ANGSTROEM)
---------------------------------
  C      4.490590    1.155900   -2.469290
  N      4.305390    1.222760   -3.908320
  C      4.631920    2.246370   -4.670960
  N      4.541690    2.143990   -5.987140
  C      5.084090    3.393580   -4.118550
  H      4.920670    3.570500   -3.135870
  H      5.254650    4.197390   -4.706960
  H      3.824530    0.449110   -4.350930
  H      4.343370    1.249320   -6.416650
  H      4.676710    2.956620   -6.574110
  C      5.942130    0.939500   -2.036890
  H      3.864310    0.328530   -2.136610
  H      4.076230    2.049990   -1.989010
  H      6.329820    0.064010   -2.514510
  H      5.983080    0.814260   -0.975040
  H      6.528650    1.788890   -2.318730

 Total Charge           Charge          ....    0
 Multiplicity           Mult            ....    1
 Number of Electrons    NEL             ....   48
 Basis Dimension        Dim             ....  200

ORBITAL ENERGIES
----------------

  NO   OCC          E(Eh)            E(eV)
   0   2.0000     -14.765305      -401.7844
   1   2.0000     -14.762706      -401.7137
   2   2.0000     -10.599641      -288.4309
   3   2.0000     -10.584066      -288.0071
   4   2.0000     -10.528761      -286.5022
   5   2.0000     -10.462512      -284.6994
   6   2.0000      -1.072411       -29.1818
   7   2.0000      -0.981786       -26.7157
   8   2.0000      -0.839543       -22.8451
   9   2.0000      -0.792713       -21.5708
  10   2.0000      -0.720615       -19.6089
  11   2.0000      -0.637255       -17.3406
  12   2.0000      -0.628112       -17.0918
  13   2.0000      -0.594635       -16.1808
  14   2.0000      -0.540886       -14.7183
  15   2.0000      -0.507267       -13.8034
  16   2.0000      -0.482321       -13.1246
  17   2.0000      -0.462923       -12.5968
  18   2.0000      -0.445551       -12.1241
  19   2.0000      -0.429544       -11.6885
  20   2.0000      -0.426471       -11.6049
  21   2.0000      -0.406940       -11.0734
  22   2.0000      -0.312367        -8.4999
  23   2.0000      -0.214968        -5.8496
  24   0.0000       0.034791         0.9467
  25   0.0000       0.055513         1.5106
  26   0.0000       0.063877         1.7382
  27   0.0000       0.075882         2.0648
  28   0.0000       0.101580         2.7641

MULLIKEN ATOMIC CHARGES
-----------------------
   0 C :    0.217641
   1 N :   -0.434819
   2 C :    0.751364
   3 N :   -0.039584
   4 C :    0.367734
   5 H :   -0.070637
   6 H :   -0.518232
   7 H :   -0.337067
   8 H :   -0.151774
   9 H :   -0.054064
  10 C :    0.676415
  11 H :   -0.355070
  12 H :    0.083065
  13 H :   -0.069579
  14 H :   -0.009655
  15 H :   -0.055739
Sum of atomic charges:    0.0000000

LOEWDIN ATOMIC CHARGES
----------------------
   0 C :    0.014054
   1 N :   -0.038597
   2 C :   -0.232675
   3 N :    0.172031
   4 C :    0.164806
   5 H :   -0.115676
   6 H :   -0.106459
   7 H :    0.023990
   8 H :   -0.003772
   9 H :    0.012107
  10 C :    0.139438
  11 H :    0.018990
  12 H :    0.017997
  13 H :   -0.018424
  14 H :   -0.018963
  15 H :   -0.028847

  Mayer bond orders larger than 0.100000
B(  0-C ,  1-N ) :   0.9101 B(  0-C ,  5-H ) :   0.1131 B(  0-C ,  7-H ) :  -0.1599
B(  0-C , 10-C ) :   1.2211 B(  0-C , 11-H ) :   0.9836 B(  0-C , 12-H ) :   0.8516
B(  0-C , 13-H ) :   0.2350 B(  0-C , 14-H ) :   0.1521 B(  0-C , 15-H ) :   0.2009
B(  1-N ,  2-C ) :   0.9296 B(  1-N ,  3-N ) :   0.1802 B(  1-N ,  4-C ) :   0.3282
B(  1-N ,  7-H ) :   1.4154 B(  1-N , 11-H ) :   0.1509 B(  2-C ,  3-N ) :   0.8411
B(  2-C ,  4-C ) :   1.7232 B(  2-C ,  5-H ) :   0.2792 B(  2-C ,  6-H ) :   0.1628
B(  2-C ,  7-H ) :  -0.3127 B(  2-C ,  9-H ) :  -0.1049 B(  3-N ,  4-C ) :   0.2251
B(  3-N ,  8-H ) :   1.2031 B(  3-N ,  9-H ) :   1.2020 B(  4-C ,  5-H ) :   0.6428
B(  4-C ,  6-H ) :   0.8927 B(  8-H ,  9-H ) :  -0.1813 B( 10-C , 13-H ) :   0.8077
B( 10-C , 14-H ) :   0.8447 B( 10-C , 15-H ) :   0.8334

Dispersion correction           -0.000308861
FINAL SINGLE POINT ENERGY      -267.593771245929

DIPOLE MOMENT
-------------
                                X             Y             Z
Electronic contribution:     -1.88505      -0.11733      -3.81595
Nuclear contribution   :      1.39581      -0.78630       3.38596
                        -----------------------------------------
Total Dipole Moment    :     -0.48924      -0.90363      -0.42998
                        -----------------------------------------
Magnitude (a.u.)       :      1.11391
Magnitude (Debye)      :      2.83132

Rotational constants in cm-1:     0.239249     0.075811     0.066261
Rotational constants in MHz :  7172.504830  2272.756282  1986.457543

                             ****ORCA TERMINATED NORMALLY****
TOTAL RUN TIME: 0 days 0 hours 0 minutes 24 seconds 351 msec
