                         Program Version 5.0.0 -  RELEASE  -
|  1> !M062X D3Zero RIJCOSX def2-SVPD def2/J TightSCF xyzfile
|  2>
|  3> *xyzfile 0 1 D1.xyz
|  4>
|  5> %MaxCore 64000
|  6>
|  7> %pal nprocs 4
|  8> end
|  9>
| 10> %scf
| 11>   MaxIter 150
| 12> end
| 13>
| 14>
| 15>                          ****END OF INPUT****

CARTESIAN COORDINATES (ANGSTROEM)
---------------------------------
  C      4.490588    1.155899   -2.469290
  C      4.305394    1.222762   -3.908317
  C      4.906458   -3.102816   -5.954844
  C      3.511771   -2.806215   -6.492283
  H      2.736044   -3.373445   -5.973736
  H      3.444904   -3.040831   -7.555281
  S      3.004618   -1.096206   -6.389259
  C      4.631918    2.246365   -4.670958
  N      4.541686    2.143990   -5.987139
  N      5.084086    3.393584   -4.118545
  H      4.920675    3.570501   -3.135870
  H      5.254652    4.197390   -4.706956
  H      3.824530    0.449113   -4.350926
  H      4.343373    1.249318   -6.416646
  H      4.676712    2.956624   -6.574113
  F      4.128856   -0.329647   -6.953717
  O      1.781285   -1.000779   -7.136399
  C      5.942129    0.939500   -2.036893
  H      3.864305    0.328532   -2.136611
  H      4.076233    2.049994   -1.989010
  C      6.462677   -3.117775   -3.944671
  C      5.024977   -3.025679   -4.437625
  H      4.423321   -3.818693   -3.977648
  H      4.579350   -2.087131   -4.108727
  H      5.201533   -4.100207   -6.296905
  H      5.605922   -2.397822   -6.413368
  C      6.559957   -0.356290   -2.559086
  H      5.967976    0.952567   -0.942444
  H      6.547184    1.788331   -2.368849
  C      6.006283   -1.615917   -1.899301
  H      7.642360   -0.318000   -2.402059
  H      6.414855   -0.403433   -3.642587
  C      6.608718   -2.917014   -2.435655
  H      6.190324   -1.561115   -0.820948
  H      4.919250   -1.651245   -2.016586
  H      7.066975   -2.374258   -4.475514
  H      6.887808   -4.089747   -4.215332
  H      6.135197   -3.755573   -1.915159
  H      7.671142   -2.955503   -2.172291
  O      2.851546   -0.783683   -4.956789

 Total Charge           Charge          ....    0
 Multiplicity           Mult            ....    1
 Number of Electrons    NEL             ....  144
 Basis Dimension        Dim             ....  540

ORBITAL ENERGIES
----------------

  NO   OCC          E(Eh)            E(eV)
   0   2.0000     -90.206758     -2454.6507
   1   2.0000     -25.384981      -690.7604
   2   2.0000     -19.663727      -535.0772
   3   2.0000     -19.650463      -534.7163
   4   2.0000     -14.751651      -401.4128
   5   2.0000     -14.747050      -401.2876
   6   2.0000     -10.620214      -288.9907
   7   2.0000     -10.583424      -287.9896
   8   2.0000     -10.580280      -287.9040
   9   2.0000     -10.551810      -287.1293
  10   2.0000     -10.546710      -286.9906
  11   2.0000     -10.539981      -286.8075
  12   2.0000     -10.530854      -286.5591
  13   2.0000     -10.523943      -286.3711
  14   2.0000     -10.518984      -286.2361
  15   2.0000     -10.512064      -286.0478
  16   2.0000     -10.446195      -284.2554
  17   2.0000      -8.530095      -232.1157
  18   2.0000      -6.458639      -175.7485
  19   2.0000      -6.453335      -175.6042
  20   2.0000      -6.452067      -175.5697
  21   2.0000      -1.513150       -41.1749
  22   2.0000      -1.241716       -33.7888
  23   2.0000      -1.136295       -30.9202
  24   2.0000      -1.048174       -28.5223
  25   2.0000      -0.952564       -25.9206
  26   2.0000      -0.940298       -25.5868
  27   2.0000      -0.900258       -24.4973
  28   2.0000      -0.871081       -23.7033
  29   2.0000      -0.847109       -23.0510
  30   2.0000      -0.821267       -22.3478
  31   2.0000      -0.791535       -21.5388
  32   2.0000      -0.757438       -20.6109
  33   2.0000      -0.726928       -19.7807
  34   2.0000      -0.703975       -19.1561
  35   2.0000      -0.697537       -18.9809
  36   2.0000      -0.693509       -18.8713
  37   2.0000      -0.663371       -18.0513
  38   2.0000      -0.646939       -17.6041
  39   2.0000      -0.639566       -17.4035
  40   2.0000      -0.618822       -16.8390
  41   2.0000      -0.603981       -16.4352
  42   2.0000      -0.579745       -15.7757
  43   2.0000      -0.569519       -15.4974
  44   2.0000      -0.560432       -15.2501
  45   2.0000      -0.550074       -14.9683
  46   2.0000      -0.538082       -14.6420
  47   2.0000      -0.527334       -14.3495
  48   2.0000      -0.523651       -14.2493
  49   2.0000      -0.519378       -14.1330
  50   2.0000      -0.497009       -13.5243
  51   2.0000      -0.489837       -13.3291
  52   2.0000      -0.486887       -13.2489
  53   2.0000      -0.478820       -13.0294
  54   2.0000      -0.461888       -12.5686
  55   2.0000      -0.451984       -12.2991
  56   2.0000      -0.448728       -12.2105
  57   2.0000      -0.435845       -11.8599
  58   2.0000      -0.435586       -11.8529
  59   2.0000      -0.419236       -11.4080
  60   2.0000      -0.418647       -11.3920
  61   2.0000      -0.409493       -11.1429
  62   2.0000      -0.401895       -10.9361
  63   2.0000      -0.385730       -10.4962
  64   2.0000      -0.383921       -10.4470
  65   2.0000      -0.381465       -10.3802
  66   2.0000      -0.369538       -10.0556
  67   2.0000      -0.359316        -9.7775
  68   2.0000      -0.352847        -9.6015
  69   2.0000      -0.340206        -9.2575
  70   2.0000      -0.318634        -8.6705
  71   2.0000      -0.198060        -5.3895
  72   0.0000       0.007787         0.2119
  73   0.0000       0.031174         0.8483
  74   0.0000       0.037345         1.0162
  75   0.0000       0.040565         1.1038
  76   0.0000       0.053568         1.4576

MULLIKEN ATOMIC CHARGES
-----------------------
   0 C :    0.159601
   1 C :    0.254258
   2 C :    0.293777
   3 C :    0.288962
   4 H :    0.047589
   5 H :   -0.017375
   6 S :    1.549776
   7 C :    1.167072
   8 N :    0.177579
   9 N :   -0.085149
  10 H :   -0.022125
  11 H :   -0.262905
  12 H :   -0.891654
  13 H :   -0.318411
  14 H :   -0.207094
  15 F :   -0.417382
  16 O :   -0.754764
  17 C :    0.475579
  18 H :    0.181182
  19 H :   -0.210142
  20 C :    0.061896
  21 C :    0.381295
  22 H :    0.032108
  23 H :   -0.646263
  24 H :   -0.131439
  25 H :    0.022025
  26 C :    0.109727
  27 H :   -0.089589
  28 H :   -0.166685
  29 C :   -0.049521
  30 H :   -0.164990
  31 H :   -0.050374
  32 C :    0.699507
  33 H :   -0.396325
  34 H :    0.125103
  35 H :    0.127502
  36 H :   -0.386123
  37 H :   -0.047948
  38 H :   -0.007190
  39 O :   -0.831091
Sum of atomic charges:    0.0000000

LOEWDIN ATOMIC CHARGES
----------------------
   0 C :   -0.040428
   1 C :   -0.009636
   2 C :   -0.033659
   3 C :   -0.034685
   4 H :    0.045381
   5 H :    0.026008
   6 S :    1.190592
   7 C :   -0.189188
   8 N :    0.193956
   9 N :    0.195169
  10 H :   -0.012570
  11 H :   -0.012649
  12 H :   -0.149978
  13 H :   -0.077851
  14 H :   -0.001381
  15 F :   -0.271992
  16 O :   -0.454504
  17 C :   -0.029545
  18 H :    0.013305
  19 H :    0.008220
  20 C :   -0.036837
  21 C :   -0.025462
  22 H :    0.043664
  23 H :   -0.015866
  24 H :    0.037583
  25 H :    0.027847
  26 C :   -0.032495
  27 H :    0.016497
  28 H :    0.010527
  29 C :   -0.035560
  30 H :    0.024336
  31 H :    0.004609
  32 C :   -0.031449
  33 H :    0.024180
  34 H :    0.007950
  35 H :    0.017826
  36 H :    0.022899
  37 H :    0.021697
  38 H :    0.022894
  39 O :   -0.459407

  Mayer bond orders larger than 0.100000
B(  0-C ,  1-C ) :   1.1697 B(  0-C , 12-H ) :   0.8398 B(  0-C , 17-C ) :   1.1221
B(  0-C , 18-H ) :   0.6711 B(  0-C , 19-H ) :   0.9027 B(  0-C , 26-C ) :   0.1268
B(  0-C , 27-H ) :   0.1911 B(  0-C , 28-H ) :   0.1077 B(  0-C , 30-H ) :  -0.1313
B(  1-C ,  7-C ) :   1.6078 B(  1-C ,  8-N ) :   0.3083 B(  1-C ,  9-N ) :   0.2965
B(  1-C , 12-H ) :  -0.3780 B(  1-C , 18-H ) :   0.4277 B(  1-C , 19-H ) :   0.1569
B(  2-C ,  3-C ) :   1.1963 B(  2-C ,  5-H ) :   0.2324 B(  2-C , 20-C ) :   0.1066
B(  2-C , 21-C ) :   1.0963 B(  2-C , 22-H ) :   0.1013 B(  2-C , 24-H ) :   0.8691
B(  2-C , 25-H ) :   0.8366 B(  3-C ,  4-H ) :   0.9164 B(  3-C ,  5-H ) :   0.7736
B(  3-C ,  6-S ) :   1.0027 B(  6-S , 12-H ) :  -0.1039 B(  6-S , 15-F ) :   0.5306
B(  6-S , 16-O ) :   1.4148 B(  6-S , 39-O ) :   1.5008 B(  7-C ,  8-N ) :   0.7220
B(  7-C ,  9-N ) :   0.7065 B(  7-C , 11-H ) :  -0.1951 B(  7-C , 12-H ) :  -0.2240
B(  7-C , 13-H ) :  -0.2686 B(  7-C , 14-H ) :  -0.1694 B(  8-N , 12-H ) :   0.1070
B(  8-N , 13-H ) :   1.2427 B(  8-N , 14-H ) :   1.3332 B(  9-N , 10-H ) :   1.0556
B(  9-N , 11-H ) :   1.3373 B( 10-H , 11-H ) :  -0.2059 B( 11-H , 12-H ) :  -0.1036
B( 12-H , 18-H ) :  -0.2433 B( 12-H , 39-O ) :   0.1701 B( 13-H , 14-H ) :  -0.2200
B( 13-H , 15-F ) :   0.1010 B( 16-O , 39-O ) :   0.1304 B( 17-C , 26-C ) :   1.2895
B( 17-C , 27-H ) :   0.7996 B( 17-C , 28-H ) :   0.7129 B( 17-C , 31-H ) :   0.1139
B( 18-H , 19-H ) :  -0.1385 B( 20-C , 21-C ) :   1.2088 B( 20-C , 22-H ) :   0.1094
B( 20-C , 29-C ) :   0.1326 B( 20-C , 32-C ) :   1.1271 B( 20-C , 35-H ) :   0.8457
B( 20-C , 36-H ) :   1.0105 B( 20-C , 38-H ) :   0.2270 B( 21-C , 22-H ) :   0.6930
B( 21-C , 23-H ) :   0.7836 B( 21-C , 24-H ) :   0.1857 B( 21-C , 36-H ) :   0.1977
B( 22-H , 23-H ) :   0.2098 B( 23-H , 34-H ) :   0.1407 B( 26-C , 28-H ) :   0.2231
B( 26-C , 29-C ) :   1.1968 B( 26-C , 30-H ) :   0.8470 B( 26-C , 31-H ) :   0.9189
B( 26-C , 33-H ) :   0.1217 B( 27-H , 28-H ) :  -0.1694 B( 29-C , 30-H ) :   0.1186
B( 29-C , 31-H ) :   0.1094 B( 29-C , 32-C ) :   1.1189 B( 29-C , 33-H ) :   1.0723
B( 29-C , 34-H ) :   0.8471 B( 29-C , 37-H ) :   0.2955 B( 29-C , 38-H ) :   0.1180
B( 31-H , 35-H ) :   0.1063 B( 32-C , 37-H ) :   0.6859 B( 32-C , 38-H ) :   0.7032
B( 37-H , 38-H ) :  -0.1430

Dispersion correction           -0.003047097
FINAL SINGLE POINT ENERGY     -1189.848911724738

DIPOLE MOMENT
-------------
                                X             Y             Z
Electronic contribution:    -16.26564       4.80227     -21.39375
Nuclear contribution   :     17.24138      -5.45913      20.34076
                        -----------------------------------------
Total Dipole Moment    :      0.97574      -0.65686      -1.05299
                        -----------------------------------------
Magnitude (a.u.)       :      1.57871
Magnitude (Debye)      :      4.01276

Rotational constants in cm-1:     0.014201     0.012275     0.007453
Rotational constants in MHz :   425.728191   368.008875   223.435232

                             ****ORCA TERMINATED NORMALLY****
TOTAL RUN TIME: 0 days 0 hours 4 minutes 59 seconds 997 msec
