                         Program Version 5.0.0 -  RELEASE  -
|  1> !M062X D3Zero RIJCOSX def2-SVPD def2/J TightSCF xyzfile
|  2>
|  3> *xyzfile 0 1 D2.xyz
|  4>
|  5> %MaxCore 64000
|  6>
|  7> %pal nprocs 4
|  8> end
|  9>
| 10> %scf
| 11>   MaxIter 150
| 12> end
| 13>
| 14>
| 15>                          ****END OF INPUT****

CARTESIAN COORDINATES (ANGSTROEM)
---------------------------------
  C      4.490588    1.155899   -2.469290
  N      4.305394    1.222762   -3.908317
  C      4.906458   -3.102816   -5.954844
  C      3.511771   -2.806215   -6.492283
  H      2.736044   -3.373445   -5.973736
  H      3.444904   -3.040831   -7.555281
  S      3.004618   -1.096206   -6.389259
  C      4.631918    2.246365   -4.670958
  C      4.541686    2.143990   -5.987139
  N      5.084086    3.393584   -4.118545
  H      4.920675    3.570501   -3.135870
  H      5.254652    4.197390   -4.706956
  H      3.824530    0.449113   -4.350926
  H      4.343373    1.249318   -6.416646
  H      4.676712    2.956624   -6.574113
  F      4.128856   -0.329647   -6.953717
  O      1.781285   -1.000779   -7.136399
  C      5.942129    0.939500   -2.036893
  H      3.864305    0.328532   -2.136611
  H      4.076233    2.049994   -1.989010
  C      6.462677   -3.117775   -3.944671
  C      5.024977   -3.025679   -4.437625
  H      4.423321   -3.818693   -3.977648
  H      4.579350   -2.087131   -4.108727
  H      5.201533   -4.100207   -6.296905
  H      5.605922   -2.397822   -6.413368
  C      6.559957   -0.356290   -2.559086
  H      5.967976    0.952567   -0.942444
  H      6.547184    1.788331   -2.368849
  C      6.006283   -1.615917   -1.899301
  H      7.642360   -0.318000   -2.402059
  H      6.414855   -0.403433   -3.642587
  C      6.608718   -2.917014   -2.435655
  H      6.190324   -1.561115   -0.820948
  H      4.919250   -1.651245   -2.016586
  H      7.066975   -2.374258   -4.475514
  H      6.887808   -4.089747   -4.215332
  H      6.135197   -3.755573   -1.915159
  H      7.671142   -2.955503   -2.172291
  O      2.851546   -0.783683   -4.956789

 Total Charge           Charge          ....    0
 Multiplicity           Mult            ....    1
 Number of Electrons    NEL             ....  144
 Basis Dimension        Dim             ....  540

ORBITAL ENERGIES
----------------

  NO   OCC          E(Eh)            E(eV)
   0   2.0000     -90.209789     -2454.7332
   1   2.0000     -25.371135      -690.3837
   2   2.0000     -19.663593      -535.0736
   3   2.0000     -19.661255      -535.0099
   4   2.0000     -14.749407      -401.3518
   5   2.0000     -14.732520      -400.8922
   6   2.0000     -10.621863      -289.0356
   7   2.0000     -10.586529      -288.0741
   8   2.0000     -10.583751      -287.9985
   9   2.0000     -10.575455      -287.7728
  10   2.0000     -10.559004      -287.3251
  11   2.0000     -10.553845      -287.1847
  12   2.0000     -10.549362      -287.0627
  13   2.0000     -10.544389      -286.9274
  14   2.0000     -10.540474      -286.8209
  15   2.0000     -10.539824      -286.8032
  16   2.0000     -10.446142      -284.2540
  17   2.0000      -8.532704      -232.1867
  18   2.0000      -6.461077      -175.8148
  19   2.0000      -6.456212      -175.6824
  20   2.0000      -6.454806      -175.6442
  21   2.0000      -1.500709       -40.8364
  22   2.0000      -1.243953       -33.8497
  23   2.0000      -1.142495       -31.0889
  24   2.0000      -1.051876       -28.6230
  25   2.0000      -0.960496       -26.1364
  26   2.0000      -0.943981       -25.6870
  27   2.0000      -0.907520       -24.6949
  28   2.0000      -0.877001       -23.8644
  29   2.0000      -0.841900       -22.9093
  30   2.0000      -0.820883       -22.3374
  31   2.0000      -0.792227       -21.5576
  32   2.0000      -0.764792       -20.8111
  33   2.0000      -0.732891       -19.9430
  34   2.0000      -0.706789       -19.2327
  35   2.0000      -0.691492       -18.8165
  36   2.0000      -0.683349       -18.5949
  37   2.0000      -0.678052       -18.4507
  38   2.0000      -0.661171       -17.9914
  39   2.0000      -0.640009       -17.4155
  40   2.0000      -0.631581       -17.1862
  41   2.0000      -0.593939       -16.1619
  42   2.0000      -0.580258       -15.7896
  43   2.0000      -0.568184       -15.4611
  44   2.0000      -0.560006       -15.2385
  45   2.0000      -0.554351       -15.0846
  46   2.0000      -0.541438       -14.7333
  47   2.0000      -0.539194       -14.6722
  48   2.0000      -0.533470       -14.5165
  49   2.0000      -0.514841       -14.0095
  50   2.0000      -0.506859       -13.7923
  51   2.0000      -0.502500       -13.6737
  52   2.0000      -0.491861       -13.3842
  53   2.0000      -0.473670       -12.8892
  54   2.0000      -0.462501       -12.5853
  55   2.0000      -0.461468       -12.5572
  56   2.0000      -0.448629       -12.2078
  57   2.0000      -0.441635       -12.0175
  58   2.0000      -0.435214       -11.8428
  59   2.0000      -0.429001       -11.6737
  60   2.0000      -0.426198       -11.5974
  61   2.0000      -0.419215       -11.4074
  62   2.0000      -0.407291       -11.0829
  63   2.0000      -0.406943       -11.0735
  64   2.0000      -0.398292       -10.8381
  65   2.0000      -0.395910       -10.7732
  66   2.0000      -0.388757       -10.5786
  67   2.0000      -0.375592       -10.2204
  68   2.0000      -0.373484       -10.1630
  69   2.0000      -0.368185       -10.0188
  70   2.0000      -0.301145        -8.1946
  71   2.0000      -0.201852        -5.4927
  72   0.0000       0.011900         0.3238
  73   0.0000       0.031823         0.8660
  74   0.0000       0.038081         1.0362
  75   0.0000       0.041341         1.1250
  76   0.0000       0.051511         1.4017

MULLIKEN ATOMIC CHARGES
-----------------------
   0 C :    1.079652
   1 N :    0.306487
   2 C :    0.274378
   3 C :    0.285150
   4 H :    0.036476
   5 H :   -0.004927
   6 S :    1.528792
   7 C :    1.192944
   8 C :    0.593423
   9 N :    0.179758
  10 H :   -0.040622
  11 H :   -0.215197
  12 H :   -1.277562
  13 H :   -0.503589
  14 H :   -0.676781
  15 F :   -0.488145
  16 O :   -0.767865
  17 C :    0.360747
  18 H :   -0.299202
  19 H :   -0.199000
  20 C :    0.051627
  21 C :    0.324666
  22 H :    0.037357
  23 H :   -0.589523
  24 H :   -0.128606
  25 H :    0.034383
  26 C :    0.173550
  27 H :   -0.185355
  28 H :   -0.061481
  29 C :   -0.119687
  30 H :   -0.205896
  31 H :   -0.100363
  32 C :    0.700780
  33 H :   -0.398435
  34 H :    0.174780
  35 H :    0.124824
  36 H :   -0.376962
  37 H :   -0.045734
  38 H :   -0.002131
  39 O :   -0.772713
Sum of atomic charges:    0.0000000

LOEWDIN ATOMIC CHARGES
----------------------
   0 C :    0.065801
   1 N :    0.004481
   2 C :   -0.032243
   3 C :   -0.034425
   4 H :    0.044392
   5 H :    0.028162
   6 S :    1.194571
   7 C :   -0.203899
   8 C :    0.173726
   9 N :    0.194259
  10 H :   -0.024562
  11 H :    0.004417
  12 H :   -0.094901
  13 H :   -0.166991
  14 H :   -0.096188
  15 F :   -0.280412
  16 O :   -0.449434
  17 C :   -0.021104
  18 H :    0.018929
  19 H :    0.011287
  20 C :   -0.035506
  21 C :   -0.027424
  22 H :    0.043867
  23 H :   -0.019367
  24 H :    0.038330
  25 H :    0.029979
  26 C :   -0.030803
  27 H :    0.021174
  28 H :    0.011844
  29 C :   -0.037827
  30 H :    0.027276
  31 H :    0.008007
  32 C :   -0.029509
  33 H :    0.024962
  34 H :    0.006143
  35 H :    0.018983
  36 H :    0.024621
  37 H :    0.023047
  38 H :    0.024283
  39 O :   -0.457943

  Mayer bond orders larger than 0.100000
B(  0-C ,  1-N ) :   0.9744 B(  0-C , 12-H ) :  -0.6323 B(  0-C , 17-C ) :   1.0839
B(  0-C , 18-H ) :   0.6165 B(  0-C , 19-H ) :   0.8518 B(  0-C , 26-C ) :   0.1698
B(  1-N ,  7-C ) :   1.2443 B(  1-N ,  8-C ) :   0.1237 B(  1-N ,  9-N ) :   0.3133
B(  1-N , 12-H ) :   0.8095 B(  1-N , 14-H ) :  -0.1228 B(  1-N , 18-H ) :   0.2642
B(  1-N , 39-O ) :  -0.1168 B(  2-C ,  3-C ) :   1.1992 B(  2-C ,  5-H ) :   0.2268
B(  2-C , 20-C ) :   0.1097 B(  2-C , 21-C ) :   1.1054 B(  2-C , 22-H ) :   0.1067
B(  2-C , 24-H ) :   0.8707 B(  2-C , 25-H ) :   0.8457 B(  3-C ,  4-H ) :   0.9252
B(  3-C ,  5-H ) :   0.7768 B(  3-C ,  6-S ) :   0.9941 B(  6-S , 15-F ) :   0.5853
B(  6-S , 16-O ) :   1.3966 B(  6-S , 39-O ) :   1.3780 B(  7-C ,  8-C ) :   1.2759
B(  7-C ,  9-N ) :   0.7668 B(  7-C , 11-H ) :  -0.1096 B(  7-C , 12-H ) :  -0.9750
B(  7-C , 14-H ) :   0.1767 B(  7-C , 17-C ) :   0.1031 B(  8-C ,  9-N ) :   0.2752
B(  8-C , 12-H ) :   0.1227 B(  8-C , 13-H ) :   0.2833 B(  8-C , 14-H ) :   0.7751
B(  9-N , 10-H ) :   0.9715 B(  9-N , 11-H ) :   1.2133 B(  9-N , 18-H ) :  -0.1008
B( 10-H , 11-H ) :  -0.2012 B( 12-H , 18-H ) :   0.1550 B( 12-H , 39-O ) :   0.1499
B( 13-H , 14-H ) :  -0.2561 B( 13-H , 15-F ) :   0.1506 B( 16-O , 39-O ) :   0.1239
B( 17-C , 18-H ) :   0.1042 B( 17-C , 19-H ) :   0.1039 B( 17-C , 26-C ) :   1.2155
B( 17-C , 27-H ) :   0.9643 B( 17-C , 28-H ) :   0.7180 B( 18-H , 19-H ) :  -0.2296
B( 18-H , 26-C ) :  -0.1081 B( 20-C , 21-C ) :   1.2182 B( 20-C , 22-H ) :   0.1102
B( 20-C , 29-C ) :   0.1381 B( 20-C , 32-C ) :   1.1303 B( 20-C , 35-H ) :   0.8496
B( 20-C , 36-H ) :   1.0064 B( 20-C , 38-H ) :   0.2239 B( 21-C , 22-H ) :   0.6971
B( 21-C , 23-H ) :   0.8415 B( 21-C , 24-H ) :   0.1906 B( 21-C , 36-H ) :   0.1969
B( 22-H , 23-H ) :   0.1989 B( 23-H , 34-H ) :   0.1424 B( 26-C , 28-H ) :   0.2190
B( 26-C , 29-C ) :   1.2031 B( 26-C , 30-H ) :   0.8916 B( 26-C , 31-H ) :   0.9379
B( 26-C , 33-H ) :   0.1264 B( 27-H , 28-H ) :  -0.1479 B( 29-C , 30-H ) :   0.1372
B( 29-C , 31-H ) :   0.1146 B( 29-C , 32-C ) :   1.1288 B( 29-C , 33-H ) :   1.0850
B( 29-C , 34-H ) :   0.8340 B( 29-C , 37-H ) :   0.2932 B( 29-C , 38-H ) :   0.1173
B( 31-H , 35-H ) :   0.1139 B( 32-C , 37-H ) :   0.6812 B( 32-C , 38-H ) :   0.7071
B( 37-H , 38-H ) :  -0.1448

Dispersion correction           -0.003058117
FINAL SINGLE POINT ENERGY     -1189.853704015124

DIPOLE MOMENT
-------------
                                X             Y             Z
Electronic contribution:    -16.31677       3.90948     -19.58907
Nuclear contribution   :     17.27667      -5.32157      20.03034
                        -----------------------------------------
Total Dipole Moment    :      0.95990      -1.41209       0.44127
                        -----------------------------------------
Magnitude (a.u.)       :      1.76355
Magnitude (Debye)      :      4.48259

Rotational constants in cm-1:     0.014355     0.012269     0.007481
Rotational constants in MHz :   430.360270   367.823451   224.273399

                             ****ORCA TERMINATED NORMALLY****
TOTAL RUN TIME: 0 days 0 hours 4 minutes 58 seconds 120 msec
