                         Program Version 5.0.0 -  RELEASE  -
|  1> !M062X D3Zero RIJCOSX def2-SVPD def2/J TightSCF xyzfile
|  2>
|  3> *xyzfile 0 1 D5.xyz
|  4>
|  5> %MaxCore 64000
|  6>
|  7> %pal nprocs 4
|  8> end
|  9>
| 10> %scf
| 11>   MaxIter 150
| 12> end
| 13>
| 14>
| 15>                          ****END OF INPUT****

CARTESIAN COORDINATES (ANGSTROEM)
---------------------------------
  C      4.490588    1.155899   -2.469290
  N      4.305394    1.222762   -3.908317
  C      4.906458   -3.102816   -5.954844
  C      3.511771   -2.806215   -6.492283
  H      2.736044   -3.373445   -5.973736
  H      3.444904   -3.040831   -7.555281
  S      3.004618   -1.096206   -6.389259
  C      4.631918    2.246365   -4.670958
  C      4.541686    2.143990   -5.987139
  N      5.084086    3.393584   -4.118545
  H      4.920675    3.570501   -3.135870
  H      5.254652    4.197390   -4.706956
  H      3.824530    0.449113   -4.350926
  H      4.343373    1.249318   -6.416646
  H      4.676712    2.956624   -6.574113
  O      4.128856   -0.329647   -6.953717
  F      1.781285   -1.000779   -7.136399
  C      5.942129    0.939500   -2.036893
  H      3.864305    0.328532   -2.136611
  H      4.076233    2.049994   -1.989010
  C      6.462677   -3.117775   -3.944671
  C      5.024977   -3.025679   -4.437625
  H      4.423321   -3.818693   -3.977648
  H      4.579350   -2.087131   -4.108727
  H      5.201533   -4.100207   -6.296905
  H      5.605922   -2.397822   -6.413368
  C      6.559957   -0.356290   -2.559086
  H      5.967976    0.952567   -0.942444
  H      6.547184    1.788331   -2.368849
  C      6.006283   -1.615917   -1.899301
  H      7.642360   -0.318000   -2.402059
  H      6.414855   -0.403433   -3.642587
  C      6.608718   -2.917014   -2.435655
  H      6.190324   -1.561115   -0.820948
  H      4.919250   -1.651245   -2.016586
  H      7.066975   -2.374258   -4.475514
  H      6.887808   -4.089747   -4.215332
  H      6.135197   -3.755573   -1.915159
  H      7.671142   -2.955503   -2.172291
  O      2.851546   -0.783683   -4.956789

 Total Charge           Charge          ....    0
 Multiplicity           Mult            ....    1
 Number of Electrons    NEL             ....  144
 Basis Dimension        Dim             ....  540

ORBITAL ENERGIES
----------------

  NO   OCC          E(Eh)            E(eV)
   0   2.0000     -90.214350     -2454.8573
   1   2.0000     -25.394640      -691.0233
   2   2.0000     -19.663978      -535.0840
   3   2.0000     -19.653708      -534.8046
   4   2.0000     -14.735628      -400.9768
   5   2.0000     -14.720084      -400.5538
   6   2.0000     -10.624778      -289.1149
   7   2.0000     -10.583496      -287.9916
   8   2.0000     -10.566969      -287.5419
   9   2.0000     -10.565534      -287.5028
  10   2.0000     -10.555032      -287.2170
  11   2.0000     -10.549003      -287.0530
  12   2.0000     -10.544761      -286.9375
  13   2.0000     -10.538955      -286.7796
  14   2.0000     -10.532909      -286.6150
  15   2.0000     -10.531934      -286.5885
  16   2.0000     -10.421622      -283.5868
  17   2.0000      -8.537494      -232.3170
  18   2.0000      -6.465961      -175.9477
  19   2.0000      -6.460777      -175.8067
  20   2.0000      -6.459511      -175.7722
  21   2.0000      -1.533743       -41.7353
  22   2.0000      -1.236757       -33.6539
  23   2.0000      -1.130644       -30.7664
  24   2.0000      -1.038108       -28.2484
  25   2.0000      -0.947899       -25.7936
  26   2.0000      -0.941404       -25.6169
  27   2.0000      -0.903740       -24.5920
  28   2.0000      -0.874923       -23.8079
  29   2.0000      -0.846716       -23.0403
  30   2.0000      -0.818954       -22.2849
  31   2.0000      -0.788307       -21.4509
  32   2.0000      -0.756304       -20.5801
  33   2.0000      -0.728861       -19.8333
  34   2.0000      -0.707559       -19.2537
  35   2.0000      -0.704454       -19.1692
  36   2.0000      -0.683127       -18.5888
  37   2.0000      -0.673046       -18.3145
  38   2.0000      -0.658296       -17.9131
  39   2.0000      -0.639646       -17.4056
  40   2.0000      -0.624413       -16.9912
  41   2.0000      -0.592201       -16.1146
  42   2.0000      -0.583098       -15.8669
  43   2.0000      -0.566832       -15.4243
  44   2.0000      -0.552399       -15.0315
  45   2.0000      -0.549428       -14.9507
  46   2.0000      -0.534812       -14.5530
  47   2.0000      -0.533843       -14.5266
  48   2.0000      -0.522914       -14.2292
  49   2.0000      -0.511058       -13.9066
  50   2.0000      -0.500870       -13.6294
  51   2.0000      -0.494125       -13.4458
  52   2.0000      -0.486660       -13.2427
  53   2.0000      -0.468006       -12.7351
  54   2.0000      -0.456819       -12.4307
  55   2.0000      -0.453476       -12.3397
  56   2.0000      -0.443333       -12.0637
  57   2.0000      -0.438006       -11.9188
  58   2.0000      -0.426218       -11.5980
  59   2.0000      -0.421020       -11.4565
  60   2.0000      -0.418320       -11.3831
  61   2.0000      -0.413524       -11.2526
  62   2.0000      -0.402059       -10.9406
  63   2.0000      -0.395995       -10.7756
  64   2.0000      -0.391242       -10.6462
  65   2.0000      -0.384337       -10.4583
  66   2.0000      -0.370003       -10.0683
  67   2.0000      -0.369069       -10.0429
  68   2.0000      -0.361893        -9.8476
  69   2.0000      -0.357504        -9.7282
  70   2.0000      -0.288776        -7.8580
  71   2.0000      -0.183579        -4.9954
  72   0.0000       0.004553         0.1239
  73   0.0000       0.030125         0.8198
  74   0.0000       0.033798         0.9197
  75   0.0000       0.044052         1.1987
  76   0.0000       0.052373         1.4251

MULLIKEN ATOMIC CHARGES
-----------------------
   0 C :    1.092861
   1 N :    0.260456
   2 C :    0.193304
   3 C :    0.277951
   4 H :    0.033945
   5 H :    0.031642
   6 S :    1.693357
   7 C :    1.161732
   8 C :    0.542169
   9 N :    0.168929
  10 H :   -0.043542
  11 H :   -0.217929
  12 H :   -1.255123
  13 H :   -0.428068
  14 H :   -0.714012
  15 O :   -0.710818
  16 F :   -0.564478
  17 C :    0.357206
  18 H :   -0.305455
  19 H :   -0.201652
  20 C :    0.045785
  21 C :    0.295454
  22 H :    0.034406
  23 H :   -0.600117
  24 H :   -0.109508
  25 H :    0.070144
  26 C :    0.186476
  27 H :   -0.194965
  28 H :   -0.060778
  29 C :   -0.119959
  30 H :   -0.207073
  31 H :   -0.102227
  32 C :    0.702077
  33 H :   -0.402768
  34 H :    0.175473
  35 H :    0.132970
  36 H :   -0.379658
  37 H :   -0.048133
  38 H :    0.000237
  39 O :   -0.790309
Sum of atomic charges:    0.0000000

LOEWDIN ATOMIC CHARGES
----------------------
   0 C :    0.062532
   1 N :    0.005000
   2 C :   -0.016818
   3 C :   -0.046070
   4 H :    0.030660
   5 H :    0.025816
   6 S :    1.228088
   7 C :   -0.208572
   8 C :    0.176399
   9 N :    0.187919
  10 H :   -0.028815
  11 H :    0.001482
  12 H :   -0.090263
  13 H :   -0.194973
  14 H :   -0.099068
  15 O :   -0.459023
  16 F :   -0.247207
  17 C :   -0.021822
  18 H :    0.016626
  19 H :    0.009280
  20 C :   -0.034138
  21 C :   -0.025176
  22 H :    0.041778
  23 H :   -0.016567
  24 H :    0.041119
  25 H :    0.034890
  26 C :   -0.029863
  27 H :    0.019608
  28 H :    0.011878
  29 C :   -0.038839
  30 H :    0.026739
  31 H :    0.010650
  32 C :   -0.030301
  33 H :    0.024116
  34 H :    0.005320
  35 H :    0.021214
  36 H :    0.024073
  37 H :    0.021978
  38 H :    0.024014
  39 O :   -0.463662

  Mayer bond orders larger than 0.100000
B(  0-C ,  1-N ) :   0.9586 B(  0-C , 12-H ) :  -0.6358 B(  0-C , 17-C ) :   1.0796
B(  0-C , 18-H ) :   0.6105 B(  0-C , 19-H ) :   0.8547 B(  0-C , 26-C ) :   0.1742
B(  1-N ,  7-C ) :   1.2142 B(  1-N ,  8-C ) :   0.1273 B(  1-N ,  9-N ) :   0.3119
B(  1-N , 12-H ) :   0.8620 B(  1-N , 14-H ) :  -0.1034 B(  1-N , 18-H ) :   0.2670
B(  1-N , 39-O ) :  -0.1118 B(  2-C ,  3-C ) :   1.2600 B(  2-C ,  5-H ) :   0.2713
B(  2-C , 20-C ) :   0.1178 B(  2-C , 21-C ) :   1.1228 B(  2-C , 22-H ) :   0.1059
B(  2-C , 24-H ) :   0.8520 B(  2-C , 25-H ) :   0.8647 B(  3-C ,  4-H ) :   0.9277
B(  3-C ,  5-H ) :   0.6933 B(  3-C ,  6-S ) :   0.9708 B(  3-C , 21-C ) :   0.1148
B(  6-S , 15-O ) :   1.3956 B(  6-S , 16-F ) :   0.4124 B(  6-S , 39-O ) :   1.2931
B(  7-C ,  8-C ) :   1.2555 B(  7-C ,  9-N ) :   0.7387 B(  7-C , 11-H ) :  -0.1118
B(  7-C , 12-H ) :  -0.9490 B(  7-C , 14-H ) :   0.1320 B(  7-C , 17-C ) :   0.1052
B(  8-C ,  9-N ) :   0.2846 B(  8-C , 12-H ) :   0.1164 B(  8-C , 13-H ) :   0.4569
B(  8-C , 14-H ) :   0.7937 B(  9-N , 10-H ) :   0.9724 B(  9-N , 11-H ) :   1.2187
B( 10-H , 11-H ) :  -0.2015 B( 12-H , 18-H ) :   0.1545 B( 12-H , 39-O ) :   0.1448
B( 13-H , 14-H ) :  -0.2785 B( 17-C , 18-H ) :   0.1060 B( 17-C , 19-H ) :   0.1050
B( 17-C , 26-C ) :   1.2139 B( 17-C , 27-H ) :   0.9694 B( 17-C , 28-H ) :   0.7197
B( 18-H , 19-H ) :  -0.2305 B( 18-H , 26-C ) :  -0.1101 B( 20-C , 21-C ) :   1.2288
B( 20-C , 22-H ) :   0.1111 B( 20-C , 29-C ) :   0.1398 B( 20-C , 32-C ) :   1.1293
B( 20-C , 35-H ) :   0.8485 B( 20-C , 36-H ) :   1.0026 B( 20-C , 38-H ) :   0.2233
B( 21-C , 22-H ) :   0.6932 B( 21-C , 23-H ) :   0.8482 B( 21-C , 24-H ) :   0.1926
B( 21-C , 36-H ) :   0.2005 B( 22-H , 23-H ) :   0.2085 B( 23-H , 34-H ) :   0.1435
B( 26-C , 28-H ) :   0.2192 B( 26-C , 29-C ) :   1.2008 B( 26-C , 30-H ) :   0.8882
B( 26-C , 31-H ) :   0.9336 B( 26-C , 33-H ) :   0.1243 B( 27-H , 28-H ) :  -0.1495
B( 29-C , 30-H ) :   0.1386 B( 29-C , 31-H ) :   0.1139 B( 29-C , 32-C ) :   1.1272
B( 29-C , 33-H ) :   1.0863 B( 29-C , 34-H ) :   0.8333 B( 29-C , 37-H ) :   0.2935
B( 29-C , 38-H ) :   0.1181 B( 31-H , 35-H ) :   0.1183 B( 32-C , 37-H ) :   0.6803
B( 32-C , 38-H ) :   0.7070 B( 37-H , 38-H ) :  -0.1446

Dispersion correction           -0.003056390
FINAL SINGLE POINT ENERGY     -1189.835355529445

DIPOLE MOMENT
-------------
                                X             Y             Z
Electronic contribution:    -20.58323       2.58894     -20.18188
Nuclear contribution   :     20.03262      -4.53368      20.24480
                        -----------------------------------------
Total Dipole Moment    :     -0.55061      -1.94474       0.06291
                        -----------------------------------------
Magnitude (a.u.)       :      2.02217
Magnitude (Debye)      :      5.13994

Rotational constants in cm-1:     0.014367     0.012055     0.007393
Rotational constants in MHz :   430.711297   361.391195   221.649333

                             ****ORCA TERMINATED NORMALLY****
TOTAL RUN TIME: 0 days 0 hours 4 minutes 59 seconds 904 msec
