                         Program Version 5.0.0 -  RELEASE  -
|  1> !M062X D3Zero RIJCOSX def2-SVPD def2/J TightSCF xyzfile
|  2>
|  3> *xyzfile 0 1 D7.xyz
|  4>
|  5> %MaxCore 64000
|  6>
|  7> %pal nprocs 4
|  8> end
|  9>
| 10> %scf
| 11>   MaxIter 150
| 12> end
| 13>
| 14>
| 15>                          ****END OF INPUT****

CARTESIAN COORDINATES (ANGSTROEM)
---------------------------------
  C      4.490588    1.155899   -2.469290
  C      4.305394    1.222762   -3.908317
  C      4.906458   -3.102816   -5.954844
  C      3.511771   -2.806215   -6.492283
  H      2.736044   -3.373445   -5.973736
  H      3.444904   -3.040831   -7.555281
  S      3.004618   -1.096206   -6.389259
  C      4.631918    2.246365   -4.670958
  N      4.541686    2.143990   -5.987139
  N      5.084086    3.393584   -4.118545
  H      4.920675    3.570501   -3.135870
  H      5.254652    4.197390   -4.706956
  H      3.824530    0.449113   -4.350926
  H      4.343373    1.249318   -6.416646
  H      4.676712    2.956624   -6.574113
  O      4.128856   -0.329647   -6.953717
  O      1.781285   -1.000779   -7.136399
  C      5.942129    0.939500   -2.036893
  H      3.864305    0.328532   -2.136611
  H      4.076233    2.049994   -1.989010
  C      6.462677   -3.117775   -3.944671
  C      5.024977   -3.025679   -4.437625
  H      4.423321   -3.818693   -3.977648
  H      4.579350   -2.087131   -4.108727
  H      5.201533   -4.100207   -6.296905
  H      5.605922   -2.397822   -6.413368
  C      6.559957   -0.356290   -2.559086
  H      5.967976    0.952567   -0.942444
  H      6.547184    1.788331   -2.368849
  C      6.006283   -1.615917   -1.899301
  H      7.642360   -0.318000   -2.402059
  H      6.414855   -0.403433   -3.642587
  C      6.608718   -2.917014   -2.435655
  H      6.190324   -1.561115   -0.820948
  H      4.919250   -1.651245   -2.016586
  H      7.066975   -2.374258   -4.475514
  H      6.887808   -4.089747   -4.215332
  H      6.135197   -3.755573   -1.915159
  H      7.671142   -2.955503   -2.172291
  F      2.851546   -0.783683   -4.956789

 Total Charge           Charge          ....    0
 Multiplicity           Mult            ....    1
 Number of Electrons    NEL             ....  144
 Basis Dimension        Dim             ....  540

ORBITAL ENERGIES
----------------

  NO   OCC          E(Eh)            E(eV)
   0   2.0000     -90.209640     -2454.7291
   1   2.0000     -25.371092      -690.3825
   2   2.0000     -19.664853      -535.1079
   3   2.0000     -19.661075      -535.0050
   4   2.0000     -14.752587      -401.4383
   5   2.0000     -14.729548      -400.8114
   6   2.0000     -10.620630      -289.0020
   7   2.0000     -10.583083      -287.9803
   8   2.0000     -10.580123      -287.8998
   9   2.0000     -10.561008      -287.3796
  10   2.0000     -10.550517      -287.0942
  11   2.0000     -10.543965      -286.9159
  12   2.0000     -10.536025      -286.6998
  13   2.0000     -10.527083      -286.4565
  14   2.0000     -10.522648      -286.3358
  15   2.0000     -10.519150      -286.2406
  16   2.0000     -10.456323      -284.5310
  17   2.0000      -8.532611      -232.1842
  18   2.0000      -6.460956      -175.8116
  19   2.0000      -6.456088      -175.6791
  20   2.0000      -6.454749      -175.6426
  21   2.0000      -1.500220       -40.8231
  22   2.0000      -1.244652       -33.8687
  23   2.0000      -1.143682       -31.1212
  24   2.0000      -1.043499       -28.3950
  25   2.0000      -0.945635       -25.7320
  26   2.0000      -0.939944       -25.5772
  27   2.0000      -0.903609       -24.5884
  28   2.0000      -0.873955       -23.7815
  29   2.0000      -0.849234       -23.1088
  30   2.0000      -0.814893       -22.1744
  31   2.0000      -0.796668       -21.6784
  32   2.0000      -0.757181       -20.6039
  33   2.0000      -0.728332       -19.8189
  34   2.0000      -0.706803       -19.2331
  35   2.0000      -0.689883       -18.7727
  36   2.0000      -0.677943       -18.4478
  37   2.0000      -0.664610       -18.0850
  38   2.0000      -0.656859       -17.8740
  39   2.0000      -0.634968       -17.2783
  40   2.0000      -0.621961       -16.9244
  41   2.0000      -0.601629       -16.3712
  42   2.0000      -0.580591       -15.7987
  43   2.0000      -0.563557       -15.3352
  44   2.0000      -0.559652       -15.2289
  45   2.0000      -0.554433       -15.0869
  46   2.0000      -0.552705       -15.0399
  47   2.0000      -0.530192       -14.4273
  48   2.0000      -0.522206       -14.2099
  49   2.0000      -0.514119       -13.9899
  50   2.0000      -0.499008       -13.5787
  51   2.0000      -0.493433       -13.4270
  52   2.0000      -0.491978       -13.3874
  53   2.0000      -0.478056       -13.0086
  54   2.0000      -0.464832       -12.6487
  55   2.0000      -0.452292       -12.3075
  56   2.0000      -0.443871       -12.0783
  57   2.0000      -0.438189       -11.9237
  58   2.0000      -0.434075       -11.8118
  59   2.0000      -0.422843       -11.5061
  60   2.0000      -0.416129       -11.3235
  61   2.0000      -0.407707       -11.0943
  62   2.0000      -0.405534       -11.0351
  63   2.0000      -0.401934       -10.9372
  64   2.0000      -0.390346       -10.6219
  65   2.0000      -0.389987       -10.6121
  66   2.0000      -0.381047       -10.3688
  67   2.0000      -0.364451        -9.9172
  68   2.0000      -0.358984        -9.7685
  69   2.0000      -0.353559        -9.6208
  70   2.0000      -0.312032        -8.4908
  71   2.0000      -0.200601        -5.4586
  72   0.0000       0.014025         0.3817
  73   0.0000       0.031213         0.8494
  74   0.0000       0.038119         1.0373
  75   0.0000       0.042037         1.1439
  76   0.0000       0.054894         1.4937

MULLIKEN ATOMIC CHARGES
-----------------------
   0 C :    0.161633
   1 C :    0.354290
   2 C :    0.275299
   3 C :    0.275645
   4 H :    0.025045
   5 H :    0.023972
   6 S :    1.639744
   7 C :    1.120451
   8 N :    0.147643
   9 N :   -0.073903
  10 H :   -0.021151
  11 H :   -0.262936
  12 H :   -0.945174
  13 H :   -0.279801
  14 H :   -0.210878
  15 O :   -0.703639
  16 O :   -0.756585
  17 C :    0.463743
  18 H :    0.164234
  19 H :   -0.213840
  20 C :    0.042570
  21 C :    0.360651
  22 H :    0.028265
  23 H :   -0.696324
  24 H :   -0.107178
  25 H :    0.070716
  26 C :    0.117168
  27 H :   -0.088763
  28 H :   -0.156835
  29 C :   -0.046720
  30 H :   -0.160055
  31 H :   -0.051736
  32 C :    0.694519
  33 H :   -0.392592
  34 H :    0.107065
  35 H :    0.135553
  36 H :   -0.384437
  37 H :   -0.048970
  38 H :   -0.000528
  39 F :   -0.606158
Sum of atomic charges:   -0.0000000

LOEWDIN ATOMIC CHARGES
----------------------
   0 C :   -0.048382
   1 C :   -0.016413
   2 C :   -0.031384
   3 C :   -0.035290
   4 H :    0.032872
   5 H :    0.038383
   6 S :    1.194329
   7 C :   -0.185124
   8 N :    0.201531
   9 N :    0.197996
  10 H :   -0.013016
  11 H :   -0.009725
  12 H :   -0.121966
  13 H :   -0.114415
  14 H :   -0.001230
  15 O :   -0.454883
  16 O :   -0.453415
  17 C :   -0.029422
  18 H :    0.008644
  19 H :    0.007627
  20 C :   -0.033029
  21 C :   -0.029382
  22 H :    0.041374
  23 H :   -0.013955
  24 H :    0.038997
  25 H :    0.031458
  26 C :   -0.031414
  27 H :    0.016659
  28 H :    0.012016
  29 C :   -0.037851
  30 H :    0.025608
  31 H :    0.006788
  32 C :   -0.031281
  33 H :    0.024463
  34 H :    0.003922
  35 H :    0.021230
  36 H :    0.025251
  37 H :    0.021484
  38 H :    0.023970
  39 F :   -0.283024

  Mayer bond orders larger than 0.100000
B(  0-C ,  1-C ) :   1.0972 B(  0-C , 12-H ) :   0.8227 B(  0-C , 17-C ) :   1.1148
B(  0-C , 18-H ) :   0.6667 B(  0-C , 19-H ) :   0.9163 B(  0-C , 26-C ) :   0.1220
B(  0-C , 27-H ) :   0.1923 B(  0-C , 28-H ) :   0.1261 B(  0-C , 30-H ) :  -0.1343
B(  1-C ,  7-C ) :   1.5762 B(  1-C ,  8-N ) :   0.3118 B(  1-C ,  9-N ) :   0.2928
B(  1-C , 12-H ) :  -0.4906 B(  1-C , 18-H ) :   0.4343 B(  1-C , 19-H ) :   0.1484
B(  2-C ,  3-C ) :   1.2320 B(  2-C ,  5-H ) :   0.2454 B(  2-C , 20-C ) :   0.1104
B(  2-C , 21-C ) :   1.1272 B(  2-C , 24-H ) :   0.8449 B(  2-C , 25-H ) :   0.8671
B(  3-C ,  4-H ) :   0.9402 B(  3-C ,  5-H ) :   0.7305 B(  3-C ,  6-S ) :   0.9648
B(  3-C , 21-C ) :   0.1089 B(  6-S , 15-O ) :   1.3525 B(  6-S , 16-O ) :   1.4024
B(  6-S , 39-F ) :   0.5922 B(  7-C ,  8-N ) :   0.7316 B(  7-C ,  9-N ) :   0.7375
B(  7-C , 11-H ) :  -0.1866 B(  7-C , 12-H ) :  -0.1347 B(  7-C , 13-H ) :  -0.2734
B(  7-C , 14-H ) :  -0.1621 B(  8-N , 13-H ) :   1.2316 B(  8-N , 14-H ) :   1.3320
B(  8-N , 15-O ) :  -0.1038 B(  9-N , 10-H ) :   1.0559 B(  9-N , 11-H ) :   1.3281
B( 10-H , 11-H ) :  -0.2058 B( 11-H , 12-H ) :  -0.1008 B( 12-H , 18-H ) :  -0.2280
B( 12-H , 39-F ) :   0.2227 B( 13-H , 14-H ) :  -0.2511 B( 17-C , 18-H ) :   0.1008
B( 17-C , 26-C ) :   1.2887 B( 17-C , 27-H ) :   0.8056 B( 17-C , 28-H ) :   0.7117
B( 17-C , 31-H ) :   0.1174 B( 18-H , 19-H ) :  -0.1399 B( 20-C , 21-C ) :   1.2228
B( 20-C , 22-H ) :   0.1080 B( 20-C , 23-H ) :   0.1115 B( 20-C , 29-C ) :   0.1395
B( 20-C , 32-C ) :   1.1233 B( 20-C , 35-H ) :   0.8457 B( 20-C , 36-H ) :   1.0129
B( 20-C , 38-H ) :   0.2274 B( 21-C , 22-H ) :   0.6911 B( 21-C , 23-H ) :   0.7275
B( 21-C , 24-H ) :   0.1877 B( 21-C , 36-H ) :   0.1960 B( 22-H , 23-H ) :   0.2326
B( 23-H , 34-H ) :   0.1523 B( 26-C , 27-H ) :   0.1053 B( 26-C , 28-H ) :   0.2209
B( 26-C , 29-C ) :   1.1922 B( 26-C , 30-H ) :   0.8504 B( 26-C , 31-H ) :   0.9150
B( 26-C , 33-H ) :   0.1212 B( 27-H , 28-H ) :  -0.1674 B( 29-C , 30-H ) :   0.1209
B( 29-C , 31-H ) :   0.1072 B( 29-C , 32-C ) :   1.1195 B( 29-C , 33-H ) :   1.0721
B( 29-C , 34-H ) :   0.8463 B( 29-C , 37-H ) :   0.2966 B( 29-C , 38-H ) :   0.1182
B( 31-H , 35-H ) :   0.1122 B( 32-C , 37-H ) :   0.6862 B( 32-C , 38-H ) :   0.7052
B( 37-H , 38-H ) :  -0.1423

Dispersion correction           -0.003060310
FINAL SINGLE POINT ENERGY     -1189.863517906389

DIPOLE MOMENT
-------------
                                X             Y             Z
Electronic contribution:    -18.37544       3.99255     -17.96987
Nuclear contribution   :     18.74089      -4.92611      17.99644
                        -----------------------------------------
Total Dipole Moment    :      0.36545      -0.93356       0.02657
                        -----------------------------------------
Magnitude (a.u.)       :      1.00289
Magnitude (Debye)      :      2.54915

Rotational constants in cm-1:     0.014210     0.012324     0.007480
Rotational constants in MHz :   425.991442   369.455467   224.259162

                             ****ORCA TERMINATED NORMALLY****
TOTAL RUN TIME: 0 days 0 hours 5 minutes 17 seconds 27 msec
