                         Program Version 5.0.0 -  RELEASE  -
|  1> !wB97X-D3 RIJCOSX def2-TZVPD def2/J TightSCF
|  2>
|  3> *xyz -1 1
|  4> C          2.95263        1.86308       -3.57485
|  5> C          4.12921        0.89839       -3.41895
|  6> H          3.73369       -0.10060       -3.23763
|  7> H          4.71910        0.86256       -4.33901
|  8> C          5.01734        1.31521       -2.22130
|  9> O          4.73706        0.85411       -1.12283
| 10> O          5.92815        2.16811       -2.49136
| 11> H          2.35067        1.56005       -4.40594
| 12> H          3.32277        2.85258       -3.74453
| 13> H          2.36134        1.85149       -2.68315
| 14> *
| 15> %MaxCore 64000
| 16>
| 17> %pal nprocs 4
| 18> end
| 19>
| 20> %scf
| 21>   MaxIter 150
| 22> end
| 23>
| 24>
| 25>                          ****END OF INPUT****

CARTESIAN COORDINATES (ANGSTROEM)
---------------------------------
  C      2.952630    1.863080   -3.574850
  C      4.129210    0.898390   -3.418950
  H      3.733690   -0.100600   -3.237630
  H      4.719100    0.862560   -4.339010
  C      5.017340    1.315210   -2.221300
  O      4.737060    0.854110   -1.122830
  O      5.928150    2.168110   -2.491360
  H      2.350670    1.560050   -4.405940
  H      3.322770    2.852580   -3.744530
  H      2.361340    1.851490   -2.683150

 Total Charge           Charge          ....   -1
 Multiplicity           Mult            ....    1
 Number of Electrons    NEL             ....   40
 Basis Dimension        Dim             ....  236

ORBITAL ENERGIES
----------------

  NO   OCC          E(Eh)            E(eV)
   0   2.0000     -18.969767      -516.1936
   1   2.0000     -18.959186      -515.9057
   2   2.0000     -10.157679      -276.4045
   3   2.0000     -10.111009      -275.1346
   4   2.0000     -10.097872      -274.7771
   5   2.0000      -0.941349       -25.6154
   6   2.0000      -0.842386       -22.9225
   7   2.0000      -0.721579       -19.6352
   8   2.0000      -0.581497       -15.8233
   9   2.0000      -0.425540       -11.5795
  10   2.0000      -0.391870       -10.6633
  11   2.0000      -0.362054        -9.8520
  12   2.0000      -0.329742        -8.9727
  13   2.0000      -0.309893        -8.4326
  14   2.0000      -0.308580        -8.3969
  15   2.0000      -0.273174        -7.4335
  16   2.0000      -0.263675        -7.1750
  17   2.0000      -0.141742        -3.8570
  18   2.0000      -0.132845        -3.6149
  19   2.0000      -0.123583        -3.3629
  20   0.0000       0.193109         5.2548
  21   0.0000       0.213946         5.8218
  22   0.0000       0.220496         6.0000
  23   0.0000       0.230937         6.2841
  24   0.0000       0.266786         7.2596

MULLIKEN ATOMIC CHARGES
-----------------------
   0 C :   -1.144607
   1 C :   -0.073478
   2 H :    0.216014
   3 H :    0.231957
   4 C :    0.417634
   5 O :   -0.731546
   6 O :   -0.775661
   7 H :    0.262666
   8 H :    0.298579
   9 H :    0.298441
Sum of atomic charges:   -1.0000000

LOEWDIN ATOMIC CHARGES
----------------------
   0 C :   -0.132451
   1 C :   -0.214131
   2 H :    0.085666
   3 H :    0.089252
   4 C :   -0.779253
   5 O :   -0.075999
   6 O :   -0.139138
   7 H :    0.043593
   8 H :    0.060991
   9 H :    0.061468

  Mayer bond orders larger than 0.100000
B(  0-C ,  1-C ) :   0.5695 B(  0-C ,  4-C ) :   0.2296 B(  0-C ,  7-H ) :   0.9491
B(  0-C ,  8-H ) :   0.9777 B(  0-C ,  9-H ) :   0.9746 B(  1-C ,  2-H ) :   0.9915
B(  1-C ,  3-H ) :   0.9742 B(  1-C ,  4-C ) :   0.8575 B(  4-C ,  5-O ) :   1.4999
B(  4-C ,  6-O ) :   1.4310

Dispersion correction           -0.001998917
FINAL SINGLE POINT ENERGY      -267.870467972667

DIPOLE MOMENT
-------------
                                X             Y             Z
Electronic contribution:      4.39867      -0.21417       3.88236
Nuclear contribution   :     -5.85873      -0.10793      -5.24103
                        -----------------------------------------
Total Dipole Moment    :     -1.46006      -0.32210      -1.35867
                        -----------------------------------------
Magnitude (a.u.)       :      2.02028
Magnitude (Debye)      :      5.13513

Rotational constants in cm-1:     0.292505     0.135951     0.110253
Rotational constants in MHz :  8769.065873  4075.717001  3305.311891

                             ****ORCA TERMINATED NORMALLY****
TOTAL RUN TIME: 0 days 0 hours 0 minutes 42 seconds 968 msec
