                         Program Version 5.0.0 -  RELEASE  -
|  1> !wB97X-D3 RIJCOSX def2-TZVPD def2/J TightSCF
|  2>
|  3> *xyz 1 1
|  4> C          3.34350        3.35457       -3.59200
|  5> C          2.95263        1.86308       -3.57485
|  6> C          4.25587        3.70385       -4.72605
|  7> N          3.73403        4.29378       -5.80077
|  8> N          5.51504        3.40725       -4.63718
|  9> H          6.14919        3.60120       -5.39905
| 10> H          5.81358        2.89950       -3.80879
| 11> H          2.74138        4.51311       -5.82470
| 12> H          4.28755        4.52126       -6.61434
| 13> H          3.86125        3.59725       -2.66298
| 14> H          2.44649        3.97346       -3.65656
| 15> H          2.44395        1.61721       -4.48352
| 16> H          2.30781        1.67290       -2.74242
| 17> H          3.83491        1.26414       -3.48670
| 18> *
| 19> %MaxCore 64000
| 20>
| 21> %pal nprocs 4
| 22> end
| 23>
| 24> %scf
| 25>   MaxIter 150
| 26> end
| 27>
| 28>
| 29>                          ****END OF INPUT****

CARTESIAN COORDINATES (ANGSTROEM)
---------------------------------
  C      3.343500    3.354570   -3.592000
  C      2.952630    1.863080   -3.574850
  C      4.255870    3.703850   -4.726050
  N      3.734030    4.293780   -5.800770
  N      5.515040    3.407250   -4.637180
  H      6.149190    3.601200   -5.399050
  H      5.813580    2.899500   -3.808790
  H      2.741380    4.513110   -5.824700
  H      4.287550    4.521260   -6.614340
  H      3.861250    3.597250   -2.662980
  H      2.446490    3.973460   -3.656560
  H      2.443950    1.617210   -4.483520
  H      2.307810    1.672900   -2.742420
  H      3.834910    1.264140   -3.486700

 Total Charge           Charge          ....    1
 Multiplicity           Mult            ....    1
 Number of Electrons    NEL             ....   40
 Basis Dimension        Dim             ....  266

ORBITAL ENERGIES
----------------

  NO   OCC          E(Eh)            E(eV)
   0   2.0000     -14.669445      -399.1759
   1   2.0000     -14.664694      -399.0466
   2   2.0000     -10.600360      -288.4505
   3   2.0000     -10.474014      -285.0124
   4   2.0000     -10.429287      -283.7953
   5   2.0000      -1.322876       -35.9973
   6   2.0000      -1.225476       -33.3469
   7   2.0000      -1.085076       -29.5264
   8   2.0000      -0.971861       -26.4457
   9   2.0000      -0.923588       -25.1321
  10   2.0000      -0.880646       -23.9636
  11   2.0000      -0.855491       -23.2791
  12   2.0000      -0.800636       -21.7864
  13   2.0000      -0.750901       -20.4331
  14   2.0000      -0.724276       -19.7086
  15   2.0000      -0.712205       -19.3801
  16   2.0000      -0.639747       -17.4084
  17   2.0000      -0.631728       -17.1902
  18   2.0000      -0.624004       -16.9800
  19   2.0000      -0.585702       -15.9378
  20   0.0000      -0.126987        -3.4555
  21   0.0000      -0.093964        -2.5569
  22   0.0000      -0.054193        -1.4747
  23   0.0000      -0.049970        -1.3598
  24   0.0000      -0.032147        -0.8748

MULLIKEN ATOMIC CHARGES
-----------------------
   0 C :   -0.522089
   1 C :   -1.089547
   2 C :    0.868143
   3 N :   -0.411336
   4 N :   -0.402951
   5 H :    0.217566
   6 H :    0.264621
   7 H :    0.251258
   8 H :    0.196347
   9 H :    0.314383
  10 H :    0.303384
  11 H :    0.338126
  12 H :    0.335895
  13 H :    0.336200
Sum of atomic charges:    1.0000000

LOEWDIN ATOMIC CHARGES
----------------------
   0 C :   -0.148417
   1 C :   -0.053881
   2 C :   -0.356696
   3 N :    0.219610
   4 N :    0.231382
   5 H :    0.153612
   6 H :    0.158077
   7 H :    0.149526
   8 H :    0.143632
   9 H :    0.132083
  10 H :    0.126823
  11 H :    0.082585
  12 H :    0.086256
  13 H :    0.075408

  Mayer bond orders larger than 0.100000
B(  0-C ,  1-C ) :   0.6840 B(  0-C ,  2-C ) :   0.7565 B(  0-C ,  4-N ) :   0.1095
B(  0-C ,  9-H ) :   0.9456 B(  0-C , 10-H ) :   0.9633 B(  1-C ,  2-C ) :   0.1284
B(  1-C , 11-H ) :   0.9581 B(  1-C , 12-H ) :   0.9622 B(  1-C , 13-H ) :   0.9020
B(  2-C ,  3-N ) :   1.0920 B(  2-C ,  4-N ) :   1.2056 B(  3-N ,  4-N ) :   0.1024
B(  3-N ,  7-H ) :   0.9464 B(  3-N ,  8-H ) :   1.0644 B(  4-N ,  5-H ) :   1.0308
B(  4-N ,  6-H ) :   0.9266

Dispersion correction           -0.003011887
FINAL SINGLE POINT ENERGY      -229.058666536708

DIPOLE MOMENT
-------------
                                X             Y             Z
Electronic contribution:      2.37462       2.57402      -2.27690
Nuclear contribution   :     -1.74195      -2.09431       1.58516
                        -----------------------------------------
Total Dipole Moment    :      0.63268       0.47972      -0.69174
                        -----------------------------------------
Magnitude (a.u.)       :      1.05305
Magnitude (Debye)      :      2.67665

Rotational constants in cm-1:     0.258965     0.126500     0.098780
Rotational constants in MHz :  7763.584551  3792.383135  2961.336502

                             ****ORCA TERMINATED NORMALLY****
TOTAL RUN TIME: 0 days 0 hours 0 minutes 59 seconds 765 msec
