                         Program Version 5.0.0 -  RELEASE  -
|  1> !wB97X-D3 RIJCOSX def2-TZVPD def2/J TightSCF
|  2>
|  3> *xyz 0 1
|  4> C          2.95263        1.86308       -3.57485
|  5> C          4.12921        0.89839       -3.41895
|  6> H          3.73369       -0.10060       -3.23763
|  7> H          4.71910        0.86256       -4.33901
|  8> C          5.01734        1.31521       -2.22130
|  9> F          4.73706        0.85411       -1.12283
| 10> O          5.92815        2.16811       -2.49136
| 11> H          2.35067        1.56005       -4.40594
| 12> H          3.32277        2.85258       -3.74453
| 13> H          2.36134        1.85149       -2.68315
| 14> *
| 15> %MaxCore 64000
| 16>
| 17> %pal nprocs 4
| 18> end
| 19>
| 20> %scf
| 21>   MaxIter 150
| 22> end
| 23>
| 24>
| 25>                          ****END OF INPUT****

CARTESIAN COORDINATES (ANGSTROEM)
---------------------------------
  C      2.952630    1.863080   -3.574850
  C      4.129210    0.898390   -3.418950
  H      3.733690   -0.100600   -3.237630
  H      4.719100    0.862560   -4.339010
  C      5.017340    1.315210   -2.221300
  F      4.737060    0.854110   -1.122830
  O      5.928150    2.168110   -2.491360
  H      2.350670    1.560050   -4.405940
  H      3.322770    2.852580   -3.744530
  H      2.361340    1.851490   -2.683150

 Total Charge           Charge          ....    0
 Multiplicity           Mult            ....    1
 Number of Electrons    NEL             ....   40
 Basis Dimension        Dim             ....  236

ORBITAL ENERGIES
----------------

  NO   OCC          E(Eh)            E(eV)
   0   2.0000     -24.869989      -676.7468
   1   2.0000     -19.232808      -523.3513
   2   2.0000     -10.458438      -284.5886
   3   2.0000     -10.306262      -280.4476
   4   2.0000     -10.281272      -279.7676
   5   2.0000      -1.461870       -39.7795
   6   2.0000      -1.135881       -30.9089
   7   2.0000      -0.918443       -24.9921
   8   2.0000      -0.805126       -21.9086
   9   2.0000      -0.758336       -20.6354
  10   2.0000      -0.669317       -18.2131
  11   2.0000      -0.655225       -17.8296
  12   2.0000      -0.611569       -16.6416
  13   2.0000      -0.566601       -15.4180
  14   2.0000      -0.535360       -14.5679
  15   2.0000      -0.497126       -13.5275
  16   2.0000      -0.474874       -12.9220
  17   2.0000      -0.467888       -12.7319
  18   2.0000      -0.438347       -11.9280
  19   2.0000      -0.381428       -10.3792
  20   0.0000       0.051880         1.4117
  21   0.0000       0.065314         1.7773
  22   0.0000       0.088536         2.4092
  23   0.0000       0.094925         2.5830
  24   0.0000       0.103005         2.8029

MULLIKEN ATOMIC CHARGES
-----------------------
   0 C :   -1.188013
   1 C :   -0.166982
   2 H :    0.270040
   3 H :    0.271006
   4 C :    0.630943
   5 F :   -0.213062
   6 O :   -0.572408
   7 H :    0.290679
   8 H :    0.336604
   9 H :    0.341192
Sum of atomic charges:    0.0000000

LOEWDIN ATOMIC CHARGES
----------------------
   0 C :   -0.093368
   1 C :   -0.156747
   2 H :    0.106676
   3 H :    0.118118
   4 C :   -0.489670
   5 F :    0.245291
   6 O :    0.049504
   7 H :    0.070185
   8 H :    0.076472
   9 H :    0.073540

  Mayer bond orders larger than 0.100000
B(  0-C ,  1-C ) :   0.6237 B(  0-C ,  4-C ) :   0.2034 B(  0-C ,  7-H ) :   0.9651
B(  0-C ,  8-H ) :   0.9589 B(  0-C ,  9-H ) :   0.9205 B(  1-C ,  2-H ) :   0.9567
B(  1-C ,  3-H ) :   0.9564 B(  1-C ,  4-C ) :   0.8591 B(  4-C ,  5-F ) :   0.9849
B(  4-C ,  6-O ) :   1.6554

Dispersion correction           -0.001949907
FINAL SINGLE POINT ENERGY      -292.427233457826

DIPOLE MOMENT
-------------
                                X             Y             Z
Electronic contribution:      5.04084      -1.19391       6.52885
Nuclear contribution   :     -6.06116       0.51860      -6.80802
                        -----------------------------------------
Total Dipole Moment    :     -1.02031      -0.67532      -0.27917
                        -----------------------------------------
Magnitude (a.u.)       :      1.25500
Magnitude (Debye)      :      3.18995

Rotational constants in cm-1:     0.276196     0.132056     0.105465
Rotational constants in MHz :  8280.156449  3958.940601  3161.775929

                             ****ORCA TERMINATED NORMALLY****
TOTAL RUN TIME: 0 days 0 hours 0 minutes 45 seconds 571 msec
