                         Program Version 5.0.0 -  RELEASE  -
|  1> !wB97X-D3 RIJCOSX def2-TZVPD def2/J TightSCF
|  2>
|  3> *xyz 0 1
|  4> C          3.34350        3.35457       -3.59200
|  5> C          2.95263        1.86308       -3.57485
|  6> C          4.25587        3.70385       -4.72605
|  7> C          3.73403        4.29378       -5.80077
|  8> N          5.51504        3.40725       -4.63718
|  9> H          6.14919        3.60120       -5.39905
| 10> H          5.81358        2.89950       -3.80879
| 11> H          2.74138        4.51311       -5.82470
| 12> H          4.28755        4.52126       -6.61434
| 13> H          3.86125        3.59725       -2.66298
| 14> H          2.44649        3.97346       -3.65656
| 15> H          2.44395        1.61721       -4.48352
| 16> H          2.30781        1.67290       -2.74242
| 17> H          3.83491        1.26414       -3.48670
| 18> *
| 19> %MaxCore 64000
| 20>
| 21> %pal nprocs 4
| 22> end
| 23>
| 24> %scf
| 25>   MaxIter 150
| 26> end
| 27>
| 28>
| 29>                          ****END OF INPUT****

CARTESIAN COORDINATES (ANGSTROEM)
---------------------------------
  C      3.343500    3.354570   -3.592000
  C      2.952630    1.863080   -3.574850
  C      4.255870    3.703850   -4.726050
  C      3.734030    4.293780   -5.800770
  N      5.515040    3.407250   -4.637180
  H      6.149190    3.601200   -5.399050
  H      5.813580    2.899500   -3.808790
  H      2.741380    4.513110   -5.824700
  H      4.287550    4.521260   -6.614340
  H      3.861250    3.597250   -2.662980
  H      2.446490    3.973460   -3.656560
  H      2.443950    1.617210   -4.483520
  H      2.307810    1.672900   -2.742420
  H      3.834910    1.264140   -3.486700

 Total Charge           Charge          ....    0
 Multiplicity           Mult            ....    1
 Number of Electrons    NEL             ....   40
 Basis Dimension        Dim             ....  266

ORBITAL ENERGIES
----------------

  NO   OCC          E(Eh)            E(eV)
   0   2.0000     -14.424323      -392.5058
   1   2.0000     -10.295676      -280.1596
   2   2.0000     -10.274501      -279.5834
   3   2.0000     -10.259596      -279.1778
   4   2.0000     -10.202795      -277.6322
   5   2.0000      -1.054930       -28.7061
   6   2.0000      -0.894637       -24.3443
   7   2.0000      -0.828078       -22.5332
   8   2.0000      -0.747618       -20.3437
   9   2.0000      -0.675517       -18.3817
  10   2.0000      -0.634881       -17.2760
  11   2.0000      -0.581582       -15.8257
  12   2.0000      -0.537492       -14.6259
  13   2.0000      -0.520886       -14.1740
  14   2.0000      -0.490710       -13.3529
  15   2.0000      -0.479783       -13.0555
  16   2.0000      -0.448750       -12.2111
  17   2.0000      -0.428117       -11.6497
  18   2.0000      -0.426113       -11.5951
  19   2.0000      -0.274534        -7.4705
  20   0.0000       0.066972         1.8224
  21   0.0000       0.092380         2.5138
  22   0.0000       0.097215         2.6453
  23   0.0000       0.099325         2.7028
  24   0.0000       0.124474         3.3871

MULLIKEN ATOMIC CHARGES
-----------------------
   0 C :   -0.522154
   1 C :   -1.052972
   2 C :    1.048617
   3 C :   -1.528260
   4 N :   -0.485642
   5 H :    0.182219
   6 H :    0.201550
   7 H :    0.312787
   8 H :    0.347236
   9 H :    0.302982
  10 H :    0.259372
  11 H :    0.320124
  12 H :    0.309669
  13 H :    0.304472
Sum of atomic charges:    0.0000000

LOEWDIN ATOMIC CHARGES
----------------------
   0 C :   -0.201288
   1 C :   -0.090996
   2 C :   -0.511217
   3 C :    0.016825
   4 N :    0.102286
   5 H :    0.119682
   6 H :    0.115816
   7 H :    0.020368
   8 H :    0.015446
   9 H :    0.108474
  10 H :    0.110054
  11 H :    0.071169
  12 H :    0.062492
  13 H :    0.060891

  Mayer bond orders larger than 0.100000
B(  0-C ,  1-C ) :   0.6642 B(  0-C ,  2-C ) :   0.7442 B(  0-C ,  4-N ) :   0.1288
B(  0-C ,  9-H ) :   0.9736 B(  0-C , 10-H ) :   0.9788 B(  1-C ,  2-C ) :   0.1042
B(  1-C , 11-H ) :   0.9869 B(  1-C , 12-H ) :   0.9575 B(  1-C , 13-H ) :   0.9309
B(  2-C ,  3-C ) :   0.9215 B(  2-C ,  4-N ) :   1.0277 B(  2-C ,  8-H ) :  -0.1143
B(  3-C ,  4-N ) :   0.1328 B(  3-C ,  7-H ) :   0.9756 B(  3-C ,  8-H ) :   0.9749
B(  4-N ,  5-H ) :   1.0206 B(  4-N ,  6-H ) :   0.9922

Dispersion correction           -0.003012613
FINAL SINGLE POINT ENERGY      -212.585459995809

DIPOLE MOMENT
-------------
                                X             Y             Z
Electronic contribution:      2.32913       1.47047      -0.84559
Nuclear contribution   :     -1.79713      -1.86925       1.28073
                        -----------------------------------------
Total Dipole Moment    :      0.53201      -0.39877       0.43514
                        -----------------------------------------
Magnitude (a.u.)       :      0.79461
Magnitude (Debye)      :      2.01973

Rotational constants in cm-1:     0.269040     0.129645     0.102087
Rotational constants in MHz :  8065.609820  3886.645139  3060.489045

                             ****ORCA TERMINATED NORMALLY****
TOTAL RUN TIME: 0 days 0 hours 1 minutes 1 seconds 538 msec
