                         Program Version 5.0.0 -  RELEASE  -
|  1> !wB97X-D3 RIJCOSX def2-TZVPD def2/J TightSCF
|  2>
|  3> *xyz 0 1
|  4> C          2.95263        1.86308       -3.57485
|  5> C          4.12921        0.89839       -3.41895
|  6> H          3.73369       -0.10060       -3.23763
|  7> H          4.71910        0.86256       -4.33901
|  8> C          5.01734        1.31521       -2.22130
|  9> O          4.73706        0.85411       -1.12283
| 10> F          5.92815        2.16811       -2.49136
| 11> H          2.35067        1.56005       -4.40594
| 12> H          3.32277        2.85258       -3.74453
| 13> H          2.36134        1.85149       -2.68315
| 14> *
| 15> %MaxCore 64000
| 16>
| 17> %pal nprocs 4
| 18> end
| 19>
| 20> %scf
| 21>   MaxIter 150
| 22> end
| 23>
| 24>
| 25>                          ****END OF INPUT****

CARTESIAN COORDINATES (ANGSTROEM)
---------------------------------
  C      2.952630    1.863080   -3.574850
  C      4.129210    0.898390   -3.418950
  H      3.733690   -0.100600   -3.237630
  H      4.719100    0.862560   -4.339010
  C      5.017340    1.315210   -2.221300
  O      4.737060    0.854110   -1.122830
  F      5.928150    2.168110   -2.491360
  H      2.350670    1.560050   -4.405940
  H      3.322770    2.852580   -3.744530
  H      2.361340    1.851490   -2.683150

 Total Charge           Charge          ....    0
 Multiplicity           Mult            ....    1
 Number of Electrons    NEL             ....   40
 Basis Dimension        Dim             ....  236

ORBITAL ENERGIES
----------------

  NO   OCC          E(Eh)            E(eV)
   0   2.0000     -24.848635      -676.1657
   1   2.0000     -19.241958      -523.6003
   2   2.0000     -10.453866      -284.4642
   3   2.0000     -10.305805      -280.4352
   4   2.0000     -10.281490      -279.7736
   5   2.0000      -1.421201       -38.6728
   6   2.0000      -1.169647       -31.8277
   7   2.0000      -0.918144       -24.9840
   8   2.0000      -0.794558       -21.6210
   9   2.0000      -0.744538       -20.2599
  10   2.0000      -0.648794       -17.6546
  11   2.0000      -0.634570       -17.2675
  12   2.0000      -0.611347       -16.6356
  13   2.0000      -0.565757       -15.3950
  14   2.0000      -0.538791       -14.6612
  15   2.0000      -0.501559       -13.6481
  16   2.0000      -0.483051       -13.1445
  17   2.0000      -0.467790       -12.7292
  18   2.0000      -0.455074       -12.3832
  19   2.0000      -0.391938       -10.6652
  20   0.0000       0.055764         1.5174
  21   0.0000       0.067485         1.8364
  22   0.0000       0.088791         2.4161
  23   0.0000       0.095996         2.6122
  24   0.0000       0.102359         2.7853

MULLIKEN ATOMIC CHARGES
-----------------------
   0 C :   -1.183970
   1 C :   -0.172936
   2 H :    0.255346
   3 H :    0.286450
   4 C :    0.620251
   5 O :   -0.540711
   6 F :   -0.231276
   7 H :    0.289888
   8 H :    0.337012
   9 H :    0.339946
Sum of atomic charges:   -0.0000000

LOEWDIN ATOMIC CHARGES
----------------------
   0 C :   -0.093356
   1 C :   -0.155001
   2 H :    0.114520
   3 H :    0.110950
   4 C :   -0.483205
   5 O :    0.105114
   6 F :    0.180714
   7 H :    0.070174
   8 H :    0.073154
   9 H :    0.076935

  Mayer bond orders larger than 0.100000
B(  0-C ,  1-C ) :   0.6255 B(  0-C ,  4-C ) :   0.1981 B(  0-C ,  7-H ) :   0.9650
B(  0-C ,  8-H ) :   0.9232 B(  0-C ,  9-H ) :   0.9555 B(  1-C ,  2-H ) :   0.9708
B(  1-C ,  3-H ) :   0.9411 B(  1-C ,  4-C ) :   0.8561 B(  4-C ,  5-O ) :   1.7076
B(  4-C ,  6-F ) :   0.9275

Dispersion correction           -0.001946743
FINAL SINGLE POINT ENERGY      -292.443646399088

DIPOLE MOMENT
-------------
                                X             Y             Z
Electronic contribution:      7.04161       1.01338       4.22375
Nuclear contribution   :     -7.35982      -0.91407      -5.31589
                        -----------------------------------------
Total Dipole Moment    :     -0.31821       0.09930      -1.09215
                        -----------------------------------------
Magnitude (a.u.)       :      1.14188
Magnitude (Debye)      :      2.90244

Rotational constants in cm-1:     0.275433     0.132201     0.105422
Rotational constants in MHz :  8257.268192  3963.279062  3160.465566

                             ****ORCA TERMINATED NORMALLY****
TOTAL RUN TIME: 0 days 0 hours 0 minutes 43 seconds 149 msec
