                         Program Version 5.0.0 -  RELEASE  -
|  1> !wB97X-D3 RIJCOSX def2-TZVPD def2/J TightSCF
|  2>
|  3> *xyz 0 1
|  4> C          3.34350        3.35457       -3.59200
|  5> C          2.95263        1.86308       -3.57485
|  6> C          4.25587        3.70385       -4.72605
|  7> N          3.73403        4.29378       -5.80077
|  8> C          5.51504        3.40725       -4.63718
|  9> H          6.14919        3.60120       -5.39905
| 10> H          5.81358        2.89950       -3.80879
| 11> H          2.74138        4.51311       -5.82470
| 12> H          4.28755        4.52126       -6.61434
| 13> H          3.86125        3.59725       -2.66298
| 14> H          2.44649        3.97346       -3.65656
| 15> H          2.44395        1.61721       -4.48352
| 16> H          2.30781        1.67290       -2.74242
| 17> H          3.83491        1.26414       -3.48670
| 18> *
| 19> %MaxCore 64000
| 20>
| 21> %pal nprocs 4
| 22> end
| 23>
| 24> %scf
| 25>   MaxIter 150
| 26> end
| 27>
| 28>
| 29>                          ****END OF INPUT****

CARTESIAN COORDINATES (ANGSTROEM)
---------------------------------
  C      3.343500    3.354570   -3.592000
  C      2.952630    1.863080   -3.574850
  C      4.255870    3.703850   -4.726050
  N      3.734030    4.293780   -5.800770
  C      5.515040    3.407250   -4.637180
  H      6.149190    3.601200   -5.399050
  H      5.813580    2.899500   -3.808790
  H      2.741380    4.513110   -5.824700
  H      4.287550    4.521260   -6.614340
  H      3.861250    3.597250   -2.662980
  H      2.446490    3.973460   -3.656560
  H      2.443950    1.617210   -4.483520
  H      2.307810    1.672900   -2.742420
  H      3.834910    1.264140   -3.486700

 Total Charge           Charge          ....    0
 Multiplicity           Mult            ....    1
 Number of Electrons    NEL             ....   40
 Basis Dimension        Dim             ....  266

ORBITAL ENERGIES
----------------

  NO   OCC          E(Eh)            E(eV)
   0   2.0000     -14.420475      -392.4011
   1   2.0000     -10.292914      -280.0844
   2   2.0000     -10.273898      -279.5670
   3   2.0000     -10.257371      -279.1173
   4   2.0000     -10.201179      -277.5882
   5   2.0000      -1.040108       -28.3028
   6   2.0000      -0.897036       -24.4096
   7   2.0000      -0.831989       -22.6396
   8   2.0000      -0.748780       -20.3753
   9   2.0000      -0.668922       -18.2023
  10   2.0000      -0.622350       -16.9350
  11   2.0000      -0.585452       -15.9309
  12   2.0000      -0.539690       -14.6857
  13   2.0000      -0.513149       -13.9635
  14   2.0000      -0.490615       -13.3503
  15   2.0000      -0.480580       -13.0772
  16   2.0000      -0.444089       -12.0843
  17   2.0000      -0.431190       -11.7333
  18   2.0000      -0.423492       -11.5238
  19   2.0000      -0.279675        -7.6103
  20   0.0000       0.068205         1.8560
  21   0.0000       0.092404         2.5144
  22   0.0000       0.095326         2.5939
  23   0.0000       0.101043         2.7495
  24   0.0000       0.125700         3.4205

MULLIKEN ATOMIC CHARGES
-----------------------
   0 C :   -0.472709
   1 C :   -1.078237
   2 C :    1.042460
   3 N :   -0.468403
   4 C :   -1.549953
   5 H :    0.353910
   6 H :    0.336228
   7 H :    0.193450
   8 H :    0.154649
   9 H :    0.278140
  10 H :    0.279601
  11 H :    0.299551
  12 H :    0.305105
  13 H :    0.326209
Sum of atomic charges:   -0.0000000

LOEWDIN ATOMIC CHARGES
----------------------
   0 C :   -0.200119
   1 C :   -0.090059
   2 C :   -0.499080
   3 N :    0.093455
   4 C :    0.008758
   5 H :    0.026543
   6 H :    0.033657
   7 H :    0.105071
   8 H :    0.108629
   9 H :    0.112402
  10 H :    0.104208
  11 H :    0.068670
  12 H :    0.061861
  13 H :    0.066005

  Mayer bond orders larger than 0.100000
B(  0-C ,  1-C ) :   0.6330 B(  0-C ,  2-C ) :   0.6557 B(  0-C ,  4-C ) :   0.1201
B(  0-C ,  9-H ) :   0.9593 B(  0-C , 10-H ) :   1.0300 B(  1-C ,  2-C ) :   0.1330
B(  1-C , 11-H ) :   0.9711 B(  1-C , 12-H ) :   0.9501 B(  1-C , 13-H ) :   0.9446
B(  2-C ,  3-N ) :   0.9176 B(  2-C ,  4-C ) :   1.0231 B(  3-N ,  4-C ) :   0.1239
B(  3-N ,  7-H ) :   1.0122 B(  3-N ,  8-H ) :   1.0620 B(  4-C ,  5-H ) :   0.9667
B(  4-C ,  6-H ) :   0.9358

Dispersion correction           -0.002997876
FINAL SINGLE POINT ENERGY      -212.585994954922

DIPOLE MOMENT
-------------
                                X             Y             Z
Electronic contribution:      0.77761       2.26226      -1.85484
Nuclear contribution   :     -1.38463      -2.07457       1.55023
                        -----------------------------------------
Total Dipole Moment    :     -0.60702       0.18769      -0.30461
                        -----------------------------------------
Magnitude (a.u.)       :      0.70462
Magnitude (Debye)      :      1.79099

Rotational constants in cm-1:     0.272312     0.128195     0.101724
Rotational constants in MHz :  8163.717141  3843.180148  3049.598073

                             ****ORCA TERMINATED NORMALLY****
TOTAL RUN TIME: 0 days 0 hours 1 minutes 1 seconds 10 msec
