                         Program Version 5.0.0 -  RELEASE  -
|  1> !wB97X-D3 RIJCOSX def2-TZVPD def2/J TightSCF xyzfile
|  2>
|  3> *xyzfile 0 1 D1.xyz
|  4>
|  5> %MaxCore 64000
|  6>
|  7> %pal nprocs 18
|  8> end
|  9>
| 10> %scf
| 11>   MaxIter 150
| 12> end
| 13>
| 14>
| 15>                          ****END OF INPUT****

CARTESIAN COORDINATES (ANGSTROEM)
---------------------------------
  C      3.343500    3.354571   -3.591998
  C      2.952633    1.863077   -3.574849
  C      4.129209    0.898394   -3.418950
  H      3.733687   -0.100605   -3.237633
  H      4.719095    0.862556   -4.339005
  C      5.017344    1.315212   -2.221305
  C      4.255868    3.703851   -4.726054
  C      3.734032    4.293783   -5.800770
  N      5.515039    3.407255   -4.637185
  H      6.149187    3.601203   -5.399053
  H      5.813584    2.899504   -3.808785
  H      2.741380    4.513109   -5.824701
  H      4.287548    4.521260   -6.614341
  H      2.278938    1.735250   -2.725496
  H      2.377466    1.625787   -4.475869
  F      4.737055    0.854112   -1.122825
  O      5.928146    2.168108   -2.491365
  H      3.861246    3.597252   -2.662979
  H      2.446493    3.973461   -3.656556

 Total Charge           Charge          ....    0
 Multiplicity           Mult            ....    1
 Number of Electrons    NEL             ....   70
 Basis Dimension        Dim             ....  429

ORBITAL ENERGIES
----------------

  NO   OCC          E(Eh)            E(eV)
   0   2.0000     -24.892823      -677.3681
   1   2.0000     -19.261680      -524.1369
   2   2.0000     -14.386096      -391.4656
   3   2.0000     -10.487734      -285.3857
   4   2.0000     -10.316336      -280.7218
   5   2.0000     -10.299103      -280.2528
   6   2.0000     -10.286177      -279.9011
   7   2.0000     -10.277398      -279.6622
   8   2.0000     -10.192641      -277.3559
   9   2.0000      -1.484008       -40.3819
  10   2.0000      -1.175560       -31.9886
  11   2.0000      -1.033496       -28.1229
  12   2.0000      -0.941415       -25.6172
  13   2.0000      -0.867021       -23.5928
  14   2.0000      -0.823671       -22.4132
  15   2.0000      -0.791338       -21.5334
  16   2.0000      -0.742240       -20.1974
  17   2.0000      -0.691998       -18.8302
  18   2.0000      -0.683235       -18.5918
  19   2.0000      -0.654167       -17.8008
  20   2.0000      -0.651046       -17.7159
  21   2.0000      -0.610864       -16.6225
  22   2.0000      -0.587493       -15.9865
  23   2.0000      -0.560928       -15.2636
  24   2.0000      -0.543364       -14.7857
  25   2.0000      -0.530193       -14.4273
  26   2.0000      -0.492049       -13.3893
  27   2.0000      -0.481534       -13.1032
  28   2.0000      -0.471536       -12.8311
  29   2.0000      -0.469150       -12.7662
  30   2.0000      -0.452621       -12.3164
  31   2.0000      -0.423563       -11.5257
  32   2.0000      -0.417781       -11.3684
  33   2.0000      -0.400103       -10.8874
  34   2.0000      -0.259962        -7.0739
  35   0.0000       0.027728         0.7545
  36   0.0000       0.057384         1.5615
  37   0.0000       0.080338         2.1861
  38   0.0000       0.082723         2.2510
  39   0.0000       0.086517         2.3542

MULLIKEN ATOMIC CHARGES
-----------------------
   0 C :   -0.461592
   1 C :   -0.583005
   2 C :   -0.347658
   3 H :    0.289851
   4 H :    0.319347
   5 C :    0.596761
   6 C :    0.806811
   7 C :   -1.649495
   8 N :   -0.388604
   9 H :    0.125840
  10 H :    0.316913
  11 H :    0.330836
  12 H :    0.358106
  13 H :    0.280363
  14 H :    0.293785
  15 F :   -0.241986
  16 O :   -0.651115
  17 H :    0.311394
  18 H :    0.293449
Sum of atomic charges:    0.0000000

LOEWDIN ATOMIC CHARGES
----------------------
   0 C :   -0.142293
   1 C :   -0.173833
   2 C :   -0.090858
   3 H :    0.115274
   4 H :    0.125604
   5 C :   -0.429516
   6 C :   -0.489537
   7 C :    0.012289
   8 N :    0.114112
   9 H :    0.123624
  10 H :    0.018406
  11 H :    0.015162
  12 H :    0.013895
  13 H :    0.112175
  14 H :    0.123489
  15 F :    0.269798
  16 O :    0.048796
  17 H :    0.114374
  18 H :    0.119037

  Mayer bond orders larger than 0.100000
B(  0-C ,  1-C ) :   0.8050 B(  0-C ,  6-C ) :   0.8345 B(  0-C , 17-H ) :   0.8617
B(  0-C , 18-H ) :   1.0121 B(  1-C ,  2-C ) :   0.8820 B(  1-C ,  5-C ) :   0.2080
B(  1-C ,  6-C ) :   0.2125 B(  1-C , 13-H ) :   0.9240 B(  1-C , 14-H ) :   0.9211
B(  2-C ,  3-H ) :   0.9676 B(  2-C ,  4-H ) :   0.9207 B(  2-C ,  5-C ) :   0.8470
B(  2-C ,  8-N ) :   0.1899 B(  5-C , 15-F ) :   0.9605 B(  5-C , 16-O ) :   1.6032
B(  6-C ,  7-C ) :   0.9277 B(  6-C ,  8-N ) :   1.0903 B(  7-C ,  8-N ) :   0.1105
B(  7-C , 11-H ) :   0.9772 B(  7-C , 12-H ) :   0.9273 B(  8-N ,  9-H ) :   1.0508
B(  8-N , 10-H ) :   0.8460

Dispersion correction           -0.006923573
FINAL SINGLE POINT ENERGY      -464.490346669322

DIPOLE MOMENT
-------------
                                X             Y             Z
Electronic contribution:      5.53118      -5.97792      10.58252
Nuclear contribution   :     -5.86483       4.68058     -10.07545
                        -----------------------------------------
Total Dipole Moment    :     -0.33365      -1.29734       0.50708
                        -----------------------------------------
Magnitude (a.u.)       :      1.43232
Magnitude (Debye)      :      3.64066

Rotational constants in cm-1:     0.107256     0.035474     0.030113
Rotational constants in MHz :  3215.453922  1063.481574   902.777619

                             ****ORCA TERMINATED NORMALLY****
TOTAL RUN TIME: 0 days 0 hours 0 minutes 55 seconds 768 msec
