                         Program Version 5.0.0 -  RELEASE  -
|  1> !wB97X-D3 RIJCOSX def2-TZVPD def2/J TightSCF xyzfile
|  2>
|  3> *xyzfile 0 1 D2.xyz
|  4>
|  5> %MaxCore 64000
|  6>
|  7> %pal nprocs 18
|  8> end
|  9>
| 10> %scf
| 11>   MaxIter 150
| 12> end
| 13>
| 14>
| 15>                          ****END OF INPUT****

CARTESIAN COORDINATES (ANGSTROEM)
---------------------------------
  C      3.343500    3.354571   -3.591998
  C      2.952633    1.863077   -3.574849
  C      4.129209    0.898394   -3.418950
  H      3.733687   -0.100605   -3.237633
  H      4.719095    0.862556   -4.339005
  C      5.017344    1.315212   -2.221305
  C      4.255868    3.703851   -4.726054
  N      3.734032    4.293783   -5.800770
  C      5.515039    3.407255   -4.637185
  H      6.149187    3.601203   -5.399053
  H      5.813584    2.899504   -3.808785
  H      2.741380    4.513109   -5.824701
  H      4.287548    4.521260   -6.614341
  H      2.278938    1.735250   -2.725496
  H      2.377466    1.625787   -4.475869
  F      4.737055    0.854112   -1.122825
  O      5.928146    2.168108   -2.491365
  H      3.861246    3.597252   -2.662979
  H      2.446493    3.973461   -3.656556

 Total Charge           Charge          ....    0
 Multiplicity           Mult            ....    1
 Number of Electrons    NEL             ....   70
 Basis Dimension        Dim             ....  429

ORBITAL ENERGIES
----------------

  NO   OCC          E(Eh)            E(eV)
   0   2.0000     -24.874419      -676.8674
   1   2.0000     -19.235552      -523.4260
   2   2.0000     -14.410373      -392.1262
   3   2.0000     -10.465558      -284.7823
   4   2.0000     -10.303592      -280.3750
   5   2.0000     -10.295049      -280.1425
   6   2.0000     -10.279448      -279.7180
   7   2.0000     -10.276403      -279.6351
   8   2.0000     -10.169789      -276.7340
   9   2.0000      -1.466220       -39.8979
  10   2.0000      -1.150357       -31.3028
  11   2.0000      -1.030845       -28.0507
  12   2.0000      -0.934870       -25.4391
  13   2.0000      -0.864549       -23.5256
  14   2.0000      -0.814790       -22.1716
  15   2.0000      -0.789158       -21.4741
  16   2.0000      -0.731153       -19.8957
  17   2.0000      -0.680105       -18.5066
  18   2.0000      -0.668315       -18.1858
  19   2.0000      -0.650334       -17.6965
  20   2.0000      -0.632315       -17.2062
  21   2.0000      -0.601233       -16.3604
  22   2.0000      -0.580668       -15.8008
  23   2.0000      -0.566458       -15.4141
  24   2.0000      -0.547109       -14.8876
  25   2.0000      -0.515464       -14.0265
  26   2.0000      -0.488501       -13.2928
  27   2.0000      -0.487311       -13.2604
  28   2.0000      -0.458149       -12.4669
  29   2.0000      -0.449573       -12.2335
  30   2.0000      -0.444355       -12.0915
  31   2.0000      -0.420149       -11.4328
  32   2.0000      -0.412708       -11.2304
  33   2.0000      -0.361599        -9.8396
  34   2.0000      -0.265694        -7.2299
  35   0.0000       0.045186         1.2296
  36   0.0000       0.063037         1.7153
  37   0.0000       0.077747         2.1156
  38   0.0000       0.085362         2.3228
  39   0.0000       0.087570         2.3829

MULLIKEN ATOMIC CHARGES
-----------------------
   0 C :   -0.496074
   1 C :   -0.562715
   2 C :   -0.371586
   3 H :    0.286401
   4 H :    0.378712
   5 C :    0.545031
   6 C :    0.901276
   7 N :   -0.463683
   8 C :   -1.675890
   9 H :    0.293139
  10 H :    0.552686
  11 H :    0.192851
  12 H :    0.154007
  13 H :    0.271765
  14 H :    0.267149
  15 F :   -0.260876
  16 O :   -0.595270
  17 H :    0.272709
  18 H :    0.310367
Sum of atomic charges:    0.0000000

LOEWDIN ATOMIC CHARGES
----------------------
   0 C :   -0.139662
   1 C :   -0.175759
   2 C :   -0.091658
   3 H :    0.113443
   4 H :    0.123561
   5 C :   -0.438891
   6 C :   -0.471509
   7 N :    0.086937
   8 C :    0.025968
   9 H :    0.038597
  10 H :   -0.038827
  11 H :    0.100345
  12 H :    0.106773
  13 H :    0.111424
  14 H :    0.120021
  15 F :    0.259396
  16 O :    0.039919
  17 H :    0.116923
  18 H :    0.113000

  Mayer bond orders larger than 0.100000
B(  0-C ,  1-C ) :   0.7929 B(  0-C ,  6-C ) :   0.7154 B(  0-C ,  7-N ) :   0.1169
B(  0-C , 17-H ) :   0.9031 B(  0-C , 18-H ) :   1.0189 B(  1-C ,  2-C ) :   0.8788
B(  1-C ,  5-C ) :   0.2185 B(  1-C ,  6-C ) :   0.2085 B(  1-C , 13-H ) :   0.9224
B(  1-C , 14-H ) :   0.9413 B(  2-C ,  3-H ) :   0.9644 B(  2-C ,  4-H ) :   0.8888
B(  2-C ,  5-C ) :   0.8453 B(  2-C ,  8-C ) :   0.1525 B(  5-C , 15-F ) :   0.9390
B(  5-C , 16-O ) :   1.6893 B(  6-C ,  7-N ) :   0.8678 B(  6-C ,  8-C ) :   0.7901
B(  6-C ,  9-H ) :  -0.1864 B(  7-N ,  8-C ) :   0.1185 B(  7-N , 11-H ) :   1.0217
B(  7-N , 12-H ) :   1.0610 B(  8-C ,  9-H ) :   1.1444 B(  8-C , 10-H ) :   0.8722
B( 10-H , 16-O ) :  -0.2702

Dispersion correction           -0.006784691
FINAL SINGLE POINT ENERGY      -464.465195780522

DIPOLE MOMENT
-------------
                                X             Y             Z
Electronic contribution:      4.29767      -5.17097       9.59283
Nuclear contribution   :     -5.64491       4.57111      -9.93176
                        -----------------------------------------
Total Dipole Moment    :     -1.34723      -0.59986      -0.33894
                        -----------------------------------------
Magnitude (a.u.)       :      1.51319
Magnitude (Debye)      :      3.84623

Rotational constants in cm-1:     0.109825     0.034347     0.029470
Rotational constants in MHz :  3292.465653  1029.684117   883.494260

                             ****ORCA TERMINATED NORMALLY****
TOTAL RUN TIME: 0 days 0 hours 1 minutes 1 seconds 738 msec
