                         Program Version 5.0.0 -  RELEASE  -
|  1> !wB97X-D3 RIJCOSX def2-SVPD def2/J TightSCF CPCM(Water)
|  2> *xyz -1 1
|  3> C         -0.87096        0.24804       -2.66280
|  4> C         -0.47749        0.60819       -4.10105
|  5> H          0.20677        1.45830       -4.11875
|  6> H         -1.36844        0.92942       -4.64785
|  7> C          0.18467       -0.50664       -4.91676
|  8> O         -0.15869       -1.70109       -4.65798
|  9> O          1.05594       -0.17441       -5.74037
| 10> C          0.10016       -0.67355       -1.91581
| 11> H         -1.00105        1.18104       -2.10407
| 12> H         -1.84465       -0.24659       -2.66328
| 13> H          0.22336       -1.58297       -2.46597
| 14> H         -0.29270       -0.89423       -0.94532
| 15> H          1.04759       -0.18666       -1.81480
| 16> *
| 17>
| 18> %MaxCore 64000
| 19>
| 20> %pal nprocs 18
| 21> end
| 22>
| 23> %scf
| 24>   MaxIter 150
| 25> end
| 26>
| 27>
| 28>                          ****END OF INPUT****

CARTESIAN COORDINATES (ANGSTROEM)
---------------------------------
  C     -0.870960    0.248040   -2.662800
  C     -0.477490    0.608190   -4.101050
  H      0.206770    1.458300   -4.118750
  H     -1.368440    0.929420   -4.647850
  C      0.184670   -0.506640   -4.916760
  O     -0.158690   -1.701090   -4.657980
  O      1.055940   -0.174410   -5.740370
  C      0.100160   -0.673550   -1.915810
  H     -1.001050    1.181040   -2.104070
  H     -1.844650   -0.246590   -2.663280
  H      0.223360   -1.582970   -2.465970
  H     -0.292700   -0.894230   -0.945320
  H      1.047590   -0.186660   -1.814800

 Total Charge           Charge          ....   -1
 Multiplicity           Mult            ....    1
 Number of Electrons    NEL             ....   48
 Basis Dimension        Dim             ....  182

ORBITAL ENERGIES
----------------

  NO   OCC          E(Eh)            E(eV)
   0   2.0000     -19.178951      -521.8858
   1   2.0000     -19.173254      -521.7308
   2   2.0000     -10.365787      -282.0674
   3   2.0000     -10.274093      -279.5723
   4   2.0000     -10.268861      -279.4299
   5   2.0000     -10.254881      -279.0495
   6   2.0000      -1.123318       -30.5670
   7   2.0000      -1.026677       -27.9373
   8   2.0000      -0.882513       -24.0144
   9   2.0000      -0.792844       -21.5744
  10   2.0000      -0.691119       -18.8063
  11   2.0000      -0.582600       -15.8533
  12   2.0000      -0.553470       -15.0607
  13   2.0000      -0.546451       -14.8697
  14   2.0000      -0.515037       -14.0149
  15   2.0000      -0.505514       -13.7557
  16   2.0000      -0.485633       -13.2147
  17   2.0000      -0.456057       -12.4099
  18   2.0000      -0.433083       -11.7848
  19   2.0000      -0.421487       -11.4693
  20   2.0000      -0.406619       -11.0647
  21   2.0000      -0.340299        -9.2600
  22   2.0000      -0.327835        -8.9208
  23   2.0000      -0.321291        -8.7428
  24   0.0000       0.095339         2.5943
  25   0.0000       0.118576         3.2266
  26   0.0000       0.123064         3.3487
  27   0.0000       0.134683         3.6649
  28   0.0000       0.150147         4.0857

MULLIKEN ATOMIC CHARGES
-----------------------
   0 C :   -0.368366
   1 C :    0.093878
   2 H :    0.049226
   3 H :    0.007428
   4 C :    0.353448
   5 O :   -0.777905
   6 O :   -0.700608
   7 C :    0.663540
   8 H :   -0.104842
   9 H :   -0.026331
  10 H :   -0.138683
  11 H :   -0.018350
  12 H :   -0.032434
Sum of atomic charges:   -1.0000000

LOEWDIN ATOMIC CHARGES
----------------------
   0 C :   -0.072909
   1 C :    0.007609
   2 H :    0.012889
   3 H :    0.027998
   4 C :   -0.308453
   5 O :   -0.359301
   6 O :   -0.356126
   7 C :    0.112021
   8 H :    0.016241
   9 H :    0.014749
  10 H :   -0.058124
  11 H :   -0.020664
  12 H :   -0.015931

  Mayer bond orders larger than 0.100000
B(  0-C ,  1-C ) :   1.2111 B(  0-C ,  2-H ) :   0.1116 B(  0-C ,  3-H ) :   0.1178
B(  0-C ,  7-C ) :   1.3170 B(  0-C ,  8-H ) :   0.9450 B(  0-C ,  9-H ) :   0.9024
B(  0-C , 10-H ) :   0.1903 B(  0-C , 11-H ) :   0.2034 B(  0-C , 12-H ) :   0.1819
B(  1-C ,  2-H ) :   0.8537 B(  1-C ,  3-H ) :   0.8365 B(  1-C ,  4-C ) :   1.0750
B(  1-C ,  8-H ) :   0.1068 B(  1-C ,  9-H ) :   0.1025 B(  2-H ,  4-C ) :   0.1725
B(  4-C ,  5-O ) :   1.4633 B(  4-C ,  6-O ) :   1.4381 B(  5-O ,  6-O ) :   0.1446
B(  7-C , 10-H ) :   0.8723 B(  7-C , 11-H ) :   0.7419 B(  7-C , 12-H ) :   0.7809

Dispersion correction           -0.003258802
FINAL SINGLE POINT ENERGY      -306.966265678304

DIPOLE MOMENT
-------------
                                X             Y             Z
Electronic contribution:      1.47645      -1.48756      -6.06617
Nuclear contribution   :     -2.71698       3.10699       8.64748
                        -----------------------------------------
Total Dipole Moment    :     -1.24053       1.61943       2.58131
                        -----------------------------------------
Magnitude (a.u.)       :      3.29008
Magnitude (Debye)      :      8.36272

Rotational constants in cm-1:     0.212307     0.084237     0.072775
Rotational constants in MHz :  6364.813744  2525.362351  2181.751235

                             ****ORCA TERMINATED NORMALLY****
TOTAL RUN TIME: 0 days 0 hours 0 minutes 10 seconds 819 msec
