                         Program Version 5.0.0 -  RELEASE  -
|  1> !wB97X-D3 RIJCOSX def2-SVPD def2/J TightSCF CPCM(Water)
|  2> *xyz 1 1
|  3> C          2.48645       -2.67712       -2.56345
|  4> C          3.03764       -2.36672       -3.92351
|  5> N          2.28036       -2.45441       -4.96769
|  6> N          4.32174       -2.01793       -4.01664
|  7> H          4.87994       -1.91167       -3.17382
|  8> H          4.71015       -1.67088       -4.88356
|  9> H          1.27042       -2.41265       -4.86614
| 10> H          2.58183       -2.05528       -5.84688
| 11> C          2.49799       -1.46946       -1.61030
| 12> C          1.58284       -0.32199       -2.04262
| 13> H          2.19308       -1.83391       -0.62542
| 14> H          3.52336       -1.10398       -1.49039
| 15> H          1.47259       -3.05153       -2.69437
| 16> H          3.08320       -3.49064       -2.14147
| 17> H          1.88480        0.03130       -3.00642
| 18> H          1.65140        0.47571       -1.33278
| 19> H          0.57235       -0.67052       -2.09099
| 20> *
| 21>
| 22> %MaxCore 64000
| 23>
| 24> %pal nprocs 18
| 25> end
| 26>
| 27> %scf
| 28>   MaxIter 150
| 29> end
| 30>
| 31>
| 32>                          ****END OF INPUT****

CARTESIAN COORDINATES (ANGSTROEM)
---------------------------------
  C      2.486450   -2.677120   -2.563450
  C      3.037640   -2.366720   -3.923510
  N      2.280360   -2.454410   -4.967690
  N      4.321740   -2.017930   -4.016640
  H      4.879940   -1.911670   -3.173820
  H      4.710150   -1.670880   -4.883560
  H      1.270420   -2.412650   -4.866140
  H      2.581830   -2.055280   -5.846880
  C      2.497990   -1.469460   -1.610300
  C      1.582840   -0.321990   -2.042620
  H      2.193080   -1.833910   -0.625420
  H      3.523360   -1.103980   -1.490390
  H      1.472590   -3.051530   -2.694370
  H      3.083200   -3.490640   -2.141470
  H      1.884800    0.031300   -3.006420
  H      1.651400    0.475710   -1.332780
  H      0.572350   -0.670520   -2.090990

 Total Charge           Charge          ....    1
 Multiplicity           Mult            ....    1
 Number of Electrons    NEL             ....   48
 Basis Dimension        Dim             ....  208

ORBITAL ENERGIES
----------------

  NO   OCC          E(Eh)            E(eV)
   0   2.0000     -14.501229      -394.5985
   1   2.0000     -14.497325      -394.4923
   2   2.0000     -10.437859      -284.0286
   3   2.0000     -10.319011      -280.7946
   4   2.0000     -10.302384      -280.3421
   5   2.0000     -10.275909      -279.6217
   6   2.0000      -1.134772       -30.8787
   7   2.0000      -1.033913       -28.1342
   8   2.0000      -0.923598       -25.1324
   9   2.0000      -0.840001       -22.8576
  10   2.0000      -0.767779       -20.8923
  11   2.0000      -0.721541       -19.6341
  12   2.0000      -0.694380       -18.8950
  13   2.0000      -0.668129       -18.1807
  14   2.0000      -0.615163       -16.7394
  15   2.0000      -0.589124       -16.0309
  16   2.0000      -0.567613       -15.4455
  17   2.0000      -0.525154       -14.2902
  18   2.0000      -0.518462       -14.1081
  19   2.0000      -0.505529       -13.7561
  20   2.0000      -0.448658       -12.2086
  21   2.0000      -0.445098       -12.1117
  22   2.0000      -0.440180       -11.9779
  23   2.0000      -0.407546       -11.0899
  24   0.0000       0.043653         1.1879
  25   0.0000       0.088687         2.4133
  26   0.0000       0.118545         3.2258
  27   0.0000       0.121566         3.3080
  28   0.0000       0.129481         3.5234

MULLIKEN ATOMIC CHARGES
-----------------------
   0 C :    0.029082
   1 C :    0.588119
   2 N :    0.021759
   3 N :   -0.041930
   4 H :    0.099727
   5 H :   -0.065773
   6 H :    0.085475
   7 H :   -0.026024
   8 C :   -0.435888
   9 C :    0.621092
  10 H :   -0.023571
  11 H :   -0.016868
  12 H :    0.132623
  13 H :    0.071669
  14 H :   -0.058922
  15 H :   -0.032069
  16 H :    0.051499
Sum of atomic charges:    1.0000000

LOEWDIN ATOMIC CHARGES
----------------------
   0 C :    0.046366
   1 C :   -0.042930
   2 N :    0.286773
   3 N :    0.289612
   4 H :    0.052994
   5 H :    0.054701
   6 H :    0.065327
   7 H :    0.062170
   8 C :   -0.052129
   9 C :    0.129479
  10 H :    0.031901
  11 H :    0.022879
  12 H :    0.039162
  13 H :    0.051953
  14 H :   -0.017381
  15 H :   -0.011521
  16 H :   -0.009357

  Mayer bond orders larger than 0.100000
B(  0-C ,  1-C ) :   1.1668 B(  0-C ,  8-C ) :   1.1781 B(  0-C , 10-H ) :   0.1071
B(  0-C , 11-H ) :   0.1179 B(  0-C , 12-H ) :   0.8034 B(  0-C , 13-H ) :   0.8549
B(  1-C ,  2-N ) :   1.0908 B(  1-C ,  3-N ) :   1.1007 B(  1-C ,  5-H ) :  -0.1276
B(  1-C , 12-H ) :   0.1650 B(  1-C , 13-H ) :   0.1286 B(  2-N ,  3-N ) :   0.1489
B(  2-N ,  6-H ) :   1.0331 B(  2-N ,  7-H ) :   1.1776 B(  3-N ,  4-H ) :   1.0637
B(  3-N ,  5-H ) :   1.2833 B(  4-H ,  5-H ) :  -0.1714 B(  6-H ,  7-H ) :  -0.1222
B(  8-C ,  9-C ) :   1.3330 B(  8-C , 10-H ) :   0.9779 B(  8-C , 11-H ) :   0.9246
B(  8-C , 12-H ) :   0.1297 B(  8-C , 14-H ) :   0.2211 B(  8-C , 15-H ) :   0.2103
B(  8-C , 16-H ) :   0.1926 B(  9-C , 14-H ) :   0.8336 B(  9-C , 15-H ) :   0.7901
B(  9-C , 16-H ) :   0.7899

Dispersion correction           -0.004659375
FINAL SINGLE POINT ENERGY      -268.196995130858

DIPOLE MOMENT
-------------
                                X             Y             Z
Electronic contribution:      2.53069      -2.87300      -4.67434
Nuclear contribution   :     -1.82438       2.64851       2.98450
                        -----------------------------------------
Total Dipole Moment    :      0.70631      -0.22448      -1.68984
                        -----------------------------------------
Magnitude (a.u.)       :      1.84522
Magnitude (Debye)      :      4.69017

Rotational constants in cm-1:     0.176712     0.077069     0.069669
Rotational constants in MHz :  5297.698588  2310.466480  2088.633881

                             ****ORCA TERMINATED NORMALLY****
TOTAL RUN TIME: 0 days 0 hours 0 minutes 14 seconds 508 msec
