                         Program Version 5.0.0 -  RELEASE  -
|  1> !wB97X-D3 RIJCOSX def2-SVPD def2/J TightSCF CPCM(Water)
|  2> *xyz 0 1
|  3> C         -0.87096        0.24804       -2.66280
|  4> C         -0.47749        0.60819       -4.10105
|  5> H          0.20677        1.45830       -4.11875
|  6> H         -1.36844        0.92942       -4.64785
|  7> C          0.18467       -0.50664       -4.91676
|  8> F         -0.15869       -1.70109       -4.65798
|  9> O          1.05594       -0.17441       -5.74037
| 10> C          0.10016       -0.67355       -1.91581
| 11> H         -1.00105        1.18104       -2.10407
| 12> H         -1.84465       -0.24659       -2.66328
| 13> H          0.22336       -1.58297       -2.46597
| 14> H         -0.29270       -0.89423       -0.94532
| 15> H          1.04759       -0.18666       -1.81480
| 16> *
| 17>
| 18> %MaxCore 64000
| 19>
| 20> %pal nprocs 18
| 21> end
| 22>
| 23> %scf
| 24>   MaxIter 150
| 25> end
| 26>
| 27>
| 28>                          ****END OF INPUT****

CARTESIAN COORDINATES (ANGSTROEM)
---------------------------------
  C     -0.870960    0.248040   -2.662800
  C     -0.477490    0.608190   -4.101050
  H      0.206770    1.458300   -4.118750
  H     -1.368440    0.929420   -4.647850
  C      0.184670   -0.506640   -4.916760
  F     -0.158690   -1.701090   -4.657980
  O      1.055940   -0.174410   -5.740370
  C      0.100160   -0.673550   -1.915810
  H     -1.001050    1.181040   -2.104070
  H     -1.844650   -0.246590   -2.663280
  H      0.223360   -1.582970   -2.465970
  H     -0.292700   -0.894230   -0.945320
  H      1.047590   -0.186660   -1.814800

 Total Charge           Charge          ....    0
 Multiplicity           Mult            ....    1
 Number of Electrons    NEL             ....   48
 Basis Dimension        Dim             ....  182

ORBITAL ENERGIES
----------------

  NO   OCC          E(Eh)            E(eV)
   0   2.0000     -24.873188      -676.8339
   1   2.0000     -19.265434      -524.2391
   2   2.0000     -10.481123      -285.2059
   3   2.0000     -10.310438      -280.5613
   4   2.0000     -10.292679      -280.0780
   5   2.0000     -10.270925      -279.4861
   6   2.0000      -1.418043       -38.5869
   7   2.0000      -1.158388       -31.5213
   8   2.0000      -0.915837       -24.9212
   9   2.0000      -0.829690       -22.5770
  10   2.0000      -0.765980       -20.8434
  11   2.0000      -0.715552       -19.4712
  12   2.0000      -0.655460       -17.8360
  13   2.0000      -0.644206       -17.5297
  14   2.0000      -0.601859       -16.3774
  15   2.0000      -0.565570       -15.3899
  16   2.0000      -0.540678       -14.7126
  17   2.0000      -0.517861       -14.0917
  18   2.0000      -0.500146       -13.6097
  19   2.0000      -0.476866       -12.9762
  20   2.0000      -0.452671       -12.3178
  21   2.0000      -0.442345       -12.0368
  22   2.0000      -0.423458       -11.5229
  23   2.0000      -0.398182       -10.8351
  24   0.0000       0.051148         1.3918
  25   0.0000       0.090115         2.4522
  26   0.0000       0.118193         3.2162
  27   0.0000       0.125791         3.4229
  28   0.0000       0.137939         3.7535

MULLIKEN ATOMIC CHARGES
-----------------------
   0 C :   -0.392404
   1 C :   -0.060391
   2 H :    0.121967
   3 H :    0.093848
   4 C :    0.759542
   5 F :   -0.442664
   6 O :   -0.522944
   7 C :    0.615492
   8 H :   -0.078717
   9 H :    0.016680
  10 H :   -0.102678
  11 H :   -0.004091
  12 H :   -0.003639
Sum of atomic charges:   -0.0000000

LOEWDIN ATOMIC CHARGES
----------------------
   0 C :   -0.059930
   1 C :    0.054866
   2 H :    0.040172
   3 H :    0.051498
   4 C :    0.009059
   5 F :   -0.043540
   6 O :   -0.174137
   7 C :    0.125357
   8 H :    0.028541
   9 H :    0.025020
  10 H :   -0.036788
  11 H :   -0.011385
  12 H :   -0.008733

  Mayer bond orders larger than 0.100000
B(  0-C ,  1-C ) :   1.2275 B(  0-C ,  2-H ) :   0.1080 B(  0-C ,  3-H ) :   0.1111
B(  0-C ,  7-C ) :   1.3278 B(  0-C ,  8-H ) :   0.9564 B(  0-C ,  9-H ) :   0.9143
B(  0-C , 10-H ) :   0.1704 B(  0-C , 11-H ) :   0.2022 B(  0-C , 12-H ) :   0.1771
B(  1-C ,  2-H ) :   0.8823 B(  1-C ,  3-H ) :   0.8415 B(  1-C ,  4-C ) :   1.0943
B(  1-C ,  8-H ) :   0.1092 B(  1-C ,  9-H ) :   0.1005 B(  2-H ,  4-C ) :   0.1275
B(  4-C ,  5-F ) :   0.6997 B(  4-C ,  6-O ) :   1.7666 B(  7-C , 10-H ) :   0.8723
B(  7-C , 11-H ) :   0.7580 B(  7-C , 12-H ) :   0.7981

Dispersion correction           -0.003208104
FINAL SINGLE POINT ENERGY      -331.402297915621

DIPOLE MOMENT
-------------
                                X             Y             Z
Electronic contribution:      1.47165      -4.23514      -8.25678
Nuclear contribution   :     -2.55684       4.59749       9.38828
                        -----------------------------------------
Total Dipole Moment    :     -1.08519       0.36235       1.13149
                        -----------------------------------------
Magnitude (a.u.)       :      1.60910
Magnitude (Debye)      :      4.09001

Rotational constants in cm-1:     0.200184     0.083263     0.071070
Rotational constants in MHz :  6001.373539  2496.169674  2130.635527

                             ****ORCA TERMINATED NORMALLY****
TOTAL RUN TIME: 0 days 0 hours 0 minutes 11 seconds 700 msec
