                         Program Version 5.0.0 -  RELEASE  -
|  1> !wB97X-D3 RIJCOSX def2-SVPD def2/J TightSCF CPCM(Water)
|  2> *xyz 0 1
|  3> C          2.48645       -2.67712       -2.56345
|  4> C          3.03764       -2.36672       -3.92351
|  5> C          2.28036       -2.45441       -4.96769
|  6> N          4.32174       -2.01793       -4.01664
|  7> H          4.87994       -1.91167       -3.17382
|  8> H          4.71015       -1.67088       -4.88356
|  9> H          1.27042       -2.41265       -4.86614
| 10> H          2.58183       -2.05528       -5.84688
| 11> C          2.49799       -1.46946       -1.61030
| 12> C          1.58284       -0.32199       -2.04262
| 13> H          2.19308       -1.83391       -0.62542
| 14> H          3.52336       -1.10398       -1.49039
| 15> H          1.47259       -3.05153       -2.69437
| 16> H          3.08320       -3.49064       -2.14147
| 17> H          1.88480        0.03130       -3.00642
| 18> H          1.65140        0.47571       -1.33278
| 19> H          0.57235       -0.67052       -2.09099
| 20> *
| 21>
| 22> %MaxCore 64000
| 23>
| 24> %pal nprocs 18
| 25> end
| 26>
| 27> %scf
| 28>   MaxIter 150
| 29> end
| 30>
| 31>
| 32>                          ****END OF INPUT****

CARTESIAN COORDINATES (ANGSTROEM)
---------------------------------
  C      2.486450   -2.677120   -2.563450
  C      3.037640   -2.366720   -3.923510
  C      2.280360   -2.454410   -4.967690
  N      4.321740   -2.017930   -4.016640
  H      4.879940   -1.911670   -3.173820
  H      4.710150   -1.670880   -4.883560
  H      1.270420   -2.412650   -4.866140
  H      2.581830   -2.055280   -5.846880
  C      2.497990   -1.469460   -1.610300
  C      1.582840   -0.321990   -2.042620
  H      2.193080   -1.833910   -0.625420
  H      3.523360   -1.103980   -1.490390
  H      1.472590   -3.051530   -2.694370
  H      3.083200   -3.490640   -2.141470
  H      1.884800    0.031300   -3.006420
  H      1.651400    0.475710   -1.332780
  H      0.572350   -0.670520   -2.090990

 Total Charge           Charge          ....    0
 Multiplicity           Mult            ....    1
 Number of Electrons    NEL             ....   48
 Basis Dimension        Dim             ....  208

ORBITAL ENERGIES
----------------

  NO   OCC          E(Eh)            E(eV)
   0   2.0000     -14.432761      -392.7354
   1   2.0000     -10.315525      -280.6997
   2   2.0000     -10.283744      -279.8349
   3   2.0000     -10.283605      -279.8311
   4   2.0000     -10.266601      -279.3684
   5   2.0000     -10.222333      -278.1638
   6   2.0000      -1.031839       -28.0778
   7   2.0000      -0.899948       -24.4888
   8   2.0000      -0.848510       -23.0891
   9   2.0000      -0.792719       -21.5710
  10   2.0000      -0.702175       -19.1071
  11   2.0000      -0.665514       -18.1096
  12   2.0000      -0.622037       -16.9265
  13   2.0000      -0.573891       -15.6164
  14   2.0000      -0.550965       -14.9925
  15   2.0000      -0.544859       -14.8264
  16   2.0000      -0.495360       -13.4794
  17   2.0000      -0.483626       -13.1601
  18   2.0000      -0.466562       -12.6958
  19   2.0000      -0.462070       -12.5736
  20   2.0000      -0.424813       -11.5598
  21   2.0000      -0.415644       -11.3103
  22   2.0000      -0.412278       -11.2187
  23   2.0000      -0.290536        -7.9059
  24   0.0000       0.093711         2.5500
  25   0.0000       0.109909         2.9908
  26   0.0000       0.122461         3.3323
  27   0.0000       0.126726         3.4484
  28   0.0000       0.141421         3.8483

MULLIKEN ATOMIC CHARGES
-----------------------
   0 C :    0.123591
   1 C :   -0.230205
   2 C :    0.388708
   3 N :    0.109425
   4 H :   -0.054478
   5 H :   -0.121695
   6 H :   -0.026908
   7 H :   -0.382728
   8 C :   -0.391486
   9 C :    0.666665
  10 H :   -0.071269
  11 H :   -0.028115
  12 H :    0.142964
  13 H :   -0.024831
  14 H :   -0.084867
  15 H :   -0.036479
  16 H :    0.021707
Sum of atomic charges:    0.0000000

LOEWDIN ATOMIC CHARGES
----------------------
   0 C :    0.003768
   1 C :   -0.272167
   2 C :    0.134201
   3 N :    0.183460
   4 H :    0.011443
   5 H :    0.017911
   6 H :   -0.081107
   7 H :   -0.084589
   8 C :   -0.066947
   9 C :    0.121014
  10 H :    0.020343
  11 H :    0.014121
  12 H :    0.023450
  13 H :    0.029857
  14 H :   -0.023404
  15 H :   -0.017422
  16 H :   -0.013931

  Mayer bond orders larger than 0.100000
B(  0-C ,  1-C ) :   1.1884 B(  0-C ,  8-C ) :   1.1521 B(  0-C , 10-H ) :   0.1471
B(  0-C , 11-H ) :   0.1462 B(  0-C , 12-H ) :   0.7903 B(  0-C , 13-H ) :   0.9005
B(  1-C ,  2-C ) :   2.1109 B(  1-C ,  3-N ) :   1.2104 B(  1-C ,  6-H ) :   0.1619
B(  1-C ,  7-H ) :   0.2886 B(  1-C , 12-H ) :   0.1192 B(  1-C , 13-H ) :   0.1587
B(  2-C ,  3-N ) :   0.2478 B(  2-C ,  6-H ) :   0.8416 B(  2-C ,  7-H ) :   0.6591
B(  3-N ,  4-H ) :   1.1237 B(  3-N ,  5-H ) :   1.1964 B(  4-H ,  5-H ) :  -0.1483
B(  6-H ,  7-H ) :   0.1447 B(  8-C ,  9-C ) :   1.3073 B(  8-C , 10-H ) :   0.9531
B(  8-C , 11-H ) :   0.8981 B(  8-C , 12-H ) :   0.1371 B(  8-C , 14-H ) :   0.2311
B(  8-C , 15-H ) :   0.2113 B(  8-C , 16-H ) :   0.1983 B(  9-C , 14-H ) :   0.8360
B(  9-C , 15-H ) :   0.7814 B(  9-C , 16-H ) :   0.7863

Dispersion correction           -0.004671683
FINAL SINGLE POINT ENERGY      -251.647230961456

DIPOLE MOMENT
-------------
                                X             Y             Z
Electronic contribution:      2.69634      -1.93702      -1.89775
Nuclear contribution   :     -1.92525       2.50924       2.56958
                        -----------------------------------------
Total Dipole Moment    :      0.77109       0.57222       0.67183
                        -----------------------------------------
Magnitude (a.u.)       :      1.17190
Magnitude (Debye)      :      2.97874

Rotational constants in cm-1:     0.181985     0.078726     0.071856
Rotational constants in MHz :  5455.785660  2360.157292  2154.177820

                             ****ORCA TERMINATED NORMALLY****
TOTAL RUN TIME: 0 days 0 hours 0 minutes 15 seconds 443 msec
