                         Program Version 5.0.0 -  RELEASE  -
|  1> !wB97X-D3 RIJCOSX def2-SVPD def2/J TightSCF CPCM(Water)
|  2> *xyz 0 1
|  3> C         -0.87096        0.24804       -2.66280
|  4> C         -0.47749        0.60819       -4.10105
|  5> H          0.20677        1.45830       -4.11875
|  6> H         -1.36844        0.92942       -4.64785
|  7> C          0.18467       -0.50664       -4.91676
|  8> O         -0.15869       -1.70109       -4.65798
|  9> F          1.05594       -0.17441       -5.74037
| 10> C          0.10016       -0.67355       -1.91581
| 11> H         -1.00105        1.18104       -2.10407
| 12> H         -1.84465       -0.24659       -2.66328
| 13> H          0.22336       -1.58297       -2.46597
| 14> H         -0.29270       -0.89423       -0.94532
| 15> H          1.04759       -0.18666       -1.81480
| 16> *
| 17>
| 18> %MaxCore 64000
| 19>
| 20> %pal nprocs 18
| 21> end
| 22>
| 23> %scf
| 24>   MaxIter 150
| 25> end
| 26>
| 27>
| 28>                          ****END OF INPUT****

CARTESIAN COORDINATES (ANGSTROEM)
---------------------------------
  C     -0.870960    0.248040   -2.662800
  C     -0.477490    0.608190   -4.101050
  H      0.206770    1.458300   -4.118750
  H     -1.368440    0.929420   -4.647850
  C      0.184670   -0.506640   -4.916760
  O     -0.158690   -1.701090   -4.657980
  F      1.055940   -0.174410   -5.740370
  C      0.100160   -0.673550   -1.915810
  H     -1.001050    1.181040   -2.104070
  H     -1.844650   -0.246590   -2.663280
  H      0.223360   -1.582970   -2.465970
  H     -0.292700   -0.894230   -0.945320
  H      1.047590   -0.186660   -1.814800

 Total Charge           Charge          ....    0
 Multiplicity           Mult            ....    1
 Number of Electrons    NEL             ....   48
 Basis Dimension        Dim             ....  182

ORBITAL ENERGIES
----------------

  NO   OCC          E(Eh)            E(eV)
   0   2.0000     -24.880634      -677.0365
   1   2.0000     -19.260518      -524.1053
   2   2.0000     -10.481970      -285.2289
   3   2.0000     -10.310833      -280.5720
   4   2.0000     -10.292411      -280.0707
   5   2.0000     -10.266077      -279.3542
   6   2.0000      -1.434442       -39.0331
   7   2.0000      -1.142891       -31.0996
   8   2.0000      -0.911990       -24.8165
   9   2.0000      -0.833161       -22.6715
  10   2.0000      -0.771901       -21.0045
  11   2.0000      -0.713086       -19.4041
  12   2.0000      -0.662641       -18.0314
  13   2.0000      -0.638075       -17.3629
  14   2.0000      -0.613838       -16.7034
  15   2.0000      -0.564090       -15.3497
  16   2.0000      -0.550347       -14.9757
  17   2.0000      -0.505838       -13.7645
  18   2.0000      -0.498419       -13.5627
  19   2.0000      -0.459230       -12.4963
  20   2.0000      -0.445269       -12.1164
  21   2.0000      -0.440405       -11.9840
  22   2.0000      -0.425649       -11.5825
  23   2.0000      -0.394945       -10.7470
  24   0.0000       0.049241         1.3399
  25   0.0000       0.090464         2.4617
  26   0.0000       0.118108         3.2139
  27   0.0000       0.126401         3.4396
  28   0.0000       0.138005         3.7553

MULLIKEN ATOMIC CHARGES
-----------------------
   0 C :   -0.394528
   1 C :   -0.080296
   2 H :    0.150430
   3 H :    0.105133
   4 C :    0.753628
   5 O :   -0.601149
   6 F :   -0.365487
   7 C :    0.636843
   8 H :   -0.067295
   9 H :    0.006564
  10 H :   -0.126395
  11 H :   -0.002728
  12 H :   -0.014719
Sum of atomic charges:    0.0000000

LOEWDIN ATOMIC CHARGES
----------------------
   0 C :   -0.053452
   1 C :    0.051669
   2 H :    0.036726
   3 H :    0.051855
   4 C :    0.018455
   5 O :   -0.186954
   6 F :   -0.022467
   7 C :    0.123038
   8 H :    0.029008
   9 H :    0.025098
  10 H :   -0.049362
  11 H :   -0.013286
  12 H :   -0.010327

  Mayer bond orders larger than 0.100000
B(  0-C ,  1-C ) :   1.2443 B(  0-C ,  2-H ) :   0.1083 B(  0-C ,  3-H ) :   0.1241
B(  0-C ,  7-C ) :   1.3336 B(  0-C ,  8-H ) :   0.9495 B(  0-C ,  9-H ) :   0.9091
B(  0-C , 10-H ) :   0.1774 B(  0-C , 11-H ) :   0.1990 B(  0-C , 12-H ) :   0.1751
B(  1-C ,  2-H ) :   0.8490 B(  1-C ,  3-H ) :   0.8277 B(  1-C ,  4-C ) :   1.1409
B(  1-C ,  8-H ) :   0.1020 B(  1-C ,  9-H ) :   0.1039 B(  2-H ,  4-C ) :   0.1092
B(  4-C ,  5-O ) :   1.7676 B(  4-C ,  6-F ) :   0.7245 B(  7-C , 10-H ) :   0.8717
B(  7-C , 11-H ) :   0.7484 B(  7-C , 12-H ) :   0.7921

Dispersion correction           -0.003191827
FINAL SINGLE POINT ENERGY      -331.395582371962

DIPOLE MOMENT
-------------
                                X             Y             Z
Electronic contribution:      3.80636      -1.32820     -10.36233
Nuclear contribution   :     -3.92885       2.87300      10.61091
                        -----------------------------------------
Total Dipole Moment    :     -0.12250       1.54480       0.24859
                        -----------------------------------------
Magnitude (a.u.)       :      1.56946
Magnitude (Debye)      :      3.98924

Rotational constants in cm-1:     0.209332     0.079487     0.069375
Rotational constants in MHz :  6275.605762  2382.960864  2079.805430

                             ****ORCA TERMINATED NORMALLY****
TOTAL RUN TIME: 0 days 0 hours 0 minutes 10 seconds 736 msec
