                         Program Version 5.0.0 -  RELEASE  -
|  1> !wB97X-D3 RIJCOSX def2-SVPD def2/J TightSCF CPCM(Water)
|  2> *xyz 0 1
|  3> C          2.48645       -2.67712       -2.56345
|  4> C          3.03764       -2.36672       -3.92351
|  5> N          2.28036       -2.45441       -4.96769
|  6> C          4.32174       -2.01793       -4.01664
|  7> H          4.87994       -1.91167       -3.17382
|  8> H          4.71015       -1.67088       -4.88356
|  9> H          1.27042       -2.41265       -4.86614
| 10> H          2.58183       -2.05528       -5.84688
| 11> C          2.49799       -1.46946       -1.61030
| 12> C          1.58284       -0.32199       -2.04262
| 13> H          2.19308       -1.83391       -0.62542
| 14> H          3.52336       -1.10398       -1.49039
| 15> H          1.47259       -3.05153       -2.69437
| 16> H          3.08320       -3.49064       -2.14147
| 17> H          1.88480        0.03130       -3.00642
| 18> H          1.65140        0.47571       -1.33278
| 19> H          0.57235       -0.67052       -2.09099
| 20> *
| 21>
| 22> %MaxCore 64000
| 23>
| 24> %pal nprocs 18
| 25> end
| 26>
| 27> %scf
| 28>   MaxIter 150
| 29> end
| 30>
| 31>
| 32>                          ****END OF INPUT****

CARTESIAN COORDINATES (ANGSTROEM)
---------------------------------
  C      2.486450   -2.677120   -2.563450
  C      3.037640   -2.366720   -3.923510
  N      2.280360   -2.454410   -4.967690
  C      4.321740   -2.017930   -4.016640
  H      4.879940   -1.911670   -3.173820
  H      4.710150   -1.670880   -4.883560
  H      1.270420   -2.412650   -4.866140
  H      2.581830   -2.055280   -5.846880
  C      2.497990   -1.469460   -1.610300
  C      1.582840   -0.321990   -2.042620
  H      2.193080   -1.833910   -0.625420
  H      3.523360   -1.103980   -1.490390
  H      1.472590   -3.051530   -2.694370
  H      3.083200   -3.490640   -2.141470
  H      1.884800    0.031300   -3.006420
  H      1.651400    0.475710   -1.332780
  H      0.572350   -0.670520   -2.090990

 Total Charge           Charge          ....    0
 Multiplicity           Mult            ....    1
 Number of Electrons    NEL             ....   48
 Basis Dimension        Dim             ....  208

ORBITAL ENERGIES
----------------

  NO   OCC          E(Eh)            E(eV)
   0   2.0000     -14.435449      -392.8085
   1   2.0000     -10.315791      -280.7069
   2   2.0000     -10.283767      -279.8355
   3   2.0000     -10.282916      -279.8124
   4   2.0000     -10.266700      -279.3711
   5   2.0000     -10.222527      -278.1691
   6   2.0000      -1.046087       -28.4655
   7   2.0000      -0.902075       -24.5467
   8   2.0000      -0.838521       -22.8173
   9   2.0000      -0.788094       -21.4451
  10   2.0000      -0.712058       -19.3761
  11   2.0000      -0.663415       -18.0524
  12   2.0000      -0.615448       -16.7472
  13   2.0000      -0.588162       -16.0047
  14   2.0000      -0.552009       -15.0209
  15   2.0000      -0.530910       -14.4468
  16   2.0000      -0.494977       -13.4690
  17   2.0000      -0.490989       -13.3605
  18   2.0000      -0.467492       -12.7211
  19   2.0000      -0.454318       -12.3626
  20   2.0000      -0.426444       -11.6041
  21   2.0000      -0.420612       -11.4454
  22   2.0000      -0.416394       -11.3307
  23   2.0000      -0.280858        -7.6425
  24   0.0000       0.094849         2.5810
  25   0.0000       0.107644         2.9291
  26   0.0000       0.124563         3.3895
  27   0.0000       0.126164         3.4331
  28   0.0000       0.138353         3.7648

MULLIKEN ATOMIC CHARGES
-----------------------
   0 C :    0.343354
   1 C :   -0.233896
   2 N :    0.058080
   3 C :    0.396699
   4 H :   -0.104404
   5 H :   -0.432583
   6 H :    0.015077
   7 H :   -0.056472
   8 C :   -0.471660
   9 C :    0.637622
  10 H :   -0.051369
  11 H :   -0.058865
  12 H :   -0.015094
  13 H :    0.052842
  14 H :   -0.065000
  15 H :   -0.050802
  16 H :    0.036470
Sum of atomic charges:    0.0000000

LOEWDIN ATOMIC CHARGES
----------------------
   0 C :    0.005395
   1 C :   -0.273690
   2 N :    0.173485
   3 C :    0.150560
   4 H :   -0.090119
   5 H :   -0.093744
   6 H :    0.021800
   7 H :    0.025141
   8 C :   -0.067014
   9 C :    0.120445
  10 H :    0.020292
  11 H :    0.013064
  12 H :    0.019544
  13 H :    0.030528
  14 H :   -0.023365
  15 H :   -0.017460
  16 H :   -0.014862

  Mayer bond orders larger than 0.100000
B(  0-C ,  1-C ) :   1.0995 B(  0-C ,  3-C ) :   0.1298 B(  0-C ,  8-C ) :   1.1720
B(  0-C , 11-H ) :   0.1300 B(  0-C , 12-H ) :   0.6888 B(  0-C , 13-H ) :   0.8032
B(  1-C ,  2-N ) :   1.0418 B(  1-C ,  3-C ) :   1.8649 B(  1-C ,  5-H ) :   0.1623
B(  1-C , 12-H ) :   0.2402 B(  1-C , 13-H ) :   0.1369 B(  2-N ,  3-C ) :   0.2706
B(  2-N ,  6-H ) :   0.9758 B(  2-N ,  7-H ) :   1.1006 B(  3-C ,  4-H ) :   0.7972
B(  3-C ,  5-H ) :   0.8043 B(  6-H ,  7-H ) :  -0.1103 B(  8-C ,  9-C ) :   1.3187
B(  8-C , 10-H ) :   0.9592 B(  8-C , 11-H ) :   0.9459 B(  8-C , 12-H ) :   0.1779
B(  8-C , 13-H ) :   0.1112 B(  8-C , 14-H ) :   0.2272 B(  8-C , 15-H ) :   0.2123
B(  8-C , 16-H ) :   0.2072 B(  9-C , 14-H ) :   0.8302 B(  9-C , 15-H ) :   0.7945
B(  9-C , 16-H ) :   0.7905

Dispersion correction           -0.004645989
FINAL SINGLE POINT ENERGY      -251.648357935368

DIPOLE MOMENT
-------------
                                X             Y             Z
Electronic contribution:      0.32448      -2.35957      -2.99269
Nuclear contribution   :     -1.44240       2.61248       2.79453
                        -----------------------------------------
Total Dipole Moment    :     -1.11791       0.25291      -0.19816
                        -----------------------------------------
Magnitude (a.u.)       :      1.16317
Magnitude (Debye)      :      2.95654

Rotational constants in cm-1:     0.182540     0.078634     0.071436
Rotational constants in MHz :  5472.425685  2357.397154  2141.608207

                             ****ORCA TERMINATED NORMALLY****
TOTAL RUN TIME: 0 days 0 hours 0 minutes 15 seconds 913 msec
