                         Program Version 5.0.0 -  RELEASE  -
|  1> !wB97X-D3 RIJCOSX def2-SVPD def2/J TightSCF CPCM(Water) xyzfile
|  2>
|  3> *xyzfile 0 1 D3.xyz
|  4>
|  5> %MaxCore 64000
|  6>
|  7> %pal nprocs 18
|  8> end
|  9>
| 10> %scf
| 11>   MaxIter 150
| 12> end
| 13>
| 14>
| 15>                          ****END OF INPUT****

CARTESIAN COORDINATES (ANGSTROEM)
---------------------------------
  C      2.486452   -2.677121   -2.563447
  C     -0.870963    0.248043   -2.662804
  C     -0.477492    0.608191   -4.101052
  H      0.206773    1.458299   -4.118748
  H     -1.368442    0.929419   -4.647855
  C      0.184673   -0.506640   -4.916760
  C      3.037640   -2.366715   -3.923509
  C      2.280360   -2.454408   -4.967692
  N      4.321736   -2.017932   -4.016641
  H      4.879940   -1.911668   -3.173823
  H      4.710148   -1.670882   -4.883561
  H      1.270423   -2.412650   -4.866143
  H      2.581829   -2.055282   -5.846878
  O     -0.158685   -1.701088   -4.657981
  F      1.055938   -0.174410   -5.740373
  C      2.497991   -1.469464   -1.610303
  C      1.582841   -0.321986   -2.042619
  H      2.193083   -1.833912   -0.625420
  H      3.523356   -1.103982   -1.490392
  C      0.100160   -0.673551   -1.915815
  H      1.822311   -0.040361   -3.072834
  H      1.813180    0.557019   -1.433266
  H     -0.063284   -1.679120   -2.301112
  H     -0.168820   -0.691680   -0.853831
  H     -1.001048    1.181040   -2.104071
  H     -1.844645   -0.246592   -2.663281
  H      1.472592   -3.051527   -2.694366
  H      3.083201   -3.490638   -2.141472

 Total Charge           Charge          ....    0
 Multiplicity           Mult            ....    1
 Number of Electrons    NEL             ....   94
 Basis Dimension        Dim             ....  374

ORBITAL ENERGIES
----------------

  NO   OCC          E(Eh)            E(eV)
   0   2.0000     -24.879712      -677.0114
   1   2.0000     -19.255824      -523.9776
   2   2.0000     -14.426401      -392.5623
   3   2.0000     -10.481392      -285.2132
   4   2.0000     -10.309701      -280.5412
   5   2.0000     -10.304643      -280.4036
   6   2.0000     -10.290759      -280.0258
   7   2.0000     -10.281704      -279.7794
   8   2.0000     -10.279705      -279.7250
   9   2.0000     -10.279577      -279.7215
  10   2.0000     -10.276675      -279.6425
  11   2.0000     -10.199525      -277.5432
  12   2.0000      -1.433666       -39.0120
  13   2.0000      -1.147474       -31.2243
  14   2.0000      -1.025174       -27.8964
  15   2.0000      -0.926646       -25.2153
  16   2.0000      -0.896705       -24.4006
  17   2.0000      -0.850434       -23.1415
  18   2.0000      -0.829131       -22.5618
  19   2.0000      -0.787308       -21.4237
  20   2.0000      -0.759814       -20.6756
  21   2.0000      -0.717317       -19.5192
  22   2.0000      -0.678942       -18.4750
  23   2.0000      -0.671462       -18.2714
  24   2.0000      -0.656013       -17.8510
  25   2.0000      -0.636312       -17.3149
  26   2.0000      -0.622594       -16.9416
  27   2.0000      -0.608821       -16.5669
  28   2.0000      -0.577730       -15.7208
  29   2.0000      -0.567513       -15.4428
  30   2.0000      -0.555242       -15.1089
  31   2.0000      -0.536066       -14.5871
  32   2.0000      -0.532147       -14.4805
  33   2.0000      -0.504622       -13.7315
  34   2.0000      -0.497560       -13.5393
  35   2.0000      -0.489959       -13.3325
  36   2.0000      -0.471336       -12.8257
  37   2.0000      -0.461136       -12.5481
  38   2.0000      -0.453084       -12.3291
  39   2.0000      -0.447455       -12.1759
  40   2.0000      -0.427848       -11.6423
  41   2.0000      -0.423103       -11.5132
  42   2.0000      -0.407911       -11.0998
  43   2.0000      -0.402497       -10.9525
  44   2.0000      -0.399682       -10.8759
  45   2.0000      -0.368791       -10.0353
  46   2.0000      -0.280099        -7.6219
  47   0.0000       0.047776         1.3000
  48   0.0000       0.089742         2.4420
  49   0.0000       0.102051         2.7769
  50   0.0000       0.109330         2.9750
  51   0.0000       0.112887         3.0718

MULLIKEN ATOMIC CHARGES
-----------------------
   0 C :    0.189424
   1 C :    0.438587
   2 C :    0.107459
   3 H :    0.264208
   4 H :   -0.166389
   5 C :    0.563993
   6 C :   -0.294065
   7 C :    1.045623
   8 N :    0.125628
   9 H :   -0.033020
  10 H :   -0.119811
  11 H :   -0.472458
  12 H :   -0.376127
  13 O :   -0.738136
  14 F :   -0.403616
  15 C :    0.250705
  16 C :    0.103230
  17 H :   -0.058373
  18 H :   -0.055636
  19 C :   -0.029757
  20 H :   -0.086035
  21 H :   -0.149580
  22 H :   -0.004268
  23 H :   -0.163341
  24 H :   -0.060103
  25 H :    0.082509
  26 H :    0.158658
  27 H :   -0.119310
Sum of atomic charges:    0.0000000

LOEWDIN ATOMIC CHARGES
----------------------
   0 C :    0.022768
   1 C :   -0.006054
   2 C :    0.060137
   3 H :    0.037154
   4 H :    0.050367
   5 C :    0.037813
   6 C :   -0.251055
   7 C :    0.144599
   8 N :    0.176955
   9 H :    0.006788
  10 H :    0.014399
  11 H :   -0.181240
  12 H :   -0.074323
  13 O :   -0.169672
  14 F :   -0.010210
  15 C :   -0.016155
  16 C :   -0.014407
  17 H :    0.025335
  18 H :    0.016188
  19 C :   -0.026649
  20 H :    0.006311
  21 H :    0.029340
  22 H :   -0.010571
  23 H :    0.030531
  24 H :    0.031160
  25 H :    0.028379
  26 H :    0.012520
  27 H :    0.029593

  Mayer bond orders larger than 0.100000
B(  0-C ,  6-C ) :   1.2141 B(  0-C ,  7-C ) :   0.1345 B(  0-C ,  8-N ) :   0.1143
B(  0-C , 15-C ) :   1.1437 B(  0-C , 17-H ) :   0.1778 B(  0-C , 18-H ) :   0.2172
B(  0-C , 26-H ) :   0.7492 B(  0-C , 27-H ) :   0.8486 B(  1-C ,  2-C ) :   1.2169
B(  1-C ,  4-H ) :   0.1346 B(  1-C , 19-C ) :   1.2993 B(  1-C , 24-H ) :   0.7849
B(  1-C , 25-H ) :   0.6858 B(  2-C ,  3-H ) :   0.7810 B(  2-C ,  4-H ) :   0.7643
B(  2-C ,  5-C ) :   1.2436 B(  2-C , 24-H ) :   0.1315 B(  3-H ,  5-C ) :   0.1400
B(  4-H ,  5-C ) :   0.2901 B(  5-C , 13-O ) :   1.6402 B(  5-C , 14-F ) :   0.6417
B(  6-C ,  7-C ) :   2.0509 B(  6-C ,  8-N ) :   1.1256 B(  6-C , 11-H ) :   0.2583
B(  6-C , 12-H ) :   0.4742 B(  6-C , 15-C ) :   0.1206 B(  6-C , 26-H ) :   0.1383
B(  6-C , 27-H ) :   0.2170 B(  7-C ,  8-N ) :   0.3788 B(  7-C , 11-H ) :   0.3241
B(  7-C , 12-H ) :   0.1760 B(  7-C , 26-H ) :  -0.1183 B(  8-N ,  9-H ) :   1.1184
B(  8-N , 10-H ) :   1.1731 B(  9-H , 10-H ) :  -0.1560 B( 11-H , 12-H ) :   0.2742
B( 11-H , 13-O ) :   0.1979 B( 15-C , 16-C ) :   1.2000 B( 15-C , 17-H ) :   0.8620
B( 15-C , 18-H ) :   0.7225 B( 15-C , 20-H ) :   0.1510 B( 15-C , 26-H ) :   0.1565
B( 16-C , 18-H ) :   0.1988 B( 16-C , 19-C ) :   1.1826 B( 16-C , 20-H ) :   0.8623
B( 16-C , 21-H ) :   0.8883 B( 16-C , 22-H ) :   0.1015 B( 16-C , 23-H ) :   0.2196
B( 19-C , 20-H ) :   0.1077 B( 19-C , 21-H ) :   0.1136 B( 19-C , 22-H ) :   0.8754
B( 19-C , 23-H ) :   0.8487 B( 19-C , 24-H ) :   0.1951 B( 19-C , 25-H ) :   0.2157
B( 22-H , 26-H ) :   0.1145

Dispersion correction           -0.013534807
FINAL SINGLE POINT ENERGY      -581.824403678810

DIPOLE MOMENT
-------------
                                X             Y             Z
Electronic contribution:     -1.54362       1.58806     -11.80617
Nuclear contribution   :      1.88979       0.56282      12.66056
                        -----------------------------------------
Total Dipole Moment    :      0.34617       2.15088       0.85439
                        -----------------------------------------
Magnitude (a.u.)       :      2.34011
Magnitude (Debye)      :      5.94808

Rotational constants in cm-1:     0.040271     0.025954     0.018866
Rotational constants in MHz :  1207.302496   778.083475   565.600538

                             ****ORCA TERMINATED NORMALLY****
TOTAL RUN TIME: 0 days 0 hours 0 minutes 54 seconds 202 msec
