                         Program Version 5.0.0 -  RELEASE  -
|  1> !wB97X-D3 RIJCOSX def2-SVPD def2/J TightSCF CPCM(Water) xyzfile
|  2>
|  3> *xyzfile 0 1 D4.xyz
|  4>
|  5> %MaxCore 64000
|  6>
|  7> %pal nprocs 18
|  8> end
|  9>
| 10> %scf
| 11>   MaxIter 150
| 12> end
| 13>
| 14>
| 15>                          ****END OF INPUT****

CARTESIAN COORDINATES (ANGSTROEM)
---------------------------------
  C      2.486452   -2.677121   -2.563447
  C     -0.870963    0.248043   -2.662804
  C     -0.477492    0.608191   -4.101052
  H      0.206773    1.458299   -4.118748
  H     -1.368442    0.929419   -4.647855
  C      0.184673   -0.506640   -4.916760
  C      3.037640   -2.366715   -3.923509
  N      2.280360   -2.454408   -4.967692
  C      4.321736   -2.017932   -4.016641
  H      4.879940   -1.911668   -3.173823
  H      4.710148   -1.670882   -4.883561
  H      1.270423   -2.412650   -4.866143
  H      2.581829   -2.055282   -5.846878
  O     -0.158685   -1.701088   -4.657981
  F      1.055938   -0.174410   -5.740373
  C      2.497991   -1.469464   -1.610303
  C      1.582841   -0.321986   -2.042619
  H      2.193083   -1.833912   -0.625420
  H      3.523356   -1.103982   -1.490392
  C      0.100160   -0.673551   -1.915815
  H      1.822311   -0.040361   -3.072834
  H      1.813180    0.557019   -1.433266
  H     -0.063284   -1.679120   -2.301112
  H     -0.168820   -0.691680   -0.853831
  H     -1.001048    1.181040   -2.104071
  H     -1.844645   -0.246592   -2.663281
  H      1.472592   -3.051527   -2.694366
  H      3.083201   -3.490638   -2.141472

 Total Charge           Charge          ....    0
 Multiplicity           Mult            ....    1
 Number of Electrons    NEL             ....   94
 Basis Dimension        Dim             ....  374

ORBITAL ENERGIES
----------------

  NO   OCC          E(Eh)            E(eV)
   0   2.0000     -24.889818      -677.2864
   1   2.0000     -19.271405      -524.4016
   2   2.0000     -14.414270      -392.2322
   3   2.0000     -10.493666      -285.5472
   4   2.0000     -10.314217      -280.6641
   5   2.0000     -10.311009      -280.5768
   6   2.0000     -10.292897      -280.0840
   7   2.0000     -10.282407      -279.7985
   8   2.0000     -10.281786      -279.7816
   9   2.0000     -10.281541      -279.7750
  10   2.0000     -10.278473      -279.6915
  11   2.0000     -10.217331      -278.0277
  12   2.0000      -1.443665       -39.2841
  13   2.0000      -1.162199       -31.6251
  14   2.0000      -1.036806       -28.2129
  15   2.0000      -0.930807       -25.3285
  16   2.0000      -0.898093       -24.4384
  17   2.0000      -0.858458       -23.3598
  18   2.0000      -0.817449       -22.2439
  19   2.0000      -0.791394       -21.5349
  20   2.0000      -0.766729       -20.8638
  21   2.0000      -0.724347       -19.7105
  22   2.0000      -0.685057       -18.6413
  23   2.0000      -0.679561       -18.4918
  24   2.0000      -0.660293       -17.9675
  25   2.0000      -0.648807       -17.6549
  26   2.0000      -0.624390       -16.9905
  27   2.0000      -0.601459       -16.3665
  28   2.0000      -0.583985       -15.8910
  29   2.0000      -0.576247       -15.6805
  30   2.0000      -0.563745       -15.3403
  31   2.0000      -0.541269       -14.7287
  32   2.0000      -0.522009       -14.2046
  33   2.0000      -0.505466       -13.7544
  34   2.0000      -0.498793       -13.5728
  35   2.0000      -0.494516       -13.4565
  36   2.0000      -0.473612       -12.8876
  37   2.0000      -0.465322       -12.6620
  38   2.0000      -0.459978       -12.5166
  39   2.0000      -0.447311       -12.1719
  40   2.0000      -0.431451       -11.7404
  41   2.0000      -0.429926       -11.6989
  42   2.0000      -0.416989       -11.3468
  43   2.0000      -0.412578       -11.2268
  44   2.0000      -0.403565       -10.9816
  45   2.0000      -0.389149       -10.5893
  46   2.0000      -0.273833        -7.4514
  47   0.0000       0.037524         1.0211
  48   0.0000       0.089634         2.4391
  49   0.0000       0.101810         2.7704
  50   0.0000       0.106597         2.9006
  51   0.0000       0.113486         3.0881

MULLIKEN ATOMIC CHARGES
-----------------------
   0 C :    0.490079
   1 C :    0.430213
   2 C :    0.050623
   3 H :    0.301021
   4 H :   -0.145921
   5 C :    0.677540
   6 C :   -0.291258
   7 N :    0.277484
   8 C :    0.367273
   9 H :   -0.110048
  10 H :   -0.326031
  11 H :   -0.347264
  12 H :    0.049421
  13 O :   -0.706873
  14 F :   -0.376341
  15 C :    0.179175
  16 C :    0.063894
  17 H :   -0.046082
  18 H :   -0.051675
  19 C :   -0.010274
  20 H :   -0.093948
  21 H :   -0.182257
  22 H :    0.024501
  23 H :   -0.175756
  24 H :   -0.055468
  25 H :    0.084030
  26 H :   -0.057017
  27 H :   -0.019043
Sum of atomic charges:    0.0000000

LOEWDIN ATOMIC CHARGES
----------------------
   0 C :    0.023614
   1 C :   -0.004134
   2 C :    0.063616
   3 H :    0.040242
   4 H :    0.053532
   5 C :    0.043881
   6 C :   -0.254154
   7 N :    0.189452
   8 C :    0.145217
   9 H :   -0.094904
  10 H :   -0.096835
  11 H :   -0.118119
  12 H :    0.023879
  13 O :   -0.152851
  14 F :   -0.004824
  15 C :   -0.014703
  16 C :   -0.014960
  17 H :    0.026454
  18 H :    0.015841
  19 C :   -0.027061
  20 H :    0.004364
  21 H :    0.030471
  22 H :   -0.011413
  23 H :    0.031558
  24 H :    0.032690
  25 H :    0.029673
  26 H :    0.007532
  27 H :    0.031942

  Mayer bond orders larger than 0.100000
B(  0-C ,  6-C ) :   1.0158 B(  0-C ,  7-N ) :   0.1115 B(  0-C , 10-H ) :   0.1178
B(  0-C , 15-C ) :   1.1779 B(  0-C , 17-H ) :   0.1335 B(  0-C , 18-H ) :   0.1633
B(  0-C , 26-H ) :   0.6428 B(  0-C , 27-H ) :   0.7512 B(  1-C ,  2-C ) :   1.2233
B(  1-C ,  4-H ) :   0.1437 B(  1-C , 19-C ) :   1.2944 B(  1-C , 24-H ) :   0.7868
B(  1-C , 25-H ) :   0.6925 B(  2-C ,  3-H ) :   0.7577 B(  2-C ,  4-H ) :   0.7893
B(  2-C ,  5-C ) :   1.2682 B(  2-C , 24-H ) :   0.1351 B(  3-H ,  5-C ) :   0.1446
B(  4-H ,  5-C ) :   0.2697 B(  5-C , 13-O ) :   1.5680 B(  5-C , 14-F ) :   0.6483
B(  6-C ,  7-N ) :   1.1162 B(  6-C ,  8-C ) :   1.8969 B(  6-C ,  9-H ) :   0.1455
B(  6-C , 10-H ) :   0.1904 B(  6-C , 26-H ) :   0.2192 B(  6-C , 27-H ) :   0.1470
B(  7-N ,  8-C ) :   0.2596 B(  7-N , 11-H ) :   0.8504 B(  7-N , 12-H ) :   0.9688
B(  8-C ,  9-H ) :   0.7970 B(  8-C , 10-H ) :   0.6917 B( 11-H , 12-H ) :  -0.1284
B( 11-H , 13-O ) :   0.2046 B( 15-C , 16-C ) :   1.2237 B( 15-C , 17-H ) :   0.8636
B( 15-C , 18-H ) :   0.7496 B( 15-C , 20-H ) :   0.1552 B( 15-C , 26-H ) :   0.1898
B( 15-C , 27-H ) :   0.1433 B( 16-C , 17-H ) :   0.1381 B( 16-C , 18-H ) :   0.2046
B( 16-C , 19-C ) :   1.1738 B( 16-C , 20-H ) :   0.8496 B( 16-C , 21-H ) :   0.9390
B( 16-C , 23-H ) :   0.2187 B( 17-H , 18-H ) :  -0.1178 B( 19-C , 20-H ) :   0.1068
B( 19-C , 21-H ) :   0.1095 B( 19-C , 22-H ) :   0.8797 B( 19-C , 23-H ) :   0.8611
B( 19-C , 24-H ) :   0.1914 B( 19-C , 25-H ) :   0.2129 B( 22-H , 26-H ) :   0.1073

Dispersion correction           -0.013600414
FINAL SINGLE POINT ENERGY      -581.842218883462

DIPOLE MOMENT
-------------
                                X             Y             Z
Electronic contribution:     -3.78427       1.31225     -12.73616
Nuclear contribution   :      2.21030       0.63135      12.80988
                        -----------------------------------------
Total Dipole Moment    :     -1.57397       1.94360       0.07372
                        -----------------------------------------
Magnitude (a.u.)       :      2.50207
Magnitude (Debye)      :      6.35977

Rotational constants in cm-1:     0.039980     0.026547     0.019089
Rotational constants in MHz :  1198.568620   795.867393   572.288555

                             ****ORCA TERMINATED NORMALLY****
TOTAL RUN TIME: 0 days 0 hours 0 minutes 51 seconds 577 msec
