                         Program Version 5.0.0 -  RELEASE  -
|  1> !DLPNO-CCSD(T) aug-cc-pVTZ aug-cc-pVTZ/C TightSCF TightPNO RIJCOSX def2/J
|  2> *xyz -1 1
|  3> C          3.76678       -2.26611       -6.51175
|  4> C          2.49670       -1.84416       -5.73570
|  5> H          1.62642       -2.21743       -6.30895
|  6> H          2.48182       -2.45607       -4.79341
|  7> O          2.45973       -0.50920       -5.50576
|  8> H          3.82914       -1.70941       -7.42340
|  9> H          3.71764       -3.31144       -6.73483
| 10> H          4.63199       -2.06931       -5.91377
| 11> *
| 12>
| 13> %MaxCore 64000
| 14>
| 15> %pal nprocs 18
| 16> end
| 17>
| 18> %scf
| 19>   MaxIter 150
| 20> end
| 21>
| 22>
| 23>                          ****END OF INPUT****

CARTESIAN COORDINATES (ANGSTROEM)
---------------------------------
  C      3.766780   -2.266110   -6.511750
  C      2.496700   -1.844160   -5.735700
  H      1.626420   -2.217430   -6.308950
  H      2.481820   -2.456070   -4.793410
  O      2.459730   -0.509200   -5.505760
  H      3.829140   -1.709410   -7.423400
  H      3.717640   -3.311440   -6.734830
  H      4.631990   -2.069310   -5.913770

 Total Charge           Charge          ....   -1
 Multiplicity           Mult            ....    1
 Number of Electrons    NEL             ....   26
 Basis Dimension        Dim             ....  253

ORBITAL ENERGIES
----------------

  NO   OCC          E(Eh)            E(eV)
   0   2.0000     -20.204279      -549.7864
   1   2.0000     -11.038331      -300.3683
   2   2.0000     -11.011014      -299.6249
   3   2.0000      -1.000201       -27.2169
   4   2.0000      -0.781224       -21.2582
   5   2.0000      -0.586715       -15.9653
   6   2.0000      -0.411320       -11.1926
   7   2.0000      -0.385684       -10.4950
   8   2.0000      -0.319284        -8.6882
   9   2.0000      -0.304756        -8.2928
  10   2.0000      -0.264316        -7.1924
  11   2.0000      -0.111072        -3.0224
  12   2.0000      -0.110149        -2.9973
  13   0.0000       0.133493         3.6325
  14   0.0000       0.141974         3.8633
  15   0.0000       0.143649         3.9089
  16   0.0000       0.154371         4.2007
  17   0.0000       0.167298         4.5524

MULLIKEN ATOMIC CHARGES
-----------------------
   0 C :   -0.916493
   1 C :   -0.154838
   2 H :    0.198663
   3 H :    0.180554
   4 O :   -1.115683
   5 H :    0.274888
   6 H :    0.267875
   7 H :    0.265034
Sum of atomic charges:   -1.0000000

LOEWDIN ATOMIC CHARGES
----------------------
   0 C :    0.492665
   1 C :   -0.434772
   2 H :   -0.242545
   3 H :   -0.227308
   4 O :    0.106196
   5 H :   -0.226888
   6 H :   -0.241038
   7 H :   -0.226310

  Mayer bond orders larger than 0.100000
B(  0-C ,  1-C ) :   0.8644 B(  0-C ,  5-H ) :   0.9137 B(  0-C ,  6-H ) :   0.9228
B(  0-C ,  7-H ) :   0.9286 B(  1-C ,  2-H ) :   0.9836 B(  1-C ,  3-H ) :   0.9831
B(  1-C ,  4-O ) :   1.1320

E(0)                                       ...   -153.510448967
E(0)                                       ...   -153.510448967
E(CORR)(strong-pairs)                      ...     -0.651095156
E(CORR)(weak-pairs)                        ...     -0.000422478
E(CORR)(corrected)                         ...     -0.651517634
E(TOT)                                     ...   -154.161966601
E(CCSD(T))                                 ...   -154.188334739
FINAL SINGLE POINT ENERGY      -154.188334739415

DIPOLE MOMENT
-------------
                                X             Y             Z
Electronic contribution:     -1.02288       2.38031       0.90230
Nuclear contribution   :      1.63615      -3.79938      -1.48621
                        -----------------------------------------
Total Dipole Moment    :      0.61328      -1.41907      -0.58390
                        -----------------------------------------
Magnitude (a.u.)       :      1.65252
Magnitude (Debye)      :      4.20037

Rotational constants in cm-1:     1.265582     0.329289     0.289024
Rotational constants in MHz : 37941.194363  9871.829581  8664.719106

                             ****ORCA TERMINATED NORMALLY****
TOTAL RUN TIME: 0 days 0 hours 2 minutes 9 seconds 25 msec
