                         Program Version 5.0.0 -  RELEASE  -
|  1> !DLPNO-CCSD(T) aug-cc-pVTZ aug-cc-pVTZ/C TightSCF TightPNO RIJCOSX def2/J
|  2> *xyz 1 1
|  3> C          4.99986       -1.59613       -5.92488
|  4> N          5.28156       -1.97413       -4.53576
|  5> C          3.76678       -2.26611       -6.51175
|  6> C          4.79250       -1.36132       -3.45730
|  7> N          3.93990       -0.37492       -3.55736
|  8> N          5.25986       -1.75422       -2.23913
|  9> H          5.92282       -2.52145       -2.18672
| 10> H          4.65468       -1.64040       -1.44202
| 11> H          5.70914       -2.87560       -4.38702
| 12> H          3.33010       -0.31764       -4.36125
| 13> H          3.69849        0.11447       -2.70833
| 14> H          4.84333       -0.51793       -5.94302
| 15> H          5.90170       -1.82250       -6.49647
| 16> H          3.63046       -1.94025       -7.52177
| 17> H          2.90710       -2.00116       -5.93240
| 18> H          3.89538       -3.32820       -6.49392
| 19> *
| 20>
| 21> %MaxCore 64000
| 22>
| 23> %pal nprocs 18
| 24> end
| 25>
| 26> %scf
| 27>   MaxIter 150
| 28> end
| 29>
| 30>
| 31>                          ****END OF INPUT****

CARTESIAN COORDINATES (ANGSTROEM)
---------------------------------
  C      4.999860   -1.596130   -5.924880
  N      5.281560   -1.974130   -4.535760
  C      3.766780   -2.266110   -6.511750
  C      4.792500   -1.361320   -3.457300
  N      3.939900   -0.374920   -3.557360
  N      5.259860   -1.754220   -2.239130
  H      5.922820   -2.521450   -2.186720
  H      4.654680   -1.640400   -1.442020
  H      5.709140   -2.875600   -4.387020
  H      3.330100   -0.317640   -4.361250
  H      3.698490    0.114470   -2.708330
  H      4.843330   -0.517930   -5.943020
  H      5.901700   -1.822500   -6.496470
  H      3.630460   -1.940250   -7.521770
  H      2.907100   -2.001160   -5.932400
  H      3.895380   -3.328200   -6.493920

 Total Charge           Charge          ....    1
 Multiplicity           Mult            ....    1
 Number of Electrons    NEL             ....   48
 Basis Dimension        Dim             ....  506

ORBITAL ENERGIES
----------------

  NO   OCC          E(Eh)            E(eV)
   0   2.0000     -15.791925      -429.7201
   1   2.0000     -15.783309      -429.4857
   2   2.0000     -15.781448      -429.4350
   3   2.0000     -11.589547      -315.3676
   4   2.0000     -11.431955      -311.0793
   5   2.0000     -11.360896      -309.1457
   6   2.0000      -1.540999       -41.9327
   7   2.0000      -1.406294       -38.2672
   8   2.0000      -1.387587       -37.7582
   9   2.0000      -1.192226       -32.4421
  10   2.0000      -1.065047       -28.9814
  11   2.0000      -1.017008       -27.6742
  12   2.0000      -0.977820       -26.6078
  13   2.0000      -0.926199       -25.2031
  14   2.0000      -0.868047       -23.6207
  15   2.0000      -0.863831       -23.5060
  16   2.0000      -0.803220       -21.8567
  17   2.0000      -0.797482       -21.7006
  18   2.0000      -0.769464       -20.9382
  19   2.0000      -0.712924       -19.3997
  20   2.0000      -0.684516       -18.6266
  21   2.0000      -0.662279       -18.0215
  22   2.0000      -0.625783       -17.0284
  23   2.0000      -0.585369       -15.9287
  24   0.0000      -0.093940        -2.5562
  25   0.0000      -0.075193        -2.0461
  26   0.0000      -0.066428        -1.8076
  27   0.0000      -0.062656        -1.7050
  28   0.0000      -0.047510        -1.2928

MULLIKEN ATOMIC CHARGES
-----------------------
   0 C :   -0.422054
   1 N :   -0.008692
   2 C :   -0.844106
   3 C :    0.492891
   4 N :   -0.188599
   5 N :   -0.413406
   6 H :    0.148324
   7 H :    0.160603
   8 H :    0.121616
   9 H :    0.212614
  10 H :    0.145676
  11 H :    0.279742
  12 H :    0.392475
  13 H :    0.374197
  14 H :    0.259077
  15 H :    0.289641
Sum of atomic charges:    1.0000000

LOEWDIN ATOMIC CHARGES
----------------------
   0 C :    0.236589
   1 N :    0.627138
   2 C :    0.640088
   3 C :   -0.359731
   4 N :    0.941090
   5 N :    0.939981
   6 H :   -0.247302
   7 H :   -0.259978
   8 H :   -0.243265
   9 H :   -0.256186
  10 H :   -0.232911
  11 H :   -0.152634
  12 H :   -0.119350
  13 H :   -0.161686
  14 H :   -0.182509
  15 H :   -0.169335

  Mayer bond orders larger than 0.100000
B(  0-C ,  1-N ) :   0.8942 B(  0-C ,  2-C ) :   0.8684 B(  0-C ,  3-C ) :  -0.1270
B(  0-C , 11-H ) :   0.9620 B(  0-C , 12-H ) :   0.8532 B(  1-N ,  3-C ) :   1.0024
B(  1-N ,  5-N ) :  -0.1129 B(  1-N ,  8-H ) :   1.0594 B(  2-C , 13-H ) :   0.8540
B(  2-C , 14-H ) :   0.9828 B(  2-C , 15-H ) :   0.9385 B(  3-C ,  4-N ) :   1.0015
B(  3-C ,  5-N ) :   0.9506 B(  4-N ,  5-N ) :  -0.1163 B(  4-N ,  9-H ) :   1.0080
B(  4-N , 10-H ) :   1.0315 B(  5-N ,  6-H ) :   1.0432 B(  5-N ,  7-H ) :   1.0648

E(0)                                       ...   -282.705781993
E(0)                                       ...   -282.705781993
E(CORR)(strong-pairs)                      ...     -1.183094707
E(CORR)(weak-pairs)                        ...     -0.001279236
E(CORR)(corrected)                         ...     -1.184373944
E(TOT)                                     ...   -283.890155936
E(CCSD(T))                                 ...   -283.937693645
FINAL SINGLE POINT ENERGY      -283.937693644944

DIPOLE MOMENT
-------------
                                X             Y             Z
Electronic contribution:      1.72237       1.09570       4.75688
Nuclear contribution   :     -1.95709      -1.20097      -3.70214
                        -----------------------------------------
Total Dipole Moment    :     -0.23472      -0.10527       1.05475
                        -----------------------------------------
Magnitude (a.u.)       :      1.08566
Magnitude (Debye)      :      2.75953

Rotational constants in cm-1:     0.241661     0.071598     0.061743
Rotational constants in MHz :  7244.800091  2146.442409  1851.001864

                             ****ORCA TERMINATED NORMALLY****
TOTAL RUN TIME: 0 days 0 hours 11 minutes 25 seconds 601 msec
