                         Program Version 5.0.0 -  RELEASE  -
|  1> !DLPNO-CCSD(T) aug-cc-pVTZ aug-cc-pVTZ/C TightSCF TightPNO RIJCOSX def2/J
|  2> *xyz 0 1
|  3> C          3.76678       -2.26611       -6.51175
|  4> C          2.49670       -1.84416       -5.73570
|  5> H          1.62642       -2.21743       -6.30895
|  6> H          2.48182       -2.45607       -4.79341
|  7> F          2.45973       -0.50920       -5.50576
|  8> H          3.82914       -1.70941       -7.42340
|  9> H          3.71764       -3.31144       -6.73483
| 10> H          4.63199       -2.06931       -5.91377
| 11> *
| 12>
| 13> %MaxCore 64000
| 14>
| 15> %pal nprocs 18
| 16> end
| 17>
| 18> %scf
| 19>   MaxIter 150
| 20> end
| 21>
| 22>
| 23>                          ****END OF INPUT****

CARTESIAN COORDINATES (ANGSTROEM)
---------------------------------
  C      3.766780   -2.266110   -6.511750
  C      2.496700   -1.844160   -5.735700
  H      1.626420   -2.217430   -6.308950
  H      2.481820   -2.456070   -4.793410
  F      2.459730   -0.509200   -5.505760
  H      3.829140   -1.709410   -7.423400
  H      3.717640   -3.311440   -6.734830
  H      4.631990   -2.069310   -5.913770

 Total Charge           Charge          ....    0
 Multiplicity           Mult            ....    1
 Number of Electrons    NEL             ....   26
 Basis Dimension        Dim             ....  253

ORBITAL ENERGIES
----------------

  NO   OCC          E(Eh)            E(eV)
   0   2.0000     -26.286920      -715.3035
   1   2.0000     -11.312134      -307.8188
   2   2.0000     -11.218859      -305.2807
   3   2.0000      -1.603473       -43.6327
   4   2.0000      -1.029117       -28.0037
   5   2.0000      -0.864672       -23.5289
   6   2.0000      -0.708449       -19.2779
   7   2.0000      -0.705559       -19.1992
   8   2.0000      -0.667635       -18.1673
   9   2.0000      -0.584022       -15.8921
  10   2.0000      -0.559691       -15.2300
  11   2.0000      -0.491635       -13.3781
  12   2.0000      -0.487498       -13.2655
  13   0.0000       0.030434         0.8282
  14   0.0000       0.041396         1.1264
  15   0.0000       0.042071         1.1448
  16   0.0000       0.049205         1.3389
  17   0.0000       0.067156         1.8274

MULLIKEN ATOMIC CHARGES
-----------------------
   0 C :   -0.955082
   1 C :   -0.075585
   2 H :    0.288125
   3 H :    0.282342
   4 F :   -0.477960
   5 H :    0.307775
   6 H :    0.330791
   7 H :    0.299593
Sum of atomic charges:   -0.0000000

LOEWDIN ATOMIC CHARGES
----------------------
   0 C :    0.588140
   1 C :   -0.131122
   2 H :   -0.175230
   3 H :   -0.158430
   4 F :    0.466588
   5 H :   -0.197381
   6 H :   -0.194945
   7 H :   -0.197619

  Mayer bond orders larger than 0.100000
B(  0-C ,  1-C ) :   0.9179 B(  0-C ,  5-H ) :   0.8990 B(  0-C ,  6-H ) :   0.8956
B(  0-C ,  7-H ) :   0.9111 B(  1-C ,  2-H ) :   0.9287 B(  1-C ,  3-H ) :   0.9262
B(  1-C ,  4-F ) :   0.6376

E(0)                                       ...   -178.146739498
E(0)                                       ...   -178.146739498
E(CORR)(strong-pairs)                      ...     -0.644944269
E(CORR)(weak-pairs)                        ...     -0.000409175
E(CORR)(corrected)                         ...     -0.645353444
E(TOT)                                     ...   -178.792092942
E(CCSD(T))                                 ...   -178.813278608
FINAL SINGLE POINT ENERGY      -178.813278608046

DIPOLE MOMENT
-------------
                                X             Y             Z
Electronic contribution:     -2.07788       4.27327       1.80003
Nuclear contribution   :      2.16248      -5.01128      -1.96962
                        -----------------------------------------
Total Dipole Moment    :      0.08460      -0.73801      -0.16959
                        -----------------------------------------
Magnitude (a.u.)       :      0.76196
Magnitude (Debye)      :      1.93675

Rotational constants in cm-1:     1.244010     0.306580     0.270375
Rotational constants in MHz : 37294.476802  9191.037795  8105.639967

                             ****ORCA TERMINATED NORMALLY****
TOTAL RUN TIME: 0 days 0 hours 1 minutes 16 seconds 416 msec
