                         Program Version 5.0.0 -  RELEASE  -
|  1> !DLPNO-CCSD(T) aug-cc-pVTZ aug-cc-pVTZ/C TightSCF TightPNO RIJCOSX def2/J
|  2> *xyz 0 1
|  3> C          4.99986       -1.59613       -5.92488
|  4> C          5.28156       -1.97413       -4.53576
|  5> C          3.76678       -2.26611       -6.51175
|  6> C          4.79250       -1.36132       -3.45730
|  7> N          3.93990       -0.37492       -3.55736
|  8> N          5.25986       -1.75422       -2.23913
|  9> H          5.92282       -2.52145       -2.18672
| 10> H          4.65468       -1.64040       -1.44202
| 11> H          5.70914       -2.87560       -4.38702
| 12> H          3.33010       -0.31764       -4.36125
| 13> H          3.69849        0.11447       -2.70833
| 14> H          4.84333       -0.51793       -5.94302
| 15> H          5.90170       -1.82250       -6.49647
| 16> H          3.63046       -1.94025       -7.52177
| 17> H          2.90710       -2.00116       -5.93240
| 18> H          3.89538       -3.32820       -6.49392
| 19> *
| 20>
| 21> %MaxCore 64000
| 22>
| 23> %pal nprocs 18
| 24> end
| 25>
| 26> %scf
| 27>   MaxIter 150
| 28> end
| 29>
| 30>
| 31>                          ****END OF INPUT****

CARTESIAN COORDINATES (ANGSTROEM)
---------------------------------
  C      4.999860   -1.596130   -5.924880
  C      5.281560   -1.974130   -4.535760
  C      3.766780   -2.266110   -6.511750
  C      4.792500   -1.361320   -3.457300
  N      3.939900   -0.374920   -3.557360
  N      5.259860   -1.754220   -2.239130
  H      5.922820   -2.521450   -2.186720
  H      4.654680   -1.640400   -1.442020
  H      5.709140   -2.875600   -4.387020
  H      3.330100   -0.317640   -4.361250
  H      3.698490    0.114470   -2.708330
  H      4.843330   -0.517930   -5.943020
  H      5.901700   -1.822500   -6.496470
  H      3.630460   -1.940250   -7.521770
  H      2.907100   -2.001160   -5.932400
  H      3.895380   -3.328200   -6.493920

 Total Charge           Charge          ....    0
 Multiplicity           Mult            ....    1
 Number of Electrons    NEL             ....   48
 Basis Dimension        Dim             ....  506

ORBITAL ENERGIES
----------------

  NO   OCC          E(Eh)            E(eV)
   0   2.0000     -15.565672      -423.5635
   1   2.0000     -15.557788      -423.3489
   2   2.0000     -11.282227      -307.0050
   3   2.0000     -11.194362      -304.6141
   4   2.0000     -11.189758      -304.4888
   5   2.0000     -11.141109      -303.1650
   6   2.0000      -1.279716       -34.8229
   7   2.0000      -1.165071       -31.7032
   8   2.0000      -1.048116       -28.5207
   9   2.0000      -0.948678       -25.8148
  10   2.0000      -0.838303       -22.8114
  11   2.0000      -0.777351       -21.1528
  12   2.0000      -0.728511       -19.8238
  13   2.0000      -0.684858       -18.6359
  14   2.0000      -0.645840       -17.5742
  15   2.0000      -0.609824       -16.5941
  16   2.0000      -0.576523       -15.6880
  17   2.0000      -0.555381       -15.1127
  18   2.0000      -0.542528       -14.7629
  19   2.0000      -0.496755       -13.5174
  20   2.0000      -0.471406       -12.8276
  21   2.0000      -0.462515       -12.5857
  22   2.0000      -0.414519       -11.2796
  23   2.0000      -0.260865        -7.0985
  24   0.0000       0.024199         0.6585
  25   0.0000       0.035288         0.9602
  26   0.0000       0.039353         1.0709
  27   0.0000       0.045877         1.2484
  28   0.0000       0.051846         1.4108

MULLIKEN ATOMIC CHARGES
-----------------------
   0 C :   -0.270934
   1 C :   -0.235894
   2 C :   -0.914152
   3 C :    0.444111
   4 N :   -0.405200
   5 N :   -0.558425
   6 H :    0.081396
   7 H :    0.098139
   8 H :    0.218431
   9 H :    0.152359
  10 H :    0.119933
  11 H :    0.135406
  12 H :    0.308173
  13 H :    0.300620
  14 H :    0.254583
  15 H :    0.271454
Sum of atomic charges:    0.0000000

LOEWDIN ATOMIC CHARGES
----------------------
   0 C :    0.209273
   1 C :    0.204321
   2 C :    0.593914
   3 C :   -0.426231
   4 N :    0.861362
   5 N :    0.854056
   6 H :   -0.279087
   7 H :   -0.301896
   8 H :   -0.277955
   9 H :   -0.282080
  10 H :   -0.273007
  11 H :   -0.174798
  12 H :   -0.149143
  13 H :   -0.187171
  14 H :   -0.190832
  15 H :   -0.180727

  Mayer bond orders larger than 0.100000
B(  0-C ,  1-C ) :   0.7214 B(  0-C ,  2-C ) :   0.8182 B(  0-C ,  3-C ) :   0.1256
B(  0-C , 11-H ) :   0.9944 B(  0-C , 12-H ) :   1.0010 B(  1-C ,  3-C ) :   1.1127
B(  1-C ,  4-N ) :  -0.1159 B(  1-C ,  5-N ) :  -0.2185 B(  1-C ,  8-H ) :   1.0448
B(  2-C , 13-H ) :   0.9423 B(  2-C , 14-H ) :   0.9772 B(  2-C , 15-H ) :   0.9559
B(  3-C ,  4-N ) :   0.7977 B(  3-C ,  5-N ) :   0.7763 B(  3-C ,  7-H ) :  -0.1189
B(  3-C , 11-H ) :   0.1011 B(  4-N ,  5-N ) :  -0.1632 B(  4-N ,  9-H ) :   1.0739
B(  4-N , 10-H ) :   1.0493 B(  5-N ,  6-H ) :   1.1081 B(  5-N ,  7-H ) :   1.1137

E(0)                                       ...   -266.254033629
E(0)                                       ...   -266.254033629
E(CORR)(strong-pairs)                      ...     -1.166378827
E(CORR)(weak-pairs)                        ...     -0.001270365
E(CORR)(corrected)                         ...     -1.167649192
E(TOT)                                     ...   -267.421682821
E(CCSD(T))                                 ...   -267.469527486
FINAL SINGLE POINT ENERGY      -267.469527485682

DIPOLE MOMENT
-------------
                                X             Y             Z
Electronic contribution:      1.18362       1.38306       4.52409
Nuclear contribution   :     -1.82485      -1.28952      -3.74132
                        -----------------------------------------
Total Dipole Moment    :     -0.64123       0.09354       0.78278
                        -----------------------------------------
Magnitude (a.u.)       :      1.01620
Magnitude (Debye)      :      2.58298

Rotational constants in cm-1:     0.245790     0.071632     0.062004
Rotational constants in MHz :  7368.599517  2147.482078  1858.844841

                             ****ORCA TERMINATED NORMALLY****
TOTAL RUN TIME: 0 days 0 hours 14 minutes 21 seconds 720 msec
