                         Program Version 5.0.0 -  RELEASE  -
|  1> !DLPNO-CCSD(T) aug-cc-pVTZ aug-cc-pVTZ/C TightSCF TightPNO RIJCOSX def2/J
|  2> *xyz 0 1
|  3> C          4.99986       -1.59613       -5.92488
|  4> N          5.28156       -1.97413       -4.53576
|  5> C          3.76678       -2.26611       -6.51175
|  6> C          4.79250       -1.36132       -3.45730
|  7> C          3.93990       -0.37492       -3.55736
|  8> N          5.25986       -1.75422       -2.23913
|  9> H          5.92282       -2.52145       -2.18672
| 10> H          4.65468       -1.64040       -1.44202
| 11> H          5.70914       -2.87560       -4.38702
| 12> H          3.33010       -0.31764       -4.36125
| 13> H          3.69849        0.11447       -2.70833
| 14> H          4.84333       -0.51793       -5.94302
| 15> H          5.90170       -1.82250       -6.49647
| 16> H          3.63046       -1.94025       -7.52177
| 17> H          2.90710       -2.00116       -5.93240
| 18> H          3.89538       -3.32820       -6.49392
| 19> *
| 20>
| 21> %MaxCore 64000
| 22>
| 23> %pal nprocs 18
| 24> end
| 25>
| 26> %scf
| 27>   MaxIter 150
| 28> end
| 29>
| 30>
| 31>                          ****END OF INPUT****

CARTESIAN COORDINATES (ANGSTROEM)
---------------------------------
  C      4.999860   -1.596130   -5.924880
  N      5.281560   -1.974130   -4.535760
  C      3.766780   -2.266110   -6.511750
  C      4.792500   -1.361320   -3.457300
  C      3.939900   -0.374920   -3.557360
  N      5.259860   -1.754220   -2.239130
  H      5.922820   -2.521450   -2.186720
  H      4.654680   -1.640400   -1.442020
  H      5.709140   -2.875600   -4.387020
  H      3.330100   -0.317640   -4.361250
  H      3.698490    0.114470   -2.708330
  H      4.843330   -0.517930   -5.943020
  H      5.901700   -1.822500   -6.496470
  H      3.630460   -1.940250   -7.521770
  H      2.907100   -2.001160   -5.932400
  H      3.895380   -3.328200   -6.493920

 Total Charge           Charge          ....    0
 Multiplicity           Mult            ....    1
 Number of Electrons    NEL             ....   48
 Basis Dimension        Dim             ....  506

ORBITAL ENERGIES
----------------

  NO   OCC          E(Eh)            E(eV)
   0   2.0000     -15.559281      -423.3896
   1   2.0000     -15.558923      -423.3798
   2   2.0000     -11.284741      -307.0734
   3   2.0000     -11.257530      -306.3330
   4   2.0000     -11.206974      -304.9573
   5   2.0000     -11.130576      -302.8784
   6   2.0000      -1.278783       -34.7974
   7   2.0000      -1.174355       -31.9558
   8   2.0000      -1.020300       -27.7638
   9   2.0000      -0.978689       -26.6315
  10   2.0000      -0.862340       -23.4655
  11   2.0000      -0.764112       -20.7926
  12   2.0000      -0.724456       -19.7135
  13   2.0000      -0.689590       -18.7647
  14   2.0000      -0.618674       -16.8350
  15   2.0000      -0.611396       -16.6369
  16   2.0000      -0.590094       -16.0573
  17   2.0000      -0.562860       -15.3162
  18   2.0000      -0.540941       -14.7197
  19   2.0000      -0.521129       -14.1806
  20   2.0000      -0.503397       -13.6981
  21   2.0000      -0.493415       -13.4265
  22   2.0000      -0.392650       -10.6846
  23   2.0000      -0.275745        -7.5034
  24   0.0000       0.024696         0.6720
  25   0.0000       0.034829         0.9478
  26   0.0000       0.040243         1.0951
  27   0.0000       0.042543         1.1577
  28   0.0000       0.052412         1.4262

MULLIKEN ATOMIC CHARGES
-----------------------
   0 C :   -0.498750
   1 N :   -0.075168
   2 C :   -0.906345
   3 C :    0.575538
   4 C :   -1.251603
   5 N :   -0.492273
   6 H :    0.091092
   7 H :    0.088476
   8 H :    0.099840
   9 H :    0.521229
  10 H :    0.245471
  11 H :    0.330892
  12 H :    0.373219
  13 H :    0.338808
  14 H :    0.298336
  15 H :    0.261240
Sum of atomic charges:   -0.0000000

LOEWDIN ATOMIC CHARGES
----------------------
   0 C :    0.201980
   1 N :    0.567411
   2 C :    0.613276
   3 C :   -0.447564
   4 C :    0.534519
   5 N :    0.862402
   6 H :   -0.288727
   7 H :   -0.288983
   8 H :   -0.276342
   9 H :   -0.314494
  10 H :   -0.302444
  11 H :   -0.166991
  12 H :   -0.140869
  13 H :   -0.181954
  14 H :   -0.187244
  15 H :   -0.183978

  Mayer bond orders larger than 0.100000
B(  0-C ,  1-N ) :   0.9865 B(  0-C ,  2-C ) :   0.8561 B(  0-C ,  3-C ) :  -0.1386
B(  0-C , 11-H ) :   0.9557 B(  0-C , 12-H ) :   0.8736 B(  1-N ,  3-C ) :   0.8276
B(  1-N ,  4-C ) :  -0.1695 B(  1-N ,  5-N ) :  -0.1800 B(  1-N ,  8-H ) :   1.0472
B(  2-C , 13-H ) :   0.8872 B(  2-C , 14-H ) :   0.9577 B(  2-C , 15-H ) :   0.9633
B(  3-C ,  4-C ) :   1.1896 B(  3-C ,  5-N ) :   0.6918 B(  4-C ,  5-N ) :  -0.1375
B(  4-C ,  9-H ) :   0.7239 B(  4-C , 10-H ) :   1.1181 B(  5-N ,  6-H ) :   1.0787
B(  5-N ,  7-H ) :   1.1455

E(0)                                       ...   -266.250068031
E(0)                                       ...   -266.250068031
E(CORR)(strong-pairs)                      ...     -1.163543569
E(CORR)(weak-pairs)                        ...     -0.001279271
E(CORR)(corrected)                         ...     -1.164822840
E(TOT)                                     ...   -267.414890871
E(CCSD(T))                                 ...   -267.462543646
FINAL SINGLE POINT ENERGY      -267.462543646216

DIPOLE MOMENT
-------------
                                X             Y             Z
Electronic contribution:      2.40295      -0.13046       3.47272
Nuclear contribution   :     -2.10948      -0.95026      -3.53375
                        -----------------------------------------
Total Dipole Moment    :      0.29348      -1.08071      -0.06104
                        -----------------------------------------
Magnitude (a.u.)       :      1.12152
Magnitude (Debye)      :      2.85067

Rotational constants in cm-1:     0.255209     0.072067     0.062929
Rotational constants in MHz :  7650.964615  2160.525743  1886.569524

                             ****ORCA TERMINATED NORMALLY****
TOTAL RUN TIME: 0 days 0 hours 13 minutes 33 seconds 51 msec
