                         Program Version 5.0.0 -  RELEASE  -
|  1> !DLPNO-CCSD(T) aug-cc-pVTZ aug-cc-pVTZ/C TightSCF TightPNO RIJCOSX def2/J
|  2> *xyz 0 1
|  3> C          4.99986       -1.59613       -5.92488
|  4> N          5.28156       -1.97413       -4.53576
|  5> C          3.76678       -2.26611       -6.51175
|  6> C          4.79250       -1.36132       -3.45730
|  7> N          3.93990       -0.37492       -3.55736
|  8> C          5.25986       -1.75422       -2.23913
|  9> H          5.92282       -2.52145       -2.18672
| 10> H          4.65468       -1.64040       -1.44202
| 11> H          5.70914       -2.87560       -4.38702
| 12> H          3.33010       -0.31764       -4.36125
| 13> H          3.69849        0.11447       -2.70833
| 14> H          4.84333       -0.51793       -5.94302
| 15> H          5.90170       -1.82250       -6.49647
| 16> H          3.63046       -1.94025       -7.52177
| 17> H          2.90710       -2.00116       -5.93240
| 18> H          3.89538       -3.32820       -6.49392
| 19> *
| 20>
| 21> %MaxCore 64000
| 22>
| 23> %pal nprocs 18
| 24> end
| 25>
| 26> %scf
| 27>   MaxIter 150
| 28> end
| 29>
| 30>
| 31>                          ****END OF INPUT****

CARTESIAN COORDINATES (ANGSTROEM)
---------------------------------
  C      4.999860   -1.596130   -5.924880
  N      5.281560   -1.974130   -4.535760
  C      3.766780   -2.266110   -6.511750
  C      4.792500   -1.361320   -3.457300
  N      3.939900   -0.374920   -3.557360
  C      5.259860   -1.754220   -2.239130
  H      5.922820   -2.521450   -2.186720
  H      4.654680   -1.640400   -1.442020
  H      5.709140   -2.875600   -4.387020
  H      3.330100   -0.317640   -4.361250
  H      3.698490    0.114470   -2.708330
  H      4.843330   -0.517930   -5.943020
  H      5.901700   -1.822500   -6.496470
  H      3.630460   -1.940250   -7.521770
  H      2.907100   -2.001160   -5.932400
  H      3.895380   -3.328200   -6.493920

 Total Charge           Charge          ....    0
 Multiplicity           Mult            ....    1
 Number of Electrons    NEL             ....   48
 Basis Dimension        Dim             ....  506

ORBITAL ENERGIES
----------------

  NO   OCC          E(Eh)            E(eV)
   0   2.0000     -15.568090      -423.6293
   1   2.0000     -15.560775      -423.4302
   2   2.0000     -11.292767      -307.2918
   3   2.0000     -11.267947      -306.6164
   4   2.0000     -11.219568      -305.3000
   5   2.0000     -11.125375      -302.7368
   6   2.0000      -1.292970       -35.1835
   7   2.0000      -1.189174       -32.3591
   8   2.0000      -1.040373       -28.3100
   9   2.0000      -0.952799       -25.9270
  10   2.0000      -0.855888       -23.2899
  11   2.0000      -0.807273       -21.9670
  12   2.0000      -0.732611       -19.9353
  13   2.0000      -0.675857       -18.3910
  14   2.0000      -0.651789       -17.7361
  15   2.0000      -0.609803       -16.5936
  16   2.0000      -0.597127       -16.2486
  17   2.0000      -0.566016       -15.4021
  18   2.0000      -0.546110       -14.8604
  19   2.0000      -0.516803       -14.0629
  20   2.0000      -0.513995       -13.9865
  21   2.0000      -0.498365       -13.5612
  22   2.0000      -0.400043       -10.8857
  23   2.0000      -0.259101        -7.0505
  24   0.0000       0.025385         0.6908
  25   0.0000       0.033359         0.9077
  26   0.0000       0.037447         1.0190
  27   0.0000       0.039775         1.0823
  28   0.0000       0.054519         1.4835

MULLIKEN ATOMIC CHARGES
-----------------------
   0 C :   -0.486364
   1 N :   -0.003623
   2 C :   -0.870656
   3 C :    0.398973
   4 N :   -0.301610
   5 C :   -1.285254
   6 H :    0.342545
   7 H :    0.399442
   8 H :    0.044670
   9 H :    0.174169
  10 H :    0.066537
  11 H :    0.256493
  12 H :    0.379700
  13 H :    0.350937
  14 H :    0.266918
  15 H :    0.267124
Sum of atomic charges:    0.0000000

LOEWDIN ATOMIC CHARGES
----------------------
   0 C :    0.201475
   1 N :    0.574911
   2 C :    0.613108
   3 C :   -0.459317
   4 N :    0.858644
   5 C :    0.543854
   6 H :   -0.320107
   7 H :   -0.333861
   8 H :   -0.266019
   9 H :   -0.293424
  10 H :   -0.263466
  11 H :   -0.164432
  12 H :   -0.139627
  13 H :   -0.182420
  14 H :   -0.188877
  15 H :   -0.180442

  Mayer bond orders larger than 0.100000
B(  0-C ,  1-N ) :   0.9662 B(  0-C ,  2-C ) :   0.8532 B(  0-C ,  3-C ) :  -0.1553
B(  0-C , 11-H ) :   0.9921 B(  0-C , 12-H ) :   0.8679 B(  1-N ,  3-C ) :   0.6773
B(  1-N ,  4-N ) :  -0.1390 B(  1-N ,  5-C ) :  -0.2277 B(  1-N ,  8-H ) :   1.1453
B(  2-C , 13-H ) :   0.8713 B(  2-C , 14-H ) :   0.9833 B(  2-C , 15-H ) :   0.9552
B(  3-C ,  4-N ) :   0.8681 B(  3-C ,  5-C ) :   1.0429 B(  4-N ,  5-C ) :  -0.2123
B(  4-N ,  9-H ) :   1.0122 B(  4-N , 10-H ) :   1.1265 B(  5-C ,  6-H ) :   0.9869
B(  5-C ,  7-H ) :   0.9128

E(0)                                       ...   -266.243075471
E(0)                                       ...   -266.243075471
E(CORR)(strong-pairs)                      ...     -1.163409776
E(CORR)(weak-pairs)                        ...     -0.001257093
E(CORR)(corrected)                         ...     -1.164666869
E(TOT)                                     ...   -267.407742339
E(CCSD(T))                                 ...   -267.455661771
FINAL SINGLE POINT ENERGY      -267.455661771337

DIPOLE MOMENT
-------------
                                X             Y             Z
Electronic contribution:      1.07637       1.25213       2.01583
Nuclear contribution   :     -1.82946      -1.24287      -3.25410
                        -----------------------------------------
Total Dipole Moment    :     -0.75308       0.00926      -1.23827
                        -----------------------------------------
Magnitude (a.u.)       :      1.44932
Magnitude (Debye)      :      3.68389

Rotational constants in cm-1:     0.244672     0.074506     0.064043
Rotational constants in MHz :  7335.067153  2233.624025  1919.970379

                             ****ORCA TERMINATED NORMALLY****
TOTAL RUN TIME: 0 days 0 hours 12 minutes 10 seconds 76 msec
