                         Program Version 5.0.0 -  RELEASE  -
|  1> !DLPNO-CCSD(T) aug-cc-pVTZ aug-cc-pVTZ/C TightSCF TightPNO RIJCOSX def2/J
|  2>
|  3> *xyzfile 0 1 D3.xyz
|  4>
|  5> %MaxCore 64000
|  6>
|  7> %pal nprocs 18
|  8> end
|  9>
| 10> %scf
| 11>   MaxIter 150
| 12> end
| 13>
| 14>
| 15>                          ****END OF INPUT****

CARTESIAN COORDINATES (ANGSTROEM)
---------------------------------
  C      4.999862   -1.596133   -5.924876
  N      5.281560   -1.974132   -4.535764
  C      3.766779   -2.266110   -6.511752
  C      2.496702   -1.844161   -5.735704
  H      1.626416   -2.217434   -6.308950
  H      2.481824   -2.456069   -4.793414
  F      2.459729   -0.509204   -5.505757
  C      4.792500   -1.361316   -3.457295
  N      3.939898   -0.374925   -3.557359
  C      5.259860   -1.754224   -2.239133
  H      5.922824   -2.521451   -2.186720
  H      4.654678   -1.640404   -1.442016
  H      5.709139   -2.875599   -4.387021
  H      3.330101   -0.317639   -4.361247
  H      3.698494    0.114468   -2.708333
  H      4.843333   -0.517930   -5.943019
  H      5.901695   -1.822503   -6.496467
  H      3.886191   -3.357076   -6.533604
  H      3.685602   -1.922168   -7.547128

 Total Charge           Charge          ....    0
 Multiplicity           Mult            ....    1
 Number of Electrons    NEL             ....   64
 Basis Dimension        Dim             ....  621

ORBITAL ENERGIES
----------------

  NO   OCC          E(Eh)            E(eV)
   0   2.0000     -26.333777      -716.5785
   1   2.0000     -15.559376      -423.3921
   2   2.0000     -15.535672      -422.7471
   3   2.0000     -11.335365      -308.4510
   4   2.0000     -11.283152      -307.0302
   5   2.0000     -11.270769      -306.6932
   6   2.0000     -11.249123      -306.1042
   7   2.0000     -11.116328      -302.4907
   8   2.0000      -1.662590       -45.2414
   9   2.0000      -1.284464       -34.9520
  10   2.0000      -1.181084       -32.1389
  11   2.0000      -1.074363       -29.2349
  12   2.0000      -0.985512       -26.8172
  13   2.0000      -0.920846       -25.0575
  14   2.0000      -0.841977       -22.9114
  15   2.0000      -0.804869       -21.9016
  16   2.0000      -0.792536       -21.5660
  17   2.0000      -0.750300       -20.4167
  18   2.0000      -0.718380       -19.5481
  19   2.0000      -0.687641       -18.7117
  20   2.0000      -0.655502       -17.8371
  21   2.0000      -0.642068       -17.4716
  22   2.0000      -0.609192       -16.5770
  23   2.0000      -0.597895       -16.2696
  24   2.0000      -0.550482       -14.9794
  25   2.0000      -0.539233       -14.6733
  26   2.0000      -0.523257       -14.2386
  27   2.0000      -0.509760       -13.8713
  28   2.0000      -0.495437       -13.4815
  29   2.0000      -0.491486       -13.3740
  30   2.0000      -0.390249       -10.6192
  31   2.0000      -0.250671        -6.8211
  32   0.0000       0.022399         0.6095
  33   0.0000       0.031939         0.8691
  34   0.0000       0.034744         0.9454
  35   0.0000       0.039234         1.0676
  36   0.0000       0.051880         1.4117

MULLIKEN ATOMIC CHARGES
-----------------------
   0 C :   -0.354941
   1 N :   -0.152130
   2 C :   -0.620420
   3 C :   -0.181465
   4 H :    0.386268
   5 H :    0.330560
   6 F :   -0.516654
   7 C :    1.021477
   8 N :   -0.506798
   9 C :   -1.694009
  10 H :    0.446510
  11 H :    0.240089
  12 H :   -0.021275
  13 H :    0.415013
  14 H :   -0.002790
  15 H :    0.292695
  16 H :    0.361154
  17 H :    0.315508
  18 H :    0.241206
Sum of atomic charges:   -0.0000000

LOEWDIN ATOMIC CHARGES
----------------------
   0 C :    0.210478
   1 N :    0.577818
   2 C :    0.300854
   3 C :   -0.016523
   4 H :   -0.148936
   5 H :   -0.130877
   6 F :    0.699528
   7 C :   -0.458825
   8 N :    0.871574
   9 C :    0.539120
  10 H :   -0.324924
  11 H :   -0.335574
  12 H :   -0.264965
  13 H :   -0.679357
  14 H :   -0.250208
  15 H :   -0.163977
  16 H :   -0.135498
  17 H :   -0.134284
  18 H :   -0.155425

  Mayer bond orders larger than 0.100000
B(  0-C ,  1-N ) :   0.9426 B(  0-C ,  2-C ) :   0.8333 B(  0-C ,  7-C ) :  -0.1030
B(  0-C , 15-H ) :   1.0053 B(  0-C , 16-H ) :   0.8928 B(  1-N ,  7-C ) :   0.7197
B(  1-N ,  8-N ) :  -0.1284 B(  1-N ,  9-C ) :  -0.2491 B(  1-N , 12-H ) :   1.2131
B(  2-C ,  3-C ) :   0.9493 B(  2-C ,  6-F ) :   0.1401 B(  2-C , 17-H ) :   0.8882
B(  2-C , 18-H ) :   0.9614 B(  3-C ,  4-H ) :   0.8932 B(  3-C ,  5-H ) :   0.9328
B(  3-C ,  6-F ) :   0.6059 B(  7-C ,  8-N ) :   0.8363 B(  7-C ,  9-C ) :   0.7979
B(  7-C , 13-H ) :  -0.1725 B(  8-N , 13-H ) :   0.7976 B(  8-N , 14-H ) :   1.2392
B(  9-C , 10-H ) :   0.7909 B(  9-C , 11-H ) :   1.2124

E(0)                                       ...   -404.156381466
E(0)                                       ...   -404.156381466
E(CORR)(strong-pairs)                      ...     -1.596976167
E(CORR)(weak-pairs)                        ...     -0.001977897
E(CORR)(corrected)                         ...     -1.598954064
E(TOT)                                     ...   -405.755335530
E(CCSD(T))                                 ...   -405.819555280
FINAL SINGLE POINT ENERGY      -405.819555279933

DIPOLE MOMENT
-------------
                                X             Y             Z
Electronic contribution:     -3.55501       3.81150      -1.64400
Nuclear contribution   :      2.63642      -4.47741       0.00296
                        -----------------------------------------
Total Dipole Moment    :     -0.91860      -0.66591      -1.64104
                        -----------------------------------------
Magnitude (a.u.)       :      1.99506
Magnitude (Debye)      :      5.07104

Rotational constants in cm-1:     0.108041     0.051979     0.040387
Rotational constants in MHz :  3238.993235  1558.297571  1210.782552

                             ****ORCA TERMINATED NORMALLY****
TOTAL RUN TIME: 0 days 1 hours 0 minutes 57 seconds 448 msec
