                         Program Version 5.0.0 -  RELEASE  -
|  1> !B3LYP D3BJ RIJCOSX def2-SVPD def2/J TightSCF
|  2> *xyz -1 1
|  3> C          4.93020       -7.37532       -2.64962
|  4> C          3.84189       -6.95161       -3.63283
|  5> H          3.45814       -5.95442       -3.40712
|  6> H          2.98848       -7.64361       -3.56708
|  7> S          4.31812       -6.91593       -5.36869
|  8> O          5.40615       -5.89948       -5.51297
|  9> O          3.11191       -6.44508       -6.04379
| 10> C          6.17399       -6.48552       -2.60631
| 11> H          4.46961       -7.40617       -1.65588
| 12> H          5.23013       -8.39868       -2.88591
| 13> O          4.76340       -8.23942       -5.69863
| 14> H          6.62449       -6.45478       -3.57637
| 15> H          6.87304       -6.88376       -1.90088
| 16> H          5.89434       -5.49571       -2.31140
| 17> *
| 18>
| 19> %MaxCore 64000
| 20>
| 21> %pal nprocs 8
| 22> end
| 23>
| 24> %scf
| 25>   MaxIter 150
| 26> end
| 27>
| 28>
| 29>                          ****END OF INPUT****

CARTESIAN COORDINATES (ANGSTROEM)
---------------------------------
  C      4.930200   -7.375320   -2.649620
  C      3.841890   -6.951610   -3.632830
  H      3.458140   -5.954420   -3.407120
  H      2.988480   -7.643610   -3.567080
  S      4.318120   -6.915930   -5.368690
  O      5.406150   -5.899480   -5.512970
  O      3.111910   -6.445080   -6.043790
  C      6.173990   -6.485520   -2.606310
  H      4.469610   -7.406170   -1.655880
  H      5.230130   -8.398680   -2.885910
  O      4.763400   -8.239420   -5.698630
  H      6.624490   -6.454780   -3.576370
  H      6.873040   -6.883760   -1.900880
  H      5.894340   -5.495710   -2.311400

 Total Charge           Charge          ....   -1
 Multiplicity           Mult            ....    1
 Number of Electrons    NEL             ....   66
 Basis Dimension        Dim             ....  212

ORBITAL ENERGIES
----------------

  NO   OCC          E(Eh)            E(eV)
   0   2.0000     -88.883981     -2418.6561
   1   2.0000     -18.926912      -515.0274
   2   2.0000     -18.916941      -514.7561
   3   2.0000     -18.910236      -514.5737
   4   2.0000     -10.055921      -273.6355
   5   2.0000     -10.050768      -273.4953
   6   2.0000     -10.035359      -273.0760
   7   2.0000      -7.937430      -215.9885
   8   2.0000      -5.906439      -160.7224
   9   2.0000      -5.906222      -160.7165
  10   2.0000      -5.905700      -160.7023
  11   2.0000      -0.930956       -25.3326
  12   2.0000      -0.794174       -21.6106
  13   2.0000      -0.764864       -20.8130
  14   2.0000      -0.652417       -17.7532
  15   2.0000      -0.562864       -15.3163
  16   2.0000      -0.468888       -12.7591
  17   2.0000      -0.384122       -10.4525
  18   2.0000      -0.332914        -9.0591
  19   2.0000      -0.320166        -8.7122
  20   2.0000      -0.295061        -8.0290
  21   2.0000      -0.281327        -7.6553
  22   2.0000      -0.264086        -7.1861
  23   2.0000      -0.255778        -6.9601
  24   2.0000      -0.225459        -6.1350
  25   2.0000      -0.218461        -5.9446
  26   2.0000      -0.207081        -5.6349
  27   2.0000      -0.153764        -4.1841
  28   2.0000      -0.152589        -4.1521
  29   2.0000      -0.119965        -3.2644
  30   2.0000      -0.109820        -2.9883
  31   2.0000      -0.101511        -2.7622
  32   2.0000      -0.066996        -1.8231
  33   0.0000       0.133562         3.6344
  34   0.0000       0.159453         4.3389
  35   0.0000       0.167002         4.5444
  36   0.0000       0.176539         4.8039
  37   0.0000       0.194833         5.3017

MULLIKEN ATOMIC CHARGES
-----------------------
   0 C :   -0.102508
   1 C :    0.146175
   2 H :   -0.087357
   3 H :   -0.084817
   4 S :    1.358437
   5 O :   -0.853191
   6 O :   -0.835034
   7 C :    1.040425
   8 H :   -0.202408
   9 H :   -0.118633
  10 O :   -0.786588
  11 H :   -0.191143
  12 H :   -0.175524
  13 H :   -0.107835
Sum of atomic charges:   -1.0000000

LOEWDIN ATOMIC CHARGES
----------------------
   0 C :   -0.088364
   1 C :   -0.092920
   2 H :    0.004056
   3 H :    0.007674
   4 S :    0.869152
   5 O :   -0.586788
   6 O :   -0.585525
   7 C :    0.126774
   8 H :    0.002575
   9 H :    0.013263
  10 O :   -0.568029
  11 H :   -0.042876
  12 H :   -0.036858
  13 H :   -0.022132

  Mayer bond orders larger than 0.100000
B(  0-C ,  1-C ) :   1.2275 B(  0-C ,  2-H ) :   0.1605 B(  0-C ,  3-H ) :   0.1544
B(  0-C ,  7-C ) :   1.2468 B(  0-C ,  8-H ) :   0.8043 B(  0-C ,  9-H ) :   0.8729
B(  0-C , 11-H ) :   0.2657 B(  0-C , 12-H ) :   0.2401 B(  0-C , 13-H ) :   0.2533
B(  1-C ,  2-H ) :   0.9074 B(  1-C ,  3-H ) :   0.8787 B(  1-C ,  4-S ) :   0.9139
B(  1-C ,  8-H ) :   0.1854 B(  1-C ,  9-H ) :   0.1528 B(  4-S ,  5-O ) :   1.2260
B(  4-S ,  6-O ) :   1.3191 B(  4-S , 10-O ) :   1.2752 B(  7-C ,  9-H ) :   0.1048
B(  7-C , 11-H ) :   0.7517 B(  7-C , 12-H ) :   0.6855 B(  7-C , 13-H ) :   0.6842
B( 11-H , 13-H ) :   0.1290

Dispersion correction           -0.022672584
FINAL SINGLE POINT ENERGY      -741.852614720281

DIPOLE MOMENT
-------------
                                X             Y             Z
Electronic contribution:     -3.08529      -0.30494     -10.14605
Nuclear contribution   :      3.14317       0.05805      12.49367
                        -----------------------------------------
Total Dipole Moment    :      0.05789      -0.24689       2.34762
                        -----------------------------------------
Magnitude (a.u.)       :      2.36128
Magnitude (Debye)      :      6.00189

Rotational constants in cm-1:     0.133431     0.055055     0.052069
Rotational constants in MHz :  4000.170974  1650.506165  1561.001383

                             ****ORCA TERMINATED NORMALLY****
TOTAL RUN TIME: 0 days 0 hours 0 minutes 14 seconds 402 msec
