                         Program Version 5.0.0 -  RELEASE  -
|  1> !B3LYP D3BJ RIJCOSX def2-SVPD def2/J TightSCF
|  2> *xyz 1 1
|  3> C          5.55821       -1.99291       -6.21505
|  4> C          4.18188       -2.58967       -6.29891
|  5> N          3.14587       -1.76843       -6.48675
|  6> N          4.01910       -3.86431       -6.22743
|  7> H          4.76849       -4.59115       -5.99077
|  8> H          3.12241       -4.33339       -6.31462
|  9> H          3.28164       -0.77779       -6.56655
| 10> H          2.21255       -2.13419       -6.56225
| 11> C          6.41926       -2.54294       -5.07763
| 12> C          5.89651       -2.16931       -3.69455
| 13> H          7.42888       -2.14367       -5.20808
| 14> H          6.50589       -3.62754       -5.17550
| 15> H          6.03683       -2.19819       -7.17685
| 16> H          5.46761       -0.90737       -6.12797
| 17> H          5.81870       -1.10488       -3.61824
| 18> H          6.57185       -2.53200       -2.94804
| 19> H          4.93221       -2.60892       -3.54698
| 20> *
| 21>
| 22> %MaxCore 64000
| 23>
| 24> %pal nprocs 8
| 25> end
| 26>
| 27> %scf
| 28>   MaxIter 150
| 29> end
| 30>
| 31>
| 32>                          ****END OF INPUT****

CARTESIAN COORDINATES (ANGSTROEM)
---------------------------------
  C      5.558210   -1.992910   -6.215050
  C      4.181880   -2.589670   -6.298910
  N      3.145870   -1.768430   -6.486750
  N      4.019100   -3.864310   -6.227430
  H      4.768490   -4.591150   -5.990770
  H      3.122410   -4.333390   -6.314620
  H      3.281640   -0.777790   -6.566550
  H      2.212550   -2.134190   -6.562250
  C      6.419260   -2.542940   -5.077630
  C      5.896510   -2.169310   -3.694550
  H      7.428880   -2.143670   -5.208080
  H      6.505890   -3.627540   -5.175500
  H      6.036830   -2.198190   -7.176850
  H      5.467610   -0.907370   -6.127970
  H      5.818700   -1.104880   -3.618240
  H      6.571850   -2.532000   -2.948040
  H      4.932210   -2.608920   -3.546980

 Total Charge           Charge          ....    1
 Multiplicity           Mult            ....    1
 Number of Electrons    NEL             ....   48
 Basis Dimension        Dim             ....  208

ORBITAL ENERGIES
----------------

  NO   OCC          E(Eh)            E(eV)
   0   2.0000     -14.579924      -396.7399
   1   2.0000     -14.569269      -396.4500
   2   2.0000     -10.503804      -285.8230
   3   2.0000     -10.375713      -282.3375
   4   2.0000     -10.343290      -281.4552
   5   2.0000     -10.307650      -280.4854
   6   2.0000      -1.192772       -32.4570
   7   2.0000      -1.095645       -29.8140
   8   2.0000      -0.966145       -26.2901
   9   2.0000      -0.882788       -24.0219
  10   2.0000      -0.833600       -22.6834
  11   2.0000      -0.780136       -21.2286
  12   2.0000      -0.768190       -20.9035
  13   2.0000      -0.727202       -19.7882
  14   2.0000      -0.697328       -18.9753
  15   2.0000      -0.651835       -17.7373
  16   2.0000      -0.627535       -17.0761
  17   2.0000      -0.588383       -16.0107
  18   2.0000      -0.574839       -15.6422
  19   2.0000      -0.561278       -15.2732
  20   2.0000      -0.502336       -13.6692
  21   2.0000      -0.500048       -13.6070
  22   2.0000      -0.494583       -13.4583
  23   2.0000      -0.491081       -13.3630
  24   0.0000      -0.208520        -5.6741
  25   0.0000      -0.159174        -4.3313
  26   0.0000      -0.126539        -3.4433
  27   0.0000      -0.113761        -3.0956
  28   0.0000      -0.094308        -2.5662

MULLIKEN ATOMIC CHARGES
-----------------------
   0 C :    0.214199
   1 C :    0.780010
   2 N :    0.160723
   3 N :    0.156983
   4 H :    0.047461
   5 H :   -0.195055
   6 H :   -0.040866
   7 H :   -0.178241
   8 C :   -0.122738
   9 C :    0.945798
  10 H :   -0.190360
  11 H :   -0.185361
  12 H :   -0.131221
  13 H :    0.057415
  14 H :   -0.039558
  15 H :   -0.146052
  16 H :   -0.133138
Sum of atomic charges:    1.0000000

LOEWDIN ATOMIC CHARGES
----------------------
   0 C :    0.049345
   1 C :   -0.047400
   2 N :    0.293993
   3 N :    0.269841
   4 H :    0.095557
   5 H :    0.048777
   6 H :    0.038208
   7 H :    0.037424
   8 C :   -0.048812
   9 C :    0.153766
  10 H :    0.039641
  11 H :    0.010731
  12 H :    0.053178
  13 H :    0.037704
  14 H :   -0.007277
  15 H :   -0.002496
  16 H :   -0.022181

  Mayer bond orders larger than 0.100000
B(  0-C ,  1-C ) :   1.0445 B(  0-C ,  2-N ) :   0.1004 B(  0-C ,  8-C ) :   1.2238
B(  0-C , 10-H ) :   0.1496 B(  0-C , 11-H ) :   0.1574 B(  0-C , 12-H ) :   0.8260
B(  0-C , 13-H ) :   0.7814 B(  1-C ,  2-N ) :   0.9799 B(  1-C ,  3-N ) :   1.1405
B(  1-C ,  4-H ) :  -0.1092 B(  1-C ,  5-H ) :  -0.2463 B(  1-C ,  7-H ) :  -0.2221
B(  1-C , 12-H ) :   0.1739 B(  1-C , 13-H ) :   0.1449 B(  2-N ,  3-N ) :   0.1615
B(  2-N ,  6-H ) :   1.1455 B(  2-N ,  7-H ) :   1.3301 B(  3-N ,  4-H ) :   1.1336
B(  3-N ,  5-H ) :   1.3274 B(  4-H ,  5-H ) :  -0.1974 B(  6-H ,  7-H ) :  -0.1895
B(  8-C ,  9-C ) :   1.3263 B(  8-C , 10-H ) :   0.9072 B(  8-C , 11-H ) :   0.8597
B(  8-C , 12-H ) :   0.1201 B(  8-C , 13-H ) :   0.1568 B(  8-C , 14-H ) :   0.2423
B(  8-C , 15-H ) :   0.2404 B(  8-C , 16-H ) :   0.2344 B(  9-C , 14-H ) :   0.7219
B(  9-C , 15-H ) :   0.7198 B(  9-C , 16-H ) :   0.7816

Dispersion correction           -0.022236357
FINAL SINGLE POINT ENERGY      -268.014072058414

DIPOLE MOMENT
-------------
                                X             Y             Z
Electronic contribution:     -4.01795      -0.93726      -3.72364
Nuclear contribution   :      2.70373       0.48594       2.85544
                        -----------------------------------------
Total Dipole Moment    :     -1.31422      -0.45132      -0.86820
                        -----------------------------------------
Magnitude (a.u.)       :      1.63849
Magnitude (Debye)      :      4.16470

Rotational constants in cm-1:     0.185545     0.074107     0.068805
Rotational constants in MHz :  5562.487769  2221.680591  2062.713441

                             ****ORCA TERMINATED NORMALLY****
TOTAL RUN TIME: 0 days 0 hours 0 minutes 14 seconds 256 msec
