                         Program Version 5.0.0 -  RELEASE  -
|  1> !B3LYP D3BJ RIJCOSX def2-SVPD def2/J TightSCF
|  2> *xyz 0 1
|  3> C          4.93020       -7.37532       -2.64962
|  4> C          3.84189       -6.95161       -3.63283
|  5> H          3.45814       -5.95442       -3.40712
|  6> H          2.98848       -7.64361       -3.56708
|  7> S          4.31812       -6.91593       -5.36869
|  8> F          5.40615       -5.89948       -5.51297
|  9> O          3.11191       -6.44508       -6.04379
| 10> C          6.17399       -6.48552       -2.60631
| 11> H          4.46961       -7.40617       -1.65588
| 12> H          5.23013       -8.39868       -2.88591
| 13> O          4.76340       -8.23942       -5.69863
| 14> H          6.62449       -6.45478       -3.57637
| 15> H          6.87304       -6.88376       -1.90088
| 16> H          5.89434       -5.49571       -2.31140
| 17> *
| 18>
| 19> %MaxCore 64000
| 20>
| 21> %pal nprocs 8
| 22> end
| 23>
| 24> %scf
| 25>   MaxIter 150
| 26> end
| 27>
| 28>
| 29>                          ****END OF INPUT****

CARTESIAN COORDINATES (ANGSTROEM)
---------------------------------
  C      4.930200   -7.375320   -2.649620
  C      3.841890   -6.951610   -3.632830
  H      3.458140   -5.954420   -3.407120
  H      2.988480   -7.643610   -3.567080
  S      4.318120   -6.915930   -5.368690
  F      5.406150   -5.899480   -5.512970
  O      3.111910   -6.445080   -6.043790
  C      6.173990   -6.485520   -2.606310
  H      4.469610   -7.406170   -1.655880
  H      5.230130   -8.398680   -2.885910
  O      4.763400   -8.239420   -5.698630
  H      6.624490   -6.454780   -3.576370
  H      6.873040   -6.883760   -1.900880
  H      5.894340   -5.495710   -2.311400

 Total Charge           Charge          ....    0
 Multiplicity           Mult            ....    1
 Number of Electrons    NEL             ....   66
 Basis Dimension        Dim             ....  212

ORBITAL ENERGIES
----------------

  NO   OCC          E(Eh)            E(eV)
   0   2.0000     -89.136671     -2425.5321
   1   2.0000     -24.792789      -674.6461
   2   2.0000     -19.157652      -521.3062
   3   2.0000     -19.147444      -521.0284
   4   2.0000     -10.248374      -278.8724
   5   2.0000     -10.216108      -277.9944
   6   2.0000     -10.191916      -277.3361
   7   2.0000      -8.191001      -222.8885
   8   2.0000      -6.163784      -167.7251
   9   2.0000      -6.157846      -167.5635
  10   2.0000      -6.156439      -167.5252
  11   2.0000      -1.335307       -36.3355
  12   2.0000      -1.116431       -30.3796
  13   2.0000      -1.019769       -27.7493
  14   2.0000      -0.831401       -22.6236
  15   2.0000      -0.749641       -20.3988
  16   2.0000      -0.698816       -19.0157
  17   2.0000      -0.638427       -17.3725
  18   2.0000      -0.572533       -15.5794
  19   2.0000      -0.561686       -15.2843
  20   2.0000      -0.549294       -14.9470
  21   2.0000      -0.495966       -13.4959
  22   2.0000      -0.482130       -13.1194
  23   2.0000      -0.468184       -12.7399
  24   2.0000      -0.456640       -12.4258
  25   2.0000      -0.439552       -11.9608
  26   2.0000      -0.398750       -10.8505
  27   2.0000      -0.389683       -10.6038
  28   2.0000      -0.377255       -10.2656
  29   2.0000      -0.368472       -10.0266
  30   2.0000      -0.343145        -9.3374
  31   2.0000      -0.329831        -8.9752
  32   2.0000      -0.320471        -8.7205
  33   0.0000      -0.008894        -0.2420
  34   0.0000       0.020701         0.5633
  35   0.0000       0.027260         0.7418
  36   0.0000       0.033926         0.9232
  37   0.0000       0.041129         1.1192

MULLIKEN ATOMIC CHARGES
-----------------------
   0 C :   -0.057888
   1 C :    0.116483
   2 H :   -0.029840
   3 H :   -0.032219
   4 S :    1.490809
   5 F :   -0.433369
   6 O :   -0.689583
   7 C :    1.034734
   8 H :   -0.164918
   9 H :   -0.102586
  10 O :   -0.658059
  11 H :   -0.234876
  12 H :   -0.148121
  13 H :   -0.090565
Sum of atomic charges:   -0.0000000

LOEWDIN ATOMIC CHARGES
----------------------
   0 C :   -0.070583
   1 C :   -0.046993
   2 H :    0.022927
   3 H :    0.040203
   4 S :    1.120950
   5 F :   -0.278536
   6 O :   -0.472577
   7 C :    0.145354
   8 H :    0.028485
   9 H :    0.026385
  10 O :   -0.456574
  11 H :   -0.035764
  12 H :   -0.012275
  13 H :   -0.011002

  Mayer bond orders larger than 0.100000
B(  0-C ,  1-C ) :   1.2573 B(  0-C ,  2-H ) :   0.1559 B(  0-C ,  3-H ) :   0.1465
B(  0-C ,  7-C ) :   1.2663 B(  0-C ,  8-H ) :   0.7977 B(  0-C ,  9-H ) :   0.8818
B(  0-C , 11-H ) :   0.2446 B(  0-C , 12-H ) :   0.2279 B(  0-C , 13-H ) :   0.2427
B(  1-C ,  2-H ) :   0.9105 B(  1-C ,  3-H ) :   0.8646 B(  1-C ,  4-S ) :   0.9786
B(  1-C ,  8-H ) :   0.1767 B(  1-C ,  9-H ) :   0.1516 B(  4-S ,  5-F ) :   0.5954
B(  4-S ,  6-O ) :   1.5334 B(  4-S , 10-O ) :   1.5055 B(  7-C ,  9-H ) :   0.1013
B(  7-C , 11-H ) :   0.7569 B(  7-C , 12-H ) :   0.7037 B(  7-C , 13-H ) :   0.6956
B( 11-H , 13-H ) :   0.1161

Dispersion correction           -0.021723468
FINAL SINGLE POINT ENERGY      -766.354873393638

DIPOLE MOMENT
-------------
                                X             Y             Z
Electronic contribution:     -1.89555       1.39368     -11.71934
Nuclear contribution   :      2.27444      -1.01744      13.40618
                        -----------------------------------------
Total Dipole Moment    :      0.37889       0.37624       1.68685
                        -----------------------------------------
Magnitude (a.u.)       :      1.76934
Magnitude (Debye)      :      4.49731

Rotational constants in cm-1:     0.126966     0.054929     0.051005
Rotational constants in MHz :  3806.345018  1646.729702  1529.089209

                             ****ORCA TERMINATED NORMALLY****
TOTAL RUN TIME: 0 days 0 hours 0 minutes 14 seconds 89 msec
