                         Program Version 5.0.0 -  RELEASE  -
|  1> !B3LYP D3BJ RIJCOSX def2-SVPD def2/J TightSCF
|  2> *xyz 0 1
|  3> C          5.55821       -1.99291       -6.21505
|  4> C          4.18188       -2.58967       -6.29891
|  5> C          3.14587       -1.76843       -6.48675
|  6> N          4.01910       -3.86431       -6.22743
|  7> H          4.76849       -4.59115       -5.99077
|  8> H          3.12241       -4.33339       -6.31462
|  9> H          3.28164       -0.77779       -6.56655
| 10> H          2.21255       -2.13419       -6.56225
| 11> C          6.41926       -2.54294       -5.07763
| 12> C          5.89651       -2.16931       -3.69455
| 13> H          7.42888       -2.14367       -5.20808
| 14> H          6.50589       -3.62754       -5.17550
| 15> H          6.03683       -2.19819       -7.17685
| 16> H          5.46761       -0.90737       -6.12797
| 17> H          5.81870       -1.10488       -3.61824
| 18> H          6.57185       -2.53200       -2.94804
| 19> H          4.93221       -2.60892       -3.54698
| 20> *
| 21>
| 22> %MaxCore 64000
| 23>
| 24> %pal nprocs 8
| 25> end
| 26>
| 27> %scf
| 28>   MaxIter 150
| 29> end
| 30>
| 31>
| 32>                          ****END OF INPUT****

CARTESIAN COORDINATES (ANGSTROEM)
---------------------------------
  C      5.558210   -1.992910   -6.215050
  C      4.181880   -2.589670   -6.298910
  C      3.145870   -1.768430   -6.486750
  N      4.019100   -3.864310   -6.227430
  H      4.768490   -4.591150   -5.990770
  H      3.122410   -4.333390   -6.314620
  H      3.281640   -0.777790   -6.566550
  H      2.212550   -2.134190   -6.562250
  C      6.419260   -2.542940   -5.077630
  C      5.896510   -2.169310   -3.694550
  H      7.428880   -2.143670   -5.208080
  H      6.505890   -3.627540   -5.175500
  H      6.036830   -2.198190   -7.176850
  H      5.467610   -0.907370   -6.127970
  H      5.818700   -1.104880   -3.618240
  H      6.571850   -2.532000   -2.948040
  H      4.932210   -2.608920   -3.546980

 Total Charge           Charge          ....    0
 Multiplicity           Mult            ....    1
 Number of Electrons    NEL             ....   48
 Basis Dimension        Dim             ....  208

ORBITAL ENERGIES
----------------

  NO   OCC          E(Eh)            E(eV)
   0   2.0000     -14.339695      -390.2029
   1   2.0000     -10.203990      -277.6647
   2   2.0000     -10.181230      -277.0454
   3   2.0000     -10.179227      -276.9908
   4   2.0000     -10.163705      -276.5685
   5   2.0000     -10.112694      -275.1804
   6   2.0000      -0.926114       -25.2009
   7   2.0000      -0.785948       -21.3867
   8   2.0000      -0.726539       -19.7701
   9   2.0000      -0.673241       -18.3198
  10   2.0000      -0.597164       -16.2497
  11   2.0000      -0.575999       -15.6737
  12   2.0000      -0.517975       -14.0948
  13   2.0000      -0.465785       -12.6747
  14   2.0000      -0.453163       -12.3312
  15   2.0000      -0.446063       -12.1380
  16   2.0000      -0.396057       -10.7773
  17   2.0000      -0.390577       -10.6281
  18   2.0000      -0.374658       -10.1949
  19   2.0000      -0.366819        -9.9817
  20   2.0000      -0.339110        -9.2276
  21   2.0000      -0.326702        -8.8900
  22   2.0000      -0.323064        -8.7910
  23   2.0000      -0.185877        -5.0580
  24   0.0000       0.010053         0.2736
  25   0.0000       0.035667         0.9705
  26   0.0000       0.042040         1.1440
  27   0.0000       0.046559         1.2669
  28   0.0000       0.065140         1.7726

MULLIKEN ATOMIC CHARGES
-----------------------
   0 C :    0.443058
   1 C :   -0.112473
   2 C :    0.724728
   3 N :    0.239908
   4 H :   -0.096938
   5 H :   -0.277279
   6 H :   -0.295426
   7 H :   -0.567525
   8 C :   -0.150899
   9 C :    0.944882
  10 H :   -0.213925
  11 H :   -0.199062
  12 H :   -0.207749
  13 H :    0.117175
  14 H :   -0.059432
  15 H :   -0.156511
  16 H :   -0.132532
Sum of atomic charges:   -0.0000000

LOEWDIN ATOMIC CHARGES
----------------------
   0 C :    0.010100
   1 C :   -0.267555
   2 C :    0.188732
   3 N :    0.156726
   4 H :    0.038630
   5 H :    0.008411
   6 H :   -0.097708
   7 H :   -0.096610
   8 C :   -0.072842
   9 C :    0.134774
  10 H :    0.016363
  11 H :   -0.002357
  12 H :    0.023903
  13 H :    0.024053
  14 H :   -0.017552
  15 H :   -0.023632
  16 H :   -0.023435

  Mayer bond orders larger than 0.100000
B(  0-C ,  1-C ) :   1.0810 B(  0-C ,  2-C ) :   0.1533 B(  0-C ,  6-H ) :  -0.1224
B(  0-C ,  8-C ) :   1.1822 B(  0-C , 10-H ) :   0.1819 B(  0-C , 11-H ) :   0.1770
B(  0-C , 12-H ) :   0.7553 B(  0-C , 13-H ) :   0.7497 B(  1-C ,  2-C ) :   1.5170
B(  1-C ,  3-N ) :   1.2776 B(  1-C ,  5-H ) :  -0.1297 B(  1-C ,  7-H ) :   0.2762
B(  1-C , 12-H ) :   0.2795 B(  2-C ,  3-N ) :   0.2942 B(  2-C ,  6-H ) :   1.0288
B(  2-C ,  7-H ) :   0.4811 B(  3-N ,  4-H ) :   1.1896 B(  3-N ,  5-H ) :   1.2683
B(  4-H ,  5-H ) :  -0.1803 B(  8-C ,  9-C ) :   1.2989 B(  8-C , 10-H ) :   0.8738
B(  8-C , 11-H ) :   0.8560 B(  8-C , 13-H ) :   0.1861 B(  8-C , 14-H ) :   0.2581
B(  8-C , 15-H ) :   0.2450 B(  8-C , 16-H ) :   0.2461 B(  9-C , 14-H ) :   0.7257
B(  9-C , 15-H ) :   0.7013 B(  9-C , 16-H ) :   0.7833

Dispersion correction           -0.023003903
FINAL SINGLE POINT ENERGY      -251.552142551753

DIPOLE MOMENT
-------------
                                X             Y             Z
Electronic contribution:     -1.93934      -1.40818      -2.52079
Nuclear contribution   :      2.30279       0.65856       2.66048
                        -----------------------------------------
Total Dipole Moment    :      0.36345      -0.74962       0.13969
                        -----------------------------------------
Magnitude (a.u.)       :      0.84471
Magnitude (Debye)      :      2.14708

Rotational constants in cm-1:     0.189707     0.076319     0.071159
Rotational constants in MHz :  5687.269526  2287.988194  2133.283230

                             ****ORCA TERMINATED NORMALLY****
TOTAL RUN TIME: 0 days 0 hours 0 minutes 13 seconds 797 msec
