                         Program Version 5.0.0 -  RELEASE  -
|  1> !B3LYP D3BJ RIJCOSX def2-SVPD def2/J TightSCF
|  2> *xyz 0 1
|  3> C          4.93020       -7.37532       -2.64962
|  4> C          3.84189       -6.95161       -3.63283
|  5> H          3.45814       -5.95442       -3.40712
|  6> H          2.98848       -7.64361       -3.56708
|  7> S          4.31812       -6.91593       -5.36869
|  8> O          5.40615       -5.89948       -5.51297
|  9> F          3.11191       -6.44508       -6.04379
| 10> C          6.17399       -6.48552       -2.60631
| 11> H          4.46961       -7.40617       -1.65588
| 12> H          5.23013       -8.39868       -2.88591
| 13> O          4.76340       -8.23942       -5.69863
| 14> H          6.62449       -6.45478       -3.57637
| 15> H          6.87304       -6.88376       -1.90088
| 16> H          5.89434       -5.49571       -2.31140
| 17> *
| 18>
| 19> %MaxCore 64000
| 20>
| 21> %pal nprocs 8
| 22> end
| 23>
| 24> %scf
| 25>   MaxIter 150
| 26> end
| 27>
| 28>
| 29>                          ****END OF INPUT****

CARTESIAN COORDINATES (ANGSTROEM)
---------------------------------
  C      4.930200   -7.375320   -2.649620
  C      3.841890   -6.951610   -3.632830
  H      3.458140   -5.954420   -3.407120
  H      2.988480   -7.643610   -3.567080
  S      4.318120   -6.915930   -5.368690
  O      5.406150   -5.899480   -5.512970
  F      3.111910   -6.445080   -6.043790
  C      6.173990   -6.485520   -2.606310
  H      4.469610   -7.406170   -1.655880
  H      5.230130   -8.398680   -2.885910
  O      4.763400   -8.239420   -5.698630
  H      6.624490   -6.454780   -3.576370
  H      6.873040   -6.883760   -1.900880
  H      5.894340   -5.495710   -2.311400

 Total Charge           Charge          ....    0
 Multiplicity           Mult            ....    1
 Number of Electrons    NEL             ....   66
 Basis Dimension        Dim             ....  212

ORBITAL ENERGIES
----------------

  NO   OCC          E(Eh)            E(eV)
   0   2.0000     -89.138928     -2425.5936
   1   2.0000     -24.807505      -675.0465
   2   2.0000     -19.157721      -521.3081
   3   2.0000     -19.140529      -520.8403
   4   2.0000     -10.249420      -278.9009
   5   2.0000     -10.214406      -277.9481
   6   2.0000     -10.175338      -276.8850
   7   2.0000      -8.193313      -222.9514
   8   2.0000      -6.166193      -167.7906
   9   2.0000      -6.160089      -167.6245
  10   2.0000      -6.158589      -167.5837
  11   2.0000      -1.362499       -37.0755
  12   2.0000      -1.111015       -30.2323
  13   2.0000      -1.002120       -27.2691
  14   2.0000      -0.828440       -22.5430
  15   2.0000      -0.754109       -20.5204
  16   2.0000      -0.702263       -19.1095
  17   2.0000      -0.633802       -17.2466
  18   2.0000      -0.580906       -15.8072
  19   2.0000      -0.573940       -15.6177
  20   2.0000      -0.557993       -15.1838
  21   2.0000      -0.496101       -13.4996
  22   2.0000      -0.487038       -13.2530
  23   2.0000      -0.455067       -12.3830
  24   2.0000      -0.449097       -12.2205
  25   2.0000      -0.433349       -11.7920
  26   2.0000      -0.391671       -10.6579
  27   2.0000      -0.377445       -10.2708
  28   2.0000      -0.375936       -10.2297
  29   2.0000      -0.362147        -9.8545
  30   2.0000      -0.340748        -9.2722
  31   2.0000      -0.319186        -8.6855
  32   2.0000      -0.308843        -8.4040
  33   0.0000      -0.003912        -0.1065
  34   0.0000       0.012026         0.3272
  35   0.0000       0.033678         0.9164
  36   0.0000       0.035826         0.9749
  37   0.0000       0.050055         1.3621

MULLIKEN ATOMIC CHARGES
-----------------------
   0 C :   -0.111383
   1 C :    0.105824
   2 H :   -0.032241
   3 H :   -0.022436
   4 S :    1.543646
   5 O :   -0.722230
   6 F :   -0.446411
   7 C :    1.057593
   8 H :   -0.172205
   9 H :   -0.102160
  10 O :   -0.648620
  11 H :   -0.207297
  12 H :   -0.151400
  13 H :   -0.090681
Sum of atomic charges:    0.0000000

LOEWDIN ATOMIC CHARGES
----------------------
   0 C :   -0.057889
   1 C :   -0.058924
   2 H :    0.021403
   3 H :    0.025813
   4 S :    1.131765
   5 O :   -0.481549
   6 F :   -0.267659
   7 C :    0.149162
   8 H :    0.030029
   9 H :    0.027702
  10 O :   -0.458100
  11 H :   -0.036535
  12 H :   -0.014909
  13 H :   -0.010309

  Mayer bond orders larger than 0.100000
B(  0-C ,  1-C ) :   1.2843 B(  0-C ,  2-H ) :   0.1531 B(  0-C ,  3-H ) :   0.1628
B(  0-C ,  7-C ) :   1.2648 B(  0-C ,  8-H ) :   0.8105 B(  0-C ,  9-H ) :   0.8737
B(  0-C , 11-H ) :   0.2523 B(  0-C , 12-H ) :   0.2307 B(  0-C , 13-H ) :   0.2487
B(  1-C ,  2-H ) :   0.8997 B(  1-C ,  3-H ) :   0.8453 B(  1-C ,  4-S ) :   0.9440
B(  1-C ,  8-H ) :   0.1766 B(  1-C ,  9-H ) :   0.1486 B(  4-S ,  5-O ) :   1.4213
B(  4-S ,  6-F ) :   0.6552 B(  4-S , 10-O ) :   1.4918 B(  7-C ,  9-H ) :   0.1019
B(  7-C , 11-H ) :   0.7600 B(  7-C , 12-H ) :   0.6892 B(  7-C , 13-H ) :   0.6824
B( 11-H , 13-H ) :   0.1254

Dispersion correction           -0.021908589
FINAL SINGLE POINT ENERGY      -766.343569023037

DIPOLE MOMENT
-------------
                                X             Y             Z
Electronic contribution:     -5.84773       0.46822     -12.71132
Nuclear contribution   :      4.74176      -0.43068      13.97705
                        -----------------------------------------
Total Dipole Moment    :     -1.10597       0.03753       1.26573
                        -----------------------------------------
Magnitude (a.u.)       :      1.68126
Magnitude (Debye)      :      4.27343

Rotational constants in cm-1:     0.131248     0.052952     0.050354
Rotational constants in MHz :  3934.713341  1587.473971  1509.583923

                             ****ORCA TERMINATED NORMALLY****
TOTAL RUN TIME: 0 days 0 hours 0 minutes 14 seconds 578 msec
