                         Program Version 5.0.0 -  RELEASE  -
|  1> !B3LYP D3BJ RIJCOSX def2-SVPD def2/J TightSCF
|  2> *xyz 0 1
|  3> C          5.55821       -1.99291       -6.21505
|  4> C          4.18188       -2.58967       -6.29891
|  5> N          3.14587       -1.76843       -6.48675
|  6> C          4.01910       -3.86431       -6.22743
|  7> H          4.76849       -4.59115       -5.99077
|  8> H          3.12241       -4.33339       -6.31462
|  9> H          3.28164       -0.77779       -6.56655
| 10> H          2.21255       -2.13419       -6.56225
| 11> C          6.41926       -2.54294       -5.07763
| 12> C          5.89651       -2.16931       -3.69455
| 13> H          7.42888       -2.14367       -5.20808
| 14> H          6.50589       -3.62754       -5.17550
| 15> H          6.03683       -2.19819       -7.17685
| 16> H          5.46761       -0.90737       -6.12797
| 17> H          5.81870       -1.10488       -3.61824
| 18> H          6.57185       -2.53200       -2.94804
| 19> H          4.93221       -2.60892       -3.54698
| 20> *
| 21>
| 22> %MaxCore 64000
| 23>
| 24> %pal nprocs 8
| 25> end
| 26>
| 27> %scf
| 28>   MaxIter 150
| 29> end
| 30>
| 31>
| 32>                          ****END OF INPUT****

CARTESIAN COORDINATES (ANGSTROEM)
---------------------------------
  C      5.558210   -1.992910   -6.215050
  C      4.181880   -2.589670   -6.298910
  N      3.145870   -1.768430   -6.486750
  C      4.019100   -3.864310   -6.227430
  H      4.768490   -4.591150   -5.990770
  H      3.122410   -4.333390   -6.314620
  H      3.281640   -0.777790   -6.566550
  H      2.212550   -2.134190   -6.562250
  C      6.419260   -2.542940   -5.077630
  C      5.896510   -2.169310   -3.694550
  H      7.428880   -2.143670   -5.208080
  H      6.505890   -3.627540   -5.175500
  H      6.036830   -2.198190   -7.176850
  H      5.467610   -0.907370   -6.127970
  H      5.818700   -1.104880   -3.618240
  H      6.571850   -2.532000   -2.948040
  H      4.932210   -2.608920   -3.546980

 Total Charge           Charge          ....    0
 Multiplicity           Mult            ....    1
 Number of Electrons    NEL             ....   48
 Basis Dimension        Dim             ....  208

ORBITAL ENERGIES
----------------

  NO   OCC          E(Eh)            E(eV)
   0   2.0000     -14.329145      -389.9159
   1   2.0000     -10.201891      -277.6076
   2   2.0000     -10.180584      -277.0278
   3   2.0000     -10.175661      -276.8938
   4   2.0000     -10.159862      -276.4639
   5   2.0000     -10.119457      -275.3644
   6   2.0000      -0.915922       -24.9235
   7   2.0000      -0.787184       -21.4204
   8   2.0000      -0.724623       -19.7180
   9   2.0000      -0.676966       -18.4212
  10   2.0000      -0.601746       -16.3743
  11   2.0000      -0.550273       -14.9737
  12   2.0000      -0.521070       -14.1790
  13   2.0000      -0.489018       -13.3069
  14   2.0000      -0.450995       -12.2722
  15   2.0000      -0.437164       -11.8958
  16   2.0000      -0.400461       -10.8971
  17   2.0000      -0.390615       -10.6292
  18   2.0000      -0.364934        -9.9304
  19   2.0000      -0.352075        -9.5805
  20   2.0000      -0.334548        -9.1035
  21   2.0000      -0.327898        -8.9226
  22   2.0000      -0.320985        -8.7344
  23   2.0000      -0.193719        -5.2714
  24   0.0000       0.019193         0.5223
  25   0.0000       0.034808         0.9472
  26   0.0000       0.041494         1.1291
  27   0.0000       0.050817         1.3828
  28   0.0000       0.067233         1.8295

MULLIKEN ATOMIC CHARGES
-----------------------
   0 C :    0.558023
   1 C :    0.278563
   2 N :    0.277081
   3 C :    0.287133
   4 H :   -0.022198
   5 H :   -0.680337
   6 H :   -0.213642
   7 H :   -0.233151
   8 C :   -0.179766
   9 C :    0.947081
  10 H :   -0.212921
  11 H :   -0.148521
  12 H :   -0.199383
  13 H :   -0.105610
  14 H :   -0.053346
  15 H :   -0.191688
  16 H :   -0.107318
Sum of atomic charges:    0.0000000

LOEWDIN ATOMIC CHARGES
----------------------
   0 C :    0.007858
   1 C :   -0.253825
   2 N :    0.184319
   3 C :    0.160397
   4 H :   -0.048721
   5 H :   -0.088723
   6 H :   -0.017089
   7 H :   -0.001759
   8 C :   -0.065592
   9 C :    0.134039
  10 H :    0.015854
  11 H :    0.005321
  12 H :    0.026138
  13 H :    0.011143
  14 H :   -0.022178
  15 H :   -0.023380
  16 H :   -0.023803

  Mayer bond orders larger than 0.100000
B(  0-C ,  1-C ) :   0.9103 B(  0-C ,  2-N ) :   0.1079 B(  0-C ,  8-C ) :   1.2080
B(  0-C , 10-H ) :   0.1495 B(  0-C , 11-H ) :   0.1753 B(  0-C , 12-H ) :   0.8209
B(  0-C , 13-H ) :   0.6552 B(  1-C ,  2-N ) :   1.0288 B(  1-C ,  3-C ) :   1.4899
B(  1-C ,  5-H ) :   0.1182 B(  1-C ,  7-H ) :  -0.1487 B(  1-C , 12-H ) :   0.1658
B(  1-C , 13-H ) :   0.1806 B(  2-N ,  3-C ) :   0.3343 B(  2-N ,  6-H ) :   1.1368
B(  2-N ,  7-H ) :   1.2956 B(  3-C ,  4-H ) :   0.8249 B(  3-C ,  5-H ) :   0.7063
B(  4-H ,  5-H ) :  -0.1651 B(  6-H ,  7-H ) :  -0.1652 B(  8-C ,  9-C ) :   1.3077
B(  8-C , 10-H ) :   0.8753 B(  8-C , 11-H ) :   0.8522 B(  8-C , 12-H ) :   0.1385
B(  8-C , 13-H ) :   0.1873 B(  8-C , 14-H ) :   0.2598 B(  8-C , 15-H ) :   0.2489
B(  8-C , 16-H ) :   0.2481 B(  9-C , 11-H ) :   0.1044 B(  9-C , 14-H ) :   0.7331
B(  9-C , 15-H ) :   0.7150 B(  9-C , 16-H ) :   0.7844

Dispersion correction           -0.023099496
FINAL SINGLE POINT ENERGY      -251.561582075122

DIPOLE MOMENT
-------------
                                X             Y             Z
Electronic contribution:     -2.70039       0.42877      -2.78793
Nuclear contribution   :      2.50934       0.16282       2.72182
                        -----------------------------------------
Total Dipole Moment    :     -0.19105       0.59159      -0.06611
                        -----------------------------------------
Magnitude (a.u.)       :      0.62517
Magnitude (Debye)      :      1.58907

Rotational constants in cm-1:     0.192764     0.074934     0.070466
Rotational constants in MHz :  5778.908020  2246.454937  2112.518546

                             ****ORCA TERMINATED NORMALLY****
TOTAL RUN TIME: 0 days 0 hours 0 minutes 14 seconds 44 msec
