                         Program Version 5.0.0 -  RELEASE  -
|  1> !B3LYP D3BJ RIJCOSX def2-SVPD def2/J TightSCF
|  2> *xyz 0 1
|  3> C          4.93020       -7.37532       -2.64962
|  4> C          3.84189       -6.95161       -3.63283
|  5> H          3.45814       -5.95442       -3.40712
|  6> H          2.98848       -7.64361       -3.56708
|  7> S          4.31812       -6.91593       -5.36869
|  8> O          5.40615       -5.89948       -5.51297
|  9> O          3.11191       -6.44508       -6.04379
| 10> C          6.17399       -6.48552       -2.60631
| 11> H          4.46961       -7.40617       -1.65588
| 12> H          5.23013       -8.39868       -2.88591
| 13> F          4.76340       -8.23942       -5.69863
| 14> H          6.62449       -6.45478       -3.57637
| 15> H          6.87304       -6.88376       -1.90088
| 16> H          5.89434       -5.49571       -2.31140
| 17> *
| 18>
| 19> %MaxCore 64000
| 20>
| 21> %pal nprocs 8
| 22> end
| 23>
| 24> %scf
| 25>   MaxIter 150
| 26> end
| 27>
| 28>
| 29>                          ****END OF INPUT****

CARTESIAN COORDINATES (ANGSTROEM)
---------------------------------
  C      4.930200   -7.375320   -2.649620
  C      3.841890   -6.951610   -3.632830
  H      3.458140   -5.954420   -3.407120
  H      2.988480   -7.643610   -3.567080
  S      4.318120   -6.915930   -5.368690
  O      5.406150   -5.899480   -5.512970
  O      3.111910   -6.445080   -6.043790
  C      6.173990   -6.485520   -2.606310
  H      4.469610   -7.406170   -1.655880
  H      5.230130   -8.398680   -2.885910
  F      4.763400   -8.239420   -5.698630
  H      6.624490   -6.454780   -3.576370
  H      6.873040   -6.883760   -1.900880
  H      5.894340   -5.495710   -2.311400

 Total Charge           Charge          ....    0
 Multiplicity           Mult            ....    1
 Number of Electrons    NEL             ....   66
 Basis Dimension        Dim             ....  212

ORBITAL ENERGIES
----------------

  NO   OCC          E(Eh)            E(eV)
   0   2.0000     -89.140348     -2425.6322
   1   2.0000     -24.821519      -675.4279
   2   2.0000     -19.148192      -521.0488
   3   2.0000     -19.141092      -520.8556
   4   2.0000     -10.249716      -278.9090
   5   2.0000     -10.216853      -278.0147
   6   2.0000     -10.179385      -276.9952
   7   2.0000      -8.194733      -222.9900
   8   2.0000      -6.167923      -167.8377
   9   2.0000      -6.161229      -167.6556
  10   2.0000      -6.159850      -167.6180
  11   2.0000      -1.385547       -37.7026
  12   2.0000      -1.099311       -29.9138
  13   2.0000      -0.994273       -27.0555
  14   2.0000      -0.831678       -22.6311
  15   2.0000      -0.755391       -20.5552
  16   2.0000      -0.714200       -19.4344
  17   2.0000      -0.637968       -17.3600
  18   2.0000      -0.600325       -16.3357
  19   2.0000      -0.594572       -16.1791
  20   2.0000      -0.548807       -14.9338
  21   2.0000      -0.494537       -13.4570
  22   2.0000      -0.488279       -13.2867
  23   2.0000      -0.459314       -12.4986
  24   2.0000      -0.442869       -12.0511
  25   2.0000      -0.435852       -11.8601
  26   2.0000      -0.386274       -10.5111
  27   2.0000      -0.384396       -10.4599
  28   2.0000      -0.379897       -10.3375
  29   2.0000      -0.363499        -9.8913
  30   2.0000      -0.329258        -8.9596
  31   2.0000      -0.320625        -8.7246
  32   2.0000      -0.301242        -8.1972
  33   0.0000      -0.011674        -0.3177
  34   0.0000       0.020136         0.5479
  35   0.0000       0.030695         0.8353
  36   0.0000       0.032972         0.8972
  37   0.0000       0.041068         1.1175

MULLIKEN ATOMIC CHARGES
-----------------------
   0 C :   -0.073514
   1 C :    0.123646
   2 H :   -0.041645
   3 H :   -0.038125
   4 S :    1.500235
   5 O :   -0.707528
   6 O :   -0.676732
   7 C :    1.069608
   8 H :   -0.177677
   9 H :   -0.126261
  10 F :   -0.401867
  11 H :   -0.211429
  12 H :   -0.150034
  13 H :   -0.088678
Sum of atomic charges:    0.0000000

LOEWDIN ATOMIC CHARGES
----------------------
   0 C :   -0.073236
   1 C :   -0.047592
   2 H :    0.035634
   3 H :    0.026913
   4 S :    1.131419
   5 O :   -0.476954
   6 O :   -0.472133
   7 C :    0.145991
   8 H :    0.027530
   9 H :    0.020371
  10 F :   -0.252458
  11 H :   -0.041794
  12 H :   -0.015685
  13 H :   -0.008009

  Mayer bond orders larger than 0.100000
B(  0-C ,  1-C ) :   1.2326 B(  0-C ,  2-H ) :   0.1516 B(  0-C ,  3-H ) :   0.1483
B(  0-C ,  7-C ) :   1.2742 B(  0-C ,  8-H ) :   0.8084 B(  0-C ,  9-H ) :   0.8629
B(  0-C , 11-H ) :   0.2601 B(  0-C , 12-H ) :   0.2296 B(  0-C , 13-H ) :   0.2522
B(  1-C ,  2-H ) :   0.9094 B(  1-C ,  3-H ) :   0.8778 B(  1-C ,  4-S ) :   0.9726
B(  1-C ,  8-H ) :   0.1722 B(  1-C ,  9-H ) :   0.1433 B(  4-S ,  5-O ) :   1.4548
B(  4-S ,  6-O ) :   1.5432 B(  4-S , 10-F ) :   0.6569 B(  7-C ,  9-H ) :   0.1010
B(  7-C , 11-H ) :   0.7504 B(  7-C , 12-H ) :   0.6936 B(  7-C , 13-H ) :   0.6850
B( 11-H , 13-H ) :   0.1276

Dispersion correction           -0.021794617
FINAL SINGLE POINT ENERGY      -766.331136167139

DIPOLE MOMENT
-------------
                                X             Y             Z
Electronic contribution:     -3.01056      -2.58238     -12.09998
Nuclear contribution   :      2.96568       1.49902      13.60585
                        -----------------------------------------
Total Dipole Moment    :     -0.04488      -1.08336       1.50587
                        -----------------------------------------
Magnitude (a.u.)       :      1.85562
Magnitude (Debye)      :      4.71660

Rotational constants in cm-1:     0.127173     0.053596     0.051689
Rotational constants in MHz :  3812.547794  1606.772866  1549.597841

                             ****ORCA TERMINATED NORMALLY****
TOTAL RUN TIME: 0 days 0 hours 0 minutes 14 seconds 5 msec
