                         Program Version 5.0.0 -  RELEASE  -
|  1> !B3LYP D3BJ RIJCOSX def2-SVPD def2/J TightSCF xyzfile
|  2>
|  3> *xyzfile 0 1 D2.xyz
|  4>
|  5> %MaxCore 64000
|  6>
|  7> %pal nprocs 4
|  8> end
|  9>
| 10> %scf
| 11>   MaxIter 150
| 12> end
| 13>
| 14>
| 15>                          ****END OF INPUT****

CARTESIAN COORDINATES (ANGSTROEM)
---------------------------------
  C      5.558206   -1.992914   -6.215054
  C      4.930199   -7.375319   -2.649623
  C      3.841892   -6.951611   -3.632829
  H      3.458144   -5.954425   -3.407121
  H      2.988484   -7.643606   -3.567078
  S      4.318115   -6.915930   -5.368692
  C      4.181880   -2.589671   -6.298911
  N      3.145873   -1.768431   -6.486753
  C      4.019102   -3.864307   -6.227427
  H      4.768490   -4.591153   -5.990773
  H      3.122405   -4.333392   -6.314620
  H      3.281635   -0.777786   -6.566549
  H      2.212549   -2.134193   -6.562246
  F      5.406154   -5.899480   -5.512972
  O      3.111910   -6.445079   -6.043792
  C      6.419260   -2.542944   -5.077630
  C      5.872267   -5.002756   -2.427819
  C      6.173994   -6.485522   -2.606315
  H      6.734852   -6.613767   -3.534015
  H      6.821463   -6.831018   -1.793617
  H      4.469612   -7.406168   -1.655876
  H      5.230134   -8.398678   -2.885906
  C      5.896512   -2.169314   -3.694552
  H      7.428880   -2.143665   -5.208078
  H      6.505894   -3.627541   -5.175502
  C      6.807804   -2.623428   -2.551019
  H      4.894708   -2.589732   -3.557501
  H      5.778823   -1.081255   -3.635790
  C      7.111544   -4.122463   -2.520363
  H      7.751615   -2.071393   -2.614406
  H      6.345837   -2.326401   -1.604086
  H      5.362882   -4.828697   -1.471335
  H      5.174429   -4.702577   -3.211298
  H      7.778329   -4.329347   -1.677651
  H      7.673189   -4.402845   -3.417586
  O      4.763396   -8.239424   -5.698629
  H      6.036826   -2.198189   -7.176852
  H      5.467610   -0.907371   -6.127968

 Total Charge           Charge          ....    0
 Multiplicity           Mult            ....    1
 Number of Electrons    NEL             ....  136
 Basis Dimension        Dim             ....  512

ORBITAL ENERGIES
----------------

  NO   OCC          E(Eh)            E(eV)
   0   2.0000     -89.135726     -2425.5064
   1   2.0000     -24.793383      -674.6623
   2   2.0000     -19.155201      -521.2395
   3   2.0000     -19.142309      -520.8887
   4   2.0000     -14.322215      -389.7273
   5   2.0000     -10.242746      -278.7193
   6   2.0000     -10.209344      -277.8104
   7   2.0000     -10.193733      -277.3856
   8   2.0000     -10.191671      -277.3295
   9   2.0000     -10.185696      -277.1669
  10   2.0000     -10.181065      -277.0409
  11   2.0000     -10.178038      -276.9585
  12   2.0000     -10.177835      -276.9530
  13   2.0000     -10.176861      -276.9265
  14   2.0000     -10.173592      -276.8375
  15   2.0000     -10.096439      -274.7381
  16   2.0000      -8.188769      -222.8277
  17   2.0000      -6.161812      -167.6714
  18   2.0000      -6.155585      -167.5020
  19   2.0000      -6.154191      -167.4641
  20   2.0000      -1.341386       -36.5010
  21   2.0000      -1.114183       -30.3185
  22   2.0000      -1.016933       -27.6721
  23   2.0000      -0.908382       -24.7183
  24   2.0000      -0.835868       -22.7451
  25   2.0000      -0.808972       -22.0132
  26   2.0000      -0.780665       -21.2430
  27   2.0000      -0.753818       -20.5124
  28   2.0000      -0.718764       -19.5586
  29   2.0000      -0.708646       -19.2832
  30   2.0000      -0.681563       -18.5463
  31   2.0000      -0.654887       -17.8204
  32   2.0000      -0.619680       -16.8623
  33   2.0000      -0.603102       -16.4112
  34   2.0000      -0.590716       -16.0742
  35   2.0000      -0.566705       -15.4208
  36   2.0000      -0.560169       -15.2430
  37   2.0000      -0.546360       -14.8672
  38   2.0000      -0.538140       -14.6435
  39   2.0000      -0.514255       -13.9936
  40   2.0000      -0.495766       -13.4905
  41   2.0000      -0.492127       -13.3915
  42   2.0000      -0.485131       -13.2011
  43   2.0000      -0.472866       -12.8673
  44   2.0000      -0.457960       -12.4617
  45   2.0000      -0.456657       -12.4263
  46   2.0000      -0.450639       -12.2625
  47   2.0000      -0.434573       -11.8253
  48   2.0000      -0.420113       -11.4319
  49   2.0000      -0.414867       -11.2891
  50   2.0000      -0.408612       -11.1189
  51   2.0000      -0.402577       -10.9547
  52   2.0000      -0.379880       -10.3371
  53   2.0000      -0.375336       -10.2134
  54   2.0000      -0.368995       -10.0409
  55   2.0000      -0.363404        -9.8887
  56   2.0000      -0.353002        -9.6057
  57   2.0000      -0.349813        -9.5189
  58   2.0000      -0.343411        -9.3447
  59   2.0000      -0.338962        -9.2236
  60   2.0000      -0.332072        -9.0361
  61   2.0000      -0.329721        -8.9722
  62   2.0000      -0.323702        -8.8084
  63   2.0000      -0.319230        -8.6867
  64   2.0000      -0.315351        -8.5811
  65   2.0000      -0.309249        -8.4151
  66   2.0000      -0.304995        -8.2993
  67   2.0000      -0.184536        -5.0215
  68   0.0000      -0.002661        -0.0724
  69   0.0000       0.017442         0.4746
  70   0.0000       0.020438         0.5561
  71   0.0000       0.022099         0.6014
  72   0.0000       0.033083         0.9002

MULLIKEN ATOMIC CHARGES
-----------------------
   0 C :    1.035049
   1 C :    0.686195
   2 C :    0.169616
   3 H :    0.177560
   4 H :   -0.344979
   5 S :    1.537288
   6 C :    0.100152
   7 N :    0.279030
   8 C :    1.460366
   9 H :   -0.373063
  10 H :   -1.181642
  11 H :   -0.202406
  12 H :   -0.245247
  13 F :   -0.657656
  14 O :   -0.712576
  15 C :    0.484110
  16 C :    0.194330
  17 C :    0.374961
  18 H :   -0.033434
  19 H :   -0.402323
  20 H :   -0.004399
  21 H :   -0.101272
  22 C :    0.048972
  23 H :   -0.220565
  24 H :   -0.651216
  25 C :    0.805268
  26 H :    0.099505
  27 H :   -0.430789
  28 C :    0.292667
  29 H :   -0.059013
  30 H :   -0.135910
  31 H :   -0.058483
  32 H :   -0.474416
  33 H :   -0.416135
  34 H :    0.008045
  35 O :   -0.767870
  36 H :   -0.219489
  37 H :   -0.060231
Sum of atomic charges:    0.0000000

LOEWDIN ATOMIC CHARGES
----------------------
   0 C :    0.020711
   1 C :   -0.024027
   2 C :   -0.031452
   3 H :    0.015623
   4 H :    0.039990
   5 S :    1.141046
   6 C :   -0.234002
   7 N :    0.185421
   8 C :    0.186074
   9 H :   -0.127508
  10 H :   -0.099384
  11 H :   -0.019452
  12 H :   -0.000653
  13 F :   -0.292274
  14 O :   -0.453264
  15 C :   -0.016829
  16 C :   -0.028235
  17 C :   -0.023562
  18 H :    0.013293
  19 H :    0.029128
  20 H :    0.032551
  21 H :    0.027310
  22 C :   -0.025864
  23 H :    0.025959
  24 H :   -0.008095
  25 C :   -0.025304
  26 H :    0.010736
  27 H :    0.020589
  28 C :   -0.027158
  29 H :    0.018837
  30 H :    0.018375
  31 H :    0.037361
  32 H :   -0.017938
  33 H :    0.021724
  34 H :    0.014811
  35 O :   -0.443639
  36 H :    0.028338
  37 H :    0.010765

  Mayer bond orders larger than 0.100000
B(  0-C ,  6-C ) :   0.9257 B(  0-C ,  8-C ) :   0.1717 B(  0-C ,  9-H ) :  -0.1633
B(  0-C , 15-C ) :   1.1884 B(  0-C , 24-H ) :   0.1341 B(  0-C , 36-H ) :   0.4731
B(  0-C , 37-H ) :   0.6133 B(  1-C ,  2-C ) :   1.2095 B(  1-C ,  4-H ) :   0.1794
B(  1-C , 17-C ) :   1.2022 B(  1-C , 20-H ) :   0.6373 B(  1-C , 21-H ) :   0.6071
B(  2-C ,  3-H ) :   0.8350 B(  2-C ,  4-H ) :   0.7247 B(  2-C ,  5-S ) :   0.9897
B(  2-C , 20-H ) :   0.2144 B(  2-C , 21-H ) :   0.1394 B(  2-C , 35-O ) :   0.1226
B(  4-H ,  5-S ) :   0.1508 B(  5-S , 13-F ) :   0.5681 B(  5-S , 14-O ) :   1.5012
B(  5-S , 35-O ) :   1.4588 B(  6-C ,  7-N ) :   0.8809 B(  6-C ,  8-C ) :   1.8423
B(  6-C ,  9-H ) :  -0.1375 B(  6-C , 10-H ) :   0.1541 B(  6-C , 12-H ) :  -0.1533
B(  6-C , 36-H ) :   0.2733 B(  6-C , 37-H ) :   0.1416 B(  7-N ,  8-C ) :   0.5075
B(  7-N ,  9-H ) :   0.1017 B(  7-N , 10-H ) :  -0.1205 B(  7-N , 11-H ) :   1.1316
B(  7-N , 12-H ) :   1.3044 B(  8-C ,  9-H ) :   0.1024 B(  8-C , 10-H ) :  -0.4680
B(  8-C , 14-O ) :  -0.2842 B(  8-C , 24-H ) :   0.1423 B(  9-H , 10-H ) :  -0.1596
B(  9-H , 14-O ) :   0.1056 B(  9-H , 15-C ) :   0.1128 B(  9-H , 24-H ) :   0.1514
B( 10-H , 14-O ) :   0.3114 B( 10-H , 24-H ) :  -0.1402 B( 11-H , 12-H ) :  -0.1602
B( 13-F , 14-O ) :   0.1097 B( 13-F , 24-H ) :   0.1359 B( 13-F , 35-O ) :   0.1190
B( 15-C , 22-C ) :   1.1765 B( 15-C , 23-H ) :   0.6738 B( 15-C , 24-H ) :   0.5912
B( 15-C , 26-H ) :   0.1501 B( 15-C , 27-H ) :   0.1814 B( 15-C , 36-H ) :   0.3560
B( 15-C , 37-H ) :   0.1775 B( 16-C , 17-C ) :   1.1861 B( 16-C , 18-H ) :   0.1532
B( 16-C , 19-H ) :   0.1908 B( 16-C , 28-C ) :   1.1928 B( 16-C , 31-H ) :   0.7159
B( 16-C , 32-H ) :   0.9421 B( 16-C , 33-H ) :   0.2220 B( 16-C , 34-H ) :   0.1672
B( 17-C , 18-H ) :   0.8250 B( 17-C , 19-H ) :   0.7648 B( 17-C , 20-H ) :   0.1094
B( 17-C , 21-H ) :   0.2790 B( 17-C , 28-C ) :   0.1504 B( 17-C , 31-H ) :   0.1121
B( 20-H , 21-H ) :  -0.1198 B( 22-C , 23-H ) :   0.1768 B( 22-C , 24-H ) :   0.2212
B( 22-C , 25-C ) :   1.0671 B( 22-C , 26-H ) :   0.8190 B( 22-C , 27-H ) :   0.9857
B( 22-C , 28-C ) :   0.1564 B( 22-C , 29-H ) :   0.1745 B( 22-C , 30-H ) :   0.2869
B( 25-C , 28-C ) :   1.1064 B( 25-C , 29-H ) :   0.5941 B( 25-C , 30-H ) :   0.6163
B( 26-H , 32-H ) :   0.1666 B( 28-C , 29-H ) :   0.2605 B( 28-C , 30-H ) :   0.1314
B( 28-C , 31-H ) :   0.1234 B( 28-C , 33-H ) :   0.8694 B( 28-C , 34-H ) :   0.7893
B( 29-H , 30-H ) :  -0.1328 B( 36-H , 37-H ) :  -0.1553

Dispersion correction           -0.075539486
FINAL SINGLE POINT ENERGY     -1134.492535863783

DIPOLE MOMENT
-------------
                                X             Y             Z
Electronic contribution:     -7.74434     -16.94456     -13.57861
Nuclear contribution   :      7.91684      17.85507      15.13212
                        -----------------------------------------
Total Dipole Moment    :      0.17250       0.91051       1.55351
                        -----------------------------------------
Magnitude (a.u.)       :      1.80891
Magnitude (Debye)      :      4.59790

Rotational constants in cm-1:     0.018015     0.012410     0.008313
Rotational constants in MHz :   540.084467   372.038374   249.228144

                             ****ORCA TERMINATED NORMALLY****
TOTAL RUN TIME: 0 days 0 hours 3 minutes 57 seconds 444 msec
