                         Program Version 5.0.0 -  RELEASE  -
|  1> !B3LYP D3BJ RIJCOSX def2-SVPD def2/J TightSCF xyzfile
|  2>
|  3> *xyzfile 0 1 D6.xyz
|  4>
|  5> %MaxCore 64000
|  6>
|  7> %pal nprocs 4
|  8> end
|  9>
| 10> %scf
| 11>   MaxIter 150
| 12> end
| 13>
| 14>
| 15>                          ****END OF INPUT****

CARTESIAN COORDINATES (ANGSTROEM)
---------------------------------
  C      5.558206   -1.992914   -6.215054
  C      4.930199   -7.375319   -2.649623
  C      3.841892   -6.951611   -3.632829
  H      3.458144   -5.954425   -3.407121
  H      2.988484   -7.643606   -3.567078
  S      4.318115   -6.915930   -5.368692
  C      4.181880   -2.589671   -6.298911
  N      3.145873   -1.768431   -6.486753
  C      4.019102   -3.864307   -6.227427
  H      4.768490   -4.591153   -5.990773
  H      3.122405   -4.333392   -6.314620
  H      3.281635   -0.777786   -6.566549
  H      2.212549   -2.134193   -6.562246
  O      5.406154   -5.899480   -5.512972
  O      3.111910   -6.445079   -6.043792
  C      6.419260   -2.542944   -5.077630
  C      5.872267   -5.002756   -2.427819
  C      6.173994   -6.485522   -2.606315
  H      6.734852   -6.613767   -3.534015
  H      6.821463   -6.831018   -1.793617
  H      4.469612   -7.406168   -1.655876
  H      5.230134   -8.398678   -2.885906
  C      5.896512   -2.169314   -3.694552
  H      7.428880   -2.143665   -5.208078
  H      6.505894   -3.627541   -5.175502
  C      6.807804   -2.623428   -2.551019
  H      4.894708   -2.589732   -3.557501
  H      5.778823   -1.081255   -3.635790
  C      7.111544   -4.122463   -2.520363
  H      7.751615   -2.071393   -2.614406
  H      6.345837   -2.326401   -1.604086
  H      5.362882   -4.828697   -1.471335
  H      5.174429   -4.702577   -3.211298
  H      7.778329   -4.329347   -1.677651
  H      7.673189   -4.402845   -3.417586
  F      4.763396   -8.239424   -5.698629
  H      6.036826   -2.198189   -7.176852
  H      5.467610   -0.907371   -6.127968

 Total Charge           Charge          ....    0
 Multiplicity           Mult            ....    1
 Number of Electrons    NEL             ....  136
 Basis Dimension        Dim             ....  512

ORBITAL ENERGIES
----------------

  NO   OCC          E(Eh)            E(eV)
   0   2.0000     -89.145486     -2425.7720
   1   2.0000     -24.822894      -675.4653
   2   2.0000     -19.150192      -521.1032
   3   2.0000     -19.145828      -520.9845
   4   2.0000     -14.305968      -389.2852
   5   2.0000     -10.247965      -278.8613
   6   2.0000     -10.213081      -277.9121
   7   2.0000     -10.185152      -277.1521
   8   2.0000     -10.174311      -276.8571
   9   2.0000     -10.171381      -276.7773
  10   2.0000     -10.169965      -276.7388
  11   2.0000     -10.167160      -276.6625
  12   2.0000     -10.161700      -276.5139
  13   2.0000     -10.160383      -276.4781
  14   2.0000     -10.159287      -276.4482
  15   2.0000     -10.070979      -274.0453
  16   2.0000      -8.198406      -223.0900
  17   2.0000      -6.171623      -167.9384
  18   2.0000      -6.165103      -167.7610
  19   2.0000      -6.163641      -167.7212
  20   2.0000      -1.386251       -37.7218
  21   2.0000      -1.106079       -30.0979
  22   2.0000      -1.003144       -27.2969
  23   2.0000      -0.891690       -24.2641
  24   2.0000      -0.836452       -22.7610
  25   2.0000      -0.799370       -21.7520
  26   2.0000      -0.772307       -21.0156
  27   2.0000      -0.750319       -20.4172
  28   2.0000      -0.723731       -19.6937
  29   2.0000      -0.698975       -19.0201
  30   2.0000      -0.673787       -18.3347
  31   2.0000      -0.643738       -17.5170
  32   2.0000      -0.616276       -16.7697
  33   2.0000      -0.601702       -16.3731
  34   2.0000      -0.599668       -16.3178
  35   2.0000      -0.580863       -15.8061
  36   2.0000      -0.556082       -15.1318
  37   2.0000      -0.546022       -14.8580
  38   2.0000      -0.527295       -14.3484
  39   2.0000      -0.503512       -13.7013
  40   2.0000      -0.497470       -13.5368
  41   2.0000      -0.490925       -13.3588
  42   2.0000      -0.473051       -12.8724
  43   2.0000      -0.468346       -12.7443
  44   2.0000      -0.461599       -12.5608
  45   2.0000      -0.449094       -12.2205
  46   2.0000      -0.444394       -12.0926
  47   2.0000      -0.421060       -11.4576
  48   2.0000      -0.417700       -11.3662
  49   2.0000      -0.411691       -11.2027
  50   2.0000      -0.410466       -11.1693
  51   2.0000      -0.392969       -10.6932
  52   2.0000      -0.374960       -10.2032
  53   2.0000      -0.367808       -10.0086
  54   2.0000      -0.357616        -9.7312
  55   2.0000      -0.349205        -9.5023
  56   2.0000      -0.347387        -9.4529
  57   2.0000      -0.340932        -9.2772
  58   2.0000      -0.332565        -9.0495
  59   2.0000      -0.327866        -8.9217
  60   2.0000      -0.321484        -8.7480
  61   2.0000      -0.319287        -8.6882
  62   2.0000      -0.317704        -8.6452
  63   2.0000      -0.306752        -8.3471
  64   2.0000      -0.301689        -8.2094
  65   2.0000      -0.294586        -8.0161
  66   2.0000      -0.268427        -7.3043
  67   2.0000      -0.164989        -4.4896
  68   0.0000      -0.008700        -0.2367
  69   0.0000       0.018476         0.5028
  70   0.0000       0.023597         0.6421
  71   0.0000       0.029248         0.7959
  72   0.0000       0.034705         0.9444

MULLIKEN ATOMIC CHARGES
-----------------------
   0 C :    1.036843
   1 C :    0.677407
   2 C :    0.122556
   3 H :    0.169274
   4 H :   -0.309510
   5 S :    1.647133
   6 C :    0.083903
   7 N :    0.283973
   8 C :    1.337971
   9 H :   -0.235562
  10 H :   -1.252164
  11 H :   -0.208305
  12 H :   -0.250618
  13 O :   -0.909829
  14 O :   -0.733437
  15 C :    0.519901
  16 C :    0.144165
  17 C :    0.445385
  18 H :    0.012476
  19 H :   -0.421866
  20 H :   -0.024252
  21 H :   -0.112440
  22 C :    0.057975
  23 H :   -0.201113
  24 H :   -0.684950
  25 C :    0.806102
  26 H :    0.108339
  27 H :   -0.433657
  28 C :    0.268805
  29 H :   -0.060329
  30 H :   -0.140585
  31 H :   -0.049919
  32 H :   -0.430198
  33 H :   -0.416449
  34 H :    0.022743
  35 F :   -0.575073
  36 H :   -0.232681
  37 H :   -0.062016
Sum of atomic charges:    0.0000000

LOEWDIN ATOMIC CHARGES
----------------------
   0 C :    0.019152
   1 C :   -0.026264
   2 C :   -0.031168
   3 H :    0.028446
   4 H :    0.027701
   5 S :    1.185170
   6 C :   -0.238387
   7 N :    0.177320
   8 C :    0.188056
   9 H :   -0.159669
  10 H :   -0.100525
  11 H :   -0.024682
  12 H :   -0.005447
  13 O :   -0.463377
  14 O :   -0.451802
  15 C :   -0.013080
  16 C :   -0.025295
  17 C :   -0.024842
  18 H :    0.008454
  19 H :    0.026372
  20 H :    0.032526
  21 H :    0.021698
  22 C :   -0.026234
  23 H :    0.023741
  24 H :   -0.005536
  25 C :   -0.026880
  26 H :    0.010517
  27 H :    0.018567
  28 C :   -0.025341
  29 H :    0.017515
  30 H :    0.016356
  31 H :    0.034457
  32 H :   -0.014663
  33 H :    0.019417
  34 H :    0.017685
  35 F :   -0.244164
  36 H :    0.026568
  37 H :    0.007638

  Mayer bond orders larger than 0.100000
B(  0-C ,  6-C ) :   0.9218 B(  0-C ,  8-C ) :   0.1829 B(  0-C ,  9-H ) :  -0.1512
B(  0-C , 15-C ) :   1.1802 B(  0-C , 24-H ) :   0.1385 B(  0-C , 36-H ) :   0.4575
B(  0-C , 37-H ) :   0.6195 B(  1-C ,  2-C ) :   1.2043 B(  1-C ,  3-H ) :   0.1041
B(  1-C ,  4-H ) :   0.1746 B(  1-C , 17-C ) :   1.1925 B(  1-C , 20-H ) :   0.6500
B(  1-C , 21-H ) :   0.5871 B(  2-C ,  3-H ) :   0.8220 B(  2-C ,  4-H ) :   0.7671
B(  2-C ,  5-S ) :   0.9899 B(  2-C , 20-H ) :   0.2098 B(  2-C , 21-H ) :   0.1240
B(  2-C , 35-F ) :   0.1383 B(  4-H ,  5-S ) :   0.1271 B(  5-S , 13-O ) :   1.2692
B(  5-S , 14-O ) :   1.4612 B(  5-S , 35-F ) :   0.4994 B(  6-C ,  7-N ) :   0.8724
B(  6-C ,  8-C ) :   1.9098 B(  6-C ,  9-H ) :  -0.2229 B(  6-C , 10-H ) :   0.1853
B(  6-C , 12-H ) :  -0.1474 B(  6-C , 36-H ) :   0.2954 B(  6-C , 37-H ) :   0.1355
B(  7-N ,  8-C ) :   0.5162 B(  7-N ,  9-H ) :   0.1089 B(  7-N , 10-H ) :  -0.1231
B(  7-N , 11-H ) :   1.1352 B(  7-N , 12-H ) :   1.3037 B(  8-C ,  9-H ) :   0.2964
B(  8-C , 10-H ) :  -0.5568 B(  8-C , 14-O ) :  -0.2248 B(  8-C , 24-H ) :   0.1749
B(  9-H , 10-H ) :  -0.2105 B(  9-H , 15-C ) :   0.1036 B(  9-H , 24-H ) :   0.1278
B( 10-H , 14-O ) :   0.3506 B( 10-H , 24-H ) :  -0.1495 B( 11-H , 12-H ) :  -0.1587
B( 13-O , 14-O ) :   0.1512 B( 13-O , 24-H ) :   0.1786 B( 13-O , 35-F ) :   0.1096
B( 15-C , 22-C ) :   1.1730 B( 15-C , 23-H ) :   0.6536 B( 15-C , 24-H ) :   0.5141
B( 15-C , 26-H ) :   0.1544 B( 15-C , 27-H ) :   0.2019 B( 15-C , 36-H ) :   0.3603
B( 15-C , 37-H ) :   0.1929 B( 16-C , 17-C ) :   1.1889 B( 16-C , 18-H ) :   0.1564
B( 16-C , 19-H ) :   0.1677 B( 16-C , 28-C ) :   1.2099 B( 16-C , 31-H ) :   0.7101
B( 16-C , 32-H ) :   0.9425 B( 16-C , 33-H ) :   0.2239 B( 16-C , 34-H ) :   0.1741
B( 17-C , 18-H ) :   0.8050 B( 17-C , 19-H ) :   0.7462 B( 17-C , 20-H ) :   0.1148
B( 17-C , 21-H ) :   0.2870 B( 17-C , 28-C ) :   0.1619 B( 17-C , 31-H ) :   0.1101
B( 20-H , 21-H ) :  -0.1286 B( 22-C , 23-H ) :   0.1766 B( 22-C , 24-H ) :   0.2275
B( 22-C , 25-C ) :   1.0624 B( 22-C , 26-H ) :   0.8129 B( 22-C , 27-H ) :   0.9872
B( 22-C , 28-C ) :   0.1550 B( 22-C , 29-H ) :   0.1777 B( 22-C , 30-H ) :   0.2855
B( 25-C , 28-C ) :   1.1051 B( 25-C , 29-H ) :   0.5928 B( 25-C , 30-H ) :   0.6130
B( 26-H , 27-H ) :  -0.1087 B( 26-H , 32-H ) :   0.1678 B( 28-C , 29-H ) :   0.2582
B( 28-C , 30-H ) :   0.1341 B( 28-C , 31-H ) :   0.1245 B( 28-C , 33-H ) :   0.8731
B( 28-C , 34-H ) :   0.7822 B( 29-H , 30-H ) :  -0.1329 B( 31-H , 32-H ) :   0.1112
B( 36-H , 37-H ) :  -0.1581

Dispersion correction           -0.076239328
FINAL SINGLE POINT ENERGY     -1134.471298890881

DIPOLE MOMENT
-------------
                                X             Y             Z
Electronic contribution:     -8.84300     -21.48257     -14.00851
Nuclear contribution   :      8.67311      20.60825      15.35056
                        -----------------------------------------
Total Dipole Moment    :     -0.16989      -0.87433       1.34205
                        -----------------------------------------
Magnitude (a.u.)       :      1.61072
Magnitude (Debye)      :      4.09412

Rotational constants in cm-1:     0.017976     0.012151     0.008188
Rotational constants in MHz :   538.898457   364.286417   245.482451

                             ****ORCA TERMINATED NORMALLY****
TOTAL RUN TIME: 0 days 0 hours 4 minutes 47 seconds 762 msec
