                         Program Version 5.0.0 -  RELEASE  -
|  1> !B3LYP D3BJ RIJCOSX def2-TZVP def2/J TightSCF
|  2> *xyz -1 1
|  3> C          0.61188        1.65763       -4.50029
|  4> C          1.69499        1.54179       -5.57045
|  5> H          2.69733        1.73466       -5.18400
|  6> H          1.50666        2.27224       -6.35808
|  7> S          1.78029       -0.03313       -6.42874
|  8> O          2.56929        0.21366       -7.60736
|  9> O          0.41688       -0.46297       -6.61859
| 10> O          2.50513       -0.93326       -5.48257
| 11> H         -0.34424        1.45871       -4.93752
| 12> H          0.61845        2.64655       -4.09174
| 13> H          0.80247        0.94882       -3.72173
| 14> *
| 15> %MaxCore 64000
| 16>
| 17> %pal nprocs 4
| 18> end
| 19>
| 20> %scf
| 21>   MaxIter 150
| 22> end
| 23>
| 24>
| 25>                          ****END OF INPUT****

CARTESIAN COORDINATES (ANGSTROEM)
---------------------------------
  C      0.611880    1.657630   -4.500290
  C      1.694990    1.541790   -5.570450
  H      2.697330    1.734660   -5.184000
  H      1.506660    2.272240   -6.358080
  S      1.780290   -0.033130   -6.428740
  O      2.569290    0.213660   -7.607360
  O      0.416880   -0.462970   -6.618590
  O      2.505130   -0.933260   -5.482570
  H     -0.344240    1.458710   -4.937520
  H      0.618450    2.646550   -4.091740
  H      0.802470    0.948820   -3.721730

 Total Charge           Charge          ....   -1
 Multiplicity           Mult            ....    1
 Number of Electrons    NEL             ....   58
 Basis Dimension        Dim             ....  222

ORBITAL ENERGIES
----------------

  NO   OCC          E(Eh)            E(eV)
   0   2.0000     -88.829863     -2417.1835
   1   2.0000     -18.897973      -514.2400
   2   2.0000     -18.897023      -514.2141
   3   2.0000     -18.877445      -513.6814
   4   2.0000     -10.024826      -272.7894
   5   2.0000     -10.020575      -272.6737
   6   2.0000      -7.873129      -214.2387
   7   2.0000      -5.836650      -158.8233
   8   2.0000      -5.835665      -158.7965
   9   2.0000      -5.835363      -158.7883
  10   2.0000      -0.916236       -24.9321
  11   2.0000      -0.791338       -21.5334
  12   2.0000      -0.757190       -20.6042
  13   2.0000      -0.627753       -17.0820
  14   2.0000      -0.502971       -13.6865
  15   2.0000      -0.374680       -10.1956
  16   2.0000      -0.314026        -8.5451
  17   2.0000      -0.307560        -8.3691
  18   2.0000      -0.269090        -7.3223
  19   2.0000      -0.252919        -6.8823
  20   2.0000      -0.248864        -6.7719
  21   2.0000      -0.225172        -6.1272
  22   2.0000      -0.211135        -5.7453
  23   2.0000      -0.143966        -3.9175
  24   2.0000      -0.143638        -3.9086
  25   2.0000      -0.111613        -3.0371
  26   2.0000      -0.104622        -2.8469
  27   2.0000      -0.087235        -2.3738
  28   2.0000      -0.055132        -1.5002
  29   0.0000       0.172851         4.7035
  30   0.0000       0.216394         5.8884
  31   0.0000       0.231660         6.3038
  32   0.0000       0.236574         6.4375
  33   0.0000       0.262672         7.1477

MULLIKEN ATOMIC CHARGES
-----------------------
   0 C :   -0.299810
   1 C :   -0.205846
   2 H :    0.070079
   3 H :    0.060061
   4 S :    0.840624
   5 O :   -0.550560
   6 O :   -0.554910
   7 O :   -0.614303
   8 H :    0.104912
   9 H :    0.055876
  10 H :    0.093876
Sum of atomic charges:   -1.0000000

LOEWDIN ATOMIC CHARGES
----------------------
   0 C :   -0.337541
   1 C :   -0.427766
   2 H :    0.115985
   3 H :    0.113541
   4 S :    0.418099
   5 O :   -0.376548
   6 O :   -0.375870
   7 O :   -0.449911
   8 H :    0.112252
   9 H :    0.096671
  10 H :    0.111087

  Mayer bond orders larger than 0.100000
B(  0-C ,  1-C ) :   0.9469 B(  0-C ,  8-H ) :   0.9745 B(  0-C ,  9-H ) :   0.9635
B(  0-C , 10-H ) :   0.9765 B(  1-C ,  2-H ) :   0.9628 B(  1-C ,  3-H ) :   0.9534
B(  1-C ,  4-S ) :   0.8711 B(  4-S ,  5-O ) :   1.8176 B(  4-S ,  6-O ) :   1.7674
B(  4-S ,  7-O ) :   1.7370

Dispersion correction           -0.016673731
FINAL SINGLE POINT ENERGY      -703.115879629581

DIPOLE MOMENT
-------------
                                X             Y             Z
Electronic contribution:      2.25060      -5.68480      -5.03755
Nuclear contribution   :     -2.69163       7.29476       5.86550
                        -----------------------------------------
Total Dipole Moment    :     -0.44103       1.60995       0.82795
                        -----------------------------------------
Magnitude (a.u.)       :      1.86332
Magnitude (Debye)      :      4.73618

Rotational constants in cm-1:     0.163060     0.082831     0.081111
Rotational constants in MHz :  4888.419330  2483.225008  2431.646841

                             ****ORCA TERMINATED NORMALLY****
TOTAL RUN TIME: 0 days 0 hours 0 minutes 18 seconds 254 msec
