                         Program Version 5.0.0 -  RELEASE  -
|  1> !B3LYP D3BJ RIJCOSX def2-TZVP def2/J TightSCF
|  2> *xyz 1 1
|  3> C          1.96337       -1.74915       -1.89689
|  4> N          2.73849       -2.01517       -3.09711
|  5> C          4.04974       -2.15472       -3.15204
|  6> N          4.65821       -1.98629       -4.31866
|  7> N          4.76423       -2.45444       -2.05049
|  8> H          4.28736       -2.77626       -1.21750
|  9> H          5.75082       -2.65835       -2.12599
| 10> H          2.34518       -1.69027       -3.97145
| 11> H          4.10900       -1.59268       -5.07176
| 12> H          5.64910       -2.15646       -4.42724
| 13> C          2.08852       -0.30091       -1.41520
| 14> H          2.23127       -2.45162       -1.10264
| 15> H          0.93025       -1.97780       -2.15544
| 16> H          1.82118        0.36368       -2.21003
| 17> H          3.09792       -0.11068       -1.11551
| 18> H          1.43391       -0.14382       -0.58352
| 19> *
| 20> %MaxCore 64000
| 21>
| 22> %pal nprocs 4
| 23> end
| 24>
| 25> %scf
| 26>   MaxIter 150
| 27> end
| 28>
| 29>
| 30>                          ****END OF INPUT****

CARTESIAN COORDINATES (ANGSTROEM)
---------------------------------
  C      1.963370   -1.749150   -1.896890
  N      2.738490   -2.015170   -3.097110
  C      4.049740   -2.154720   -3.152040
  N      4.658210   -1.986290   -4.318660
  N      4.764230   -2.454440   -2.050490
  H      4.287360   -2.776260   -1.217500
  H      5.750820   -2.658350   -2.125990
  H      2.345180   -1.690270   -3.971450
  H      4.109000   -1.592680   -5.071760
  H      5.649100   -2.156460   -4.427240
  C      2.088520   -0.300910   -1.415200
  H      2.231270   -2.451620   -1.102640
  H      0.930250   -1.977800   -2.155440
  H      1.821180    0.363680   -2.210030
  H      3.097920   -0.110680   -1.115510
  H      1.433910   -0.143820   -0.583520

 Total Charge           Charge          ....    1
 Multiplicity           Mult            ....    1
 Number of Electrons    NEL             ....   48
 Basis Dimension        Dim             ....  246

ORBITAL ENERGIES
----------------

  NO   OCC          E(Eh)            E(eV)
   0   2.0000     -14.538571      -395.6146
   1   2.0000     -14.537172      -395.5765
   2   2.0000     -14.536289      -395.5525
   3   2.0000     -10.501728      -285.7665
   4   2.0000     -10.375393      -282.3288
   5   2.0000     -10.302877      -280.3555
   6   2.0000      -1.216034       -33.0900
   7   2.0000      -1.105391       -30.0792
   8   2.0000      -1.092985       -29.7416
   9   2.0000      -0.929462       -25.2919
  10   2.0000      -0.841869       -22.9084
  11   2.0000      -0.804284       -21.8857
  12   2.0000      -0.782843       -21.3022
  13   2.0000      -0.745485       -20.2857
  14   2.0000      -0.694640       -18.9021
  15   2.0000      -0.687220       -18.7002
  16   2.0000      -0.655849       -17.8466
  17   2.0000      -0.626116       -17.0375
  18   2.0000      -0.600560       -16.3421
  19   2.0000      -0.563056       -15.3215
  20   2.0000      -0.532486       -14.4897
  21   2.0000      -0.513409       -13.9706
  22   2.0000      -0.477599       -12.9961
  23   2.0000      -0.450518       -12.2592
  24   0.0000      -0.166331        -4.5261
  25   0.0000      -0.157346        -4.2816
  26   0.0000      -0.123808        -3.3690
  27   0.0000      -0.112999        -3.0749
  28   0.0000      -0.089078        -2.4239

MULLIKEN ATOMIC CHARGES
-----------------------
   0 C :   -0.149348
   1 N :   -0.232269
   2 C :    0.429689
   3 N :   -0.377277
   4 N :   -0.392269
   5 H :    0.276307
   6 H :    0.270376
   7 H :    0.233178
   8 H :    0.269412
   9 H :    0.279415
  10 C :   -0.294474
  11 H :    0.124284
  12 H :    0.161541
  13 H :    0.123033
  14 H :    0.124257
  15 H :    0.154145
Sum of atomic charges:    1.0000000

LOEWDIN ATOMIC CHARGES
----------------------
   0 C :   -0.278236
   1 N :    0.171321
   2 C :   -0.403955
   3 N :    0.071266
   4 N :    0.061296
   5 H :    0.194299
   6 H :    0.193975
   7 H :    0.208352
   8 H :    0.197045
   9 H :    0.197462
  10 C :   -0.277453
  11 H :    0.136720
  12 H :    0.149879
  13 H :    0.122976
  14 H :    0.120394
  15 H :    0.134662

  Mayer bond orders larger than 0.100000
B(  0-C ,  1-N ) :   0.8831 B(  0-C , 10-C ) :   0.9538 B(  0-C , 11-H ) :   0.9679
B(  0-C , 12-H ) :   0.9583 B(  1-N ,  2-C ) :   1.3858 B(  1-N ,  7-H ) :   0.9075
B(  2-C ,  3-N ) :   1.3373 B(  2-C ,  4-N ) :   1.3253 B(  3-N ,  8-H ) :   0.9010
B(  3-N ,  9-H ) :   0.8968 B(  4-N ,  5-H ) :   0.8916 B(  4-N ,  6-H ) :   0.9020
B( 10-C , 13-H ) :   0.9671 B( 10-C , 14-H ) :   0.9651 B( 10-C , 15-H ) :   0.9671

Dispersion correction           -0.020346086
FINAL SINGLE POINT ENERGY      -284.353016960423

DIPOLE MOMENT
-------------
                                X             Y             Z
Electronic contribution:      3.02715      -2.71388      -3.10338
Nuclear contribution   :     -2.17768       2.37118       2.44574
                        -----------------------------------------
Total Dipole Moment    :      0.84947      -0.34270      -0.65765
                        -----------------------------------------
Magnitude (a.u.)       :      1.12763
Magnitude (Debye)      :      2.86620

Rotational constants in cm-1:     0.215650     0.075183     0.066454
Rotational constants in MHz :  6465.033740  2253.919004  1992.232519

                             ****ORCA TERMINATED NORMALLY****
TOTAL RUN TIME: 0 days 0 hours 0 minutes 24 seconds 736 msec
