                         Program Version 5.0.0 -  RELEASE  -
|  1> !B3LYP D3BJ RIJCOSX def2-TZVP def2/J TightSCF
|  2> *xyz 0 1
|  3> C          0.61188        1.65763       -4.50029
|  4> C          1.69499        1.54179       -5.57045
|  5> H          2.69733        1.73466       -5.18400
|  6> H          1.50666        2.27224       -6.35808
|  7> S          1.78029       -0.03313       -6.42874
|  8> F          2.56929        0.21366       -7.60736
|  9> O          0.41688       -0.46297       -6.61859
| 10> O          2.50513       -0.93326       -5.48257
| 11> H         -0.34424        1.45871       -4.93752
| 12> H          0.61845        2.64655       -4.09174
| 13> H          0.80247        0.94882       -3.72173
| 14> *
| 15> %MaxCore 64000
| 16>
| 17> %pal nprocs 4
| 18> end
| 19>
| 20> %scf
| 21>   MaxIter 150
| 22> end
| 23>
| 24>
| 25>                          ****END OF INPUT****

CARTESIAN COORDINATES (ANGSTROEM)
---------------------------------
  C      0.611880    1.657630   -4.500290
  C      1.694990    1.541790   -5.570450
  H      2.697330    1.734660   -5.184000
  H      1.506660    2.272240   -6.358080
  S      1.780290   -0.033130   -6.428740
  F      2.569290    0.213660   -7.607360
  O      0.416880   -0.462970   -6.618590
  O      2.505130   -0.933260   -5.482570
  H     -0.344240    1.458710   -4.937520
  H      0.618450    2.646550   -4.091740
  H      0.802470    0.948820   -3.721730

 Total Charge           Charge          ....    0
 Multiplicity           Mult            ....    1
 Number of Electrons    NEL             ....   58
 Basis Dimension        Dim             ....  222

ORBITAL ENERGIES
----------------

  NO   OCC          E(Eh)            E(eV)
   0   2.0000     -89.097129     -2424.4561
   1   2.0000     -24.803031      -674.9248
   2   2.0000     -19.137874      -520.7680
   3   2.0000     -19.118123      -520.2306
   4   2.0000     -10.230049      -278.3738
   5   2.0000     -10.186375      -277.1854
   6   2.0000      -8.140981      -221.5273
   7   2.0000      -6.107693      -166.1988
   8   2.0000      -6.101363      -166.0265
   9   2.0000      -6.101116      -166.0198
  10   2.0000      -1.386472       -37.7278
  11   2.0000      -1.101904       -29.9843
  12   2.0000      -0.998141       -27.1608
  13   2.0000      -0.821411       -22.3517
  14   2.0000      -0.738308       -20.0904
  15   2.0000      -0.676289       -18.4028
  16   2.0000      -0.588444       -16.0124
  17   2.0000      -0.587864       -15.9966
  18   2.0000      -0.554975       -15.1016
  19   2.0000      -0.494375       -13.4526
  20   2.0000      -0.481035       -13.0896
  21   2.0000      -0.440890       -11.9972
  22   2.0000      -0.431095       -11.7307
  23   2.0000      -0.409274       -11.1369
  24   2.0000      -0.390865       -10.6360
  25   2.0000      -0.382073       -10.3967
  26   2.0000      -0.335315        -9.1244
  27   2.0000      -0.316431        -8.6105
  28   2.0000      -0.301272        -8.1980
  29   0.0000       0.018772         0.5108
  30   0.0000       0.029541         0.8039
  31   0.0000       0.062336         1.6962
  32   0.0000       0.064734         1.7615
  33   0.0000       0.075356         2.0505

MULLIKEN ATOMIC CHARGES
-----------------------
   0 C :   -0.321606
   1 C :   -0.215485
   2 H :    0.137375
   3 H :    0.116023
   4 S :    0.871180
   5 F :   -0.102611
   6 O :   -0.410330
   7 O :   -0.466590
   8 H :    0.136527
   9 H :    0.120690
  10 H :    0.134829
Sum of atomic charges:    0.0000000

LOEWDIN ATOMIC CHARGES
----------------------
   0 C :   -0.295994
   1 C :   -0.393918
   2 H :    0.137781
   3 H :    0.131662
   4 S :    0.539082
   5 F :    0.098676
   6 O :   -0.261318
   7 O :   -0.330136
   8 H :    0.125013
   9 H :    0.123356
  10 H :    0.125798

  Mayer bond orders larger than 0.100000
B(  0-C ,  1-C ) :   0.9666 B(  0-C ,  8-H ) :   0.9680 B(  0-C ,  9-H ) :   0.9590
B(  0-C , 10-H ) :   0.9708 B(  1-C ,  2-H ) :   0.9392 B(  1-C ,  3-H ) :   0.9351
B(  1-C ,  4-S ) :   0.9109 B(  4-S ,  5-F ) :   1.1339 B(  4-S ,  6-O ) :   1.9151
B(  4-S ,  7-O ) :   1.8730

Dispersion correction           -0.015930762
FINAL SINGLE POINT ENERGY      -727.635565741025

DIPOLE MOMENT
-------------
                                X             Y             Z
Electronic contribution:      3.87239      -5.65845      -7.55583
Nuclear contribution   :     -3.66946       7.33549       7.42434
                        -----------------------------------------
Total Dipole Moment    :      0.20293       1.67704      -0.13148
                        -----------------------------------------
Magnitude (a.u.)       :      1.69438
Magnitude (Debye)      :      4.30678

Rotational constants in cm-1:     0.158379     0.080294     0.077843
Rotational constants in MHz :  4748.076444  2407.152850  2333.668303

                             ****ORCA TERMINATED NORMALLY****
TOTAL RUN TIME: 0 days 0 hours 0 minutes 21 seconds 904 msec
