                         Program Version 5.0.0 -  RELEASE  -
|  1> !B3LYP D3BJ RIJCOSX def2-TZVP def2/J TightSCF
|  2> *xyz 0 1
|  3> C          1.96337       -1.74915       -1.89689
|  4> C          2.73849       -2.01517       -3.09711
|  5> C          4.04974       -2.15472       -3.15204
|  6> N          4.65821       -1.98629       -4.31866
|  7> N          4.76423       -2.45444       -2.05049
|  8> H          4.28736       -2.77626       -1.21750
|  9> H          5.75082       -2.65835       -2.12599
| 10> H          2.34518       -1.69027       -3.97145
| 11> H          4.10900       -1.59268       -5.07176
| 12> H          5.64910       -2.15646       -4.42724
| 13> C          2.08852       -0.30091       -1.41520
| 14> H          2.23127       -2.45162       -1.10264
| 15> H          0.93025       -1.97780       -2.15544
| 16> H          1.82118        0.36368       -2.21003
| 17> H          3.09792       -0.11068       -1.11551
| 18> H          1.43391       -0.14382       -0.58352
| 19> *
| 20> %MaxCore 64000
| 21>
| 22> %pal nprocs 4
| 23> end
| 24>
| 25> %scf
| 26>   MaxIter 150
| 27> end
| 28>
| 29>
| 30>                          ****END OF INPUT****

CARTESIAN COORDINATES (ANGSTROEM)
---------------------------------
  C      1.963370   -1.749150   -1.896890
  C      2.738490   -2.015170   -3.097110
  C      4.049740   -2.154720   -3.152040
  N      4.658210   -1.986290   -4.318660
  N      4.764230   -2.454440   -2.050490
  H      4.287360   -2.776260   -1.217500
  H      5.750820   -2.658350   -2.125990
  H      2.345180   -1.690270   -3.971450
  H      4.109000   -1.592680   -5.071760
  H      5.649100   -2.156460   -4.427240
  C      2.088520   -0.300910   -1.415200
  H      2.231270   -2.451620   -1.102640
  H      0.930250   -1.977800   -2.155440
  H      1.821180    0.363680   -2.210030
  H      3.097920   -0.110680   -1.115510
  H      1.433910   -0.143820   -0.583520

 Total Charge           Charge          ....    0
 Multiplicity           Mult            ....    1
 Number of Electrons    NEL             ....   48
 Basis Dimension        Dim             ....  246

ORBITAL ENERGIES
----------------

  NO   OCC          E(Eh)            E(eV)
   0   2.0000     -14.313416      -389.4879
   1   2.0000     -14.310745      -389.4152
   2   2.0000     -10.208065      -277.7756
   3   2.0000     -10.139332      -275.9053
   4   2.0000     -10.128201      -275.6024
   5   2.0000     -10.083449      -274.3846
   6   2.0000      -0.957223       -26.0474
   7   2.0000      -0.869388       -23.6572
   8   2.0000      -0.769285       -20.9333
   9   2.0000      -0.690802       -18.7977
  10   2.0000      -0.614414       -16.7191
  11   2.0000      -0.576813       -15.6959
  12   2.0000      -0.540073       -14.6961
  13   2.0000      -0.508214       -13.8292
  14   2.0000      -0.472113       -12.8468
  15   2.0000      -0.436216       -11.8700
  16   2.0000      -0.416334       -11.3290
  17   2.0000      -0.382333       -10.4038
  18   2.0000      -0.378275       -10.2934
  19   2.0000      -0.352086        -9.5807
  20   2.0000      -0.325993        -8.8707
  21   2.0000      -0.316630        -8.6159
  22   2.0000      -0.263292        -7.1645
  23   2.0000      -0.156251        -4.2518
  24   0.0000       0.017743         0.4828
  25   0.0000       0.049571         1.3489
  26   0.0000       0.059277         1.6130
  27   0.0000       0.078664         2.1406
  28   0.0000       0.085564         2.3283

MULLIKEN ATOMIC CHARGES
-----------------------
   0 C :   -0.179210
   1 C :   -0.286378
   2 C :    0.336411
   3 N :   -0.450183
   4 N :   -0.466904
   5 H :    0.232214
   6 H :    0.205261
   7 H :    0.043350
   8 H :    0.229954
   9 H :    0.207268
  10 C :   -0.272814
  11 H :    0.048146
  12 H :    0.082669
  13 H :    0.086026
  14 H :    0.096905
  15 H :    0.087282
Sum of atomic charges:   -0.0000000

LOEWDIN ATOMIC CHARGES
----------------------
   0 C :   -0.305484
   1 C :   -0.287426
   2 C :   -0.453544
   3 N :   -0.009950
   4 N :   -0.018039
   5 H :    0.172918
   6 H :    0.158185
   7 H :    0.118280
   8 H :    0.177911
   9 H :    0.159137
  10 C :   -0.297125
  11 H :    0.122036
  12 H :    0.136010
  13 H :    0.110691
  14 H :    0.111212
  15 H :    0.105187

  Mayer bond orders larger than 0.100000
B(  0-C ,  1-C ) :   1.0535 B(  0-C , 10-C ) :   0.9262 B(  0-C , 11-H ) :   0.9699
B(  0-C , 12-H ) :   0.9863 B(  1-C ,  2-C ) :   1.6766 B(  1-C ,  7-H ) :   1.0053
B(  2-C ,  3-N ) :   1.1514 B(  2-C ,  4-N ) :   1.1345 B(  3-N ,  8-H ) :   0.9204
B(  3-N ,  9-H ) :   0.9280 B(  4-N ,  5-H ) :   0.9199 B(  4-N ,  6-H ) :   0.9290
B( 10-C , 13-H ) :   0.9796 B( 10-C , 14-H ) :   0.9803 B( 10-C , 15-H ) :   0.9737

Dispersion correction           -0.021273183
FINAL SINGLE POINT ENERGY      -267.865570417188

DIPOLE MOMENT
-------------
                                X             Y             Z
Electronic contribution:      3.39076      -2.45455      -2.54927
Nuclear contribution   :     -2.31778       2.31977       2.35294
                        -----------------------------------------
Total Dipole Moment    :      1.07298      -0.13478      -0.19633
                        -----------------------------------------
Magnitude (a.u.)       :      1.09909
Magnitude (Debye)      :      2.79367

Rotational constants in cm-1:     0.219415     0.075373     0.066689
Rotational constants in MHz :  6577.897266  2259.621393  1999.290981

                             ****ORCA TERMINATED NORMALLY****
TOTAL RUN TIME: 0 days 0 hours 0 minutes 28 seconds 590 msec
