                         Program Version 5.0.0 -  RELEASE  -
|  1> !B3LYP D3BJ RIJCOSX def2-TZVP def2/J TightSCF
|  2> *xyz 0 1
|  3> C          0.61188        1.65763       -4.50029
|  4> C          1.69499        1.54179       -5.57045
|  5> H          2.69733        1.73466       -5.18400
|  6> H          1.50666        2.27224       -6.35808
|  7> S          1.78029       -0.03313       -6.42874
|  8> O          2.56929        0.21366       -7.60736
|  9> F          0.41688       -0.46297       -6.61859
| 10> O          2.50513       -0.93326       -5.48257
| 11> H         -0.34424        1.45871       -4.93752
| 12> H          0.61845        2.64655       -4.09174
| 13> H          0.80247        0.94882       -3.72173
| 14> *
| 15> %MaxCore 64000
| 16>
| 17> %pal nprocs 4
| 18> end
| 19>
| 20> %scf
| 21>   MaxIter 150
| 22> end
| 23>
| 24>
| 25>                          ****END OF INPUT****

CARTESIAN COORDINATES (ANGSTROEM)
---------------------------------
  C      0.611880    1.657630   -4.500290
  C      1.694990    1.541790   -5.570450
  H      2.697330    1.734660   -5.184000
  H      1.506660    2.272240   -6.358080
  S      1.780290   -0.033130   -6.428740
  O      2.569290    0.213660   -7.607360
  F      0.416880   -0.462970   -6.618590
  O      2.505130   -0.933260   -5.482570
  H     -0.344240    1.458710   -4.937520
  H      0.618450    2.646550   -4.091740
  H      0.802470    0.948820   -3.721730

 Total Charge           Charge          ....    0
 Multiplicity           Mult            ....    1
 Number of Electrons    NEL             ....   58
 Basis Dimension        Dim             ....  222

ORBITAL ENERGIES
----------------

  NO   OCC          E(Eh)            E(eV)
   0   2.0000     -89.096904     -2424.4500
   1   2.0000     -24.802629      -674.9138
   2   2.0000     -19.137511      -520.7581
   3   2.0000     -19.118390      -520.2378
   4   2.0000     -10.229882      -278.3692
   5   2.0000     -10.191858      -277.3346
   6   2.0000      -8.140778      -221.5218
   7   2.0000      -6.107678      -166.1984
   8   2.0000      -6.101012      -166.0170
   9   2.0000      -6.100883      -166.0135
  10   2.0000      -1.385106       -37.6906
  11   2.0000      -1.102882       -30.0110
  12   2.0000      -0.997983       -27.1565
  13   2.0000      -0.825264       -22.4566
  14   2.0000      -0.734816       -19.9954
  15   2.0000      -0.680943       -18.5294
  16   2.0000      -0.598571       -16.2880
  17   2.0000      -0.587000       -15.9731
  18   2.0000      -0.546033       -14.8583
  19   2.0000      -0.495772       -13.4907
  20   2.0000      -0.476491       -12.9660
  21   2.0000      -0.449907       -12.2426
  22   2.0000      -0.437156       -11.8956
  23   2.0000      -0.413316       -11.2469
  24   2.0000      -0.397298       -10.8110
  25   2.0000      -0.380495       -10.3538
  26   2.0000      -0.334539        -9.1033
  27   2.0000      -0.316364        -8.6087
  28   2.0000      -0.301449        -8.2028
  29   0.0000       0.006290         0.1712
  30   0.0000       0.040764         1.1092
  31   0.0000       0.059798         1.6272
  32   0.0000       0.068055         1.8519
  33   0.0000       0.071298         1.9401

MULLIKEN ATOMIC CHARGES
-----------------------
   0 C :   -0.331192
   1 C :   -0.220322
   2 H :    0.152873
   3 H :    0.131165
   4 S :    0.870815
   5 O :   -0.403589
   6 F :   -0.108054
   7 O :   -0.467150
   8 H :    0.114927
   9 H :    0.123845
  10 H :    0.136681
Sum of atomic charges:   -0.0000000

LOEWDIN ATOMIC CHARGES
----------------------
   0 C :   -0.310650
   1 C :   -0.387261
   2 H :    0.148423
   3 H :    0.136798
   4 S :    0.540123
   5 O :   -0.259866
   6 F :    0.097619
   7 O :   -0.329683
   8 H :    0.116717
   9 H :    0.123983
  10 H :    0.123797

  Mayer bond orders larger than 0.100000
B(  0-C ,  1-C ) :   0.9519 B(  0-C ,  8-H ) :   0.9707 B(  0-C ,  9-H ) :   0.9627
B(  0-C , 10-H ) :   0.9691 B(  1-C ,  2-H ) :   0.9435 B(  1-C ,  3-H ) :   0.9411
B(  1-C ,  4-S ) :   0.9061 B(  4-S ,  5-O ) :   1.9463 B(  4-S ,  6-F ) :   1.1186
B(  4-S ,  7-O ) :   1.8690

Dispersion correction           -0.015832068
FINAL SINGLE POINT ENERGY      -727.635321127153

DIPOLE MOMENT
-------------
                                X             Y             Z
Electronic contribution:      0.24829      -6.78446      -5.86523
Nuclear contribution   :     -1.42658       8.04056       6.39401
                        -----------------------------------------
Total Dipole Moment    :     -1.17829       1.25610       0.52879
                        -----------------------------------------
Magnitude (a.u.)       :      1.80160
Magnitude (Debye)      :      4.57931

Rotational constants in cm-1:     0.153659     0.082363     0.078978
Rotational constants in MHz :  4606.587369  2469.179541  2367.702074

                             ****ORCA TERMINATED NORMALLY****
TOTAL RUN TIME: 0 days 0 hours 0 minutes 21 seconds 718 msec
