                         Program Version 5.0.0 -  RELEASE  -
|  1> !B3LYP D3BJ RIJCOSX def2-TZVP def2/J TightSCF
|  2> *xyz 0 1
|  3> C          1.96337       -1.74915       -1.89689
|  4> N          2.73849       -2.01517       -3.09711
|  5> C          4.04974       -2.15472       -3.15204
|  6> C          4.65821       -1.98629       -4.31866
|  7> N          4.76423       -2.45444       -2.05049
|  8> H          4.28736       -2.77626       -1.21750
|  9> H          5.75082       -2.65835       -2.12599
| 10> H          2.34518       -1.69027       -3.97145
| 11> H          4.10900       -1.59268       -5.07176
| 12> H          5.64910       -2.15646       -4.42724
| 13> C          2.08852       -0.30091       -1.41520
| 14> H          2.23127       -2.45162       -1.10264
| 15> H          0.93025       -1.97780       -2.15544
| 16> H          1.82118        0.36368       -2.21003
| 17> H          3.09792       -0.11068       -1.11551
| 18> H          1.43391       -0.14382       -0.58352
| 19> *
| 20> %MaxCore 64000
| 21>
| 22> %pal nprocs 4
| 23> end
| 24>
| 25> %scf
| 26>   MaxIter 150
| 27> end
| 28>
| 29>
| 30>                          ****END OF INPUT****

CARTESIAN COORDINATES (ANGSTROEM)
---------------------------------
  C      1.963370   -1.749150   -1.896890
  N      2.738490   -2.015170   -3.097110
  C      4.049740   -2.154720   -3.152040
  C      4.658210   -1.986290   -4.318660
  N      4.764230   -2.454440   -2.050490
  H      4.287360   -2.776260   -1.217500
  H      5.750820   -2.658350   -2.125990
  H      2.345180   -1.690270   -3.971450
  H      4.109000   -1.592680   -5.071760
  H      5.649100   -2.156460   -4.427240
  C      2.088520   -0.300910   -1.415200
  H      2.231270   -2.451620   -1.102640
  H      0.930250   -1.977800   -2.155440
  H      1.821180    0.363680   -2.210030
  H      3.097920   -0.110680   -1.115510
  H      1.433910   -0.143820   -0.583520

 Total Charge           Charge          ....    0
 Multiplicity           Mult            ....    1
 Number of Electrons    NEL             ....   48
 Basis Dimension        Dim             ....  246

ORBITAL ENERGIES
----------------

  NO   OCC          E(Eh)            E(eV)
   0   2.0000     -14.312235      -389.4557
   1   2.0000     -14.311694      -389.4410
   2   2.0000     -10.209816      -277.8232
   3   2.0000     -10.207208      -277.7522
   4   2.0000     -10.154910      -276.3291
   5   2.0000     -10.077557      -274.2243
   6   2.0000      -0.966156       -26.2904
   7   2.0000      -0.881840       -23.9961
   8   2.0000      -0.768776       -20.9195
   9   2.0000      -0.699613       -19.0374
  10   2.0000      -0.628573       -17.1043
  11   2.0000      -0.597000       -16.2452
  12   2.0000      -0.534064       -14.5326
  13   2.0000      -0.494565       -13.4578
  14   2.0000      -0.478455       -13.0194
  15   2.0000      -0.436625       -11.8812
  16   2.0000      -0.431177       -11.7329
  17   2.0000      -0.400736       -10.9046
  18   2.0000      -0.382354       -10.4044
  19   2.0000      -0.374107       -10.1800
  20   2.0000      -0.358743        -9.7619
  21   2.0000      -0.356049        -9.6886
  22   2.0000      -0.252483        -6.8704
  23   2.0000      -0.161069        -4.3829
  24   0.0000       0.020396         0.5550
  25   0.0000       0.047647         1.2965
  26   0.0000       0.059311         1.6139
  27   0.0000       0.071602         1.9484
  28   0.0000       0.086417         2.3515

MULLIKEN ATOMIC CHARGES
-----------------------
   0 C :   -0.126681
   1 N :   -0.276926
   2 C :    0.375506
   3 C :   -0.510462
   4 N :   -0.471021
   5 H :    0.210492
   6 H :    0.228584
   7 H :    0.201589
   8 H :    0.067261
   9 H :    0.075211
  10 C :   -0.271329
  11 H :    0.084739
  12 H :    0.107812
  13 H :    0.094373
  14 H :    0.114456
  15 H :    0.096396
Sum of atomic charges:    0.0000000

LOEWDIN ATOMIC CHARGES
----------------------
   0 C :   -0.311696
   1 N :    0.120207
   2 C :   -0.460521
   3 C :   -0.339767
   4 N :   -0.016207
   5 H :    0.158374
   6 H :    0.173537
   7 H :    0.194083
   8 H :    0.095032
   9 H :    0.093086
  10 C :   -0.300459
  11 H :    0.122179
  12 H :    0.129410
  13 H :    0.113367
  14 H :    0.116555
  15 H :    0.112821

  Mayer bond orders larger than 0.100000
B(  0-C ,  1-N ) :   0.9728 B(  0-C , 10-C ) :   0.9350 B(  0-C , 11-H ) :   0.9761
B(  0-C , 12-H ) :   0.9782 B(  1-N ,  2-C ) :   1.2202 B(  1-N ,  7-H ) :   0.9262
B(  2-C ,  3-C ) :   1.6136 B(  2-C ,  4-N ) :   1.1246 B(  3-C ,  8-H ) :   1.0068
B(  3-C ,  9-H ) :   1.0058 B(  4-N ,  5-H ) :   0.9217 B(  4-N ,  6-H ) :   0.9258
B( 10-C , 13-H ) :   0.9734 B( 10-C , 14-H ) :   0.9749 B( 10-C , 15-H ) :   0.9679

Dispersion correction           -0.021038298
FINAL SINGLE POINT ENERGY      -267.862570348115

DIPOLE MOMENT
-------------
                                X             Y             Z
Electronic contribution:      1.41661      -2.35750      -1.19473
Nuclear contribution   :     -1.91052       2.32590       2.09379
                        -----------------------------------------
Total Dipole Moment    :     -0.49391      -0.03160       0.89906
                        -----------------------------------------
Magnitude (a.u.)       :      1.02629
Magnitude (Debye)      :      2.60861

Rotational constants in cm-1:     0.219448     0.077923     0.068804
Rotational constants in MHz :  6578.886179  2336.083179  2062.700476

                             ****ORCA TERMINATED NORMALLY****
TOTAL RUN TIME: 0 days 0 hours 0 minutes 26 seconds 986 msec
