                         Program Version 5.0.0 -  RELEASE  -
|  1> !B3LYP D3BJ RIJCOSX def2-TZVP def2/J TightSCF
|  2> *xyz 0 1
|  3> C          0.61188        1.65763       -4.50029
|  4> C          1.69499        1.54179       -5.57045
|  5> H          2.69733        1.73466       -5.18400
|  6> H          1.50666        2.27224       -6.35808
|  7> S          1.78029       -0.03313       -6.42874
|  8> O          2.56929        0.21366       -7.60736
|  9> O          0.41688       -0.46297       -6.61859
| 10> F          2.50513       -0.93326       -5.48257
| 11> H         -0.34424        1.45871       -4.93752
| 12> H          0.61845        2.64655       -4.09174
| 13> H          0.80247        0.94882       -3.72173
| 14> *
| 15> %MaxCore 64000
| 16>
| 17> %pal nprocs 4
| 18> end
| 19>
| 20> %scf
| 21>   MaxIter 150
| 22> end
| 23>
| 24>
| 25>                          ****END OF INPUT****

CARTESIAN COORDINATES (ANGSTROEM)
---------------------------------
  C      0.611880    1.657630   -4.500290
  C      1.694990    1.541790   -5.570450
  H      2.697330    1.734660   -5.184000
  H      1.506660    2.272240   -6.358080
  S      1.780290   -0.033130   -6.428740
  O      2.569290    0.213660   -7.607360
  O      0.416880   -0.462970   -6.618590
  F      2.505130   -0.933260   -5.482570
  H     -0.344240    1.458710   -4.937520
  H      0.618450    2.646550   -4.091740
  H      0.802470    0.948820   -3.721730

 Total Charge           Charge          ....    0
 Multiplicity           Mult            ....    1
 Number of Electrons    NEL             ....   58
 Basis Dimension        Dim             ....  222

ORBITAL ENERGIES
----------------

  NO   OCC          E(Eh)            E(eV)
   0   2.0000     -89.094542     -2424.3858
   1   2.0000     -24.774942      -674.1605
   2   2.0000     -19.137934      -520.7697
   3   2.0000     -19.137072      -520.7462
   4   2.0000     -10.228944      -278.3437
   5   2.0000     -10.186889      -277.1993
   6   2.0000      -8.138419      -221.4576
   7   2.0000      -6.105321      -166.1342
   8   2.0000      -6.098947      -165.9608
   9   2.0000      -6.098420      -165.9464
  10   2.0000      -1.341468       -36.5032
  11   2.0000      -1.115038       -30.3417
  12   2.0000      -1.026249       -27.9257
  13   2.0000      -0.821808       -22.3625
  14   2.0000      -0.719551       -19.5800
  15   2.0000      -0.668517       -18.1913
  16   2.0000      -0.572752       -15.5854
  17   2.0000      -0.556220       -15.1355
  18   2.0000      -0.546611       -14.8740
  19   2.0000      -0.493543       -13.4300
  20   2.0000      -0.478283       -13.0147
  21   2.0000      -0.456921       -12.4334
  22   2.0000      -0.433541       -11.7973
  23   2.0000      -0.406167       -11.0524
  24   2.0000      -0.403438       -10.9781
  25   2.0000      -0.382902       -10.4193
  26   2.0000      -0.341480        -9.2921
  27   2.0000      -0.335026        -9.1165
  28   2.0000      -0.322687        -8.7808
  29   0.0000       0.013285         0.3615
  30   0.0000       0.041326         1.1245
  31   0.0000       0.057761         1.5717
  32   0.0000       0.070163         1.9092
  33   0.0000       0.079473         2.1626

MULLIKEN ATOMIC CHARGES
-----------------------
   0 C :   -0.314849
   1 C :   -0.235455
   2 H :    0.130799
   3 H :    0.145946
   4 S :    0.880211
   5 O :   -0.416289
   6 O :   -0.421318
   7 F :   -0.146067
   8 H :    0.142440
   9 H :    0.120211
  10 H :    0.114371
Sum of atomic charges:    0.0000000

LOEWDIN ATOMIC CHARGES
----------------------
   0 C :   -0.307356
   1 C :   -0.390575
   2 H :    0.134792
   3 H :    0.147417
   4 S :    0.548365
   5 O :   -0.265687
   6 O :   -0.265093
   7 F :    0.031853
   8 H :    0.125111
   9 H :    0.122339
  10 H :    0.118834

  Mayer bond orders larger than 0.100000
B(  0-C ,  1-C ) :   0.9537 B(  0-C ,  8-H ) :   0.9673 B(  0-C ,  9-H ) :   0.9611
B(  0-C , 10-H ) :   0.9717 B(  1-C ,  2-H ) :   0.9459 B(  1-C ,  3-H ) :   0.9426
B(  1-C ,  4-S ) :   0.9061 B(  4-S ,  5-O ) :   1.9416 B(  4-S ,  6-O ) :   1.9103
B(  4-S ,  7-F ) :   1.0786

Dispersion correction           -0.015877426
FINAL SINGLE POINT ENERGY      -727.658939417440

DIPOLE MOMENT
-------------
                                X             Y             Z
Electronic contribution:      3.78392      -7.61468      -3.93736
Nuclear contribution   :     -3.60260       8.53062       5.21025
                        -----------------------------------------
Total Dipole Moment    :      0.18131       0.91593       1.27289
                        -----------------------------------------
Magnitude (a.u.)       :      1.57862
Magnitude (Debye)      :      4.01254

Rotational constants in cm-1:     0.154011     0.080858     0.079602
Rotational constants in MHz :  4617.134198  2424.070332  2386.404775

                             ****ORCA TERMINATED NORMALLY****
TOTAL RUN TIME: 0 days 0 hours 0 minutes 19 seconds 395 msec
