                         Program Version 5.0.0 -  RELEASE  -
|  1> !B3LYP D3BJ RIJCOSX def2-TZVP def2/J TightSCF
|  2> *xyz 0 1
|  3> C          1.96337       -1.74915       -1.89689
|  4> N          2.73849       -2.01517       -3.09711
|  5> C          4.04974       -2.15472       -3.15204
|  6> N          4.65821       -1.98629       -4.31866
|  7> C          4.76423       -2.45444       -2.05049
|  8> H          4.28736       -2.77626       -1.21750
|  9> H          5.75082       -2.65835       -2.12599
| 10> H          2.34518       -1.69027       -3.97145
| 11> H          4.10900       -1.59268       -5.07176
| 12> H          5.64910       -2.15646       -4.42724
| 13> C          2.08852       -0.30091       -1.41520
| 14> H          2.23127       -2.45162       -1.10264
| 15> H          0.93025       -1.97780       -2.15544
| 16> H          1.82118        0.36368       -2.21003
| 17> H          3.09792       -0.11068       -1.11551
| 18> H          1.43391       -0.14382       -0.58352
| 19> *
| 20> %MaxCore 64000
| 21>
| 22> %pal nprocs 4
| 23> end
| 24>
| 25> %scf
| 26>   MaxIter 150
| 27> end
| 28>
| 29>
| 30>                          ****END OF INPUT****

CARTESIAN COORDINATES (ANGSTROEM)
---------------------------------
  C      1.963370   -1.749150   -1.896890
  N      2.738490   -2.015170   -3.097110
  C      4.049740   -2.154720   -3.152040
  N      4.658210   -1.986290   -4.318660
  C      4.764230   -2.454440   -2.050490
  H      4.287360   -2.776260   -1.217500
  H      5.750820   -2.658350   -2.125990
  H      2.345180   -1.690270   -3.971450
  H      4.109000   -1.592680   -5.071760
  H      5.649100   -2.156460   -4.427240
  C      2.088520   -0.300910   -1.415200
  H      2.231270   -2.451620   -1.102640
  H      0.930250   -1.977800   -2.155440
  H      1.821180    0.363680   -2.210030
  H      3.097920   -0.110680   -1.115510
  H      1.433910   -0.143820   -0.583520

 Total Charge           Charge          ....    0
 Multiplicity           Mult            ....    1
 Number of Electrons    NEL             ....   48
 Basis Dimension        Dim             ....  246

ORBITAL ENERGIES
----------------

  NO   OCC          E(Eh)            E(eV)
   0   2.0000     -14.315545      -389.5458
   1   2.0000     -14.313990      -389.5035
   2   2.0000     -10.211205      -277.8610
   3   2.0000     -10.200626      -277.5731
   4   2.0000     -10.148082      -276.1434
   5   2.0000     -10.076644      -274.1994
   6   2.0000      -0.971868       -26.4459
   7   2.0000      -0.885627       -24.0991
   8   2.0000      -0.752154       -20.4672
   9   2.0000      -0.704072       -19.1588
  10   2.0000      -0.641201       -17.4480
  11   2.0000      -0.561119       -15.2688
  12   2.0000      -0.544763       -14.8238
  13   2.0000      -0.523497       -14.2451
  14   2.0000      -0.465952       -12.6792
  15   2.0000      -0.438528       -11.9330
  16   2.0000      -0.415170       -11.2973
  17   2.0000      -0.397063       -10.8046
  18   2.0000      -0.380142       -10.3442
  19   2.0000      -0.367132        -9.9902
  20   2.0000      -0.360339        -9.8053
  21   2.0000      -0.346989        -9.4420
  22   2.0000      -0.249994        -6.8027
  23   2.0000      -0.161704        -4.4002
  24   0.0000       0.017343         0.4719
  25   0.0000       0.048746         1.3264
  26   0.0000       0.064393         1.7522
  27   0.0000       0.073264         1.9936
  28   0.0000       0.089875         2.4456

MULLIKEN ATOMIC CHARGES
-----------------------
   0 C :   -0.082437
   1 N :   -0.284564
   2 C :    0.340262
   3 N :   -0.447270
   4 C :   -0.503319
   5 H :    0.077975
   6 H :    0.068968
   7 H :    0.169378
   8 H :    0.198710
   9 H :    0.236278
  10 C :   -0.295238
  11 H :    0.105919
  12 H :    0.100004
  13 H :    0.080146
  14 H :    0.136456
  15 H :    0.098732
Sum of atomic charges:   -0.0000000

LOEWDIN ATOMIC CHARGES
----------------------
   0 C :   -0.293364
   1 N :    0.118491
   2 C :   -0.468035
   3 N :   -0.006359
   4 C :   -0.350800
   5 H :    0.094750
   6 H :    0.090998
   7 H :    0.175080
   8 H :    0.158964
   9 H :    0.176772
  10 C :   -0.300051
  11 H :    0.133104
  12 H :    0.126859
  13 H :    0.108694
  14 H :    0.121245
  15 H :    0.113651

  Mayer bond orders larger than 0.100000
B(  0-C ,  1-N ) :   0.9514 B(  0-C , 10-C ) :   0.9509 B(  0-C , 11-H ) :   0.9643
B(  0-C , 12-H ) :   0.9760 B(  1-N ,  2-C ) :   1.2022 B(  1-N ,  7-H ) :   0.9322
B(  2-C ,  3-N ) :   1.1402 B(  2-C ,  4-C ) :   1.6412 B(  3-N ,  8-H ) :   0.9273
B(  3-N ,  9-H ) :   0.9213 B(  4-C ,  5-H ) :   1.0061 B(  4-C ,  6-H ) :   0.9963
B( 10-C , 13-H ) :   0.9742 B( 10-C , 14-H ) :   0.9739 B( 10-C , 15-H ) :   0.9703

Dispersion correction           -0.021175432
FINAL SINGLE POINT ENERGY      -267.861454282473

DIPOLE MOMENT
-------------
                                X             Y             Z
Electronic contribution:      1.33212      -1.81777      -3.48955
Nuclear contribution   :     -1.88803       2.22658       2.57497
                        -----------------------------------------
Total Dipole Moment    :     -0.55591       0.40881      -0.91457
                        -----------------------------------------
Magnitude (a.u.)       :      1.14569
Magnitude (Debye)      :      2.91211

Rotational constants in cm-1:     0.226509     0.075782     0.067928
Rotational constants in MHz :  6790.555051  2271.890226  2036.439218

                             ****ORCA TERMINATED NORMALLY****
TOTAL RUN TIME: 0 days 0 hours 0 minutes 27 seconds 176 msec
