                         Program Version 5.0.0 -  RELEASE  -
|  1> !B3LYP D3BJ RIJCOSX def2-TZVP def2/J TightSCF xyzfile
|  2>
|  3> *xyzfile 0 1 D1.xyz
|  4>
|  5> %MaxCore 64000
|  6>
|  7> %pal nprocs 18
|  8> end
|  9>
| 10> %scf
| 11>   MaxIter 150
| 12> end
| 13>
| 14>
| 15>                          ****END OF INPUT****

CARTESIAN COORDINATES (ANGSTROEM)
---------------------------------
  C      1.963365   -1.749150   -1.896887
  C      2.738490   -2.015170   -3.097113
  C      0.611877    1.657634   -4.500288
  C      1.694991    1.541794   -5.570447
  H      2.697326    1.734659   -5.183996
  H      1.506656    2.272239   -6.358076
  S      1.780287   -0.033128   -6.428739
  C      4.049736   -2.154717   -3.152044
  N      4.658206   -1.986293   -4.318655
  N      4.764231   -2.454435   -2.050491
  H      4.287363   -2.776259   -1.217496
  H      5.750825   -2.658351   -2.125988
  H      2.345176   -1.690274   -3.971447
  H      4.109004   -1.592677   -5.071760
  H      5.649095   -2.156462   -4.427237
  F      2.569287    0.213657   -7.607360
  O      0.416880   -0.462969   -6.618595
  C      2.088520   -0.300912   -1.415204
  H      2.231272   -2.451616   -1.102643
  H      0.930249   -1.977801   -2.155438
  C      0.680356    0.655418   -3.348038
  H     -0.356865    1.549231   -4.991128
  H      0.650228    2.675438   -4.096000
  C      1.968993    0.733582   -2.535654
  H      3.051356   -0.168602   -0.911868
  H      1.316501   -0.136231   -0.657252
  O      2.505129   -0.933263   -5.482570
  H      2.824195    0.624726   -3.208464
  H      2.058919    1.730331   -2.093112
  H      0.542252   -0.344731   -3.766662
  H     -0.174219    0.829692   -2.685182

 Total Charge           Charge          ....    0
 Multiplicity           Mult            ....    1
 Number of Electrons    NEL             ....  120
 Basis Dimension        Dim             ....  542

ORBITAL ENERGIES
----------------

  NO   OCC          E(Eh)            E(eV)
   0   2.0000     -89.106294     -2424.7055
   1   2.0000     -24.810593      -675.1306
   2   2.0000     -19.146555      -521.0042
   3   2.0000     -19.133162      -520.6398
   4   2.0000     -14.295110      -388.9897
   5   2.0000     -14.279865      -388.5749
   6   2.0000     -10.230184      -278.3774
   7   2.0000     -10.191108      -277.3141
   8   2.0000     -10.185092      -277.1504
   9   2.0000     -10.159514      -276.4544
  10   2.0000     -10.148018      -276.1416
  11   2.0000     -10.137427      -275.8534
  12   2.0000     -10.125571      -275.5308
  13   2.0000     -10.052017      -273.5293
  14   2.0000      -8.150608      -221.7893
  15   2.0000      -6.117339      -166.4613
  16   2.0000      -6.110930      -166.2869
  17   2.0000      -6.110695      -166.2805
  18   2.0000      -1.394463       -37.9453
  19   2.0000      -1.113770       -30.3072
  20   2.0000      -1.016546       -27.6616
  21   2.0000      -0.934617       -25.4322
  22   2.0000      -0.847300       -23.0562
  23   2.0000      -0.833596       -22.6833
  24   2.0000      -0.788257       -21.4496
  25   2.0000      -0.753064       -20.4919
  26   2.0000      -0.723654       -19.6916
  27   2.0000      -0.689124       -18.7520
  28   2.0000      -0.650414       -17.6987
  29   2.0000      -0.617261       -16.7965
  30   2.0000      -0.601371       -16.3641
  31   2.0000      -0.586294       -15.9539
  32   2.0000      -0.584931       -15.9168
  33   2.0000      -0.549472       -14.9519
  34   2.0000      -0.546181       -14.8623
  35   2.0000      -0.521960       -14.2033
  36   2.0000      -0.496735       -13.5169
  37   2.0000      -0.490530       -13.3480
  38   2.0000      -0.483463       -13.1557
  39   2.0000      -0.465120       -12.6565
  40   2.0000      -0.461397       -12.5552
  41   2.0000      -0.442081       -12.0296
  42   2.0000      -0.431133       -11.7317
  43   2.0000      -0.423091       -11.5129
  44   2.0000      -0.411465       -11.1965
  45   2.0000      -0.397557       -10.8181
  46   2.0000      -0.381813       -10.3897
  47   2.0000      -0.376338       -10.2407
  48   2.0000      -0.365733        -9.9521
  49   2.0000      -0.357896        -9.7389
  50   2.0000      -0.347994        -9.4694
  51   2.0000      -0.334364        -9.0985
  52   2.0000      -0.328746        -8.9456
  53   2.0000      -0.322892        -8.7863
  54   2.0000      -0.318864        -8.6767
  55   2.0000      -0.310737        -8.4556
  56   2.0000      -0.297290        -8.0897
  57   2.0000      -0.283480        -7.7139
  58   2.0000      -0.241257        -6.5649
  59   2.0000      -0.134237        -3.6528
  60   0.0000       0.013736         0.3738
  61   0.0000       0.023130         0.6294
  62   0.0000       0.034748         0.9455
  63   0.0000       0.053107         1.4451
  64   0.0000       0.055427         1.5083

MULLIKEN ATOMIC CHARGES
-----------------------
   0 C :   -0.269507
   1 C :   -0.262674
   2 C :   -0.140093
   3 C :   -0.267614
   4 H :    0.147366
   5 H :    0.137582
   6 S :    0.874735
   7 C :    0.248841
   8 N :   -0.449984
   9 N :   -0.465500
  10 H :    0.226324
  11 H :    0.198413
  12 H :    0.147663
  13 H :    0.235882
  14 H :    0.190423
  15 F :   -0.105310
  16 O :   -0.398144
  17 C :   -0.094695
  18 H :    0.061980
  19 H :    0.090316
  20 C :   -0.249224
  21 H :    0.119788
  22 H :    0.103450
  23 C :   -0.150366
  24 H :    0.074095
  25 H :    0.059729
  26 O :   -0.471695
  27 H :    0.107023
  28 H :    0.073462
  29 H :    0.140016
  30 H :    0.087719
Sum of atomic charges:   -0.0000000

LOEWDIN ATOMIC CHARGES
----------------------
   0 C :   -0.290222
   1 C :   -0.285021
   2 C :   -0.271190
   3 C :   -0.366861
   4 H :    0.140156
   5 H :    0.136440
   6 S :    0.559628
   7 C :   -0.460358
   8 N :   -0.019333
   9 N :   -0.025358
  10 H :    0.169964
  11 H :    0.154130
  12 H :    0.118327
  13 H :    0.159809
  14 H :    0.150934
  15 F :    0.099548
  16 O :   -0.248280
  17 C :   -0.256461
  18 H :    0.123472
  19 H :    0.136967
  20 C :   -0.260187
  21 H :    0.143994
  22 H :    0.144765
  23 C :   -0.265375
  24 H :    0.131111
  25 H :    0.124106
  26 O :   -0.290086
  27 H :    0.136592
  28 H :    0.128149
  29 H :    0.143511
  30 H :    0.137127

  Mayer bond orders larger than 0.100000
B(  0-C ,  1-C ) :   1.0081 B(  0-C , 17-C ) :   0.9340 B(  0-C , 18-H ) :   0.9804
B(  0-C , 19-H ) :   0.9911 B(  1-C ,  7-C ) :   1.6678 B(  1-C , 12-H ) :   1.0038
B(  2-C ,  3-C ) :   0.9620 B(  2-C , 20-C ) :   0.9747 B(  2-C , 21-H ) :   0.9651
B(  2-C , 22-H ) :   0.9499 B(  3-C ,  4-H ) :   0.9400 B(  3-C ,  5-H ) :   0.9401
B(  3-C ,  6-S ) :   0.9174 B(  6-S , 15-F ) :   1.1368 B(  6-S , 16-O ) :   1.9315
B(  6-S , 26-O ) :   1.7377 B(  7-C ,  8-N ) :   1.1901 B(  7-C ,  9-N ) :   1.1391
B(  8-N , 13-H ) :   0.8798 B(  8-N , 14-H ) :   0.9337 B(  9-N , 10-H ) :   0.9208
B(  9-N , 11-H ) :   0.9311 B( 17-C , 23-C ) :   0.9917 B( 17-C , 24-H ) :   0.9619
B( 17-C , 25-H ) :   0.9674 B( 20-C , 23-C ) :   0.9351 B( 20-C , 29-H ) :   0.9750
B( 20-C , 30-H ) :   0.9674 B( 23-C , 27-H ) :   0.9716 B( 23-C , 28-H ) :   0.9648

Dispersion correction           -0.062346797
FINAL SINGLE POINT ENERGY     -1072.900504912610

DIPOLE MOMENT
-------------
                                X             Y             Z
Electronic contribution:      0.83388      -1.04515     -23.58012
Nuclear contribution   :      0.18720       2.58739      22.98820
                        -----------------------------------------
Total Dipole Moment    :      1.02108       1.54224      -0.59192
                        -----------------------------------------
Magnitude (a.u.)       :      1.94203
Magnitude (Debye)      :      4.93625

Rotational constants in cm-1:     0.028798     0.014448     0.010940
Rotational constants in MHz :   863.355869   433.126694   327.985023

                             ****ORCA TERMINATED NORMALLY****
TOTAL RUN TIME: 0 days 0 hours 0 minutes 58 seconds 916 msec
