                         Program Version 5.0.0 -  RELEASE  -
|  1> !B3LYP D3BJ RIJCOSX def2-TZVP def2/J TightSCF xyzfile
|  2>
|  3> *xyzfile 0 1 D4.xyz
|  4>
|  5> %MaxCore 64000
|  6>
|  7> %pal nprocs 18
|  8> end
|  9>
| 10> %scf
| 11>   MaxIter 150
| 12> end
| 13>
| 14>
| 15>                          ****END OF INPUT****

CARTESIAN COORDINATES (ANGSTROEM)
---------------------------------
  C      1.963365   -1.749150   -1.896887
  C      2.738490   -2.015170   -3.097113
  C      0.611877    1.657634   -4.500288
  C      1.694991    1.541794   -5.570447
  H      2.697326    1.734659   -5.183996
  H      1.506656    2.272239   -6.358076
  S      1.780287   -0.033128   -6.428739
  C      4.049736   -2.154717   -3.152044
  N      4.658206   -1.986293   -4.318655
  N      4.764231   -2.454435   -2.050491
  H      4.287363   -2.776259   -1.217496
  H      5.750825   -2.658351   -2.125988
  H      2.345176   -1.690274   -3.971447
  H      4.109004   -1.592677   -5.071760
  H      5.649095   -2.156462   -4.427237
  O      2.569287    0.213657   -7.607360
  F      0.416880   -0.462969   -6.618595
  C      2.088520   -0.300912   -1.415204
  H      2.231272   -2.451616   -1.102643
  H      0.930249   -1.977801   -2.155438
  C      0.680356    0.655418   -3.348038
  H     -0.356865    1.549231   -4.991128
  H      0.650228    2.675438   -4.096000
  C      1.968993    0.733582   -2.535654
  H      3.051356   -0.168602   -0.911868
  H      1.316501   -0.136231   -0.657252
  O      2.505129   -0.933263   -5.482570
  H      2.824195    0.624726   -3.208464
  H      2.058919    1.730331   -2.093112
  H      0.542252   -0.344731   -3.766662
  H     -0.174219    0.829692   -2.685182

 Total Charge           Charge          ....    0
 Multiplicity           Mult            ....    1
 Number of Electrons    NEL             ....  120
 Basis Dimension        Dim             ....  542

ORBITAL ENERGIES
----------------

  NO   OCC          E(Eh)            E(eV)
   0   2.0000     -89.107058     -2424.7263
   1   2.0000     -24.810557      -675.1296
   2   2.0000     -19.146033      -520.9900
   3   2.0000     -19.131406      -520.5920
   4   2.0000     -14.295640      -389.0041
   5   2.0000     -14.279396      -388.5621
   6   2.0000     -10.230209      -278.3781
   7   2.0000     -10.195740      -277.4402
   8   2.0000     -10.185739      -277.1681
   9   2.0000     -10.167872      -276.6819
  10   2.0000     -10.152447      -276.2621
  11   2.0000     -10.140473      -275.9363
  12   2.0000     -10.128219      -275.6029
  13   2.0000     -10.051789      -273.5231
  14   2.0000      -8.151250      -221.8068
  15   2.0000      -6.118013      -166.4796
  16   2.0000      -6.111790      -166.3102
  17   2.0000      -6.111099      -166.2915
  18   2.0000      -1.392904       -37.9028
  19   2.0000      -1.114780       -30.3347
  20   2.0000      -1.015924       -27.6447
  21   2.0000      -0.934679       -25.4339
  22   2.0000      -0.847295       -23.0561
  23   2.0000      -0.838608       -22.8197
  24   2.0000      -0.790260       -21.5041
  25   2.0000      -0.751971       -20.4622
  26   2.0000      -0.725408       -19.7394
  27   2.0000      -0.693066       -18.8593
  28   2.0000      -0.651810       -17.7367
  29   2.0000      -0.620002       -16.8711
  30   2.0000      -0.600822       -16.3492
  31   2.0000      -0.597548       -16.2601
  32   2.0000      -0.581950       -15.8357
  33   2.0000      -0.551782       -15.0147
  34   2.0000      -0.543303       -14.7840
  35   2.0000      -0.520443       -14.1620
  36   2.0000      -0.495813       -13.4918
  37   2.0000      -0.492584       -13.4039
  38   2.0000      -0.477281       -12.9875
  39   2.0000      -0.471300       -12.8247
  40   2.0000      -0.465025       -12.6540
  41   2.0000      -0.443232       -12.0610
  42   2.0000      -0.435210       -11.8427
  43   2.0000      -0.429277       -11.6812
  44   2.0000      -0.417606       -11.3636
  45   2.0000      -0.393557       -10.7092
  46   2.0000      -0.385103       -10.4792
  47   2.0000      -0.378946       -10.3116
  48   2.0000      -0.370790       -10.0897
  49   2.0000      -0.361166        -9.8278
  50   2.0000      -0.350713        -9.5434
  51   2.0000      -0.338076        -9.1995
  52   2.0000      -0.335771        -9.1368
  53   2.0000      -0.328787        -8.9467
  54   2.0000      -0.317957        -8.6521
  55   2.0000      -0.312743        -8.5102
  56   2.0000      -0.300651        -8.1811
  57   2.0000      -0.278977        -7.5914
  58   2.0000      -0.241146        -6.5619
  59   2.0000      -0.134903        -3.6709
  60   0.0000       0.003201         0.0871
  61   0.0000       0.031719         0.8631
  62   0.0000       0.034715         0.9446
  63   0.0000       0.050212         1.3663
  64   0.0000       0.053597         1.4584

MULLIKEN ATOMIC CHARGES
-----------------------
   0 C :   -0.262417
   1 C :   -0.259079
   2 C :   -0.177973
   3 C :   -0.258392
   4 H :    0.160840
   5 H :    0.149122
   6 S :    0.888851
   7 C :    0.241742
   8 N :   -0.448769
   9 N :   -0.464595
  10 H :    0.225643
  11 H :    0.199492
  12 H :    0.132967
  13 H :    0.248854
  14 H :    0.192591
  15 O :   -0.409987
  16 F :   -0.102272
  17 C :   -0.097718
  18 H :    0.062939
  19 H :    0.083547
  20 C :   -0.235585
  21 H :    0.113022
  22 H :    0.105326
  23 C :   -0.140728
  24 H :    0.076518
  25 H :    0.059534
  26 O :   -0.474177
  27 H :    0.110299
  28 H :    0.077217
  29 H :    0.112113
  30 H :    0.091072
Sum of atomic charges:    0.0000000

LOEWDIN ATOMIC CHARGES
----------------------
   0 C :   -0.292044
   1 C :   -0.290681
   2 C :   -0.284272
   3 C :   -0.358442
   4 H :    0.150208
   5 H :    0.141571
   6 S :    0.565085
   7 C :   -0.460224
   8 N :   -0.014254
   9 N :   -0.024921
  10 H :    0.169702
  11 H :    0.154607
  12 H :    0.114703
  13 H :    0.165225
  14 H :    0.152576
  15 O :   -0.256699
  16 F :    0.106269
  17 C :   -0.256273
  18 H :    0.123596
  19 H :    0.134815
  20 C :   -0.263882
  21 H :    0.136103
  22 H :    0.144551
  23 C :   -0.263671
  24 H :    0.132082
  25 H :    0.123857
  26 O :   -0.291319
  27 H :    0.138421
  28 H :    0.129512
  29 H :    0.136549
  30 H :    0.137250

  Mayer bond orders larger than 0.100000
B(  0-C ,  1-C ) :   1.0052 B(  0-C , 17-C ) :   0.9324 B(  0-C , 18-H ) :   0.9806
B(  0-C , 19-H ) :   0.9920 B(  1-C ,  7-C ) :   1.6711 B(  1-C , 12-H ) :   1.0088
B(  2-C ,  3-C ) :   0.9527 B(  2-C , 20-C ) :   0.9498 B(  2-C , 21-H ) :   0.9777
B(  2-C , 22-H ) :   0.9499 B(  3-C ,  4-H ) :   0.9426 B(  3-C ,  5-H ) :   0.9477
B(  3-C ,  6-S ) :   0.9138 B(  6-S , 15-O ) :   1.9565 B(  6-S , 16-F ) :   1.1315
B(  6-S , 26-O ) :   1.7307 B(  7-C ,  8-N ) :   1.2005 B(  7-C ,  9-N ) :   1.1398
B(  8-N , 13-H ) :   0.8777 B(  8-N , 14-H ) :   0.9331 B(  9-N , 10-H ) :   0.9208
B(  9-N , 11-H ) :   0.9306 B( 17-C , 23-C ) :   0.9894 B( 17-C , 24-H ) :   0.9613
B( 17-C , 25-H ) :   0.9677 B( 20-C , 23-C ) :   0.9266 B( 20-C , 29-H ) :   0.9845
B( 20-C , 30-H ) :   0.9669 B( 23-C , 27-H ) :   0.9718 B( 23-C , 28-H ) :   0.9647

Dispersion correction           -0.062156023
FINAL SINGLE POINT ENERGY     -1072.900031489830

DIPOLE MOMENT
-------------
                                X             Y             Z
Electronic contribution:     -2.89858      -2.20656     -21.79459
Nuclear contribution   :      2.64598       3.36033      21.85869
                        -----------------------------------------
Total Dipole Moment    :     -0.25260       1.15377       0.06410
                        -----------------------------------------
Magnitude (a.u.)       :      1.18284
Magnitude (Debye)      :      3.00654

Rotational constants in cm-1:     0.028973     0.014435     0.011026
Rotational constants in MHz :   868.588266   432.748309   330.548534

                             ****ORCA TERMINATED NORMALLY****
TOTAL RUN TIME: 0 days 0 hours 0 minutes 59 seconds 827 msec
