                         Program Version 5.0.0 -  RELEASE  -
|  1> !B3LYP D3BJ RIJCOSX def2-TZVP def2/J TightSCF xyzfile
|  2>
|  3> *xyzfile 0 1 D5.xyz
|  4>
|  5> %MaxCore 64000
|  6>
|  7> %pal nprocs 18
|  8> end
|  9>
| 10> %scf
| 11>   MaxIter 150
| 12> end
| 13>
| 14>
| 15>                          ****END OF INPUT****

CARTESIAN COORDINATES (ANGSTROEM)
---------------------------------
  C      1.963365   -1.749150   -1.896887
  N      2.738490   -2.015170   -3.097113
  C      0.611877    1.657634   -4.500288
  C      1.694991    1.541794   -5.570447
  H      2.697326    1.734659   -5.183996
  H      1.506656    2.272239   -6.358076
  S      1.780287   -0.033128   -6.428739
  C      4.049736   -2.154717   -3.152044
  C      4.658206   -1.986293   -4.318655
  N      4.764231   -2.454435   -2.050491
  H      4.287363   -2.776259   -1.217496
  H      5.750825   -2.658351   -2.125988
  H      2.345176   -1.690274   -3.971447
  H      4.109004   -1.592677   -5.071760
  H      5.649095   -2.156462   -4.427237
  O      2.569287    0.213657   -7.607360
  F      0.416880   -0.462969   -6.618595
  C      2.088520   -0.300912   -1.415204
  H      2.231272   -2.451616   -1.102643
  H      0.930249   -1.977801   -2.155438
  C      0.680356    0.655418   -3.348038
  H     -0.356865    1.549231   -4.991128
  H      0.650228    2.675438   -4.096000
  C      1.968993    0.733582   -2.535654
  H      3.051356   -0.168602   -0.911868
  H      1.316501   -0.136231   -0.657252
  O      2.505129   -0.933263   -5.482570
  H      2.824195    0.624726   -3.208464
  H      2.058919    1.730331   -2.093112
  H      0.542252   -0.344731   -3.766662
  H     -0.174219    0.829692   -2.685182

 Total Charge           Charge          ....    0
 Multiplicity           Mult            ....    1
 Number of Electrons    NEL             ....  120
 Basis Dimension        Dim             ....  542

ORBITAL ENERGIES
----------------

  NO   OCC          E(Eh)            E(eV)
   0   2.0000     -89.108341     -2424.7612
   1   2.0000     -24.812043      -675.1700
   2   2.0000     -19.147560      -521.0316
   3   2.0000     -19.134265      -520.6698
   4   2.0000     -14.293133      -388.9359
   5   2.0000     -14.279538      -388.5660
   6   2.0000     -10.233237      -278.4605
   7   2.0000     -10.203728      -277.6576
   8   2.0000     -10.192514      -277.3524
   9   2.0000     -10.185616      -277.1647
  10   2.0000     -10.182127      -277.0698
  11   2.0000     -10.168436      -276.6972
  12   2.0000     -10.162323      -276.5309
  13   2.0000     -10.047038      -273.3938
  14   2.0000      -8.152542      -221.8419
  15   2.0000      -6.119431      -166.5182
  16   2.0000      -6.112970      -166.3424
  17   2.0000      -6.112408      -166.3271
  18   2.0000      -1.394723       -37.9523
  19   2.0000      -1.115857       -30.3640
  20   2.0000      -1.017722       -27.6936
  21   2.0000      -0.943526       -25.6747
  22   2.0000      -0.863159       -23.4878
  23   2.0000      -0.845436       -23.0055
  24   2.0000      -0.793748       -21.5990
  25   2.0000      -0.757881       -20.6230
  26   2.0000      -0.724710       -19.7204
  27   2.0000      -0.698696       -19.0125
  28   2.0000      -0.659749       -17.9527
  29   2.0000      -0.628099       -17.0914
  30   2.0000      -0.604020       -16.4362
  31   2.0000      -0.602529       -16.3956
  32   2.0000      -0.588543       -16.0151
  33   2.0000      -0.569636       -15.5006
  34   2.0000      -0.548388       -14.9224
  35   2.0000      -0.515556       -14.0290
  36   2.0000      -0.500715       -13.6252
  37   2.0000      -0.494867       -13.4660
  38   2.0000      -0.478059       -13.0086
  39   2.0000      -0.472542       -12.8585
  40   2.0000      -0.467997       -12.7348
  41   2.0000      -0.458617       -12.4796
  42   2.0000      -0.442686       -12.0461
  43   2.0000      -0.430617       -11.7177
  44   2.0000      -0.423737       -11.5305
  45   2.0000      -0.397728       -10.8227
  46   2.0000      -0.395280       -10.7561
  47   2.0000      -0.386937       -10.5291
  48   2.0000      -0.378040       -10.2870
  49   2.0000      -0.362735        -9.8705
  50   2.0000      -0.360083        -9.7984
  51   2.0000      -0.350667        -9.5421
  52   2.0000      -0.339390        -9.2353
  53   2.0000      -0.333330        -9.0704
  54   2.0000      -0.329912        -8.9774
  55   2.0000      -0.326868        -8.8945
  56   2.0000      -0.320176        -8.7124
  57   2.0000      -0.309283        -8.4160
  58   2.0000      -0.230961        -6.2848
  59   2.0000      -0.137617        -3.7447
  60   0.0000       0.001456         0.0396
  61   0.0000       0.025914         0.7052
  62   0.0000       0.033797         0.9197
  63   0.0000       0.043172         1.1748
  64   0.0000       0.050270         1.3679

MULLIKEN ATOMIC CHARGES
-----------------------
   0 C :   -0.213346
   1 N :   -0.241240
   2 C :   -0.177796
   3 C :   -0.264151
   4 H :    0.168039
   5 H :    0.150780
   6 S :    0.890100
   7 C :    0.325363
   8 C :   -0.542399
   9 N :   -0.480417
  10 H :    0.203962
  11 H :    0.223098
  12 H :    0.225733
  13 H :    0.139408
  14 H :    0.063375
  15 O :   -0.399813
  16 F :   -0.105874
  17 C :   -0.074117
  18 H :    0.097234
  19 H :    0.116107
  20 C :   -0.227522
  21 H :    0.115907
  22 H :    0.109283
  23 C :   -0.219395
  24 H :    0.093027
  25 H :    0.069086
  26 O :   -0.467249
  27 H :    0.138172
  28 H :    0.087815
  29 H :    0.101378
  30 H :    0.095450
Sum of atomic charges:   -0.0000000

LOEWDIN ATOMIC CHARGES
----------------------
   0 C :   -0.298952
   1 N :    0.122367
   2 C :   -0.282931
   3 C :   -0.358228
   4 H :    0.152077
   5 H :    0.142308
   6 S :    0.564090
   7 C :   -0.466858
   8 C :   -0.347671
   9 N :   -0.024147
  10 H :    0.154407
  11 H :    0.169953
  12 H :    0.170812
  13 H :    0.097947
  14 H :    0.087997
  15 O :   -0.246738
  16 F :    0.102526
  17 C :   -0.265618
  18 H :    0.123543
  19 H :    0.128563
  20 C :   -0.268224
  21 H :    0.137174
  22 H :    0.145664
  23 C :   -0.265091
  24 H :    0.135802
  25 H :    0.129763
  26 O :   -0.285348
  27 H :    0.142744
  28 H :    0.133991
  29 H :    0.130262
  30 H :    0.137818

  Mayer bond orders larger than 0.100000
B(  0-C ,  1-N ) :   0.9906 B(  0-C , 17-C ) :   0.9035 B(  0-C , 18-H ) :   0.9850
B(  0-C , 19-H ) :   0.9892 B(  1-N ,  7-C ) :   1.2302 B(  1-N , 12-H ) :   0.8929
B(  2-C ,  3-C ) :   0.9512 B(  2-C , 20-C ) :   0.9533 B(  2-C , 21-H ) :   0.9774
B(  2-C , 22-H ) :   0.9513 B(  3-C ,  4-H ) :   0.9425 B(  3-C ,  5-H ) :   0.9486
B(  3-C ,  6-S ) :   0.9125 B(  6-S , 15-O ) :   1.9679 B(  6-S , 16-F ) :   1.1245
B(  6-S , 26-O ) :   1.7239 B(  7-C ,  8-C ) :   1.6238 B(  7-C ,  9-N ) :   1.1052
B(  8-C , 13-H ) :   0.9838 B(  8-C , 14-H ) :   1.0035 B(  9-N , 10-H ) :   0.9225
B(  9-N , 11-H ) :   0.9290 B( 17-C , 23-C ) :   0.9766 B( 17-C , 24-H ) :   0.9590
B( 17-C , 25-H ) :   0.9631 B( 20-C , 23-C ) :   0.9334 B( 20-C , 29-H ) :   0.9821
B( 20-C , 30-H ) :   0.9666 B( 23-C , 27-H ) :   0.9655 B( 23-C , 28-H ) :   0.9634

Dispersion correction           -0.061755687
FINAL SINGLE POINT ENERGY     -1072.898039156469

DIPOLE MOMENT
-------------
                                X             Y             Z
Electronic contribution:     -4.58795      -2.02383     -20.73307
Nuclear contribution   :      2.89225       3.36404      21.70199
                        -----------------------------------------
Total Dipole Moment    :     -1.69570       1.34021       0.96892
                        -----------------------------------------
Magnitude (a.u.)       :      2.36863
Magnitude (Debye)      :      6.02057

Rotational constants in cm-1:     0.029431     0.014408     0.011084
Rotational constants in MHz :   882.306106   431.946714   332.288152

                             ****ORCA TERMINATED NORMALLY****
TOTAL RUN TIME: 0 days 0 hours 1 minutes 10 seconds 189 msec
