                         Program Version 5.0.0 -  RELEASE  -
|  1> !B3LYP D3BJ RIJCOSX def2-TZVP def2/J TightSCF xyzfile
|  2>
|  3> *xyzfile 0 1 D6.xyz
|  4>
|  5> %MaxCore 64000
|  6>
|  7> %pal nprocs 18
|  8> end
|  9>
| 10> %scf
| 11>   MaxIter 150
| 12> end
| 13>
| 14>
| 15>                          ****END OF INPUT****

CARTESIAN COORDINATES (ANGSTROEM)
---------------------------------
  C      1.963365   -1.749150   -1.896887
  N      2.738490   -2.015170   -3.097113
  C      0.611877    1.657634   -4.500288
  C      1.694991    1.541794   -5.570447
  H      2.697326    1.734659   -5.183996
  H      1.506656    2.272239   -6.358076
  S      1.780287   -0.033128   -6.428739
  C      4.049736   -2.154717   -3.152044
  N      4.658206   -1.986293   -4.318655
  C      4.764231   -2.454435   -2.050491
  H      4.287363   -2.776259   -1.217496
  H      5.750825   -2.658351   -2.125988
  H      2.345176   -1.690274   -3.971447
  H      4.109004   -1.592677   -5.071760
  H      5.649095   -2.156462   -4.427237
  O      2.569287    0.213657   -7.607360
  F      0.416880   -0.462969   -6.618595
  C      2.088520   -0.300912   -1.415204
  H      2.231272   -2.451616   -1.102643
  H      0.930249   -1.977801   -2.155438
  C      0.680356    0.655418   -3.348038
  H     -0.356865    1.549231   -4.991128
  H      0.650228    2.675438   -4.096000
  C      1.968993    0.733582   -2.535654
  H      3.051356   -0.168602   -0.911868
  H      1.316501   -0.136231   -0.657252
  O      2.505129   -0.933263   -5.482570
  H      2.824195    0.624726   -3.208464
  H      2.058919    1.730331   -2.093112
  H      0.542252   -0.344731   -3.766662
  H     -0.174219    0.829692   -2.685182

 Total Charge           Charge          ....    0
 Multiplicity           Mult            ....    1
 Number of Electrons    NEL             ....  120
 Basis Dimension        Dim             ....  542

ORBITAL ENERGIES
----------------

  NO   OCC          E(Eh)            E(eV)
   0   2.0000     -89.126129     -2425.2453
   1   2.0000     -24.826867      -675.5734
   2   2.0000     -19.163137      -521.4555
   3   2.0000     -19.155122      -521.2374
   4   2.0000     -14.281156      -388.6100
   5   2.0000     -14.279065      -388.5531
   6   2.0000     -10.244834      -278.7761
   7   2.0000     -10.210216      -277.8341
   8   2.0000     -10.187472      -277.2152
   9   2.0000     -10.186052      -277.1766
  10   2.0000     -10.185466      -277.1606
  11   2.0000     -10.169439      -276.7245
  12   2.0000     -10.156963      -276.3850
  13   2.0000     -10.055500      -273.6241
  14   2.0000      -8.170164      -222.3215
  15   2.0000      -6.136946      -166.9948
  16   2.0000      -6.130860      -166.8292
  17   2.0000      -6.129909      -166.8033
  18   2.0000      -1.409288       -38.3487
  19   2.0000      -1.133275       -30.8380
  20   2.0000      -1.036921       -28.2161
  21   2.0000      -0.944480       -25.7006
  22   2.0000      -0.861788       -23.4504
  23   2.0000      -0.852493       -23.1975
  24   2.0000      -0.797068       -21.6893
  25   2.0000      -0.759193       -20.6587
  26   2.0000      -0.728822       -19.8323
  27   2.0000      -0.689506       -18.7624
  28   2.0000      -0.677762       -18.4428
  29   2.0000      -0.640124       -17.4187
  30   2.0000      -0.616299       -16.7703
  31   2.0000      -0.613632       -16.6978
  32   2.0000      -0.587004       -15.9732
  33   2.0000      -0.573408       -15.6032
  34   2.0000      -0.535852       -14.5813
  35   2.0000      -0.522351       -14.2139
  36   2.0000      -0.509613       -13.8673
  37   2.0000      -0.507519       -13.8103
  38   2.0000      -0.497187       -13.5291
  39   2.0000      -0.484041       -13.1714
  40   2.0000      -0.465304       -12.6616
  41   2.0000      -0.456754       -12.4289
  42   2.0000      -0.441061       -12.0019
  43   2.0000      -0.432520       -11.7695
  44   2.0000      -0.426265       -11.5993
  45   2.0000      -0.409721       -11.1491
  46   2.0000      -0.394595       -10.7375
  47   2.0000      -0.391916       -10.6646
  48   2.0000      -0.375232       -10.2106
  49   2.0000      -0.368331       -10.0228
  50   2.0000      -0.360474        -9.8090
  51   2.0000      -0.359216        -9.7748
  52   2.0000      -0.348605        -9.4860
  53   2.0000      -0.342494        -9.3197
  54   2.0000      -0.334292        -9.0966
  55   2.0000      -0.330801        -9.0016
  56   2.0000      -0.329507        -8.9663
  57   2.0000      -0.317986        -8.6528
  58   2.0000      -0.223089        -6.0706
  59   2.0000      -0.139811        -3.8045
  60   0.0000      -0.011118        -0.3025
  61   0.0000       0.019069         0.5189
  62   0.0000       0.033834         0.9207
  63   0.0000       0.040107         1.0914
  64   0.0000       0.042062         1.1446

MULLIKEN ATOMIC CHARGES
-----------------------
   0 C :   -0.162881
   1 N :   -0.257051
   2 C :   -0.178731
   3 C :   -0.265189
   4 H :    0.168985
   5 H :    0.156338
   6 S :    0.906194
   7 C :    0.307710
   8 N :   -0.458888
   9 C :   -0.525059
  10 H :    0.070350
  11 H :    0.062627
  12 H :    0.215666
  13 H :    0.239669
  14 H :    0.218455
  15 O :   -0.398098
  16 F :   -0.099428
  17 C :   -0.088811
  18 H :    0.113795
  19 H :    0.108823
  20 C :   -0.228467
  21 H :    0.118137
  22 H :    0.112758
  23 C :   -0.221233
  24 H :    0.109462
  25 H :    0.074001
  26 O :   -0.505347
  27 H :    0.116954
  28 H :    0.088840
  29 H :    0.100699
  30 H :    0.099721
Sum of atomic charges:   -0.0000000

LOEWDIN ATOMIC CHARGES
----------------------
   0 C :   -0.279548
   1 N :    0.121513
   2 C :   -0.282459
   3 C :   -0.356214
   4 H :    0.152211
   5 H :    0.144163
   6 S :    0.572129
   7 C :   -0.468072
   8 N :   -0.011131
   9 C :   -0.369747
  10 H :    0.091338
  11 H :    0.087963
  12 H :    0.158741
  13 H :    0.152599
  14 H :    0.168880
  15 O :   -0.245094
  16 F :    0.108984
  17 C :   -0.262151
  18 H :    0.134345
  19 H :    0.125763
  20 C :   -0.268217
  21 H :    0.137548
  22 H :    0.147123
  23 C :   -0.265929
  24 H :    0.142302
  25 H :    0.130977
  26 O :   -0.309225
  27 H :    0.137898
  28 H :    0.134153
  29 H :    0.129696
  30 H :    0.139462

  Mayer bond orders larger than 0.100000
B(  0-C ,  1-N ) :   0.9748 B(  0-C , 17-C ) :   0.9339 B(  0-C , 18-H ) :   0.9704
B(  0-C , 19-H ) :   0.9871 B(  1-N ,  7-C ) :   1.2147 B(  1-N , 12-H ) :   0.8987
B(  2-C ,  3-C ) :   0.9485 B(  2-C , 20-C ) :   0.9504 B(  2-C , 21-H ) :   0.9777
B(  2-C , 22-H ) :   0.9497 B(  3-C ,  4-H ) :   0.9405 B(  3-C ,  5-H ) :   0.9477
B(  3-C ,  6-S ) :   0.9152 B(  6-S , 15-O ) :   1.9691 B(  6-S , 16-F ) :   1.1371
B(  6-S , 26-O ) :   1.6874 B(  7-C ,  8-N ) :   1.1650 B(  7-C ,  9-C ) :   1.6205
B(  8-N , 13-H ) :   0.8862 B(  8-N , 14-H ) :   0.9288 B(  9-C , 10-H ) :   0.9988
B(  9-C , 11-H ) :   0.9966 B( 17-C , 23-C ) :   0.9826 B( 17-C , 24-H ) :   0.9532
B( 17-C , 25-H ) :   0.9701 B( 20-C , 23-C ) :   0.9285 B( 20-C , 29-H ) :   0.9852
B( 20-C , 30-H ) :   0.9677 B( 23-C , 27-H ) :   0.9687 B( 23-C , 28-H ) :   0.9630

Dispersion correction           -0.061673507
FINAL SINGLE POINT ENERGY     -1072.909764960299

DIPOLE MOMENT
-------------
                                X             Y             Z
Electronic contribution:     -4.83888      -1.40645     -22.81216
Nuclear contribution   :      2.90585       3.30398      21.99296
                        -----------------------------------------
Total Dipole Moment    :     -1.93303       1.89753      -0.81920
                        -----------------------------------------
Magnitude (a.u.)       :      2.82990
Magnitude (Debye)      :      7.19304

Rotational constants in cm-1:     0.029065     0.014689     0.011200
Rotational constants in MHz :   871.338526   440.374927   335.770911

                             ****ORCA TERMINATED NORMALLY****
TOTAL RUN TIME: 0 days 0 hours 1 minutes 10 seconds 747 msec
