                         Program Version 5.0.0 -  RELEASE  -
|  1> !BLYP D3BJ RIJCOSX def2-SVP def2/J TightSCF
|  2> *xyz -1 1
|  3> C         -0.91495        0.61511        2.50554
|  4> C         -0.05915        1.50352        3.41058
|  5> H          0.36536        2.34431        2.86116
|  6> H         -0.69226        1.92021        4.19898
|  7> C          1.08303        0.74964        4.08571
|  8> O          2.22817        1.26348        4.01983
|  9> O          0.81003       -0.34541        4.63627
| 10> H         -0.30401        0.20228        1.73015
| 11> H         -1.69811        1.19946        2.06954
| 12> H         -1.34124       -0.17772        3.08397
| 13> *
| 14>
| 15> %MaxCore 64000
| 16>
| 17> %pal nprocs 4
| 18> end
| 19>
| 20> %scf
| 21>   MaxIter 150
| 22> end
| 23>
| 24>
| 25>                          ****END OF INPUT****

CARTESIAN COORDINATES (ANGSTROEM)
---------------------------------
  C     -0.914950    0.615110    2.505540
  C     -0.059150    1.503520    3.410580
  H      0.365360    2.344310    2.861160
  H     -0.692260    1.920210    4.198980
  C      1.083030    0.749640    4.085710
  O      2.228170    1.263480    4.019830
  O      0.810030   -0.345410    4.636270
  H     -0.304010    0.202280    1.730150
  H     -1.698110    1.199460    2.069540
  H     -1.341240   -0.177720    3.083970

 Total Charge           Charge          ....   -1
 Multiplicity           Mult            ....    1
 Number of Electrons    NEL             ....   40
 Basis Dimension        Dim             ....   95

ORBITAL ENERGIES
----------------

  NO   OCC          E(Eh)            E(eV)
   0   2.0000     -18.481513      -502.9075
   1   2.0000     -18.478816      -502.8341
   2   2.0000      -9.761616      -265.6271
   3   2.0000      -9.746572      -265.2177
   4   2.0000      -9.725011      -264.6310
   5   2.0000      -0.672974       -18.3126
   6   2.0000      -0.584366       -15.9014
   7   2.0000      -0.501055       -13.6344
   8   2.0000      -0.379071       -10.3151
   9   2.0000      -0.236030        -6.4227
  10   2.0000      -0.221070        -6.0156
  11   2.0000      -0.176403        -4.8002
  12   2.0000      -0.154462        -4.2031
  13   2.0000      -0.140410        -3.8207
  14   2.0000      -0.119080        -3.2403
  15   2.0000      -0.089147        -2.4258
  16   2.0000      -0.080750        -2.1973
  17   2.0000       0.036275         0.9871
  18   2.0000       0.045973         1.2510
  19   2.0000       0.065904         1.7933
  20   0.0000       0.196651         5.3511
  21   0.0000       0.244080         6.6417
  22   0.0000       0.253692         6.9033
  23   0.0000       0.261412         7.1134
  24   0.0000       0.264971         7.2102

MULLIKEN ATOMIC CHARGES
-----------------------
   0 C :    0.112585
   1 C :    0.116041
   2 H :   -0.106290
   3 H :   -0.084303
   4 C :   -0.102835
   5 O :   -0.368563
   6 O :   -0.372598
   7 H :   -0.050863
   8 H :   -0.092103
   9 H :   -0.051071
Sum of atomic charges:   -1.0000000

LOEWDIN ATOMIC CHARGES
----------------------
   0 C :   -0.051289
   1 C :   -0.080962
   2 H :   -0.016516
   3 H :   -0.005282
   4 C :   -0.094214
   5 O :   -0.365849
   6 O :   -0.367725
   7 H :    0.001635
   8 H :   -0.017434
   9 H :   -0.002364

  Mayer bond orders larger than 0.100000
B(  0-C ,  1-C ) :   1.1087 B(  0-C ,  7-H ) :   0.9638 B(  0-C ,  8-H ) :   0.9402
B(  0-C ,  9-H ) :   0.9438 B(  1-C ,  2-H ) :   0.9046 B(  1-C ,  3-H ) :   0.9076
B(  1-C ,  4-C ) :   0.9140 B(  4-C ,  5-O ) :   1.9058 B(  4-C ,  6-O ) :   1.8647
B(  5-O ,  6-O ) :   0.1380

Dispersion correction           -0.013546664
FINAL SINGLE POINT ENERGY      -267.537643137322

DIPOLE MOMENT
-------------
                                X             Y             Z
Electronic contribution:      5.06519      -1.15528       3.56631
Nuclear contribution   :     -6.38408       1.63097      -4.40540
                        -----------------------------------------
Total Dipole Moment    :     -1.31889       0.47568      -0.83909
                        -----------------------------------------
Magnitude (a.u.)       :      1.63395
Magnitude (Debye)      :      4.15318

Rotational constants in cm-1:     0.319732     0.134414     0.104753
Rotational constants in MHz :  9585.336550  4029.633034  3140.404334

                             ****ORCA TERMINATED NORMALLY****
TOTAL RUN TIME: 0 days 0 hours 0 minutes 7 seconds 333 msec
