                         Program Version 5.0.0 -  RELEASE  -
|  1> !BLYP D3BJ RIJCOSX def2-SVP def2/J TightSCF
|  2> *xyz 1 1
|  3> C          4.60295       -2.44010        2.63478
|  4> C          3.86085       -1.59157        3.62289
|  5> N          2.75650       -2.04616        4.16633
|  6> N          4.25433       -0.36291        3.86046
|  7> H          3.56526        0.31099        4.16898
|  8> H          5.05429       -0.01606        3.33784
|  9> H          2.43970       -2.97389        3.89740
| 10> H          2.06687       -1.41253        4.54981
| 11> C          3.74469       -2.58056        1.36188
| 12> H          5.56156       -1.97135        2.40708
| 13> H          4.81050       -3.42255        3.06310
| 14> H          4.26314       -3.18477        0.64702
| 15> H          3.56325       -1.61180        0.94535
| 16> H          2.81197       -3.04259        1.60980
| 17> *
| 18>
| 19> %MaxCore 64000
| 20>
| 21> %pal nprocs 4
| 22> end
| 23>
| 24> %scf
| 25>   MaxIter 150
| 26> end
| 27>
| 28>
| 29>                          ****END OF INPUT****

CARTESIAN COORDINATES (ANGSTROEM)
---------------------------------
  C      4.602950   -2.440100    2.634780
  C      3.860850   -1.591570    3.622890
  N      2.756500   -2.046160    4.166330
  N      4.254330   -0.362910    3.860460
  H      3.565260    0.310990    4.168980
  H      5.054290   -0.016060    3.337840
  H      2.439700   -2.973890    3.897400
  H      2.066870   -1.412530    4.549810
  C      3.744690   -2.580560    1.361880
  H      5.561560   -1.971350    2.407080
  H      4.810500   -3.422550    3.063100
  H      4.263140   -3.184770    0.647020
  H      3.563250   -1.611800    0.945350
  H      2.811970   -3.042590    1.609800

 Total Charge           Charge          ....    1
 Multiplicity           Mult            ....    1
 Number of Electrons    NEL             ....   40
 Basis Dimension        Dim             ....  115

ORBITAL ENERGIES
----------------

  NO   OCC          E(Eh)            E(eV)
   0   2.0000     -14.267518      -388.2389
   1   2.0000     -14.266788      -388.2190
   2   2.0000     -10.233788      -278.4755
   3   2.0000     -10.121978      -275.4330
   4   2.0000     -10.084875      -274.4234
   5   2.0000      -1.107514       -30.1370
   6   2.0000      -1.016698       -27.6658
   7   2.0000      -0.885461       -24.0946
   8   2.0000      -0.787240       -21.4219
   9   2.0000      -0.748679       -20.3726
  10   2.0000      -0.714204       -19.4345
  11   2.0000      -0.690204       -18.7814
  12   2.0000      -0.645023       -17.5520
  13   2.0000      -0.608069       -16.5464
  14   2.0000      -0.572069       -15.5668
  15   2.0000      -0.549926       -14.9642
  16   2.0000      -0.502208       -13.6658
  17   2.0000      -0.495259       -13.4767
  18   2.0000      -0.483690       -13.1619
  19   2.0000      -0.449568       -12.2334
  20   0.0000      -0.239158        -6.5078
  21   0.0000      -0.171193        -4.6584
  22   0.0000      -0.127986        -3.4827
  23   0.0000      -0.127131        -3.4594
  24   0.0000      -0.098230        -2.6730

MULLIKEN ATOMIC CHARGES
-----------------------
   0 C :    0.096678
   1 C :   -0.200045
   2 N :    0.110694
   3 N :    0.117289
   4 H :    0.151516
   5 H :    0.163391
   6 H :    0.160484
   7 H :    0.152955
   8 C :    0.082728
   9 H :    0.023250
  10 H :    0.056591
  11 H :    0.055794
  12 H :    0.019465
  13 H :    0.009209
Sum of atomic charges:    1.0000000

LOEWDIN ATOMIC CHARGES
----------------------
   0 C :   -0.016559
   1 C :    0.121699
   2 N :    0.120119
   3 N :    0.121637
   4 H :    0.107601
   5 H :    0.116955
   6 H :    0.115340
   7 H :    0.108382
   8 C :   -0.007996
   9 H :    0.047430
  10 H :    0.058372
  11 H :    0.050760
  12 H :    0.032190
  13 H :    0.024069

  Mayer bond orders larger than 0.100000
B(  0-C ,  1-C ) :   1.0576 B(  0-C ,  8-C ) :   1.0941 B(  0-C ,  9-H ) :   0.9039
B(  0-C , 10-H ) :   0.9042 B(  1-C ,  2-N ) :   1.5215 B(  1-C ,  3-N ) :   1.5238
B(  2-N ,  6-H ) :   0.9231 B(  2-N ,  7-H ) :   0.9297 B(  3-N ,  4-H ) :   0.9294
B(  3-N ,  5-H ) :   0.9192 B(  8-C , 11-H ) :   0.9527 B(  8-C , 12-H ) :   0.9615
B(  8-C , 13-H ) :   0.9672

Dispersion correction           -0.020880617
FINAL SINGLE POINT ENERGY      -228.763790907166

DIPOLE MOMENT
-------------
                                X             Y             Z
Electronic contribution:     -0.27148       1.83625       3.78361
Nuclear contribution   :     -0.22400      -1.16268      -3.30447
                        -----------------------------------------
Total Dipole Moment    :     -0.49548       0.67357       0.47913
                        -----------------------------------------
Magnitude (a.u.)       :      0.96372
Magnitude (Debye)      :      2.44959

Rotational constants in cm-1:     0.258103     0.130571     0.102508
Rotational constants in MHz :  7737.732062  3914.431392  3073.119154

                             ****ORCA TERMINATED NORMALLY****
TOTAL RUN TIME: 0 days 0 hours 0 minutes 7 seconds 707 msec
