                         Program Version 5.0.0 -  RELEASE  -
|  1> !BLYP D3BJ RIJCOSX def2-TZVP def2/J TightSCF xyzfile
|  2>
|  3> *xyzfile 0 1 B.xyz
|  4>
|  5> %MaxCore 64000
|  6>
|  7> %pal nprocs 18
|  8> end
|  9>
| 10> %scf
| 11>   MaxIter 150
| 12> end
| 13>
| 14>
| 15>                          ****END OF INPUT****

CARTESIAN COORDINATES (ANGSTROEM)
---------------------------------
  C      4.602954   -2.440100    2.634780
  C     -0.914947    0.615112    2.505538
  C     -0.059146    1.503524    3.410578
  H      0.365364    2.344315    2.861161
  H     -0.692261    1.920207    4.198985
  C      1.083027    0.749640    4.085705
  C      3.860851   -1.591565    3.622893
  N      2.756502   -2.046159    4.166333
  N      4.254325   -0.362905    3.860455
  H      3.565256    0.310994    4.168983
  H      5.054292   -0.016059    3.337838
  H      2.439696   -2.973894    3.897395
  H      2.066869   -1.412532    4.549813
  O      2.228167    1.263475    4.019826
  O      0.810034   -0.345411    4.636269
  C      3.744685   -2.580557    1.361882
  C      0.772139    0.636882    0.562129
  C     -0.130740   -0.193985    1.470763
  H     -0.840563   -0.760165    0.856377
  H      0.466691   -0.938942    2.006959
  H     -1.647961    1.245963    1.991076
  H     -1.478180   -0.081046    3.130424
  C      3.203721   -1.256004    0.826211
  H      2.898939   -3.239289    1.583074
  H      4.334962   -3.095523    0.600188
  C      2.107815   -1.442385   -0.216865
  H      2.786775   -0.672760    1.650711
  H      4.021008   -0.652993    0.414046
  C      1.390662   -0.145912   -0.602422
  H      1.372179   -2.152184    0.176151
  H      2.523302   -1.906787   -1.117115
  H      1.561361    1.100094    1.161831
  H      0.195516    1.468325    0.142758
  H      0.602893   -0.398214   -1.319716
  H      2.087247    0.508272   -1.137335
  H      5.561557   -1.971347    2.407084
  H      4.810498   -3.422552    3.063099

 Total Charge           Charge          ....    0
 Multiplicity           Mult            ....    1
 Number of Electrons    NEL             ....  118
 Basis Dimension        Dim             ....  597

ORBITAL ENERGIES
----------------

  NO   OCC          E(Eh)            E(eV)
   0   2.0000     -18.694657      -508.7075
   1   2.0000     -18.692961      -508.6613
   2   2.0000     -14.043814      -382.1516
   3   2.0000     -14.043800      -382.1512
   4   2.0000     -10.029887      -272.9271
   5   2.0000      -9.959089      -271.0006
   6   2.0000      -9.952136      -270.8114
   7   2.0000      -9.934056      -270.3194
   8   2.0000      -9.911267      -269.6993
   9   2.0000      -9.902745      -269.4674
  10   2.0000      -9.895005      -269.2568
  11   2.0000      -9.884566      -268.9727
  12   2.0000      -9.881231      -268.8820
  13   2.0000      -9.876963      -268.7658
  14   2.0000      -9.868332      -268.5310
  15   2.0000      -0.926878       -25.2216
  16   2.0000      -0.910985       -24.7892
  17   2.0000      -0.837557       -22.7911
  18   2.0000      -0.821791       -22.3621
  19   2.0000      -0.754674       -20.5357
  20   2.0000      -0.721649       -19.6371
  21   2.0000      -0.693283       -18.8652
  22   2.0000      -0.656744       -17.8709
  23   2.0000      -0.621697       -16.9172
  24   2.0000      -0.590531       -16.0692
  25   2.0000      -0.574032       -15.6202
  26   2.0000      -0.553633       -15.0651
  27   2.0000      -0.522166       -14.2089
  28   2.0000      -0.516318       -14.0497
  29   2.0000      -0.509563       -13.8659
  30   2.0000      -0.483320       -13.1518
  31   2.0000      -0.457766       -12.4564
  32   2.0000      -0.452523       -12.3138
  33   2.0000      -0.430159       -11.7052
  34   2.0000      -0.415937       -11.3182
  35   2.0000      -0.407870       -11.0987
  36   2.0000      -0.401095       -10.9143
  37   2.0000      -0.389809       -10.6072
  38   2.0000      -0.378311       -10.2944
  39   2.0000      -0.368259       -10.0208
  40   2.0000      -0.359272        -9.7763
  41   2.0000      -0.354817        -9.6551
  42   2.0000      -0.347193        -9.4476
  43   2.0000      -0.342597        -9.3225
  44   2.0000      -0.326183        -8.8759
  45   2.0000      -0.324679        -8.8350
  46   2.0000      -0.319622        -8.6974
  47   2.0000      -0.312933        -8.5153
  48   2.0000      -0.304499        -8.2858
  49   2.0000      -0.289401        -7.8750
  50   2.0000      -0.286465        -7.7951
  51   2.0000      -0.278575        -7.5804
  52   2.0000      -0.265279        -7.2186
  53   2.0000      -0.260564        -7.0903
  54   2.0000      -0.258951        -7.0464
  55   2.0000      -0.252339        -6.8665
  56   2.0000      -0.192708        -5.2438
  57   2.0000      -0.179115        -4.8740
  58   2.0000      -0.168284        -4.5792
  59   0.0000      -0.061464        -1.6725
  60   0.0000      -0.020481        -0.5573
  61   0.0000       0.000972         0.0264
  62   0.0000       0.016643         0.4529
  63   0.0000       0.027012         0.7350

MULLIKEN ATOMIC CHARGES
-----------------------
   0 C :   -0.178996
   1 C :   -0.094072
   2 C :   -0.124485
   3 H :    0.070739
   4 H :    0.073852
   5 C :    0.259128
   6 C :    0.197966
   7 N :   -0.257072
   8 N :   -0.253099
   9 H :    0.253615
  10 H :    0.216078
  11 H :    0.216727
  12 H :    0.257670
  13 O :   -0.488742
  14 O :   -0.476017
  15 C :   -0.181062
  16 C :   -0.210655
  17 C :   -0.175667
  18 H :    0.058486
  19 H :    0.084633
  20 H :    0.061320
  21 H :    0.064361
  22 C :   -0.244893
  23 H :    0.093371
  24 H :    0.095690
  25 C :   -0.119302
  26 H :    0.153744
  27 H :    0.064355
  28 C :   -0.118031
  29 H :    0.083459
  30 H :    0.070720
  31 H :    0.119099
  32 H :    0.068389
  33 H :    0.075633
  34 H :    0.067859
  35 H :    0.092104
  36 H :    0.123094
Sum of atomic charges:   -0.0000000

LOEWDIN ATOMIC CHARGES
----------------------
   0 C :   -0.208989
   1 C :   -0.259743
   2 C :   -0.237822
   3 H :    0.133015
   4 H :    0.141003
   5 C :   -0.649285
   6 C :   -0.346653
   7 N :    0.115648
   8 N :    0.110968
   9 H :    0.148871
  10 H :    0.179706
  11 H :    0.181124
  12 H :    0.149853
  13 O :   -0.034602
  14 O :   -0.028870
  15 C :   -0.244886
  16 C :   -0.264855
  17 C :   -0.266429
  18 H :    0.129723
  19 H :    0.130541
  20 H :    0.128338
  21 H :    0.135266
  22 C :   -0.259373
  23 H :    0.134092
  24 H :    0.137858
  25 C :   -0.261978
  26 H :    0.146063
  27 H :    0.132172
  28 C :   -0.260419
  29 H :    0.133888
  30 H :    0.130688
  31 H :    0.136189
  32 H :    0.133635
  33 H :    0.133071
  34 H :    0.130844
  35 H :    0.143012
  36 H :    0.148336

  Mayer bond orders larger than 0.100000
B(  0-C ,  6-C ) :   0.9797 B(  0-C , 15-C ) :   0.9306 B(  0-C , 35-H ) :   0.9628
B(  0-C , 36-H ) :   0.9648 B(  1-C ,  2-C ) :   0.9559 B(  1-C , 17-C ) :   0.9862
B(  1-C , 20-H ) :   0.9549 B(  1-C , 21-H ) :   0.9470 B(  2-C ,  3-H ) :   0.9611
B(  2-C ,  4-H ) :   0.9397 B(  2-C ,  5-C ) :   0.9497 B(  5-C , 13-O ) :   1.6831
B(  5-C , 14-O ) :   1.7007 B(  6-C ,  7-N ) :   1.4754 B(  6-C ,  8-N ) :   1.4802
B(  7-N , 11-H ) :   0.9208 B(  7-N , 12-H ) :   0.7540 B(  8-N ,  9-H ) :   0.7611
B(  8-N , 10-H ) :   0.9160 B(  9-H , 13-O ) :   0.2183 B( 12-H , 14-O ) :   0.2250
B( 15-C , 22-C ) :   0.9203 B( 15-C , 23-H ) :   0.9758 B( 15-C , 24-H ) :   0.9600
B( 16-C , 17-C ) :   0.9400 B( 16-C , 28-C ) :   0.9707 B( 16-C , 31-H ) :   0.9691
B( 16-C , 32-H ) :   0.9595 B( 17-C , 18-H ) :   0.9582 B( 17-C , 19-H ) :   0.9666
B( 22-C , 25-C ) :   0.9644 B( 22-C , 26-H ) :   0.9704 B( 22-C , 27-H ) :   0.9546
B( 25-C , 28-C ) :   0.9705 B( 25-C , 29-H ) :   0.9600 B( 25-C , 30-H ) :   0.9627
B( 28-C , 33-H ) :   0.9597 B( 28-C , 34-H ) :   0.9660

Dispersion correction           -0.085459203
FINAL SINGLE POINT ENERGY      -692.450483185718

DIPOLE MOMENT
-------------
                                X             Y             Z
Electronic contribution:      3.40585       1.67187      13.10113
Nuclear contribution   :     -1.50655      -3.48027     -14.35034
                        -----------------------------------------
Total Dipole Moment    :      1.89930      -1.80840      -1.24921
                        -----------------------------------------
Magnitude (a.u.)       :      2.90486
Magnitude (Debye)      :      7.38356

Rotational constants in cm-1:     0.021781     0.017296     0.011403
Rotational constants in MHz :   652.971749   518.510612   341.853154

                             ****ORCA TERMINATED NORMALLY****
TOTAL RUN TIME: 0 days 0 hours 0 minutes 30 seconds 632 msec
