                         Program Version 5.0.0 -  RELEASE  -
|  1> !BLYP D3BJ RIJCOSX def2-SVP def2/J TightSCF
|  2> *xyz 0 1
|  3> C         -0.91495        0.61511        2.50554
|  4> C         -0.05915        1.50352        3.41058
|  5> H          0.36536        2.34431        2.86116
|  6> H         -0.69226        1.92021        4.19898
|  7> C          1.08303        0.74964        4.08571
|  8> F          2.22817        1.26348        4.01983
|  9> O          0.81003       -0.34541        4.63627
| 10> H         -0.30401        0.20228        1.73015
| 11> H         -1.69811        1.19946        2.06954
| 12> H         -1.34124       -0.17772        3.08397
| 13> *
| 14>
| 15> %MaxCore 64000
| 16>
| 17> %pal nprocs 4
| 18> end
| 19>
| 20> %scf
| 21>   MaxIter 150
| 22> end
| 23>
| 24>
| 25>                          ****END OF INPUT****

CARTESIAN COORDINATES (ANGSTROEM)
---------------------------------
  C     -0.914950    0.615110    2.505540
  C     -0.059150    1.503520    3.410580
  H      0.365360    2.344310    2.861160
  H     -0.692260    1.920210    4.198980
  C      1.083030    0.749640    4.085710
  F      2.228170    1.263480    4.019830
  O      0.810030   -0.345410    4.636270
  H     -0.304010    0.202280    1.730150
  H     -1.698110    1.199460    2.069540
  H     -1.341240   -0.177720    3.083970

 Total Charge           Charge          ....    0
 Multiplicity           Mult            ....    1
 Number of Electrons    NEL             ....   40
 Basis Dimension        Dim             ....   95

ORBITAL ENERGIES
----------------

  NO   OCC          E(Eh)            E(eV)
   0   2.0000     -24.352197      -662.6570
   1   2.0000     -18.778288      -510.9832
   2   2.0000     -10.079543      -274.2783
   3   2.0000      -9.946465      -270.6571
   4   2.0000      -9.923883      -270.0426
   5   2.0000      -1.178347       -32.0644
   6   2.0000      -0.915264       -24.9056
   7   2.0000      -0.707274       -19.2459
   8   2.0000      -0.603493       -16.4219
   9   2.0000      -0.555220       -15.1083
  10   2.0000      -0.472773       -12.8648
  11   2.0000      -0.458453       -12.4751
  12   2.0000      -0.430461       -11.7134
  13   2.0000      -0.403733       -10.9861
  14   2.0000      -0.369385       -10.0515
  15   2.0000      -0.342031        -9.3071
  16   2.0000      -0.322327        -8.7710
  17   2.0000      -0.316661        -8.6168
  18   2.0000      -0.291622        -7.9354
  19   2.0000      -0.227682        -6.1955
  20   0.0000      -0.050755        -1.3811
  21   0.0000       0.039368         1.0713
  22   0.0000       0.080739         2.1970
  23   0.0000       0.086564         2.3555
  24   0.0000       0.102490         2.7889

MULLIKEN ATOMIC CHARGES
-----------------------
   0 C :    0.086887
   1 C :    0.019708
   2 H :   -0.014876
   3 H :    0.023701
   4 C :    0.121673
   5 F :   -0.028800
   6 O :   -0.207125
   7 H :   -0.005320
   8 H :   -0.009004
   9 H :    0.013157
Sum of atomic charges:    0.0000000

LOEWDIN ATOMIC CHARGES
----------------------
   0 C :   -0.025272
   1 C :   -0.061220
   2 H :    0.019909
   3 H :    0.045010
   4 C :    0.062345
   5 F :    0.064087
   6 O :   -0.172405
   7 H :    0.020692
   8 H :    0.021634
   9 H :    0.025219

  Mayer bond orders larger than 0.100000
B(  0-C ,  1-C ) :   1.1206 B(  0-C ,  7-H ) :   0.9726 B(  0-C ,  8-H ) :   0.9564
B(  0-C ,  9-H ) :   0.9627 B(  1-C ,  2-H ) :   0.9217 B(  1-C ,  3-H ) :   0.9130
B(  1-C ,  4-C ) :   1.0048 B(  4-C ,  5-F ) :   1.2467 B(  4-C ,  6-O ) :   2.0966

Dispersion correction           -0.012859532
FINAL SINGLE POINT ENERGY      -292.101518347426

DIPOLE MOMENT
-------------
                                X             Y             Z
Electronic contribution:      7.82787      -0.26660       4.19004
Nuclear contribution   :     -8.12386       1.06915      -4.71960
                        -----------------------------------------
Total Dipole Moment    :     -0.29599       0.80254      -0.52955
                        -----------------------------------------
Magnitude (a.u.)       :      1.00604
Magnitude (Debye)      :      2.55714

Rotational constants in cm-1:     0.309513     0.127560     0.099675
Rotational constants in MHz :  9278.979128  3824.146597  2988.174827

                             ****ORCA TERMINATED NORMALLY****
TOTAL RUN TIME: 0 days 0 hours 0 minutes 7 seconds 456 msec
