                         Program Version 5.0.0 -  RELEASE  -
|  1> !BLYP D3BJ RIJCOSX def2-SVP def2/J TightSCF
|  2> *xyz 0 1
|  3> C         -0.91495        0.61511        2.50554
|  4> C         -0.05915        1.50352        3.41058
|  5> H          0.36536        2.34431        2.86116
|  6> H         -0.69226        1.92021        4.19898
|  7> C          1.08303        0.74964        4.08571
|  8> O          2.22817        1.26348        4.01983
|  9> F          0.81003       -0.34541        4.63627
| 10> H         -0.30401        0.20228        1.73015
| 11> H         -1.69811        1.19946        2.06954
| 12> H         -1.34124       -0.17772        3.08397
| 13> *
| 14>
| 15> %MaxCore 64000
| 16>
| 17> %pal nprocs 4
| 18> end
| 19>
| 20> %scf
| 21>   MaxIter 150
| 22> end
| 23>
| 24>
| 25>                          ****END OF INPUT****

CARTESIAN COORDINATES (ANGSTROEM)
---------------------------------
  C     -0.914950    0.615110    2.505540
  C     -0.059150    1.503520    3.410580
  H      0.365360    2.344310    2.861160
  H     -0.692260    1.920210    4.198980
  C      1.083030    0.749640    4.085710
  O      2.228170    1.263480    4.019830
  F      0.810030   -0.345410    4.636270
  H     -0.304010    0.202280    1.730150
  H     -1.698110    1.199460    2.069540
  H     -1.341240   -0.177720    3.083970

 Total Charge           Charge          ....    0
 Multiplicity           Mult            ....    1
 Number of Electrons    NEL             ....   40
 Basis Dimension        Dim             ....   95

ORBITAL ENERGIES
----------------

  NO   OCC          E(Eh)            E(eV)
   0   2.0000     -24.354081      -662.7082
   1   2.0000     -18.776189      -510.9261
   2   2.0000     -10.078509      -274.2502
   3   2.0000      -9.945484      -270.6304
   4   2.0000      -9.929055      -270.1833
   5   2.0000      -1.180339       -32.1186
   6   2.0000      -0.912416       -24.8281
   7   2.0000      -0.711278       -19.3549
   8   2.0000      -0.599815       -16.3218
   9   2.0000      -0.561488       -15.2789
  10   2.0000      -0.475454       -12.9378
  11   2.0000      -0.464093       -12.6286
  12   2.0000      -0.424429       -11.5493
  13   2.0000      -0.402669       -10.9572
  14   2.0000      -0.372909       -10.1474
  15   2.0000      -0.344634        -9.3780
  16   2.0000      -0.327022        -8.8987
  17   2.0000      -0.320627        -8.7247
  18   2.0000      -0.292869        -7.9694
  19   2.0000      -0.221878        -6.0376
  20   0.0000      -0.047802        -1.3008
  21   0.0000       0.034182         0.9302
  22   0.0000       0.078786         2.1439
  23   0.0000       0.087660         2.3854
  24   0.0000       0.104564         2.8453

MULLIKEN ATOMIC CHARGES
-----------------------
   0 C :    0.063063
   1 C :    0.028305
   2 H :    0.011486
   3 H :    0.012412
   4 C :    0.118267
   5 O :   -0.200963
   6 F :   -0.032333
   7 H :    0.002995
   8 H :   -0.002432
   9 H :   -0.000800
Sum of atomic charges:    0.0000000

LOEWDIN ATOMIC CHARGES
----------------------
   0 C :   -0.035732
   1 C :   -0.057372
   2 H :    0.036670
   3 H :    0.037360
   4 C :    0.060922
   5 O :   -0.170219
   6 F :    0.063748
   7 H :    0.021739
   8 H :    0.024382
   9 H :    0.018504

  Mayer bond orders larger than 0.100000
B(  0-C ,  1-C ) :   1.0976 B(  0-C ,  7-H ) :   0.9736 B(  0-C ,  8-H ) :   0.9567
B(  0-C ,  9-H ) :   0.9661 B(  1-C ,  2-H ) :   0.9363 B(  1-C ,  3-H ) :   0.9118
B(  1-C ,  4-C ) :   1.0150 B(  4-C ,  5-O ) :   2.1156 B(  4-C ,  6-F ) :   1.2338

Dispersion correction           -0.012756721
FINAL SINGLE POINT ENERGY      -292.100117260855

DIPOLE MOMENT
-------------
                                X             Y             Z
Electronic contribution:      5.50569      -2.87895       5.17573
Nuclear contribution   :     -6.57765       2.82334      -5.39171
                        -----------------------------------------
Total Dipole Moment    :     -1.07196      -0.05561      -0.21598
                        -----------------------------------------
Magnitude (a.u.)       :      1.09491
Magnitude (Debye)      :      2.78304

Rotational constants in cm-1:     0.294245     0.132994     0.101060
Rotational constants in MHz :  8821.228602  3987.049251  3029.696815

                             ****ORCA TERMINATED NORMALLY****
TOTAL RUN TIME: 0 days 0 hours 0 minutes 7 seconds 158 msec
