                         Program Version 5.0.0 -  RELEASE  -
|  1> !BLYP D3BJ RIJCOSX def2-SVP def2/J TightSCF
|  2> *xyz 0 1
|  3> C          4.60295       -2.44010        2.63478
|  4> C          3.86085       -1.59157        3.62289
|  5> N          2.75650       -2.04616        4.16633
|  6> C          4.25433       -0.36291        3.86046
|  7> H          3.56526        0.31099        4.16898
|  8> H          5.05429       -0.01606        3.33784
|  9> H          2.43970       -2.97389        3.89740
| 10> H          2.06687       -1.41253        4.54981
| 11> C          3.74469       -2.58056        1.36188
| 12> H          5.56156       -1.97135        2.40708
| 13> H          4.81050       -3.42255        3.06310
| 14> H          4.26314       -3.18477        0.64702
| 15> H          3.56325       -1.61180        0.94535
| 16> H          2.81197       -3.04259        1.60980
| 17> *
| 18>
| 19> %MaxCore 64000
| 20>
| 21> %pal nprocs 4
| 22> end
| 23>
| 24> %scf
| 25>   MaxIter 150
| 26> end
| 27>
| 28>
| 29>                          ****END OF INPUT****

CARTESIAN COORDINATES (ANGSTROEM)
---------------------------------
  C      4.602950   -2.440100    2.634780
  C      3.860850   -1.591570    3.622890
  N      2.756500   -2.046160    4.166330
  C      4.254330   -0.362910    3.860460
  H      3.565260    0.310990    4.168980
  H      5.054290   -0.016060    3.337840
  H      2.439700   -2.973890    3.897400
  H      2.066870   -1.412530    4.549810
  C      3.744690   -2.580560    1.361880
  H      5.561560   -1.971350    2.407080
  H      4.810500   -3.422550    3.063100
  H      4.263140   -3.184770    0.647020
  H      3.563250   -1.611800    0.945350
  H      2.811970   -3.042590    1.609800

 Total Charge           Charge          ....    0
 Multiplicity           Mult            ....    1
 Number of Electrons    NEL             ....   40
 Basis Dimension        Dim             ....  115

ORBITAL ENERGIES
----------------

  NO   OCC          E(Eh)            E(eV)
   0   2.0000     -14.017531      -381.4364
   1   2.0000      -9.928752      -270.1751
   2   2.0000      -9.918931      -269.9078
   3   2.0000      -9.911035      -269.6930
   4   2.0000      -9.847722      -267.9701
   5   2.0000      -0.828677       -22.5495
   6   2.0000      -0.688574       -18.7370
   7   2.0000      -0.630265       -17.1504
   8   2.0000      -0.556148       -15.1336
   9   2.0000      -0.499702       -13.5976
  10   2.0000      -0.462012       -12.5720
  11   2.0000      -0.414224       -11.2716
  12   2.0000      -0.382409       -10.4059
  13   2.0000      -0.370462       -10.0808
  14   2.0000      -0.331546        -9.0218
  15   2.0000      -0.326379        -8.8812
  16   2.0000      -0.306156        -8.3309
  17   2.0000      -0.287909        -7.8344
  18   2.0000      -0.270328        -7.3560
  19   2.0000      -0.145403        -3.9566
  20   0.0000       0.022671         0.6169
  21   0.0000       0.031867         0.8671
  22   0.0000       0.073988         2.0133
  23   0.0000       0.076265         2.0753
  24   0.0000       0.092019         2.5040

MULLIKEN ATOMIC CHARGES
-----------------------
   0 C :    0.138102
   1 C :   -0.186046
   2 N :    0.034583
   3 C :    0.024065
   4 H :   -0.084602
   5 H :   -0.073555
   6 H :    0.079443
   7 H :    0.089630
   8 C :    0.102235
   9 H :   -0.028072
  10 H :   -0.032875
  11 H :   -0.015210
  12 H :   -0.014324
  13 H :   -0.033371
Sum of atomic charges:    0.0000000

LOEWDIN ATOMIC CHARGES
----------------------
   0 C :   -0.015121
   1 C :   -0.005274
   2 N :    0.019905
   3 C :   -0.164530
   4 H :   -0.013392
   5 H :   -0.007104
   6 H :    0.062493
   7 H :    0.071391
   8 C :   -0.032632
   9 H :    0.027391
  10 H :    0.013033
  11 H :    0.016961
  12 H :    0.019527
  13 H :    0.007351

  Mayer bond orders larger than 0.100000
B(  0-C ,  1-C ) :   1.0653 B(  0-C ,  8-C ) :   1.1159 B(  0-C ,  9-H ) :   0.9072
B(  0-C , 10-H ) :   0.9049 B(  1-C ,  2-N ) :   1.3025 B(  1-C ,  3-C ) :   1.8599
B(  2-N ,  6-H ) :   0.9476 B(  2-N ,  7-H ) :   0.9436 B(  3-C ,  4-H ) :   0.9354
B(  3-C ,  5-H ) :   0.9171 B(  8-C , 11-H ) :   0.9557 B(  8-C , 12-H ) :   0.9599
B(  8-C , 13-H ) :   0.9622

Dispersion correction           -0.021770423
FINAL SINGLE POINT ENERGY      -212.290657724316

DIPOLE MOMENT
-------------
                                X             Y             Z
Electronic contribution:     -0.55501       0.28143       2.90591
Nuclear contribution   :     -0.12319      -0.83296      -3.13501
                        -----------------------------------------
Total Dipole Moment    :     -0.67820      -0.55153      -0.22909
                        -----------------------------------------
Magnitude (a.u.)       :      0.90367
Magnitude (Debye)      :      2.29696

Rotational constants in cm-1:     0.266453     0.134423     0.106086
Rotational constants in MHz :  7988.053142  4029.892766  3180.375228

                             ****ORCA TERMINATED NORMALLY****
TOTAL RUN TIME: 0 days 0 hours 0 minutes 8 seconds 323 msec
