                         Program Version 5.0.0 -  RELEASE  -
|  1> !BLYP D3BJ RIJCOSX def2-TZVP def2/J TightSCF xyzfile
|  2>
|  3> *xyzfile 0 1 D3.xyz
|  4>
|  5> %MaxCore 64000
|  6>
|  7> %pal nprocs 18
|  8> end
|  9>
| 10> %scf
| 11>   MaxIter 150
| 12> end
| 13>
| 14>
| 15>                          ****END OF INPUT****

CARTESIAN COORDINATES (ANGSTROEM)
---------------------------------
  C      4.602954   -2.440100    2.634780
  C     -0.914947    0.615112    2.505538
  C     -0.059146    1.503524    3.410578
  H      0.365364    2.344315    2.861161
  H     -0.692261    1.920207    4.198985
  C      1.083027    0.749640    4.085705
  C      3.860851   -1.591565    3.622893
  C      2.756502   -2.046159    4.166333
  N      4.254325   -0.362905    3.860455
  H      3.565256    0.310994    4.168983
  H      5.054292   -0.016059    3.337838
  H      2.439696   -2.973894    3.897395
  H      2.066869   -1.412532    4.549813
  O      2.228167    1.263475    4.019826
  F      0.810034   -0.345411    4.636269
  C      3.744685   -2.580557    1.361882
  C      0.772139    0.636882    0.562129
  C     -0.130740   -0.193985    1.470763
  H     -0.840563   -0.760165    0.856377
  H      0.466691   -0.938942    2.006959
  H     -1.647961    1.245963    1.991076
  H     -1.478180   -0.081046    3.130424
  C      3.203721   -1.256004    0.826211
  H      2.898939   -3.239289    1.583074
  H      4.334962   -3.095523    0.600188
  C      2.107815   -1.442385   -0.216865
  H      2.786775   -0.672760    1.650711
  H      4.021008   -0.652993    0.414046
  C      1.390662   -0.145912   -0.602422
  H      1.372179   -2.152184    0.176151
  H      2.523302   -1.906787   -1.117115
  H      1.561361    1.100094    1.161831
  H      0.195516    1.468325    0.142758
  H      0.602893   -0.398214   -1.319716
  H      2.087247    0.508272   -1.137335
  H      5.561557   -1.971347    2.407084
  H      4.810498   -3.422552    3.063099

 Total Charge           Charge          ....    0
 Multiplicity           Mult            ....    1
 Number of Electrons    NEL             ....  118
 Basis Dimension        Dim             ....  597

ORBITAL ENERGIES
----------------

  NO   OCC          E(Eh)            E(eV)
   0   2.0000     -24.365138      -663.0091
   1   2.0000     -18.796271      -511.4725
   2   2.0000     -13.969636      -380.1331
   3   2.0000     -10.091768      -274.6110
   4   2.0000      -9.939943      -270.4796
   5   2.0000      -9.922704      -270.0105
   6   2.0000      -9.907288      -269.5910
   7   2.0000      -9.901413      -269.4312
   8   2.0000      -9.898163      -269.3427
   9   2.0000      -9.897330      -269.3200
  10   2.0000      -9.891401      -269.1587
  11   2.0000      -9.889865      -269.1169
  12   2.0000      -9.889675      -269.1117
  13   2.0000      -9.885934      -269.0099
  14   2.0000      -9.808865      -266.9128
  15   2.0000      -1.225902       -33.3585
  16   2.0000      -0.962979       -26.2040
  17   2.0000      -0.819660       -22.3041
  18   2.0000      -0.751208       -20.4414
  19   2.0000      -0.723951       -19.6997
  20   2.0000      -0.699444       -19.0328
  21   2.0000      -0.667251       -18.1568
  22   2.0000      -0.637016       -17.3341
  23   2.0000      -0.621241       -16.9048
  24   2.0000      -0.598655       -16.2902
  25   2.0000      -0.578557       -15.7433
  26   2.0000      -0.546925       -14.8826
  27   2.0000      -0.524138       -14.2625
  28   2.0000      -0.503102       -13.6901
  29   2.0000      -0.500103       -13.6085
  30   2.0000      -0.489737       -13.3264
  31   2.0000      -0.480933       -13.0868
  32   2.0000      -0.462325       -12.5805
  33   2.0000      -0.436347       -11.8736
  34   2.0000      -0.428322       -11.6552
  35   2.0000      -0.423715       -11.5299
  36   2.0000      -0.412488       -11.2244
  37   2.0000      -0.394752       -10.7418
  38   2.0000      -0.390414       -10.6237
  39   2.0000      -0.377411       -10.2699
  40   2.0000      -0.371788       -10.1169
  41   2.0000      -0.359237        -9.7753
  42   2.0000      -0.355980        -9.6867
  43   2.0000      -0.342474        -9.3192
  44   2.0000      -0.337130        -9.1738
  45   2.0000      -0.328716        -8.9448
  46   2.0000      -0.324296        -8.8245
  47   2.0000      -0.318474        -8.6661
  48   2.0000      -0.307237        -8.3603
  49   2.0000      -0.298152        -8.1131
  50   2.0000      -0.293880        -7.9969
  51   2.0000      -0.287607        -7.8262
  52   2.0000      -0.278312        -7.5732
  53   2.0000      -0.275452        -7.4954
  54   2.0000      -0.270040        -7.3482
  55   2.0000      -0.265323        -7.2198
  56   2.0000      -0.255016        -6.9393
  57   2.0000      -0.246986        -6.7208
  58   2.0000      -0.134546        -3.6612
  59   0.0000      -0.079178        -2.1545
  60   0.0000       0.001917         0.0522
  61   0.0000       0.021079         0.5736
  62   0.0000       0.025727         0.7001
  63   0.0000       0.028354         0.7716

MULLIKEN ATOMIC CHARGES
-----------------------
   0 C :   -0.159043
   1 C :   -0.145904
   2 C :   -0.175056
   3 H :    0.120151
   4 H :    0.114934
   5 C :    0.377850
   6 C :    0.165973
   7 C :   -0.415457
   8 N :   -0.349403
   9 H :    0.222662
  10 H :    0.182224
  11 H :    0.056983
  12 H :    0.083474
  13 O :   -0.341294
  14 F :   -0.078259
  15 C :   -0.114940
  16 C :   -0.206750
  17 C :   -0.210235
  18 H :    0.076565
  19 H :    0.129980
  20 H :    0.088917
  21 H :    0.092304
  22 C :   -0.227253
  23 H :    0.072290
  24 H :    0.063878
  25 C :   -0.118337
  26 H :    0.124154
  27 H :    0.052732
  28 C :   -0.116791
  29 H :    0.078853
  30 H :    0.069477
  31 H :    0.115925
  32 H :    0.071209
  33 H :    0.075231
  34 H :    0.070552
  35 H :    0.060493
  36 H :    0.091912
Sum of atomic charges:   -0.0000000

LOEWDIN ATOMIC CHARGES
----------------------
   0 C :   -0.209069
   1 C :   -0.257504
   2 C :   -0.223560
   3 H :    0.151886
   4 H :    0.153142
   5 C :   -0.498104
   6 C :   -0.384039
   7 C :   -0.294677
   8 N :    0.022910
   9 H :    0.142022
  10 H :    0.157133
  11 H :    0.100484
  12 H :    0.087589
  13 O :    0.094545
  14 F :    0.367911
  15 C :   -0.245590
  16 C :   -0.266023
  17 C :   -0.264438
  18 H :    0.137160
  19 H :    0.138358
  20 H :    0.138441
  21 H :    0.137520
  22 C :   -0.260357
  23 H :    0.133397
  24 H :    0.126752
  25 C :   -0.263272
  26 H :    0.141504
  27 H :    0.128291
  28 C :   -0.259539
  29 H :    0.132449
  30 H :    0.130957
  31 H :    0.134591
  32 H :    0.132492
  33 H :    0.132098
  34 H :    0.132471
  35 H :    0.129064
  36 H :    0.143006

  Mayer bond orders larger than 0.100000
B(  0-C ,  6-C ) :   0.9364 B(  0-C , 15-C ) :   0.9592 B(  0-C , 35-H ) :   0.9652
B(  0-C , 36-H ) :   0.9711 B(  1-C ,  2-C ) :   0.9333 B(  1-C , 17-C ) :   0.9583
B(  1-C , 20-H ) :   0.9543 B(  1-C , 21-H ) :   0.9651 B(  2-C ,  3-H ) :   0.9636
B(  2-C ,  4-H ) :   0.9338 B(  2-C ,  5-C ) :   0.9949 B(  5-C , 13-O ) :   1.9171
B(  5-C , 14-F ) :   1.1449 B(  6-C ,  7-C ) :   1.7048 B(  6-C ,  8-N ) :   1.2166
B(  7-C , 11-H ) :   0.9940 B(  7-C , 12-H ) :   0.9894 B(  8-N ,  9-H ) :   0.8622
B(  8-N , 10-H ) :   0.9345 B(  9-H , 13-O ) :   0.1224 B( 15-C , 22-C ) :   0.9664
B( 15-C , 23-H ) :   0.9609 B( 15-C , 24-H ) :   0.9550 B( 16-C , 17-C ) :   0.9348
B( 16-C , 28-C ) :   0.9792 B( 16-C , 31-H ) :   0.9660 B( 16-C , 32-H ) :   0.9589
B( 17-C , 18-H ) :   0.9599 B( 17-C , 19-H ) :   0.9703 B( 22-C , 25-C ) :   0.9616
B( 22-C , 26-H ) :   0.9801 B( 22-C , 27-H ) :   0.9585 B( 25-C , 28-C ) :   0.9636
B( 25-C , 29-H ) :   0.9620 B( 25-C , 30-H ) :   0.9641 B( 28-C , 33-H ) :   0.9623
B( 28-C , 34-H ) :   0.9644

Dispersion correction           -0.085421308
FINAL SINGLE POINT ENERGY      -700.323205229272

DIPOLE MOMENT
-------------
                                X             Y             Z
Electronic contribution:     -1.14005       4.75694      16.03714
Nuclear contribution   :      0.05905      -3.94566     -16.70013
                        -----------------------------------------
Total Dipole Moment    :     -1.08100       0.81128      -0.66299
                        -----------------------------------------
Magnitude (a.u.)       :      1.50542
Magnitude (Debye)      :      3.82648

Rotational constants in cm-1:     0.021602     0.017295     0.011353
Rotational constants in MHz :   647.614981   518.478934   340.359556

                             ****ORCA TERMINATED NORMALLY****
TOTAL RUN TIME: 0 days 0 hours 0 minutes 31 seconds 503 msec
