                         Program Version 5.0.0 -  RELEASE  -
|  1> !LC-BLYP RIJCOSX def2-SVP def2/J TightSCF
|  2> *xyz -1 1
|  3> C         -0.77894        0.17197        1.80496
|  4> C         -0.60249       -0.63071        0.49224
|  5> H          0.31389       -1.24035        0.60350
|  6> H         -0.36383        0.11332       -0.30117
|  7> O         -1.71206       -1.37684        0.20253
|  8> H         -1.65864        0.77733        1.73736
|  9> H          0.07466        0.79896        1.95712
| 10> H         -0.87474       -0.50584        2.62734
| 11> *
| 12> %MaxCore 64000
| 13>
| 14> %pal nprocs 4
| 15> end
| 16>
| 17> %scf
| 18>   MaxIter 150
| 19> end
| 20>
| 21>
| 22>                          ****END OF INPUT****

CARTESIAN COORDINATES (ANGSTROEM)
---------------------------------
  C     -0.778940    0.171970    1.804960
  C     -0.602490   -0.630710    0.492240
  H      0.313890   -1.240350    0.603500
  H     -0.363830    0.113320   -0.301170
  O     -1.712060   -1.376840    0.202530
  H     -1.658640    0.777330    1.737360
  H      0.074660    0.798960    1.957120
  H     -0.874740   -0.505840    2.627340

 Total Charge           Charge          ....   -1
 Multiplicity           Mult            ....    1
 Number of Electrons    NEL             ....   26
 Basis Dimension        Dim             ....   67

ORBITAL ENERGIES
----------------

  NO   OCC          E(Eh)            E(eV)
   0   2.0000     -18.554298      -504.8881
   1   2.0000      -9.871904      -268.6282
   2   2.0000      -9.859038      -268.2781
   3   2.0000      -0.719028       -19.5657
   4   2.0000      -0.600733       -16.3468
   5   2.0000      -0.448761       -12.2114
   6   2.0000      -0.335676        -9.1342
   7   2.0000      -0.309355        -8.4180
   8   2.0000      -0.250990        -6.8298
   9   2.0000      -0.234454        -6.3798
  10   2.0000      -0.161827        -4.4035
  11   2.0000      -0.012090        -0.3290
  12   2.0000      -0.010309        -0.2805
  13   0.0000       0.325720         8.8633
  14   0.0000       0.371980        10.1221
  15   0.0000       0.385556        10.4915
  16   0.0000       0.394657        10.7392
  17   0.0000       0.438840        11.9414

MULLIKEN ATOMIC CHARGES
-----------------------
   0 C :    0.056476
   1 C :    0.228908
   2 H :   -0.181083
   3 H :   -0.184635
   4 O :   -0.659362
   5 H :   -0.068619
   6 H :   -0.122431
   7 H :   -0.069255
Sum of atomic charges:   -1.0000000

LOEWDIN ATOMIC CHARGES
----------------------
   0 C :   -0.124345
   1 C :   -0.009144
   2 H :   -0.079798
   3 H :   -0.082603
   4 O :   -0.650100
   5 H :   -0.011139
   6 H :   -0.031417
   7 H :   -0.011452

  Mayer bond orders larger than 0.100000
B(  0-C ,  1-C ) :   1.0024 B(  0-C ,  5-H ) :   0.9542 B(  0-C ,  6-H ) :   0.9181
B(  0-C ,  7-H ) :   0.9570 B(  1-C ,  2-H ) :   0.8642 B(  1-C ,  3-H ) :   0.8620
B(  1-C ,  4-O ) :   1.5679

FINAL SINGLE POINT ENERGY      -153.885789542660

DIPOLE MOMENT
-------------
                                X             Y             Z
Electronic contribution:     -1.89817      -2.04110      -1.55796
Nuclear contribution   :      2.47835       2.80827       2.30058
                        -----------------------------------------
Total Dipole Moment    :      0.58018       0.76718       0.74262
                        -----------------------------------------
Magnitude (a.u.)       :      1.21517
Magnitude (Debye)      :      3.08873

Rotational constants in cm-1:     1.255775     0.327783     0.287473
Rotational constants in MHz : 37647.186859  9826.677683  8618.224821

                             ****ORCA TERMINATED NORMALLY****
TOTAL RUN TIME: 0 days 0 hours 0 minutes 8 seconds 659 msec
