                         Program Version 5.0.0 -  RELEASE  -
|  1> !LC-BLYP RIJCOSX def2-SVP def2/J TightSCF
|  2> *xyz 1 1
|  3> C         -2.12050        0.88520        1.78951
|  4> C         -0.77894        0.17197        1.80496
|  5> H         -2.32419        1.47265        2.68608
|  6> H         -2.18770        1.54127        0.91948
|  7> N         -3.17690       -0.15948        1.61070
|  8> H         -4.06474        0.23127        1.28675
|  9> H         -3.34407       -0.67151        2.48493
| 10> H         -2.71686       -0.78189        0.93588
| 11> H         -0.65708       -0.37837        0.89547
| 12> H         -0.74207       -0.50050        2.63642
| 13> H          0.00707        0.89251        1.89389
| 14> *
| 15> %MaxCore 64000
| 16>
| 17> %pal nprocs 4
| 18> end
| 19>
| 20> %scf
| 21>   MaxIter 150
| 22> end
| 23>
| 24>
| 25>                          ****END OF INPUT****

CARTESIAN COORDINATES (ANGSTROEM)
---------------------------------
  C     -2.120500    0.885200    1.789510
  C     -0.778940    0.171970    1.804960
  H     -2.324190    1.472650    2.686080
  H     -2.187700    1.541270    0.919480
  N     -3.176900   -0.159480    1.610700
  H     -4.064740    0.231270    1.286750
  H     -3.344070   -0.671510    2.484930
  H     -2.716860   -0.781890    0.935880
  H     -0.657080   -0.378370    0.895470
  H     -0.742070   -0.500500    2.636420
  H      0.007070    0.892510    1.893890

 Total Charge           Charge          ....    1
 Multiplicity           Mult            ....    1
 Number of Electrons    NEL             ....   26
 Basis Dimension        Dim             ....   82

ORBITAL ENERGIES
----------------

  NO   OCC          E(Eh)            E(eV)
   0   2.0000     -14.521673      -395.1548
   1   2.0000     -10.339949      -281.3643
   2   2.0000     -10.265209      -279.3305
   3   2.0000      -1.311078       -35.6763
   4   2.0000      -1.069903       -29.1135
   5   2.0000      -0.949553       -25.8386
   6   2.0000      -0.909705       -24.7543
   7   2.0000      -0.898187       -24.4409
   8   2.0000      -0.794976       -21.6324
   9   2.0000      -0.746556       -20.3148
  10   2.0000      -0.684513       -18.6265
  11   2.0000      -0.676034       -18.3958
  12   2.0000      -0.652910       -17.7666
  13   0.0000      -0.110507        -3.0071
  14   0.0000      -0.049237        -1.3398
  15   0.0000      -0.046813        -1.2738
  16   0.0000      -0.016587        -0.4514
  17   0.0000       0.023907         0.6505

MULLIKEN ATOMIC CHARGES
-----------------------
   0 C :   -0.059112
   1 C :   -0.053450
   2 H :    0.112497
   3 H :    0.104728
   4 N :    0.010951
   5 H :    0.225476
   6 H :    0.220847
   7 H :    0.212361
   8 H :    0.061174
   9 H :    0.064198
  10 H :    0.100331
Sum of atomic charges:    1.0000000

LOEWDIN ATOMIC CHARGES
----------------------
   0 C :    0.042881
   1 C :   -0.057707
   2 H :    0.060806
   3 H :    0.060209
   4 N :    0.290226
   5 H :    0.149855
   6 H :    0.149563
   7 H :    0.145431
   8 H :    0.043225
   9 H :    0.045189
  10 H :    0.070323

  Mayer bond orders larger than 0.100000
B(  0-C ,  1-C ) :   1.1002 B(  0-C ,  2-H ) :   0.9520 B(  0-C ,  3-H ) :   0.9522
B(  0-C ,  4-N ) :   0.9405 B(  1-C ,  8-H ) :   0.9604 B(  1-C ,  9-H ) :   0.9721
B(  1-C , 10-H ) :   0.9528 B(  4-N ,  5-H ) :   0.9285 B(  4-N ,  6-H ) :   0.9339
B(  4-N ,  7-H ) :   0.9334

FINAL SINGLE POINT ENERGY      -135.030626732828

DIPOLE MOMENT
-------------
                                X             Y             Z
Electronic contribution:     -1.89046      -0.18555      -0.06743
Nuclear contribution   :      0.50278      -0.30871      -0.06979
                        -----------------------------------------
Total Dipole Moment    :     -1.38768      -0.49426      -0.13722
                        -----------------------------------------
Magnitude (a.u.)       :      1.47945
Magnitude (Debye)      :      3.76047

Rotational constants in cm-1:     0.963746     0.295157     0.256910
Rotational constants in MHz : 28892.375247  8848.576767  7701.963879

                             ****ORCA TERMINATED NORMALLY****
TOTAL RUN TIME: 0 days 0 hours 0 minutes 9 seconds 17 msec
