                         Program Version 5.0.0 -  RELEASE  -
|  1> !LC-BLYP RIJCOSX def2-TZVP def2/J TightSCF xyzfile
|  2>
|  3> *xyzfile 0 1 B.xyz
|  4>
|  5> %MaxCore 64000
|  6>
|  7> %pal nprocs 18
|  8> end
|  9>
| 10> %scf
| 11>   MaxIter 150
| 12> end
| 13>
| 14>
| 15>                          ****END OF INPUT****

CARTESIAN COORDINATES (ANGSTROEM)
---------------------------------
  C     -2.120502    0.885196    1.789506
  C     -0.778939    0.171966    1.804965
  H     -2.324193    1.472649    2.686078
  H     -2.187698    1.541272    0.919482
  N     -3.176900   -0.159484    1.610700
  H      0.015695    0.910767    1.939153
  H     -0.743553   -0.506827    2.665420
  C     -0.602493   -0.630712    0.492240
  H      0.313894   -1.240346    0.603498
  H     -0.363829    0.113322   -0.301169
  O     -1.712061   -1.376836    0.202535
  H     -4.064736    0.231272    1.286754
  H     -3.344073   -0.671511    2.484928
  H     -2.716861   -0.781886    0.935880

 Total Charge           Charge          ....    0
 Multiplicity           Mult            ....    1
 Number of Electrons    NEL             ....   42
 Basis Dimension        Dim             ....  209

ORBITAL ENERGIES
----------------

  NO   OCC          E(Eh)            E(eV)
   0   2.0000     -18.800865      -511.5975
   1   2.0000     -14.248013      -387.7082
   2   2.0000     -10.131894      -275.7029
   3   2.0000     -10.063465      -273.8408
   4   2.0000     -10.061136      -273.7774
   5   2.0000      -1.093039       -29.7431
   6   2.0000      -0.985665       -26.8213
   7   2.0000      -0.878896       -23.9160
   8   2.0000      -0.762216       -20.7410
   9   2.0000      -0.699535       -19.0353
  10   2.0000      -0.677847       -18.4452
  11   2.0000      -0.648504       -17.6467
  12   2.0000      -0.590302       -16.0629
  13   2.0000      -0.539615       -14.6837
  14   2.0000      -0.505563       -13.7571
  15   2.0000      -0.502133       -13.6637
  16   2.0000      -0.458687       -12.4815
  17   2.0000      -0.438432       -11.9303
  18   2.0000      -0.412409       -11.2222
  19   2.0000      -0.276379        -7.5206
  20   2.0000      -0.269040        -7.3209
  21   0.0000       0.056949         1.5497
  22   0.0000       0.101664         2.7664
  23   0.0000       0.112108         3.0506
  24   0.0000       0.144902         3.9430
  25   0.0000       0.159149         4.3307

MULLIKEN ATOMIC CHARGES
-----------------------
   0 C :   -0.204362
   1 C :   -0.291337
   2 H :    0.149659
   3 H :    0.163381
   4 N :   -0.302067
   5 H :    0.119198
   6 H :    0.108892
   7 C :   -0.019641
   8 H :    0.062229
   9 H :    0.039589
  10 O :   -0.630338
  11 H :    0.261677
  12 H :    0.261783
  13 H :    0.281338
Sum of atomic charges:    0.0000000

LOEWDIN ATOMIC CHARGES
----------------------
   0 C :   -0.285649
   1 C :   -0.304515
   2 H :    0.129349
   3 H :    0.145749
   4 N :    0.124906
   5 H :    0.141544
   6 H :    0.134106
   7 C :   -0.485940
   8 H :    0.106143
   9 H :    0.097756
  10 O :   -0.273330
  11 H :    0.183537
  12 H :    0.189535
  13 H :    0.096810

  Mayer bond orders larger than 0.100000
B(  0-C ,  1-C ) :   0.9429 B(  0-C ,  2-H ) :   0.9829 B(  0-C ,  3-H ) :   0.9668
B(  0-C ,  4-N ) :   0.8702 B(  1-C ,  5-H ) :   0.9671 B(  1-C ,  6-H ) :   0.9677
B(  1-C ,  7-C ) :   0.9299 B(  4-N , 11-H ) :   0.9082 B(  4-N , 12-H ) :   0.9076
B(  4-N , 13-H ) :   0.6022 B(  7-C ,  8-H ) :   0.9611 B(  7-C ,  9-H ) :   0.9463
B(  7-C , 10-O ) :   1.2672 B( 10-O , 13-H ) :   0.4543

FINAL SINGLE POINT ENERGY      -249.132710544123

DIPOLE MOMENT
-------------
                                X             Y             Z
Electronic contribution:     -1.53663      -1.45265      -0.77915
Nuclear contribution   :      0.08650       3.01678       2.47433
                        -----------------------------------------
Total Dipole Moment    :     -1.45013       1.56412       1.69518
                        -----------------------------------------
Magnitude (a.u.)       :      2.72452
Magnitude (Debye)      :      6.92517

Rotational constants in cm-1:     0.238796     0.156489     0.106146
Rotational constants in MHz :  7158.916762  4691.413084  3182.185740

                             ****ORCA TERMINATED NORMALLY****
TOTAL RUN TIME: 0 days 0 hours 0 minutes 9 seconds 293 msec
