                         Program Version 5.0.0 -  RELEASE  -
|  1> !LC-BLYP RIJCOSX def2-SVP def2/J TightSCF
|  2> *xyz 0 1
|  3> C         -0.77894        0.17197        1.80496
|  4> C         -0.60249       -0.63071        0.49224
|  5> H          0.31389       -1.24035        0.60350
|  6> H         -0.36383        0.11332       -0.30117
|  7> F         -1.71206       -1.37684        0.20253
|  8> H         -1.65864        0.77733        1.73736
|  9> H          0.07466        0.79896        1.95712
| 10> H         -0.87474       -0.50584        2.62734
| 11> *
| 12> %MaxCore 64000
| 13>
| 14> %pal nprocs 4
| 15> end
| 16>
| 17> %scf
| 18>   MaxIter 150
| 19> end
| 20>
| 21>
| 22>                          ****END OF INPUT****

CARTESIAN COORDINATES (ANGSTROEM)
---------------------------------
  C     -0.778940    0.171970    1.804960
  C     -0.602490   -0.630710    0.492240
  H      0.313890   -1.240350    0.603500
  H     -0.363830    0.113320   -0.301170
  F     -1.712060   -1.376840    0.202530
  H     -1.658640    0.777330    1.737360
  H      0.074660    0.798960    1.957120
  H     -0.874740   -0.505840    2.627340

 Total Charge           Charge          ....    0
 Multiplicity           Mult            ....    1
 Number of Electrons    NEL             ....   26
 Basis Dimension        Dim             ....   67

ORBITAL ENERGIES
----------------

  NO   OCC          E(Eh)            E(eV)
   0   2.0000     -24.435890      -664.9344
   1   2.0000     -10.157602      -276.4024
   2   2.0000     -10.078022      -274.2369
   3   2.0000      -1.244483       -33.8641
   4   2.0000      -0.859280       -23.3822
   5   2.0000      -0.725486       -19.7415
   6   2.0000      -0.600174       -16.3316
   7   2.0000      -0.593340       -16.1456
   8   2.0000      -0.548877       -14.9357
   9   2.0000      -0.496172       -13.5015
  10   2.0000      -0.495372       -13.4798
  11   2.0000      -0.421410       -11.4672
  12   2.0000      -0.418327       -11.3832
  13   0.0000       0.136055         3.7022
  14   0.0000       0.183472         4.9925
  15   0.0000       0.192660         5.2425
  16   0.0000       0.212242         5.7754
  17   0.0000       0.228890         6.2284

MULLIKEN ATOMIC CHARGES
-----------------------
   0 C :   -0.045959
   1 C :    0.182613
   2 H :    0.009853
   3 H :    0.009747
   4 F :   -0.224034
   5 H :    0.027131
   6 H :    0.014663
   7 H :    0.025987
Sum of atomic charges:   -0.0000000

LOEWDIN ATOMIC CHARGES
----------------------
   0 C :   -0.087790
   1 C :    0.086023
   2 H :    0.013372
   3 H :    0.013919
   4 F :   -0.116311
   5 H :    0.029687
   6 H :    0.032624
   7 H :    0.028476

  Mayer bond orders larger than 0.100000
B(  0-C ,  1-C ) :   1.0967 B(  0-C ,  5-H ) :   0.9699 B(  0-C ,  6-H ) :   0.9599
B(  0-C ,  7-H ) :   0.9715 B(  1-C ,  2-H ) :   0.9565 B(  1-C ,  3-H ) :   0.9571
B(  1-C ,  4-F ) :   1.0569

FINAL SINGLE POINT ENERGY      -178.517822410617

DIPOLE MOMENT
-------------
                                X             Y             Z
Electronic contribution:     -2.77564      -3.33065      -2.84998
Nuclear contribution   :      3.27800       3.70743       3.04146
                        -----------------------------------------
Total Dipole Moment    :      0.50237       0.37678       0.19148
                        -----------------------------------------
Magnitude (a.u.)       :      0.65651
Magnitude (Debye)      :      1.66871

Rotational constants in cm-1:     1.234437     0.305084     0.268865
Rotational constants in MHz : 37007.496448  9146.194083  8060.380630

                             ****ORCA TERMINATED NORMALLY****
TOTAL RUN TIME: 0 days 0 hours 0 minutes 8 seconds 359 msec
