                         Program Version 5.0.0 -  RELEASE  -
|  1> !LC-BLYP RIJCOSX def2-SVP def2/J TightSCF
|  2> *xyz 0 1
|  3> C         -2.12050        0.88520        1.78951
|  4> C         -0.77894        0.17197        1.80496
|  5> H         -2.32419        1.47265        2.68608
|  6> H         -2.18770        1.54127        0.91948
|  7> C         -3.17690       -0.15948        1.61070
|  8> H         -4.06474        0.23127        1.28675
|  9> H         -3.34407       -0.67151        2.48493
| 10> H         -2.71686       -0.78189        0.93588
| 11> H         -0.65708       -0.37837        0.89547
| 12> H         -0.74207       -0.50050        2.63642
| 13> H          0.00707        0.89251        1.89389
| 14> *
| 15> %MaxCore 64000
| 16>
| 17> %pal nprocs 4
| 18> end
| 19>
| 20> %scf
| 21>   MaxIter 150
| 22> end
| 23>
| 24>
| 25>                          ****END OF INPUT****

CARTESIAN COORDINATES (ANGSTROEM)
---------------------------------
  C     -2.120500    0.885200    1.789510
  C     -0.778940    0.171970    1.804960
  H     -2.324190    1.472650    2.686080
  H     -2.187700    1.541270    0.919480
  C     -3.176900   -0.159480    1.610700
  H     -4.064740    0.231270    1.286750
  H     -3.344070   -0.671510    2.484930
  H     -2.716860   -0.781890    0.935880
  H     -0.657080   -0.378370    0.895470
  H     -0.742070   -0.500500    2.636420
  H      0.007070    0.892510    1.893890

 Total Charge           Charge          ....    0
 Multiplicity           Mult            ....    1
 Number of Electrons    NEL             ....   26
 Basis Dimension        Dim             ....   82

ORBITAL ENERGIES
----------------

  NO   OCC          E(Eh)            E(eV)
   0   2.0000     -10.070016      -274.0191
   1   2.0000     -10.063420      -273.8396
   2   2.0000     -10.045952      -273.3642
   3   2.0000      -0.897185       -24.4136
   4   2.0000      -0.785440       -21.3729
   5   2.0000      -0.685693       -18.6587
   6   2.0000      -0.576218       -15.6797
   7   2.0000      -0.555985       -15.1291
   8   2.0000      -0.499255       -13.5854
   9   2.0000      -0.482308       -13.1243
  10   2.0000      -0.436690       -11.8829
  11   2.0000      -0.428269       -11.6538
  12   2.0000      -0.422272       -11.4906
  13   0.0000       0.136050         3.7021
  14   0.0000       0.183443         4.9917
  15   0.0000       0.186771         5.0823
  16   0.0000       0.192233         5.2309
  17   0.0000       0.219717         5.9788

MULLIKEN ATOMIC CHARGES
-----------------------
   0 C :   -0.059377
   1 C :   -0.002052
   2 H :    0.004511
   3 H :    0.001294
   4 C :    0.073877
   5 H :   -0.010803
   6 H :   -0.011748
   7 H :   -0.020827
   8 H :    0.010794
   9 H :    0.007991
  10 H :    0.006339
Sum of atomic charges:   -0.0000000

LOEWDIN ATOMIC CHARGES
----------------------
   0 C :   -0.045079
   1 C :   -0.065380
   2 H :    0.020663
   3 H :    0.022865
   4 C :   -0.054607
   5 H :    0.015541
   6 H :    0.016779
   7 H :    0.017678
   8 H :    0.023841
   9 H :    0.024084
  10 H :    0.023617

  Mayer bond orders larger than 0.100000
B(  0-C ,  1-C ) :   1.1097 B(  0-C ,  2-H ) :   0.9562 B(  0-C ,  3-H ) :   0.9546
B(  0-C ,  4-C ) :   1.1029 B(  1-C ,  8-H ) :   0.9696 B(  1-C ,  9-H ) :   0.9756
B(  1-C , 10-H ) :   0.9664 B(  4-C ,  5-H ) :   0.9606 B(  4-C ,  6-H ) :   0.9665
B(  4-C ,  7-H ) :   0.9695

FINAL SINGLE POINT ENERGY      -118.637371304962

DIPOLE MOMENT
-------------
                                X             Y             Z
Electronic contribution:     -0.13522       0.46212       0.11110
Nuclear contribution   :      0.13334      -0.45108      -0.10852
                        -----------------------------------------
Total Dipole Moment    :     -0.00188       0.01104       0.00259
                        -----------------------------------------
Magnitude (a.u.)       :      0.01149
Magnitude (Debye)      :      0.02921

Rotational constants in cm-1:     0.972269     0.310387     0.269029
Rotational constants in MHz : 29147.878530  9305.178981  8065.286472

                             ****ORCA TERMINATED NORMALLY****
TOTAL RUN TIME: 0 days 0 hours 0 minutes 9 seconds 850 msec
