                         Program Version 5.0.0 -  RELEASE  -
|  1> !TPSS D3BJ RIJCOSX def2-TZVPD def2/J TightSCF
|  2> *xyz -1 1
|  3> C         -1.10433        0.25137       -2.86006
|  4> C         -0.71189        0.84252       -4.21834
|  5> H          0.15463        1.49980       -4.13091
|  6> H         -1.53813        1.45922       -4.58267
|  7> C         -0.39762       -0.20587       -5.28802
|  8> O          0.61717       -0.00535       -5.99827
|  9> O         -1.13317       -1.22138       -5.34147
| 10> H         -1.95489       -0.38644       -2.98099
| 11> H         -1.34603        1.04362       -2.18269
| 12> H         -0.28606       -0.31581       -2.46809
| 13> *
| 14>
| 15> %MaxCore 64000
| 16>
| 17> %pal nprocs 4
| 18> end
| 19>
| 20> %scf
| 21>   MaxIter 150
| 22> end
| 23>
| 24>
| 25>                          ****END OF INPUT****

CARTESIAN COORDINATES (ANGSTROEM)
---------------------------------
  C     -1.104330    0.251370   -2.860060
  C     -0.711890    0.842520   -4.218340
  H      0.154630    1.499800   -4.130910
  H     -1.538130    1.459220   -4.582670
  C     -0.397620   -0.205870   -5.288020
  O      0.617170   -0.005350   -5.998270
  O     -1.133170   -1.221380   -5.341470
  H     -1.954890   -0.386440   -2.980990
  H     -1.346030    1.043620   -2.182690
  H     -0.286060   -0.315810   -2.468090

 Total Charge           Charge          ....   -1
 Multiplicity           Mult            ....    1
 Number of Electrons    NEL             ....   40
 Basis Dimension        Dim             ....  236

ORBITAL ENERGIES
----------------

  NO   OCC          E(Eh)            E(eV)
   0   2.0000     -18.619913      -506.6736
   1   2.0000     -18.618885      -506.6456
   2   2.0000      -9.856892      -268.2197
   3   2.0000      -9.819238      -267.1950
   4   2.0000      -9.809126      -266.9199
   5   2.0000      -0.750215       -20.4144
   6   2.0000      -0.661939       -18.0123
   7   2.0000      -0.546733       -14.8774
   8   2.0000      -0.422914       -11.5081
   9   2.0000      -0.272361        -7.4113
  10   2.0000      -0.250204        -6.8084
  11   2.0000      -0.215567        -5.8659
  12   2.0000      -0.184659        -5.0248
  13   2.0000      -0.173688        -4.7263
  14   2.0000      -0.162161        -4.4126
  15   2.0000      -0.134214        -3.6522
  16   2.0000      -0.120533        -3.2799
  17   2.0000      -0.012255        -0.3335
  18   2.0000       0.000467         0.0127
  19   2.0000       0.015782         0.4294
  20   0.0000       0.125350         3.4109
  21   0.0000       0.150962         4.1079
  22   0.0000       0.163176         4.4402
  23   0.0000       0.173269         4.7149
  24   0.0000       0.195213         5.3120

MULLIKEN ATOMIC CHARGES
-----------------------
   0 C :   -0.855939
   1 C :   -0.090598
   2 H :    0.164322
   3 H :    0.131029
   4 C :    0.566444
   5 O :   -0.814411
   6 O :   -0.804534
   7 H :    0.241414
   8 H :    0.225668
   9 H :    0.236605
Sum of atomic charges:   -1.0000000

LOEWDIN ATOMIC CHARGES
----------------------
   0 C :   -0.130829
   1 C :   -0.206162
   2 H :    0.080854
   3 H :    0.088306
   4 C :   -0.775621
   5 O :   -0.103808
   6 O :   -0.093697
   7 H :    0.049362
   8 H :    0.036282
   9 H :    0.055313

  Mayer bond orders larger than 0.100000
B(  0-C ,  1-C ) :   0.8034 B(  0-C ,  4-C ) :   0.1192 B(  0-C ,  7-H ) :   0.9743
B(  0-C ,  8-H ) :   0.9578 B(  0-C ,  9-H ) :   0.9530 B(  1-C ,  2-H ) :   0.9814
B(  1-C ,  3-H ) :   0.9056 B(  1-C ,  4-C ) :   1.0469 B(  4-C ,  5-O ) :   1.2111
B(  4-C ,  6-O ) :   1.2188

Dispersion correction           -0.008035192
FINAL SINGLE POINT ENERGY      -267.990472920549

DIPOLE MOMENT
-------------
                                X             Y             Z
Electronic contribution:      1.57221      -2.43514      -5.30270
Nuclear contribution   :     -2.09607       3.44215       6.87744
                        -----------------------------------------
Total Dipole Moment    :     -0.52386       1.00701       1.57474
                        -----------------------------------------
Magnitude (a.u.)       :      1.94121
Magnitude (Debye)      :      4.93416

Rotational constants in cm-1:     0.324698     0.133739     0.103466
Rotational constants in MHz :  9734.203431  4009.406827  3101.846422

                             ****ORCA TERMINATED NORMALLY****
TOTAL RUN TIME: 0 days 0 hours 0 minutes 14 seconds 845 msec
