                         Program Version 5.0.0 -  RELEASE  -
|  1> !TPSS D3BJ RIJCOSX def2-TZVPD def2/J TightSCF
|  2> *xyz 1 1
|  3> C          2.23447       -2.98975       -2.39762
|  4> N          2.75680       -2.94555       -3.76503
|  5> C          1.98721       -2.59045       -4.81898
|  6> N          0.74322       -3.01749       -4.91352
|  7> N          2.49964       -1.84860       -5.80324
|  8> H          3.30978       -1.29282       -5.55895
|  9> H          1.80103       -1.30430       -6.28913
| 10> H          3.71612       -2.62880       -3.82953
| 11> H          0.39583       -3.62775       -4.18502
| 12> H          0.03920       -2.45438       -5.37137
| 13> C          2.19120       -1.61950       -1.71549
| 14> H          2.87278       -3.66637       -1.82801
| 15> H          1.24619       -3.44744       -2.40784
| 16> H          1.56387       -0.96046       -2.27853
| 17> H          3.18033       -1.21449       -1.66568
| 18> H          1.79916       -1.72608       -0.72562
| 19> *
| 20>
| 21> %MaxCore 64000
| 22>
| 23> %pal nprocs 4
| 24> end
| 25>
| 26> %scf
| 27>   MaxIter 150
| 28> end
| 29>
| 30>
| 31>                          ****END OF INPUT****

CARTESIAN COORDINATES (ANGSTROEM)
---------------------------------
  C      2.234470   -2.989750   -2.397620
  N      2.756800   -2.945550   -3.765030
  C      1.987210   -2.590450   -4.818980
  N      0.743220   -3.017490   -4.913520
  N      2.499640   -1.848600   -5.803240
  H      3.309780   -1.292820   -5.558950
  H      1.801030   -1.304300   -6.289130
  H      3.716120   -2.628800   -3.829530
  H      0.395830   -3.627750   -4.185020
  H      0.039200   -2.454380   -5.371370
  C      2.191200   -1.619500   -1.715490
  H      2.872780   -3.666370   -1.828010
  H      1.246190   -3.447440   -2.407840
  H      1.563870   -0.960460   -2.278530
  H      3.180330   -1.214490   -1.665680
  H      1.799160   -1.726080   -0.725620

 Total Charge           Charge          ....    1
 Multiplicity           Mult            ....    1
 Number of Electrons    NEL             ....   48
 Basis Dimension        Dim             ....  312

ORBITAL ENERGIES
----------------

  NO   OCC          E(Eh)            E(eV)
   0   2.0000     -14.330532      -389.9536
   1   2.0000     -14.326696      -389.8492
   2   2.0000     -14.323882      -389.7727
   3   2.0000     -10.312379      -280.6141
   4   2.0000     -10.195459      -277.4325
   5   2.0000     -10.127918      -275.5947
   6   2.0000      -1.152831       -31.3701
   7   2.0000      -1.045460       -28.4484
   8   2.0000      -1.042281       -28.3619
   9   2.0000      -0.874717       -23.8022
  10   2.0000      -0.794226       -21.6120
  11   2.0000      -0.756688       -20.5905
  12   2.0000      -0.737146       -20.0588
  13   2.0000      -0.695427       -18.9235
  14   2.0000      -0.657228       -17.8841
  15   2.0000      -0.642272       -17.4771
  16   2.0000      -0.606953       -16.5160
  17   2.0000      -0.578605       -15.7446
  18   2.0000      -0.564054       -15.3487
  19   2.0000      -0.529649       -14.4125
  20   2.0000      -0.500355       -13.6153
  21   2.0000      -0.483323       -13.1519
  22   2.0000      -0.450559       -12.2603
  23   2.0000      -0.416157       -11.3242
  24   0.0000      -0.222234        -6.0473
  25   0.0000      -0.176425        -4.8008
  26   0.0000      -0.145643        -3.9631
  27   0.0000      -0.132555        -3.6070
  28   0.0000      -0.115058        -3.1309

MULLIKEN ATOMIC CHARGES
-----------------------
   0 C :   -0.229764
   1 N :   -0.175509
   2 C :    0.687633
   3 N :   -0.342750
   4 N :   -0.399219
   5 H :    0.225413
   6 H :    0.233780
   7 H :    0.209594
   8 H :    0.241313
   9 H :    0.217167
  10 C :   -0.866149
  11 H :    0.171154
  12 H :    0.222635
  13 H :    0.264521
  14 H :    0.297187
  15 H :    0.242994
Sum of atomic charges:    1.0000000

LOEWDIN ATOMIC CHARGES
----------------------
   0 C :   -0.199717
   1 N :    0.090315
   2 C :   -0.445925
   3 N :    0.228530
   4 N :    0.213159
   5 H :    0.134952
   6 H :    0.134584
   7 H :    0.156727
   8 H :    0.130944
   9 H :    0.144987
  10 C :   -0.046585
  11 H :    0.126690
  12 H :    0.106135
  13 H :    0.069348
  14 H :    0.074316
  15 H :    0.081539

  Mayer bond orders larger than 0.100000
B(  0-C ,  1-N ) :   0.8892 B(  0-C , 10-C ) :   0.9073 B(  0-C , 11-H ) :   0.9830
B(  0-C , 12-H ) :   0.8735 B(  1-N ,  2-C ) :   1.2456 B(  1-N ,  7-H ) :   0.9090
B(  2-C ,  3-N ) :   1.1112 B(  2-C ,  4-N ) :   1.1203 B(  3-N ,  8-H ) :   0.9038
B(  3-N ,  9-H ) :   0.9713 B(  4-N ,  5-H ) :   0.9461 B(  4-N ,  6-H ) :   0.9145
B( 10-C , 13-H ) :   0.9556 B( 10-C , 14-H ) :   0.9243 B( 10-C , 15-H ) :   0.9792

Dispersion correction           -0.015285904
FINAL SINGLE POINT ENERGY      -284.549916684686

DIPOLE MOMENT
-------------
                                X             Y             Z
Electronic contribution:      0.19490      -1.69619      -5.17566
Nuclear contribution   :     -0.59121       2.30298       4.63196
                        -----------------------------------------
Total Dipole Moment    :     -0.39631       0.60679      -0.54370
                        -----------------------------------------
Magnitude (a.u.)       :      0.90602
Magnitude (Debye)      :      2.30291

Rotational constants in cm-1:     0.205874     0.074757     0.066901
Rotational constants in MHz :  6171.937773  2241.151057  2005.629823

                             ****ORCA TERMINATED NORMALLY****
TOTAL RUN TIME: 0 days 0 hours 0 minutes 23 seconds 961 msec
