                         Program Version 5.0.0 -  RELEASE  -
|  1> !TPSS D3BJ RIJCOSX def2-TZVPD def2/J TightSCF xyzfile
|  2>
|  3> *xyzfile 0 1 B.xyz
|  4>
|  5> %MaxCore 64000
|  6>
|  7> %pal nprocs 4
|  8> end
|  9>
| 10> %scf
| 11>   MaxIter 150
| 12> end
| 13>
| 14>
| 15>                          ****END OF INPUT****

CARTESIAN COORDINATES (ANGSTROEM)
---------------------------------
  C      2.234473   -2.989754   -2.397622
  N      2.756799   -2.945553   -3.765029
  C     -1.104325    0.251374   -2.860056
  C     -0.711893    0.842517   -4.218344
  H      0.154626    1.499800   -4.130909
  H     -1.538134    1.459222   -4.582671
  C     -0.397624   -0.205875   -5.288018
  C      1.987208   -2.590451   -4.818975
  N      0.743221   -3.017493   -4.913524
  N      2.499636   -1.848598   -5.803241
  H      3.309780   -1.292818   -5.558947
  H      1.801025   -1.304298   -6.289129
  H      3.716116   -2.628797   -3.829533
  H      0.395828   -3.627747   -4.185024
  H      0.039201   -2.454383   -5.371367
  O      0.617165   -0.005348   -5.998273
  O     -1.133173   -1.221380   -5.341465
  C      2.191199   -1.619503   -1.715492
  H      2.872783   -3.666368   -1.828014
  H      1.246188   -3.447444   -2.407842
  C      1.298729   -0.554314   -2.359773
  H      1.872917   -1.787955   -0.681310
  H      3.216809   -1.238432   -1.654428
  C     -0.196255   -0.863365   -2.325763
  H      1.612531   -0.371346   -3.393065
  H      1.480944    0.388638   -1.834444
  H     -0.404105   -1.761825   -2.909448
  H     -0.490439   -1.087880   -1.294131
  H     -1.143842    1.066711   -2.129680
  H     -2.114401   -0.156834   -2.930323

 Total Charge           Charge          ....    0
 Multiplicity           Mult            ....    1
 Number of Electrons    NEL             ....  102
 Basis Dimension        Dim             ....  640

ORBITAL ENERGIES
----------------

  NO   OCC          E(Eh)            E(eV)
   0   2.0000     -18.801892      -511.6255
   1   2.0000     -18.800539      -511.5887
   2   2.0000     -14.167483      -385.5168
   3   2.0000     -14.138884      -384.7386
   4   2.0000     -14.138143      -384.7184
   5   2.0000     -10.137954      -275.8677
   6   2.0000     -10.060039      -273.7476
   7   2.0000     -10.033895      -273.0362
   8   2.0000     -10.009959      -272.3848
   9   2.0000      -9.990306      -271.8501
  10   2.0000      -9.976876      -271.4846
  11   2.0000      -9.967382      -271.2262
  12   2.0000      -9.954269      -270.8694
  13   2.0000      -0.980511       -26.6811
  14   2.0000      -0.936715       -25.4893
  15   2.0000      -0.881675       -23.9916
  16   2.0000      -0.862923       -23.4813
  17   2.0000      -0.844524       -22.9807
  18   2.0000      -0.761410       -20.7190
  19   2.0000      -0.720148       -19.5962
  20   2.0000      -0.671811       -18.2809
  21   2.0000      -0.629348       -17.1254
  22   2.0000      -0.605937       -16.4884
  23   2.0000      -0.572965       -15.5912
  24   2.0000      -0.563902       -15.3446
  25   2.0000      -0.531278       -14.4568
  26   2.0000      -0.511225       -13.9111
  27   2.0000      -0.487477       -13.2649
  28   2.0000      -0.467007       -12.7079
  29   2.0000      -0.457892       -12.4599
  30   2.0000      -0.440317       -11.9816
  31   2.0000      -0.429659       -11.6916
  32   2.0000      -0.420248       -11.4355
  33   2.0000      -0.404478       -11.0064
  34   2.0000      -0.393803       -10.7159
  35   2.0000      -0.386204       -10.5091
  36   2.0000      -0.374435       -10.1889
  37   2.0000      -0.361424        -9.8348
  38   2.0000      -0.347663        -9.4604
  39   2.0000      -0.339756        -9.2452
  40   2.0000      -0.328384        -8.9358
  41   2.0000      -0.319707        -8.6997
  42   2.0000      -0.306003        -8.3268
  43   2.0000      -0.291988        -7.9454
  44   2.0000      -0.278895        -7.5891
  45   2.0000      -0.273584        -7.4446
  46   2.0000      -0.268169        -7.2973
  47   2.0000      -0.257895        -7.0177
  48   2.0000      -0.194540        -5.2937
  49   2.0000      -0.180468        -4.9108
  50   2.0000      -0.169380        -4.6091
  51   0.0000      -0.048881        -1.3301
  52   0.0000      -0.035411        -0.9636
  53   0.0000      -0.015771        -0.4292
  54   0.0000      -0.002798        -0.0761
  55   0.0000       0.007712         0.2099

MULLIKEN ATOMIC CHARGES
-----------------------
   0 C :   -0.520658
   1 N :   -0.194182
   2 C :   -0.252108
   3 C :   -0.299224
   4 H :    0.244099
   5 H :    0.098283
   6 C :    0.916414
   7 C :    0.545285
   8 N :   -0.363393
   9 N :   -0.453895
  10 H :    0.179142
  11 H :    0.333605
  12 H :    0.201519
  13 H :    0.228418
  14 H :    0.292536
  15 O :   -0.937312
  16 O :   -0.938967
  17 C :   -0.240669
  18 H :    0.089969
  19 H :    0.329422
  20 C :   -0.290728
  21 H :    0.154092
  22 H :    0.143837
  23 C :   -0.397327
  24 H :    0.350165
  25 H :    0.149536
  26 H :    0.284424
  27 H :    0.069198
  28 H :    0.067736
  29 H :    0.210784
Sum of atomic charges:   -0.0000000

LOEWDIN ATOMIC CHARGES
----------------------
   0 C :   -0.172814
   1 N :    0.077419
   2 C :   -0.193812
   3 C :   -0.122883
   4 H :    0.101459
   5 H :    0.112412
   6 C :   -0.685101
   7 C :   -0.463070
   8 N :    0.233371
   9 N :    0.197450
  10 H :    0.121737
  11 H :    0.069887
  12 H :    0.143346
  13 H :    0.120936
  14 H :    0.061710
  15 O :   -0.049540
  16 O :   -0.041102
  17 C :   -0.175770
  18 H :    0.115550
  19 H :    0.104687
  20 C :   -0.193013
  21 H :    0.111948
  22 H :    0.106191
  23 C :   -0.202701
  24 H :    0.099349
  25 H :    0.117435
  26 H :    0.085136
  27 H :    0.110284
  28 H :    0.103221
  29 H :    0.106277

  Mayer bond orders larger than 0.100000
B(  0-C ,  1-N ) :   0.8990 B(  0-C ,  8-N ) :   0.1523 B(  0-C , 17-C ) :   0.8591
B(  0-C , 18-H ) :   0.9767 B(  0-C , 19-H ) :   0.8377 B(  0-C , 23-C ) :   0.1834
B(  1-N ,  7-C ) :   1.0828 B(  1-N ,  9-N ) :   0.1082 B(  1-N , 12-H ) :   0.8779
B(  2-C ,  3-C ) :   0.9971 B(  2-C , 20-C ) :   0.1817 B(  2-C , 23-C ) :   1.2266
B(  2-C , 26-H ) :   0.1256 B(  2-C , 28-H ) :   0.9174 B(  2-C , 29-H ) :   0.8015
B(  3-C ,  4-H ) :   0.8902 B(  3-C ,  5-H ) :   0.8736 B(  3-C ,  6-C ) :   1.1203
B(  3-C , 20-C ) :   0.1580 B(  6-C , 15-O ) :   0.8496 B(  6-C , 16-O ) :   0.9677
B(  6-C , 23-C ) :   0.1153 B(  7-C ,  8-N ) :   1.1718 B(  7-C ,  9-N ) :   1.0138
B(  7-C , 15-O ) :   0.1374 B(  7-C , 20-C ) :   0.1534 B(  8-N , 13-H ) :   0.8741
B(  8-N , 14-H ) :   0.7261 B(  9-N , 10-H ) :   0.9578 B(  9-N , 11-H ) :   0.7378
B( 14-H , 16-O ) :   0.1164 B( 15-O , 16-O ) :   0.1480 B( 17-C , 20-C ) :   1.1535
B( 17-C , 21-H ) :   0.9124 B( 17-C , 22-H ) :   0.9136 B( 17-C , 23-C ) :   0.2106
B( 20-C , 23-C ) :   0.7610 B( 20-C , 24-H ) :   0.9194 B( 20-C , 25-H ) :   0.7610
B( 23-C , 26-H ) :   0.9342 B( 23-C , 27-H ) :   0.8666

Dispersion correction           -0.044019308
FINAL SINGLE POINT ENERGY      -630.196248265282

DIPOLE MOMENT
-------------
                                X             Y             Z
Electronic contribution:      0.53779      -2.83614     -10.31012
Nuclear contribution   :      1.76912       1.50070      12.36652
                        -----------------------------------------
Total Dipole Moment    :      2.30691      -1.33544       2.05640
                        -----------------------------------------
Magnitude (a.u.)       :      3.36660
Magnitude (Debye)      :      8.55723

Rotational constants in cm-1:     0.033272     0.023886     0.017112
Rotational constants in MHz :   997.469575   716.074432   513.001395

                             ****ORCA TERMINATED NORMALLY****
TOTAL RUN TIME: 0 days 0 hours 2 minutes 16 seconds 145 msec
