                         Program Version 5.0.0 -  RELEASE  -
|  1> !TPSS D3BJ RIJCOSX def2-TZVPD def2/J TightSCF
|  2> *xyz 0 1
|  3> C         -1.10433        0.25137       -2.86006
|  4> C         -0.71189        0.84252       -4.21834
|  5> H          0.15463        1.49980       -4.13091
|  6> H         -1.53813        1.45922       -4.58267
|  7> C         -0.39762       -0.20587       -5.28802
|  8> F          0.61717       -0.00535       -5.99827
|  9> O         -1.13317       -1.22138       -5.34147
| 10> H         -1.95489       -0.38644       -2.98099
| 11> H         -1.34603        1.04362       -2.18269
| 12> H         -0.28606       -0.31581       -2.46809
| 13> *
| 14>
| 15> %MaxCore 64000
| 16>
| 17> %pal nprocs 4
| 18> end
| 19>
| 20> %scf
| 21>   MaxIter 150
| 22> end
| 23>
| 24>
| 25>                          ****END OF INPUT****

CARTESIAN COORDINATES (ANGSTROEM)
---------------------------------
  C     -1.104330    0.251370   -2.860060
  C     -0.711890    0.842520   -4.218340
  H      0.154630    1.499800   -4.130910
  H     -1.538130    1.459220   -4.582670
  C     -0.397620   -0.205870   -5.288020
  F      0.617170   -0.005350   -5.998270
  O     -1.133170   -1.221380   -5.341470
  H     -1.954890   -0.386440   -2.980990
  H     -1.346030    1.043620   -2.182690
  H     -0.286060   -0.315810   -2.468090

 Total Charge           Charge          ....    0
 Multiplicity           Mult            ....    1
 Number of Electrons    NEL             ....   40
 Basis Dimension        Dim             ....  236

ORBITAL ENERGIES
----------------

  NO   OCC          E(Eh)            E(eV)
   0   2.0000     -24.478124      -666.0836
   1   2.0000     -18.887602      -513.9578
   2   2.0000     -10.151530      -276.2372
   3   2.0000     -10.017257      -272.5834
   4   2.0000      -9.988386      -271.7978
   5   2.0000      -1.239269       -33.7222
   6   2.0000      -0.963756       -26.2251
   7   2.0000      -0.742012       -20.1912
   8   2.0000      -0.636687       -17.3251
   9   2.0000      -0.582715       -15.8565
  10   2.0000      -0.493546       -13.4301
  11   2.0000      -0.481043       -13.0898
  12   2.0000      -0.456936       -12.4339
  13   2.0000      -0.423343       -11.5197
  14   2.0000      -0.389454       -10.5976
  15   2.0000      -0.355578        -9.6758
  16   2.0000      -0.338912        -9.2223
  17   2.0000      -0.334564        -9.1039
  18   2.0000      -0.310386        -8.4460
  19   2.0000      -0.248711        -6.7678
  20   0.0000      -0.061732        -1.6798
  21   0.0000      -0.007840        -0.2133
  22   0.0000       0.019177         0.5218
  23   0.0000       0.030086         0.8187
  24   0.0000       0.038959         1.0601

MULLIKEN ATOMIC CHARGES
-----------------------
   0 C :   -0.841057
   1 C :   -0.042998
   2 H :    0.190717
   3 H :    0.160673
   4 C :    0.538625
   5 F :   -0.208545
   6 O :   -0.530462
   7 H :    0.265692
   8 H :    0.207919
   9 H :    0.259438
Sum of atomic charges:    0.0000000

LOEWDIN ATOMIC CHARGES
----------------------
   0 C :   -0.081831
   1 C :   -0.151410
   2 H :    0.103797
   3 H :    0.117761
   4 C :   -0.497513
   5 F :    0.215302
   6 O :    0.089116
   7 H :    0.068248
   8 H :    0.065475
   9 H :    0.071054

  Mayer bond orders larger than 0.100000
B(  0-C ,  1-C ) :   0.9093 B(  0-C ,  4-C ) :   0.1172 B(  0-C ,  7-H ) :   0.9524
B(  0-C ,  8-H ) :   0.9715 B(  0-C ,  9-H ) :   0.9254 B(  1-C ,  2-H ) :   0.9372
B(  1-C ,  3-H ) :   0.8903 B(  1-C ,  4-C ) :   1.0042 B(  4-C ,  5-F ) :   0.9797
B(  4-C ,  6-O ) :   1.6127

Dispersion correction           -0.007629259
FINAL SINGLE POINT ENERGY      -292.559580360171

DIPOLE MOMENT
-------------
                                X             Y             Z
Electronic contribution:      3.59731      -2.39813      -7.72551
Nuclear contribution   :     -3.36368       3.36392       8.24820
                        -----------------------------------------
Total Dipole Moment    :      0.23362       0.96578       0.52268
                        -----------------------------------------
Magnitude (a.u.)       :      1.12273
Magnitude (Debye)      :      2.85374

Rotational constants in cm-1:     0.315013     0.126712     0.098430
Rotational constants in MHz :  9443.861322  3798.734540  2950.846388

                             ****ORCA TERMINATED NORMALLY****
TOTAL RUN TIME: 0 days 0 hours 0 minutes 12 seconds 682 msec
