                         Program Version 5.0.0 -  RELEASE  -
|  1> !TPSS D3BJ RIJCOSX def2-TZVPD def2/J TightSCF
|  2> *xyz 0 1
|  3> C          2.23447       -2.98975       -2.39762
|  4> C          2.75680       -2.94555       -3.76503
|  5> C          1.98721       -2.59045       -4.81898
|  6> N          0.74322       -3.01749       -4.91352
|  7> N          2.49964       -1.84860       -5.80324
|  8> H          3.30978       -1.29282       -5.55895
|  9> H          1.80103       -1.30430       -6.28913
| 10> H          3.71612       -2.62880       -3.82953
| 11> H          0.39583       -3.62775       -4.18502
| 12> H          0.03920       -2.45438       -5.37137
| 13> C          2.19120       -1.61950       -1.71549
| 14> H          2.87278       -3.66637       -1.82801
| 15> H          1.24619       -3.44744       -2.40784
| 16> H          1.56387       -0.96046       -2.27853
| 17> H          3.18033       -1.21449       -1.66568
| 18> H          1.79916       -1.72608       -0.72562
| 19> *
| 20>
| 21> %MaxCore 64000
| 22>
| 23> %pal nprocs 4
| 24> end
| 25>
| 26> %scf
| 27>   MaxIter 150
| 28> end
| 29>
| 30>
| 31>                          ****END OF INPUT****

CARTESIAN COORDINATES (ANGSTROEM)
---------------------------------
  C      2.234470   -2.989750   -2.397620
  C      2.756800   -2.945550   -3.765030
  C      1.987210   -2.590450   -4.818980
  N      0.743220   -3.017490   -4.913520
  N      2.499640   -1.848600   -5.803240
  H      3.309780   -1.292820   -5.558950
  H      1.801030   -1.304300   -6.289130
  H      3.716120   -2.628800   -3.829530
  H      0.395830   -3.627750   -4.185020
  H      0.039200   -2.454380   -5.371370
  C      2.191200   -1.619500   -1.715490
  H      2.872780   -3.666370   -1.828010
  H      1.246190   -3.447440   -2.407840
  H      1.563870   -0.960460   -2.278530
  H      3.180330   -1.214490   -1.665680
  H      1.799160   -1.726080   -0.725620

 Total Charge           Charge          ....    0
 Multiplicity           Mult            ....    1
 Number of Electrons    NEL             ....   48
 Basis Dimension        Dim             ....  312

ORBITAL ENERGIES
----------------

  NO   OCC          E(Eh)            E(eV)
   0   2.0000     -14.109118      -383.9286
   1   2.0000     -14.105323      -383.8253
   2   2.0000     -10.026473      -272.8342
   3   2.0000      -9.963184      -271.1120
   4   2.0000      -9.954481      -270.8752
   5   2.0000      -9.911200      -269.6975
   6   2.0000      -0.907158       -24.6850
   7   2.0000      -0.821822       -22.3629
   8   2.0000      -0.716952       -19.5093
   9   2.0000      -0.639571       -17.4036
  10   2.0000      -0.571022       -15.5383
  11   2.0000      -0.532654       -14.4942
  12   2.0000      -0.498273       -13.5587
  13   2.0000      -0.464264       -12.6333
  14   2.0000      -0.428980       -11.6731
  15   2.0000      -0.408981       -11.1289
  16   2.0000      -0.373671       -10.1681
  17   2.0000      -0.353739        -9.6257
  18   2.0000      -0.333750        -9.0818
  19   2.0000      -0.320190        -8.7128
  20   2.0000      -0.292137        -7.9494
  21   2.0000      -0.287394        -7.8204
  22   2.0000      -0.237040        -6.4502
  23   2.0000      -0.133437        -3.6310
  24   0.0000      -0.018081        -0.4920
  25   0.0000       0.010362         0.2820
  26   0.0000       0.019541         0.5317
  27   0.0000       0.020302         0.5524
  28   0.0000       0.040526         1.1028

MULLIKEN ATOMIC CHARGES
-----------------------
   0 C :   -0.011631
   1 C :   -0.788007
   2 C :    0.633327
   3 N :   -0.470417
   4 N :   -0.545532
   5 H :    0.213766
   6 H :    0.184257
   7 H :    0.325394
   8 H :    0.207300
   9 H :    0.140866
  10 C :   -0.969524
  11 H :    0.078160
  12 H :    0.243258
  13 H :    0.257038
  14 H :    0.283062
  15 H :    0.218684
Sum of atomic charges:   -0.0000000

LOEWDIN ATOMIC CHARGES
----------------------
   0 C :   -0.284284
   1 C :   -0.131793
   2 C :   -0.555888
   3 N :    0.131613
   4 N :    0.118926
   5 H :    0.105963
   6 H :    0.094149
   7 H :    0.056413
   8 H :    0.104544
   9 H :    0.101689
  10 C :   -0.093626
  11 H :    0.094241
  12 H :    0.081989
  13 H :    0.060106
  14 H :    0.061346
  15 H :    0.054612

  Mayer bond orders larger than 0.100000
B(  0-C ,  1-C ) :   0.8760 B(  0-C , 10-C ) :   0.7161 B(  0-C , 11-H ) :   1.0311
B(  0-C , 12-H ) :   0.8849 B(  1-C ,  2-C ) :   1.5543 B(  1-C ,  7-H ) :   0.9202
B(  1-C , 10-C ) :   0.1576 B(  2-C ,  3-N ) :   0.8645 B(  2-C ,  4-N ) :   0.9544
B(  2-C ,  7-H ) :  -0.1369 B(  3-N ,  8-H ) :   0.9351 B(  3-N ,  9-H ) :   1.0377
B(  4-N ,  5-H ) :   0.9380 B(  4-N ,  6-H ) :   0.9676 B( 10-C , 13-H ) :   0.9662
B( 10-C , 14-H ) :   0.9526 B( 10-C , 15-H ) :   0.9767

Dispersion correction           -0.015914124
FINAL SINGLE POINT ENERGY      -268.062118496585

DIPOLE MOMENT
-------------
                                X             Y             Z
Electronic contribution:     -0.30014      -1.40069      -5.00658
Nuclear contribution   :     -0.44240       2.20379       4.66256
                        -----------------------------------------
Total Dipole Moment    :     -0.74254       0.80310      -0.34402
                        -----------------------------------------
Magnitude (a.u.)       :      1.14660
Magnitude (Debye)      :      2.91441

Rotational constants in cm-1:     0.209447     0.075194     0.066975
Rotational constants in MHz :  6279.068019  2254.272519  2007.845458

                             ****ORCA TERMINATED NORMALLY****
TOTAL RUN TIME: 0 days 0 hours 0 minutes 26 seconds 635 msec
