                         Program Version 5.0.0 -  RELEASE  -
|  1> !TPSS D3BJ RIJCOSX def2-TZVPD def2/J TightSCF
|  2> *xyz 0 1
|  3> C         -1.10433        0.25137       -2.86006
|  4> C         -0.71189        0.84252       -4.21834
|  5> H          0.15463        1.49980       -4.13091
|  6> H         -1.53813        1.45922       -4.58267
|  7> C         -0.39762       -0.20587       -5.28802
|  8> O          0.61717       -0.00535       -5.99827
|  9> F         -1.13317       -1.22138       -5.34147
| 10> H         -1.95489       -0.38644       -2.98099
| 11> H         -1.34603        1.04362       -2.18269
| 12> H         -0.28606       -0.31581       -2.46809
| 13> *
| 14>
| 15> %MaxCore 64000
| 16>
| 17> %pal nprocs 4
| 18> end
| 19>
| 20> %scf
| 21>   MaxIter 150
| 22> end
| 23>
| 24>
| 25>                          ****END OF INPUT****

CARTESIAN COORDINATES (ANGSTROEM)
---------------------------------
  C     -1.104330    0.251370   -2.860060
  C     -0.711890    0.842520   -4.218340
  H      0.154630    1.499800   -4.130910
  H     -1.538130    1.459220   -4.582670
  C     -0.397620   -0.205870   -5.288020
  O      0.617170   -0.005350   -5.998270
  F     -1.133170   -1.221380   -5.341470
  H     -1.954890   -0.386440   -2.980990
  H     -1.346030    1.043620   -2.182690
  H     -0.286060   -0.315810   -2.468090

 Total Charge           Charge          ....    0
 Multiplicity           Mult            ....    1
 Number of Electrons    NEL             ....   40
 Basis Dimension        Dim             ....  236

ORBITAL ENERGIES
----------------

  NO   OCC          E(Eh)            E(eV)
   0   2.0000     -24.478759      -666.1009
   1   2.0000     -18.886547      -513.9291
   2   2.0000     -10.151002      -276.2228
   3   2.0000     -10.016612      -272.5659
   4   2.0000      -9.993692      -271.9422
   5   2.0000      -1.239721       -33.7345
   6   2.0000      -0.962773       -26.1984
   7   2.0000      -0.745962       -20.2987
   8   2.0000      -0.632412       -17.2088
   9   2.0000      -0.589664       -16.0456
  10   2.0000      -0.495803       -13.4915
  11   2.0000      -0.486362       -13.2346
  12   2.0000      -0.448866       -12.2143
  13   2.0000      -0.424331       -11.5466
  14   2.0000      -0.391313       -10.6482
  15   2.0000      -0.359255        -9.7758
  16   2.0000      -0.345555        -9.4030
  17   2.0000      -0.339082        -9.2269
  18   2.0000      -0.310884        -8.4596
  19   2.0000      -0.244301        -6.6478
  20   0.0000      -0.060013        -1.6330
  21   0.0000      -0.010584        -0.2880
  22   0.0000       0.020333         0.5533
  23   0.0000       0.028050         0.7633
  24   0.0000       0.039437         1.0731

MULLIKEN ATOMIC CHARGES
-----------------------
   0 C :   -0.873430
   1 C :    0.028773
   2 H :    0.157341
   3 H :    0.175289
   4 C :    0.510284
   5 O :   -0.530119
   6 F :   -0.210639
   7 H :    0.267857
   8 H :    0.203148
   9 H :    0.271497
Sum of atomic charges:    0.0000000

LOEWDIN ATOMIC CHARGES
----------------------
   0 C :   -0.087104
   1 C :   -0.146107
   2 H :    0.113592
   3 H :    0.116287
   4 C :   -0.501102
   5 O :    0.085613
   6 F :    0.218103
   7 H :    0.064369
   8 H :    0.065601
   9 H :    0.070749

  Mayer bond orders larger than 0.100000
B(  0-C ,  1-C ) :   0.8559 B(  0-C ,  4-C ) :   0.1084 B(  0-C ,  7-H ) :   0.9409
B(  0-C ,  8-H ) :   0.9863 B(  0-C ,  9-H ) :   0.9411 B(  1-C ,  2-H ) :   0.9666
B(  1-C ,  3-H ) :   0.8824 B(  1-C ,  4-C ) :   0.9992 B(  4-C ,  5-O ) :   1.6194
B(  4-C ,  6-F ) :   0.9803

Dispersion correction           -0.007569406
FINAL SINGLE POINT ENERGY      -292.558733526853

DIPOLE MOMENT
-------------
                                X             Y             Z
Electronic contribution:      0.70207      -4.38599      -6.61628
Nuclear contribution   :     -1.45527       4.68977       7.53208
                        -----------------------------------------
Total Dipole Moment    :     -0.75320       0.30378       0.91580
                        -----------------------------------------
Magnitude (a.u.)       :      1.22404
Magnitude (Debye)      :      3.11126

Rotational constants in cm-1:     0.298240     0.132464     0.099915
Rotational constants in MHz :  8940.998095  3971.171647  2995.369122

                             ****ORCA TERMINATED NORMALLY****
TOTAL RUN TIME: 0 days 0 hours 0 minutes 16 seconds 212 msec
