                         Program Version 5.0.0 -  RELEASE  -
|  1> !TPSS D3BJ RIJCOSX def2-TZVPD def2/J TightSCF
|  2> *xyz 0 1
|  3> C          2.23447       -2.98975       -2.39762
|  4> N          2.75680       -2.94555       -3.76503
|  5> C          1.98721       -2.59045       -4.81898
|  6> C          0.74322       -3.01749       -4.91352
|  7> N          2.49964       -1.84860       -5.80324
|  8> H          3.30978       -1.29282       -5.55895
|  9> H          1.80103       -1.30430       -6.28913
| 10> H          3.71612       -2.62880       -3.82953
| 11> H          0.39583       -3.62775       -4.18502
| 12> H          0.03920       -2.45438       -5.37137
| 13> C          2.19120       -1.61950       -1.71549
| 14> H          2.87278       -3.66637       -1.82801
| 15> H          1.24619       -3.44744       -2.40784
| 16> H          1.56387       -0.96046       -2.27853
| 17> H          3.18033       -1.21449       -1.66568
| 18> H          1.79916       -1.72608       -0.72562
| 19> *
| 20>
| 21> %MaxCore 64000
| 22>
| 23> %pal nprocs 4
| 24> end
| 25>
| 26> %scf
| 27>   MaxIter 150
| 28> end
| 29>
| 30>
| 31>                          ****END OF INPUT****

CARTESIAN COORDINATES (ANGSTROEM)
---------------------------------
  C      2.234470   -2.989750   -2.397620
  N      2.756800   -2.945550   -3.765030
  C      1.987210   -2.590450   -4.818980
  C      0.743220   -3.017490   -4.913520
  N      2.499640   -1.848600   -5.803240
  H      3.309780   -1.292820   -5.558950
  H      1.801030   -1.304300   -6.289130
  H      3.716120   -2.628800   -3.829530
  H      0.395830   -3.627750   -4.185020
  H      0.039200   -2.454380   -5.371370
  C      2.191200   -1.619500   -1.715490
  H      2.872780   -3.666370   -1.828010
  H      1.246190   -3.447440   -2.407840
  H      1.563870   -0.960460   -2.278530
  H      3.180330   -1.214490   -1.665680
  H      1.799160   -1.726080   -0.725620

 Total Charge           Charge          ....    0
 Multiplicity           Mult            ....    1
 Number of Electrons    NEL             ....   48
 Basis Dimension        Dim             ....  312

ORBITAL ENERGIES
----------------

  NO   OCC          E(Eh)            E(eV)
   0   2.0000     -14.104181      -383.7943
   1   2.0000     -14.102878      -383.7588
   2   2.0000     -10.023443      -272.7517
   3   2.0000     -10.018585      -272.6196
   4   2.0000      -9.974914      -271.4312
   5   2.0000      -9.903365      -269.4843
   6   2.0000      -0.903177       -24.5767
   7   2.0000      -0.828615       -22.5478
   8   2.0000      -0.701577       -19.0909
   9   2.0000      -0.660478       -17.9725
  10   2.0000      -0.591579       -16.0977
  11   2.0000      -0.516934       -14.0665
  12   2.0000      -0.497073       -13.5260
  13   2.0000      -0.469341       -12.7714
  14   2.0000      -0.419360       -11.4114
  15   2.0000      -0.406750       -11.0682
  16   2.0000      -0.374655       -10.1949
  17   2.0000      -0.357263        -9.7216
  18   2.0000      -0.355903        -9.6846
  19   2.0000      -0.334578        -9.1043
  20   2.0000      -0.319723        -8.7001
  21   2.0000      -0.313213        -8.5230
  22   2.0000      -0.215460        -5.8630
  23   2.0000      -0.147776        -4.0212
  24   0.0000      -0.013274        -0.3612
  25   0.0000       0.011762         0.3201
  26   0.0000       0.015698         0.4272
  27   0.0000       0.024293         0.6611
  28   0.0000       0.035238         0.9589

MULLIKEN ATOMIC CHARGES
-----------------------
   0 C :   -0.145642
   1 N :   -0.293469
   2 C :    0.737078
   3 C :   -1.124389
   4 N :   -0.518895
   5 H :    0.189228
   6 H :    0.186037
   7 H :    0.179960
   8 H :    0.348198
   9 H :    0.228399
  10 C :   -0.865582
  11 H :    0.136415
  12 H :    0.194132
  13 H :    0.244711
  14 H :    0.267377
  15 H :    0.236442
Sum of atomic charges:   -0.0000000

LOEWDIN ATOMIC CHARGES
----------------------
   0 C :   -0.232241
   1 N :    0.018081
   2 C :   -0.567167
   3 C :    0.012037
   4 N :    0.115583
   5 H :    0.091893
   6 H :    0.103290
   7 H :    0.124499
   8 H :    0.007963
   9 H :    0.015626
  10 C :   -0.075798
  11 H :    0.105656
  12 H :    0.098247
  13 H :    0.062815
  14 H :    0.058549
  15 H :    0.060967

  Mayer bond orders larger than 0.100000
B(  0-C ,  1-N ) :   0.8120 B(  0-C , 10-C ) :   0.8021 B(  0-C , 11-H ) :   0.9699
B(  0-C , 12-H ) :   0.9133 B(  1-N ,  2-C ) :   0.9433 B(  1-N ,  7-H ) :   0.9391
B(  2-C ,  3-C ) :   1.4357 B(  2-C ,  4-N ) :   0.8333 B(  3-C ,  8-H ) :   0.8627
B(  3-C ,  9-H ) :   1.0648 B(  4-N ,  5-H ) :   0.9676 B(  4-N ,  6-H ) :   0.9519
B( 10-C , 13-H ) :   0.9967 B( 10-C , 14-H ) :   0.9379 B( 10-C , 15-H ) :   0.9704

Dispersion correction           -0.015832287
FINAL SINGLE POINT ENERGY      -268.059008610874

DIPOLE MOMENT
-------------
                                X             Y             Z
Electronic contribution:      1.49009      -1.28270      -3.84999
Nuclear contribution   :     -0.86957       2.18853       4.41892
                        -----------------------------------------
Total Dipole Moment    :      0.62053       0.90583       0.56893
                        -----------------------------------------
Magnitude (a.u.)       :      1.23663
Magnitude (Debye)      :      3.14327

Rotational constants in cm-1:     0.214718     0.075736     0.068547
Rotational constants in MHz :  6437.075121  2270.519635  2054.974198

                             ****ORCA TERMINATED NORMALLY****
TOTAL RUN TIME: 0 days 0 hours 0 minutes 29 seconds 741 msec
