                         Program Version 5.0.0 -  RELEASE  -
|  1> !TPSS D3BJ RIJCOSX def2-TZVPD def2/J TightSCF
|  2> *xyz 0 1
|  3> C          2.23447       -2.98975       -2.39762
|  4> N          2.75680       -2.94555       -3.76503
|  5> C          1.98721       -2.59045       -4.81898
|  6> N          0.74322       -3.01749       -4.91352
|  7> C          2.49964       -1.84860       -5.80324
|  8> H          3.30978       -1.29282       -5.55895
|  9> H          1.80103       -1.30430       -6.28913
| 10> H          3.71612       -2.62880       -3.82953
| 11> H          0.39583       -3.62775       -4.18502
| 12> H          0.03920       -2.45438       -5.37137
| 13> C          2.19120       -1.61950       -1.71549
| 14> H          2.87278       -3.66637       -1.82801
| 15> H          1.24619       -3.44744       -2.40784
| 16> H          1.56387       -0.96046       -2.27853
| 17> H          3.18033       -1.21449       -1.66568
| 18> H          1.79916       -1.72608       -0.72562
| 19> *
| 20>
| 21> %MaxCore 64000
| 22>
| 23> %pal nprocs 4
| 24> end
| 25>
| 26> %scf
| 27>   MaxIter 150
| 28> end
| 29>
| 30>
| 31>                          ****END OF INPUT****

CARTESIAN COORDINATES (ANGSTROEM)
---------------------------------
  C      2.234470   -2.989750   -2.397620
  N      2.756800   -2.945550   -3.765030
  C      1.987210   -2.590450   -4.818980
  N      0.743220   -3.017490   -4.913520
  C      2.499640   -1.848600   -5.803240
  H      3.309780   -1.292820   -5.558950
  H      1.801030   -1.304300   -6.289130
  H      3.716120   -2.628800   -3.829530
  H      0.395830   -3.627750   -4.185020
  H      0.039200   -2.454380   -5.371370
  C      2.191200   -1.619500   -1.715490
  H      2.872780   -3.666370   -1.828010
  H      1.246190   -3.447440   -2.407840
  H      1.563870   -0.960460   -2.278530
  H      3.180330   -1.214490   -1.665680
  H      1.799160   -1.726080   -0.725620

 Total Charge           Charge          ....    0
 Multiplicity           Mult            ....    1
 Number of Electrons    NEL             ....   48
 Basis Dimension        Dim             ....  312

ORBITAL ENERGIES
----------------

  NO   OCC          E(Eh)            E(eV)
   0   2.0000     -14.105975      -383.8431
   1   2.0000     -14.103096      -383.7648
   2   2.0000     -10.026396      -272.8321
   3   2.0000     -10.026132      -272.8249
   4   2.0000      -9.978585      -271.5311
   5   2.0000      -9.898552      -269.3533
   6   2.0000      -0.905019       -24.6268
   7   2.0000      -0.829002       -22.5583
   8   2.0000      -0.712647       -19.3921
   9   2.0000      -0.654180       -17.8011
  10   2.0000      -0.582109       -15.8400
  11   2.0000      -0.553306       -15.0562
  12   2.0000      -0.493807       -13.4372
  13   2.0000      -0.449014       -12.2183
  14   2.0000      -0.446659       -12.1542
  15   2.0000      -0.399645       -10.8749
  16   2.0000      -0.387192       -10.5360
  17   2.0000      -0.361297        -9.8314
  18   2.0000      -0.339455        -9.2370
  19   2.0000      -0.331098        -9.0096
  20   2.0000      -0.325428        -8.8553
  21   2.0000      -0.318032        -8.6541
  22   2.0000      -0.217748        -5.9252
  23   2.0000      -0.142873        -3.8878
  24   0.0000      -0.013980        -0.3804
  25   0.0000       0.010987         0.2990
  26   0.0000       0.012049         0.3279
  27   0.0000       0.020798         0.5659
  28   0.0000       0.034587         0.9411

MULLIKEN ATOMIC CHARGES
-----------------------
   0 C :   -0.218475
   1 N :   -0.280966
   2 C :    0.747639
   3 N :   -0.456589
   4 C :   -1.063593
   5 H :    0.254250
   6 H :    0.224998
   7 H :    0.188968
   8 H :    0.209174
   9 H :    0.160105
  10 C :   -0.870390
  11 H :    0.144055
  12 H :    0.199768
  13 H :    0.241970
  14 H :    0.256530
  15 H :    0.262558
Sum of atomic charges:    0.0000000

LOEWDIN ATOMIC CHARGES
----------------------
   0 C :   -0.237118
   1 N :    0.021881
   2 C :   -0.569860
   3 N :    0.129900
   4 C :   -0.006006
   5 H :    0.004592
   6 H :    0.005857
   7 H :    0.133276
   8 H :    0.093469
   9 H :    0.114525
  10 C :   -0.074504
  11 H :    0.104742
  12 H :    0.092240
  13 H :    0.063965
  14 H :    0.062626
  15 H :    0.060417

  Mayer bond orders larger than 0.100000
B(  0-C ,  1-N ) :   0.8923 B(  0-C , 10-C ) :   0.8546 B(  0-C , 11-H ) :   0.9912
B(  0-C , 12-H ) :   0.9014 B(  1-N ,  2-C ) :   1.0168 B(  1-N ,  7-H ) :   0.8835
B(  2-C ,  3-N ) :   0.8905 B(  2-C ,  4-C ) :   1.2768 B(  3-N ,  8-H ) :   0.9337
B(  3-N ,  9-H ) :   1.0001 B(  4-C ,  5-H ) :   1.0830 B(  4-C ,  6-H ) :   1.0465
B( 10-C , 13-H ) :   0.9909 B( 10-C , 14-H ) :   0.9465 B( 10-C , 15-H ) :   0.9530

Dispersion correction           -0.015780591
FINAL SINGLE POINT ENERGY      -268.053321271533

DIPOLE MOMENT
-------------
                                X             Y             Z
Electronic contribution:     -0.11104      -2.40295      -2.98011
Nuclear contribution   :     -0.49695       2.43650       4.23017
                        -----------------------------------------
Total Dipole Moment    :     -0.60799       0.03355       1.25006
                        -----------------------------------------
Magnitude (a.u.)       :      1.39048
Magnitude (Debye)      :      3.53432

Rotational constants in cm-1:     0.211102     0.077011     0.069221
Rotational constants in MHz :  6328.667765  2308.731604  2075.192956

                             ****ORCA TERMINATED NORMALLY****
TOTAL RUN TIME: 0 days 0 hours 0 minutes 27 seconds 308 msec
