                         Program Version 5.0.0 -  RELEASE  -
|  1> !TPSS D3BJ RIJCOSX def2-TZVPD def2/J TightSCF xyzfile
|  2>
|  3> *xyzfile 0 1 D1.xyz
|  4>
|  5> %MaxCore 64000
|  6>
|  7> %pal nprocs 4
|  8> end
|  9>
| 10> %scf
| 11>   MaxIter 150
| 12> end
| 13>
| 14>
| 15>                          ****END OF INPUT****

CARTESIAN COORDINATES (ANGSTROEM)
---------------------------------
  C      2.234473   -2.989754   -2.397622
  C      2.756799   -2.945553   -3.765029
  C     -1.104325    0.251374   -2.860056
  C     -0.711893    0.842517   -4.218344
  H      0.154626    1.499800   -4.130909
  H     -1.538134    1.459222   -4.582671
  C     -0.397624   -0.205875   -5.288018
  C      1.987208   -2.590451   -4.818975
  N      0.743221   -3.017493   -4.913524
  N      2.499636   -1.848598   -5.803241
  H      3.309780   -1.292818   -5.558947
  H      1.801025   -1.304298   -6.289129
  H      3.716116   -2.628797   -3.829533
  H      0.395828   -3.627747   -4.185024
  H      0.039201   -2.454383   -5.371367
  F      0.617165   -0.005348   -5.998273
  O     -1.133173   -1.221380   -5.341465
  C      2.191199   -1.619503   -1.715492
  H      2.872783   -3.666368   -1.828014
  H      1.246188   -3.447444   -2.407842
  C      1.298729   -0.554314   -2.359773
  H      1.872917   -1.787955   -0.681310
  H      3.216809   -1.238432   -1.654428
  C     -0.196255   -0.863365   -2.325763
  H      1.612531   -0.371346   -3.393065
  H      1.480944    0.388638   -1.834444
  H     -0.404105   -1.761825   -2.909448
  H     -0.490439   -1.087880   -1.294131
  H     -1.143842    1.066711   -2.129680
  H     -2.114401   -0.156834   -2.930323

 Total Charge           Charge          ....    0
 Multiplicity           Mult            ....    1
 Number of Electrons    NEL             ....  102
 Basis Dimension        Dim             ....  640

ORBITAL ENERGIES
----------------

  NO   OCC          E(Eh)            E(eV)
   0   2.0000     -24.508593      -666.9127
   1   2.0000     -18.915471      -514.7161
   2   2.0000     -14.092509      -383.4767
   3   2.0000     -14.083091      -383.2204
   4   2.0000     -10.174047      -276.8499
   5   2.0000     -10.027630      -272.8657
   6   2.0000     -10.017308      -272.5848
   7   2.0000     -10.003620      -272.2124
   8   2.0000      -9.984344      -271.6878
   9   2.0000      -9.981116      -271.6000
  10   2.0000      -9.969986      -271.2971
  11   2.0000      -9.960582      -271.0412
  12   2.0000      -9.904179      -269.5064
  13   2.0000      -1.271978       -34.6123
  14   2.0000      -0.996815       -27.1247
  15   2.0000      -0.894790       -24.3485
  16   2.0000      -0.808162       -21.9912
  17   2.0000      -0.770492       -20.9662
  18   2.0000      -0.733170       -19.9506
  19   2.0000      -0.697492       -18.9797
  20   2.0000      -0.654388       -17.8068
  21   2.0000      -0.633431       -17.2365
  22   2.0000      -0.600754       -16.3473
  23   2.0000      -0.564419       -15.3586
  24   2.0000      -0.537801       -14.6343
  25   2.0000      -0.528761       -14.3883
  26   2.0000      -0.514921       -14.0117
  27   2.0000      -0.500352       -13.6153
  28   2.0000      -0.494467       -13.4551
  29   2.0000      -0.471185       -12.8216
  30   2.0000      -0.451064       -12.2741
  31   2.0000      -0.437607       -11.9079
  32   2.0000      -0.431916       -11.7530
  33   2.0000      -0.416525       -11.3342
  34   2.0000      -0.401057       -10.9133
  35   2.0000      -0.396319       -10.7844
  36   2.0000      -0.380191       -10.3455
  37   2.0000      -0.366602        -9.9757
  38   2.0000      -0.354606        -9.6493
  39   2.0000      -0.349939        -9.5223
  40   2.0000      -0.336737        -9.1631
  41   2.0000      -0.327053        -8.8996
  42   2.0000      -0.321796        -8.7565
  43   2.0000      -0.310821        -8.4579
  44   2.0000      -0.301603        -8.2070
  45   2.0000      -0.289835        -7.8868
  46   2.0000      -0.279401        -7.6029
  47   2.0000      -0.273960        -7.4548
  48   2.0000      -0.271504        -7.3880
  49   2.0000      -0.220841        -6.0094
  50   2.0000      -0.125704        -3.4206
  51   0.0000      -0.087165        -2.3719
  52   0.0000      -0.016909        -0.4601
  53   0.0000       0.001841         0.0501
  54   0.0000       0.006530         0.1777
  55   0.0000       0.008833         0.2404

MULLIKEN ATOMIC CHARGES
-----------------------
   0 C :   -0.219890
   1 C :   -0.892416
   2 C :   -0.234602
   3 C :   -0.246807
   4 H :    0.315315
   5 H :    0.082619
   6 C :    0.791829
   7 C :    0.382389
   8 N :   -0.491347
   9 N :   -0.649345
  10 H :    0.188392
  11 H :    0.345377
  12 H :    0.376095
  13 H :    0.217155
  14 H :    0.308930
  15 F :   -0.330747
  16 O :   -0.681209
  17 C :   -0.396025
  18 H :    0.007872
  19 H :    0.415388
  20 C :   -0.408831
  21 H :    0.099125
  22 H :    0.184924
  23 C :   -0.318612
  24 H :    0.381355
  25 H :    0.131727
  26 H :    0.267391
  27 H :    0.077565
  28 H :    0.079246
  29 H :    0.217136
Sum of atomic charges:    0.0000000

LOEWDIN ATOMIC CHARGES
----------------------
   0 C :   -0.233344
   1 C :   -0.118757
   2 C :   -0.182882
   3 C :   -0.094460
   4 H :    0.112045
   5 H :    0.123965
   6 C :   -0.471756
   7 C :   -0.546673
   8 N :    0.155754
   9 N :    0.132417
  10 H :    0.109710
  11 H :    0.069411
  12 H :    0.057873
  13 H :    0.110731
  14 H :    0.045388
  15 F :    0.200050
  16 O :    0.083833
  17 C :   -0.189755
  18 H :    0.098274
  19 H :    0.088304
  20 C :   -0.197136
  21 H :    0.102726
  22 H :    0.107023
  23 C :   -0.197230
  24 H :    0.095222
  25 H :    0.111602
  26 H :    0.089236
  27 H :    0.116137
  28 H :    0.112198
  29 H :    0.110092

  Mayer bond orders larger than 0.100000
B(  0-C ,  1-C ) :   0.9054 B(  0-C ,  7-C ) :   0.1368 B(  0-C , 17-C ) :   0.8379
B(  0-C , 18-H ) :   1.0864 B(  0-C , 19-H ) :   0.7100 B(  0-C , 23-C ) :   0.1602
B(  1-C ,  7-C ) :   1.4966 B(  1-C , 12-H ) :   0.9553 B(  1-C , 17-C ) :   0.1057
B(  2-C ,  3-C ) :   1.0161 B(  2-C , 20-C ) :   0.1432 B(  2-C , 23-C ) :   1.1713
B(  2-C , 26-H ) :   0.1025 B(  2-C , 28-H ) :   0.9105 B(  2-C , 29-H ) :   0.8163
B(  3-C ,  4-H ) :   0.8364 B(  3-C ,  5-H ) :   0.8812 B(  3-C ,  6-C ) :   1.1001
B(  3-C , 20-C ) :   0.1832 B(  6-C , 15-F ) :   0.6894 B(  6-C , 16-O ) :   1.3563
B(  6-C , 23-C ) :   0.1250 B(  7-C ,  8-N ) :   0.9236 B(  7-C ,  9-N ) :   0.7629
B(  7-C , 12-H ) :  -0.1118 B(  7-C , 20-C ) :   0.1416 B(  8-N , 13-H ) :   0.8710
B(  8-N , 14-H ) :   0.6913 B(  9-N , 10-H ) :   0.9483 B(  9-N , 11-H ) :   0.6898
B( 17-C , 20-C ) :   1.3019 B( 17-C , 21-H ) :   0.8779 B( 17-C , 22-H ) :   0.8754
B( 17-C , 23-C ) :   0.2562 B( 17-C , 24-H ) :   0.1095 B( 20-C , 23-C ) :   0.6605
B( 20-C , 24-H ) :   0.8814 B( 20-C , 25-H ) :   0.8183 B( 23-C , 26-H ) :   1.0000
B( 23-C , 27-H ) :   0.8345

Dispersion correction           -0.043940773
FINAL SINGLE POINT ENERGY      -638.084536499407

DIPOLE MOMENT
-------------
                                X             Y             Z
Electronic contribution:     -2.99515       2.09820     -14.52716
Nuclear contribution   :      2.31842      -0.27661      14.74721
                        -----------------------------------------
Total Dipole Moment    :     -0.67672       1.82159       0.22005
                        -----------------------------------------
Magnitude (a.u.)       :      1.95565
Magnitude (Debye)      :      4.97087

Rotational constants in cm-1:     0.032691     0.023990     0.017099
Rotational constants in MHz :   980.050971   719.190545   512.606858

                             ****ORCA TERMINATED NORMALLY****
TOTAL RUN TIME: 0 days 0 hours 2 minutes 24 seconds 851 msec
