                         Program Version 5.0.0 -  RELEASE  -
|  1> !TPSS D3BJ RIJCOSX def2-TZVPD def2/J TightSCF xyzfile
|  2>
|  3> *xyzfile 0 1 D2.xyz
|  4>
|  5> %MaxCore 64000
|  6>
|  7> %pal nprocs 4
|  8> end
|  9>
| 10> %scf
| 11>   MaxIter 150
| 12> end
| 13>
| 14>
| 15>                          ****END OF INPUT****

CARTESIAN COORDINATES (ANGSTROEM)
---------------------------------
  C      2.234473   -2.989754   -2.397622
  N      2.756799   -2.945553   -3.765029
  C     -1.104325    0.251374   -2.860056
  C     -0.711893    0.842517   -4.218344
  H      0.154626    1.499800   -4.130909
  H     -1.538134    1.459222   -4.582671
  C     -0.397624   -0.205875   -5.288018
  C      1.987208   -2.590451   -4.818975
  C      0.743221   -3.017493   -4.913524
  N      2.499636   -1.848598   -5.803241
  H      3.309780   -1.292818   -5.558947
  H      1.801025   -1.304298   -6.289129
  H      3.716116   -2.628797   -3.829533
  H      0.395828   -3.627747   -4.185024
  H      0.039201   -2.454383   -5.371367
  F      0.617165   -0.005348   -5.998273
  O     -1.133173   -1.221380   -5.341465
  C      2.191199   -1.619503   -1.715492
  H      2.872783   -3.666368   -1.828014
  H      1.246188   -3.447444   -2.407842
  C      1.298729   -0.554314   -2.359773
  H      1.872917   -1.787955   -0.681310
  H      3.216809   -1.238432   -1.654428
  C     -0.196255   -0.863365   -2.325763
  H      1.612531   -0.371346   -3.393065
  H      1.480944    0.388638   -1.834444
  H     -0.404105   -1.761825   -2.909448
  H     -0.490439   -1.087880   -1.294131
  H     -1.143842    1.066711   -2.129680
  H     -2.114401   -0.156834   -2.930323

 Total Charge           Charge          ....    0
 Multiplicity           Mult            ....    1
 Number of Electrons    NEL             ....  102
 Basis Dimension        Dim             ....  640

ORBITAL ENERGIES
----------------

  NO   OCC          E(Eh)            E(eV)
   0   2.0000     -24.494742      -666.5358
   1   2.0000     -18.894361      -514.1417
   2   2.0000     -14.095459      -383.5570
   3   2.0000     -14.088531      -383.3684
   4   2.0000     -10.158977      -276.4398
   5   2.0000     -10.019447      -272.6430
   6   2.0000     -10.014064      -272.4965
   7   2.0000     -10.010512      -272.3999
   8   2.0000      -9.998672      -272.0777
   9   2.0000      -9.987436      -271.7719
  10   2.0000      -9.987002      -271.7601
  11   2.0000      -9.980962      -271.5958
  12   2.0000      -9.882521      -268.9171
  13   2.0000      -1.258180       -34.2368
  14   2.0000      -0.976019       -26.5588
  15   2.0000      -0.893906       -24.3244
  16   2.0000      -0.820863       -22.3368
  17   2.0000      -0.764772       -20.8105
  18   2.0000      -0.728450       -19.8221
  19   2.0000      -0.680158       -18.5080
  20   2.0000      -0.653512       -17.7830
  21   2.0000      -0.637022       -17.3342
  22   2.0000      -0.608497       -16.5581
  23   2.0000      -0.569548       -15.4982
  24   2.0000      -0.537011       -14.6128
  25   2.0000      -0.515466       -14.0265
  26   2.0000      -0.499794       -13.6001
  27   2.0000      -0.490309       -13.3420
  28   2.0000      -0.486140       -13.2285
  29   2.0000      -0.475889       -12.9496
  30   2.0000      -0.450348       -12.2546
  31   2.0000      -0.437966       -11.9177
  32   2.0000      -0.427648       -11.6369
  33   2.0000      -0.407606       -11.0915
  34   2.0000      -0.402026       -10.9397
  35   2.0000      -0.384566       -10.4646
  36   2.0000      -0.373538       -10.1645
  37   2.0000      -0.366484        -9.9725
  38   2.0000      -0.354268        -9.6401
  39   2.0000      -0.346171        -9.4198
  40   2.0000      -0.336833        -9.1657
  41   2.0000      -0.329884        -8.9766
  42   2.0000      -0.320527        -8.7220
  43   2.0000      -0.318698        -8.6722
  44   2.0000      -0.305655        -8.3173
  45   2.0000      -0.297798        -8.1035
  46   2.0000      -0.286237        -7.7889
  47   2.0000      -0.285286        -7.7630
  48   2.0000      -0.244109        -6.6425
  49   2.0000      -0.206275        -5.6130
  50   2.0000      -0.134893        -3.6706
  51   0.0000      -0.071535        -1.9466
  52   0.0000      -0.016241        -0.4420
  53   0.0000      -0.001250        -0.0340
  54   0.0000       0.002501         0.0681
  55   0.0000       0.014239         0.3875

MULLIKEN ATOMIC CHARGES
-----------------------
   0 C :   -0.408310
   1 N :   -0.277873
   2 C :   -0.298283
   3 C :   -0.290570
   4 H :    0.311325
   5 H :    0.101993
   6 C :    0.752853
   7 C :    0.371805
   8 C :   -1.669576
   9 N :   -0.575094
  10 H :    0.178199
  11 H :    0.276693
  12 H :    0.191975
  13 H :    0.541601
  14 H :    0.913213
  15 F :   -0.347339
  16 O :   -0.621421
  17 C :   -0.329864
  18 H :    0.069073
  19 H :    0.299134
  20 C :   -0.245935
  21 H :    0.137783
  22 H :    0.144790
  23 C :   -0.325244
  24 H :    0.294340
  25 H :    0.141857
  26 H :    0.267563
  27 H :    0.081690
  28 H :    0.078817
  29 H :    0.234803
Sum of atomic charges:    0.0000000

LOEWDIN ATOMIC CHARGES
----------------------
   0 C :   -0.184018
   1 N :    0.033800
   2 C :   -0.181811
   3 C :   -0.095429
   4 H :    0.109578
   5 H :    0.122781
   6 C :   -0.471428
   7 C :   -0.557629
   8 C :    0.020488
   9 N :    0.124594
  10 H :    0.095216
  11 H :    0.076191
  12 H :    0.125248
  13 H :    0.027362
  14 H :   -0.017033
  15 F :    0.199948
  16 O :    0.084235
  17 C :   -0.177889
  18 H :    0.109274
  19 H :    0.102906
  20 C :   -0.196583
  21 H :    0.106823
  22 H :    0.103313
  23 C :   -0.195638
  24 H :    0.094756
  25 H :    0.111919
  26 H :    0.092526
  27 H :    0.115027
  28 H :    0.110460
  29 H :    0.111014

  Mayer bond orders larger than 0.100000
B(  0-C ,  1-N ) :   0.8618 B(  0-C ,  7-C ) :   0.1097 B(  0-C , 17-C ) :   0.8837
B(  0-C , 18-H ) :   0.9718 B(  0-C , 19-H ) :   0.8541 B(  0-C , 23-C ) :   0.1807
B(  1-N ,  7-C ) :   0.9192 B(  1-N ,  9-N ) :   0.1142 B(  1-N , 12-H ) :   0.8783
B(  2-C ,  3-C ) :   1.0334 B(  2-C , 20-C ) :   0.1682 B(  2-C , 23-C ) :   1.1937
B(  2-C , 26-H ) :   0.1262 B(  2-C , 28-H ) :   0.9260 B(  2-C , 29-H ) :   0.8024
B(  3-C ,  4-H ) :   0.8404 B(  3-C ,  5-H ) :   0.8750 B(  3-C ,  6-C ) :   1.0917
B(  3-C , 20-C ) :   0.1801 B(  6-C , 15-F ) :   0.6539 B(  6-C , 16-O ) :   1.5345
B(  6-C , 23-C ) :   0.1377 B(  7-C ,  8-C ) :   1.6771 B(  7-C ,  9-N ) :   0.6728
B(  7-C , 14-H ) :  -0.1988 B(  7-C , 20-C ) :   0.1277 B(  8-C , 13-H ) :   0.8007
B(  8-C , 14-H ) :   0.2258 B(  9-N , 10-H ) :   0.9303 B(  9-N , 11-H ) :   0.7738
B( 13-H , 14-H ) :   0.2462 B( 14-H , 16-O ) :  -0.1394 B( 15-F , 16-O ) :   0.1058
B( 17-C , 20-C ) :   1.2134 B( 17-C , 21-H ) :   0.8988 B( 17-C , 22-H ) :   0.9124
B( 17-C , 23-C ) :   0.2326 B( 17-C , 24-H ) :   0.1091 B( 20-C , 23-C ) :   0.6438
B( 20-C , 24-H ) :   0.9511 B( 20-C , 25-H ) :   0.7815 B( 23-C , 26-H ) :   1.0054
B( 23-C , 27-H ) :   0.8238

Dispersion correction           -0.044017237
FINAL SINGLE POINT ENERGY      -638.066381879985

DIPOLE MOMENT
-------------
                                X             Y             Z
Electronic contribution:     -1.50178       2.09242     -13.57327
Nuclear contribution   :      2.00823      -0.28769      14.57028
                        -----------------------------------------
Total Dipole Moment    :      0.50645       1.80473       0.99701
                        -----------------------------------------
Magnitude (a.u.)       :      2.12310
Magnitude (Debye)      :      5.39650

Rotational constants in cm-1:     0.033070     0.023715     0.016943
Rotational constants in MHz :   991.423248   710.957140   507.940500

                             ****ORCA TERMINATED NORMALLY****
TOTAL RUN TIME: 0 days 0 hours 2 minutes 19 seconds 111 msec
