                         Program Version 5.0.0 -  RELEASE  -
|  1> !TPSS D3BJ RIJCOSX def2-TZVPD def2/J TightSCF xyzfile
|  2>
|  3> *xyzfile 0 1 D3.xyz
|  4>
|  5> %MaxCore 64000
|  6>
|  7> %pal nprocs 4
|  8> end
|  9>
| 10> %scf
| 11>   MaxIter 150
| 12> end
| 13>
| 14>
| 15>                          ****END OF INPUT****

CARTESIAN COORDINATES (ANGSTROEM)
---------------------------------
  C      2.234473   -2.989754   -2.397622
  N      2.756799   -2.945553   -3.765029
  C     -1.104325    0.251374   -2.860056
  C     -0.711893    0.842517   -4.218344
  H      0.154626    1.499800   -4.130909
  H     -1.538134    1.459222   -4.582671
  C     -0.397624   -0.205875   -5.288018
  C      1.987208   -2.590451   -4.818975
  N      0.743221   -3.017493   -4.913524
  C      2.499636   -1.848598   -5.803241
  H      3.309780   -1.292818   -5.558947
  H      1.801025   -1.304298   -6.289129
  H      3.716116   -2.628797   -3.829533
  H      0.395828   -3.627747   -4.185024
  H      0.039201   -2.454383   -5.371367
  F      0.617165   -0.005348   -5.998273
  O     -1.133173   -1.221380   -5.341465
  C      2.191199   -1.619503   -1.715492
  H      2.872783   -3.666368   -1.828014
  H      1.246188   -3.447444   -2.407842
  C      1.298729   -0.554314   -2.359773
  H      1.872917   -1.787955   -0.681310
  H      3.216809   -1.238432   -1.654428
  C     -0.196255   -0.863365   -2.325763
  H      1.612531   -0.371346   -3.393065
  H      1.480944    0.388638   -1.834444
  H     -0.404105   -1.761825   -2.909448
  H     -0.490439   -1.087880   -1.294131
  H     -1.143842    1.066711   -2.129680
  H     -2.114401   -0.156834   -2.930323

 Total Charge           Charge          ....    0
 Multiplicity           Mult            ....    1
 Number of Electrons    NEL             ....  102
 Basis Dimension        Dim             ....  640

ORBITAL ENERGIES
----------------

  NO   OCC          E(Eh)            E(eV)
   0   2.0000     -24.488981      -666.3790
   1   2.0000     -18.908080      -514.5150
   2   2.0000     -14.094817      -383.5395
   3   2.0000     -14.078992      -383.1089
   4   2.0000     -10.169508      -276.7264
   5   2.0000     -10.024730      -272.7868
   6   2.0000     -10.020581      -272.6739
   7   2.0000     -10.014704      -272.5140
   8   2.0000     -10.005349      -272.2594
   9   2.0000      -9.990166      -271.8462
  10   2.0000      -9.990111      -271.8447
  11   2.0000      -9.989641      -271.8320
  12   2.0000      -9.885395      -268.9953
  13   2.0000      -1.253335       -34.1050
  14   2.0000      -0.990022       -26.9399
  15   2.0000      -0.892941       -24.2982
  16   2.0000      -0.816079       -22.2066
  17   2.0000      -0.771252       -20.9868
  18   2.0000      -0.733917       -19.9709
  19   2.0000      -0.689889       -18.7728
  20   2.0000      -0.655739       -17.8436
  21   2.0000      -0.633499       -17.2384
  22   2.0000      -0.600317       -16.3354
  23   2.0000      -0.569006       -15.4834
  24   2.0000      -0.545652       -14.8479
  25   2.0000      -0.533049       -14.5050
  26   2.0000      -0.505248       -13.7485
  27   2.0000      -0.487670       -13.2702
  28   2.0000      -0.483074       -13.1451
  29   2.0000      -0.479880       -13.0582
  30   2.0000      -0.449079       -12.2201
  31   2.0000      -0.437740       -11.9115
  32   2.0000      -0.432284       -11.7630
  33   2.0000      -0.420755       -11.4493
  34   2.0000      -0.405654       -11.0384
  35   2.0000      -0.395297       -10.7566
  36   2.0000      -0.372505       -10.1364
  37   2.0000      -0.368524       -10.0280
  38   2.0000      -0.352871        -9.6021
  39   2.0000      -0.342679        -9.3248
  40   2.0000      -0.340125        -9.2553
  41   2.0000      -0.333284        -9.0691
  42   2.0000      -0.324032        -8.8173
  43   2.0000      -0.318308        -8.6616
  44   2.0000      -0.309153        -8.4125
  45   2.0000      -0.302082        -8.2201
  46   2.0000      -0.294745        -8.0204
  47   2.0000      -0.291469        -7.9313
  48   2.0000      -0.267989        -7.2923
  49   2.0000      -0.203812        -5.5460
  50   2.0000      -0.131985        -3.5915
  51   0.0000      -0.080503        -2.1906
  52   0.0000      -0.013743        -0.3740
  53   0.0000      -0.002030        -0.0552
  54   0.0000       0.001197         0.0326
  55   0.0000       0.009570         0.2604

MULLIKEN ATOMIC CHARGES
-----------------------
   0 C :   -0.463650
   1 N :   -0.283594
   2 C :   -0.233022
   3 C :   -0.281884
   4 H :    0.307918
   5 H :    0.093038
   6 C :    0.760158
   7 C :    0.406371
   8 N :   -0.476288
   9 C :   -1.313471
  10 H :    0.308895
  11 H :    0.593335
  12 H :    0.207394
  13 H :    0.244730
  14 H :    0.275936
  15 F :   -0.271219
  16 O :   -0.697142
  17 C :   -0.362287
  18 H :    0.083624
  19 H :    0.302492
  20 C :   -0.271967
  21 H :    0.156770
  22 H :    0.146517
  23 C :   -0.386375
  24 H :    0.366034
  25 H :    0.118795
  26 H :    0.282419
  27 H :    0.081667
  28 H :    0.080313
  29 H :    0.224494
Sum of atomic charges:   -0.0000000

LOEWDIN ATOMIC CHARGES
----------------------
   0 C :   -0.188879
   1 N :    0.038982
   2 C :   -0.182111
   3 C :   -0.091351
   4 H :    0.113258
   5 H :    0.124482
   6 C :   -0.463197
   7 C :   -0.564434
   8 N :    0.150965
   9 C :   -0.002944
  10 H :    0.012618
  11 H :   -0.008472
  12 H :    0.133778
  13 H :    0.100910
  14 H :    0.052983
  15 F :    0.204280
  16 O :    0.083284
  17 C :   -0.177756
  18 H :    0.108301
  19 H :    0.097916
  20 C :   -0.193401
  21 H :    0.105576
  22 H :    0.106536
  23 C :   -0.199331
  24 H :    0.098795
  25 H :    0.113319
  26 H :    0.088523
  27 H :    0.114813
  28 H :    0.112024
  29 H :    0.110532

  Mayer bond orders larger than 0.100000
B(  0-C ,  1-N ) :   0.9355 B(  0-C ,  8-N ) :   0.1370 B(  0-C , 17-C ) :   0.8698
B(  0-C , 18-H ) :   0.9978 B(  0-C , 19-H ) :   0.8425 B(  0-C , 23-C ) :   0.1748
B(  1-N ,  7-C ) :   0.9528 B(  1-N , 12-H ) :   0.8293 B(  2-C ,  3-C ) :   1.0179
B(  2-C , 20-C ) :   0.1605 B(  2-C , 23-C ) :   1.1813 B(  2-C , 26-H ) :   0.1048
B(  2-C , 28-H ) :   0.9162 B(  2-C , 29-H ) :   0.8115 B(  3-C ,  4-H ) :   0.8378
B(  3-C ,  5-H ) :   0.8761 B(  3-C ,  6-C ) :   1.1063 B(  3-C , 20-C ) :   0.1589
B(  6-C , 15-F ) :   0.7669 B(  6-C , 16-O ) :   1.3537 B(  6-C , 23-C ) :   0.1229
B(  7-C ,  8-N ) :   0.8026 B(  7-C ,  9-C ) :   1.4393 B(  7-C , 10-H ) :  -0.1330
B(  8-N , 13-H ) :   0.8237 B(  8-N , 14-H ) :   0.7278 B(  9-C , 10-H ) :   1.1318
B(  9-C , 11-H ) :   0.6094 B( 15-F , 16-O ) :   0.1118 B( 17-C , 20-C ) :   1.2638
B( 17-C , 21-H ) :   0.9166 B( 17-C , 22-H ) :   0.8940 B( 17-C , 23-C ) :   0.2401
B( 20-C , 23-C ) :   0.6132 B( 20-C , 24-H ) :   0.9095 B( 20-C , 25-H ) :   0.7973
B( 23-C , 26-H ) :   0.9773 B( 23-C , 27-H ) :   0.8411

Dispersion correction           -0.043861623
FINAL SINGLE POINT ENERGY      -638.071217525154

DIPOLE MOMENT
-------------
                                X             Y             Z
Electronic contribution:     -2.86526       1.29772     -12.78638
Nuclear contribution   :      2.27881      -0.10762      14.43322
                        -----------------------------------------
Total Dipole Moment    :     -0.58645       1.19011       1.64684
                        -----------------------------------------
Magnitude (a.u.)       :      2.11479
Magnitude (Debye)      :      5.37538

Rotational constants in cm-1:     0.033336     0.023673     0.017062
Rotational constants in MHz :   999.388459   709.685364   511.514310

                             ****ORCA TERMINATED NORMALLY****
TOTAL RUN TIME: 0 days 0 hours 2 minutes 17 seconds 218 msec
