                         Program Version 5.0.0 -  RELEASE  -
|  1> !TPSS D3BJ RIJCOSX def2-TZVPD def2/J TightSCF xyzfile
|  2>
|  3> *xyzfile 0 1 D4.xyz
|  4>
|  5> %MaxCore 64000
|  6>
|  7> %pal nprocs 4
|  8> end
|  9>
| 10> %scf
| 11>   MaxIter 150
| 12> end
| 13>
| 14>
| 15>                          ****END OF INPUT****

CARTESIAN COORDINATES (ANGSTROEM)
---------------------------------
  C      2.234473   -2.989754   -2.397622
  C      2.756799   -2.945553   -3.765029
  C     -1.104325    0.251374   -2.860056
  C     -0.711893    0.842517   -4.218344
  H      0.154626    1.499800   -4.130909
  H     -1.538134    1.459222   -4.582671
  C     -0.397624   -0.205875   -5.288018
  C      1.987208   -2.590451   -4.818975
  N      0.743221   -3.017493   -4.913524
  N      2.499636   -1.848598   -5.803241
  H      3.309780   -1.292818   -5.558947
  H      1.801025   -1.304298   -6.289129
  H      3.716116   -2.628797   -3.829533
  H      0.395828   -3.627747   -4.185024
  H      0.039201   -2.454383   -5.371367
  O      0.617165   -0.005348   -5.998273
  F     -1.133173   -1.221380   -5.341465
  C      2.191199   -1.619503   -1.715492
  H      2.872783   -3.666368   -1.828014
  H      1.246188   -3.447444   -2.407842
  C      1.298729   -0.554314   -2.359773
  H      1.872917   -1.787955   -0.681310
  H      3.216809   -1.238432   -1.654428
  C     -0.196255   -0.863365   -2.325763
  H      1.612531   -0.371346   -3.393065
  H      1.480944    0.388638   -1.834444
  H     -0.404105   -1.761825   -2.909448
  H     -0.490439   -1.087880   -1.294131
  H     -1.143842    1.066711   -2.129680
  H     -2.114401   -0.156834   -2.930323

 Total Charge           Charge          ....    0
 Multiplicity           Mult            ....    1
 Number of Electrons    NEL             ....  102
 Basis Dimension        Dim             ....  640

ORBITAL ENERGIES
----------------

  NO   OCC          E(Eh)            E(eV)
   0   2.0000     -24.509588      -666.9398
   1   2.0000     -18.915313      -514.7118
   2   2.0000     -14.094103      -383.5200
   3   2.0000     -14.079484      -383.1222
   4   2.0000     -10.173968      -276.8477
   5   2.0000     -10.026865      -272.8449
   6   2.0000     -10.015541      -272.5367
   7   2.0000     -10.006963      -272.3033
   8   2.0000      -9.989505      -271.8283
   9   2.0000      -9.979490      -271.5557
  10   2.0000      -9.969116      -271.2735
  11   2.0000      -9.960318      -271.0340
  12   2.0000      -9.902160      -269.4515
  13   2.0000      -1.273764       -34.6609
  14   2.0000      -0.994849       -27.0712
  15   2.0000      -0.893007       -24.3000
  16   2.0000      -0.806233       -21.9387
  17   2.0000      -0.774058       -21.0632
  18   2.0000      -0.733170       -19.9506
  19   2.0000      -0.696750       -18.9595
  20   2.0000      -0.651062       -17.7163
  21   2.0000      -0.632858       -17.2209
  22   2.0000      -0.604192       -16.4409
  23   2.0000      -0.565742       -15.3946
  24   2.0000      -0.542143       -14.7525
  25   2.0000      -0.530309       -14.4304
  26   2.0000      -0.517356       -14.0780
  27   2.0000      -0.513271       -13.9668
  28   2.0000      -0.479206       -13.0398
  29   2.0000      -0.471259       -12.8236
  30   2.0000      -0.444192       -12.0871
  31   2.0000      -0.440993       -12.0000
  32   2.0000      -0.431794       -11.7497
  33   2.0000      -0.412112       -11.2141
  34   2.0000      -0.399105       -10.8602
  35   2.0000      -0.395086       -10.7508
  36   2.0000      -0.384688       -10.4679
  37   2.0000      -0.363531        -9.8922
  38   2.0000      -0.357612        -9.7311
  39   2.0000      -0.351287        -9.5590
  40   2.0000      -0.347176        -9.4472
  41   2.0000      -0.326387        -8.8814
  42   2.0000      -0.321243        -8.7415
  43   2.0000      -0.309518        -8.4224
  44   2.0000      -0.302258        -8.2249
  45   2.0000      -0.289515        -7.8781
  46   2.0000      -0.280452        -7.6315
  47   2.0000      -0.273636        -7.4460
  48   2.0000      -0.267487        -7.2787
  49   2.0000      -0.220429        -5.9982
  50   2.0000      -0.123961        -3.3732
  51   0.0000      -0.084769        -2.3067
  52   0.0000      -0.018697        -0.5088
  53   0.0000       0.001190         0.0324
  54   0.0000       0.006971         0.1897
  55   0.0000       0.008479         0.2307

MULLIKEN ATOMIC CHARGES
-----------------------
   0 C :   -0.220031
   1 C :   -0.867114
   2 C :   -0.253176
   3 C :   -0.184043
   4 H :    0.248737
   5 H :    0.108620
   6 C :    0.751713
   7 C :    0.295523
   8 N :   -0.514527
   9 N :   -0.616887
  10 H :    0.179817
  11 H :    0.378613
  12 H :    0.369294
  13 H :    0.227744
  14 H :    0.340819
  15 O :   -0.681995
  16 F :   -0.337783
  17 C :   -0.396759
  18 H :    0.003420
  19 H :    0.412411
  20 C :   -0.392201
  21 H :    0.099828
  22 H :    0.184196
  23 C :   -0.331893
  24 H :    0.435662
  25 H :    0.135309
  26 H :    0.239477
  27 H :    0.081849
  28 H :    0.087960
  29 H :    0.215416
Sum of atomic charges:   -0.0000000

LOEWDIN ATOMIC CHARGES
----------------------
   0 C :   -0.235159
   1 C :   -0.118865
   2 C :   -0.189690
   3 C :   -0.089069
   4 H :    0.120880
   5 H :    0.122524
   6 C :   -0.473046
   7 C :   -0.546230
   8 N :    0.155507
   9 N :    0.135310
  10 H :    0.110880
  11 H :    0.052477
  12 H :    0.058889
  13 H :    0.109422
  14 H :    0.065832
  15 O :    0.077714
  16 F :    0.201847
  17 C :   -0.190101
  18 H :    0.097865
  19 H :    0.086529
  20 C :   -0.195028
  21 H :    0.101737
  22 H :    0.107756
  23 C :   -0.200269
  24 H :    0.098895
  25 H :    0.112434
  26 H :    0.086860
  27 H :    0.115670
  28 H :    0.112149
  29 H :    0.106281

  Mayer bond orders larger than 0.100000
B(  0-C ,  1-C ) :   0.9064 B(  0-C ,  7-C ) :   0.1277 B(  0-C , 17-C ) :   0.8333
B(  0-C , 18-H ) :   1.0904 B(  0-C , 19-H ) :   0.7082 B(  0-C , 23-C ) :   0.1548
B(  1-C ,  7-C ) :   1.5025 B(  1-C , 12-H ) :   0.9552 B(  2-C ,  3-C ) :   0.9721
B(  2-C , 20-C ) :   0.1436 B(  2-C , 23-C ) :   1.1019 B(  2-C , 28-H ) :   0.9024
B(  2-C , 29-H ) :   0.8599 B(  3-C ,  4-H ) :   0.8780 B(  3-C ,  5-H ) :   0.8884
B(  3-C ,  6-C ) :   1.1200 B(  3-C , 20-C ) :   0.1654 B(  6-C , 15-O ) :   1.2967
B(  6-C , 16-F ) :   0.7321 B(  6-C , 23-C ) :   0.1011 B(  7-C ,  8-N ) :   0.9679
B(  7-C ,  9-N ) :   0.7973 B(  7-C , 12-H ) :  -0.1000 B(  7-C , 20-C ) :   0.1580
B(  8-N , 13-H ) :   0.8677 B(  8-N , 14-H ) :   0.6589 B(  9-N , 10-H ) :   0.9460
B(  9-N , 11-H ) :   0.6702 B( 17-C , 20-C ) :   1.3004 B( 17-C , 21-H ) :   0.8804
B( 17-C , 22-H ) :   0.8746 B( 17-C , 23-C ) :   0.2693 B( 20-C , 23-C ) :   0.6736
B( 20-C , 24-H ) :   0.8675 B( 20-C , 25-H ) :   0.8010 B( 23-C , 26-H ) :   1.0094
B( 23-C , 27-H ) :   0.8466

Dispersion correction           -0.043918870
FINAL SINGLE POINT ENERGY      -638.084209815856

DIPOLE MOMENT
-------------
                                X             Y             Z
Electronic contribution:     -5.89121       0.11335     -13.45283
Nuclear contribution   :      4.38568       1.15960      13.97148
                        -----------------------------------------
Total Dipole Moment    :     -1.50553       1.27295       0.51865
                        -----------------------------------------
Magnitude (a.u.)       :      2.03863
Magnitude (Debye)      :      5.18180

Rotational constants in cm-1:     0.032892     0.023844     0.017123
Rotational constants in MHz :   986.091711   714.821905   513.334630

                             ****ORCA TERMINATED NORMALLY****
TOTAL RUN TIME: 0 days 0 hours 2 minutes 55 seconds 340 msec
