                         Program Version 5.0.0 -  RELEASE  -
|  1> !TPSS D3BJ RIJCOSX def2-TZVPD def2/J TightSCF xyzfile
|  2>
|  3> *xyzfile 0 1 D5.xyz
|  4>
|  5> %MaxCore 64000
|  6>
|  7> %pal nprocs 4
|  8> end
|  9>
| 10> %scf
| 11>   MaxIter 150
| 12> end
| 13>
| 14>
| 15>                          ****END OF INPUT****

CARTESIAN COORDINATES (ANGSTROEM)
---------------------------------
  C      2.234473   -2.989754   -2.397622
  N      2.756799   -2.945553   -3.765029
  C     -1.104325    0.251374   -2.860056
  C     -0.711893    0.842517   -4.218344
  H      0.154626    1.499800   -4.130909
  H     -1.538134    1.459222   -4.582671
  C     -0.397624   -0.205875   -5.288018
  C      1.987208   -2.590451   -4.818975
  C      0.743221   -3.017493   -4.913524
  N      2.499636   -1.848598   -5.803241
  H      3.309780   -1.292818   -5.558947
  H      1.801025   -1.304298   -6.289129
  H      3.716116   -2.628797   -3.829533
  H      0.395828   -3.627747   -4.185024
  H      0.039201   -2.454383   -5.371367
  O      0.617165   -0.005348   -5.998273
  F     -1.133173   -1.221380   -5.341465
  C      2.191199   -1.619503   -1.715492
  H      2.872783   -3.666368   -1.828014
  H      1.246188   -3.447444   -2.407842
  C      1.298729   -0.554314   -2.359773
  H      1.872917   -1.787955   -0.681310
  H      3.216809   -1.238432   -1.654428
  C     -0.196255   -0.863365   -2.325763
  H      1.612531   -0.371346   -3.393065
  H      1.480944    0.388638   -1.834444
  H     -0.404105   -1.761825   -2.909448
  H     -0.490439   -1.087880   -1.294131
  H     -1.143842    1.066711   -2.129680
  H     -2.114401   -0.156834   -2.930323

 Total Charge           Charge          ....    0
 Multiplicity           Mult            ....    1
 Number of Electrons    NEL             ....  102
 Basis Dimension        Dim             ....  640

ORBITAL ENERGIES
----------------

  NO   OCC          E(Eh)            E(eV)
   0   2.0000     -24.482939      -666.2146
   1   2.0000     -18.899929      -514.2932
   2   2.0000     -14.096070      -383.5736
   3   2.0000     -14.077761      -383.0754
   4   2.0000     -10.161024      -276.4955
   5   2.0000     -10.018626      -272.6207
   6   2.0000     -10.015019      -272.5225
   7   2.0000     -10.012764      -272.4612
   8   2.0000     -10.001811      -272.1631
   9   2.0000      -9.987009      -271.7603
  10   2.0000      -9.985901      -271.7302
  11   2.0000      -9.985361      -271.7155
  12   2.0000      -9.890665      -269.1387
  13   2.0000      -1.248515       -33.9738
  14   2.0000      -0.979810       -26.6620
  15   2.0000      -0.890998       -24.2453
  16   2.0000      -0.815506       -22.1911
  17   2.0000      -0.767984       -20.8979
  18   2.0000      -0.728451       -19.8222
  19   2.0000      -0.680173       -18.5084
  20   2.0000      -0.652547       -17.7567
  21   2.0000      -0.633557       -17.2400
  22   2.0000      -0.605923       -16.4880
  23   2.0000      -0.569718       -15.5028
  24   2.0000      -0.536916       -14.6102
  25   2.0000      -0.518869       -14.1191
  26   2.0000      -0.497261       -13.5312
  27   2.0000      -0.493004       -13.4153
  28   2.0000      -0.482413       -13.1271
  29   2.0000      -0.469951       -12.7880
  30   2.0000      -0.443065       -12.0564
  31   2.0000      -0.438446       -11.9307
  32   2.0000      -0.429729       -11.6935
  33   2.0000      -0.408287       -11.1101
  34   2.0000      -0.402926       -10.9642
  35   2.0000      -0.377298       -10.2668
  36   2.0000      -0.373768       -10.1708
  37   2.0000      -0.370501       -10.0818
  38   2.0000      -0.352323        -9.5872
  39   2.0000      -0.343871        -9.3572
  40   2.0000      -0.339208        -9.2303
  41   2.0000      -0.333694        -9.0803
  42   2.0000      -0.323069        -8.7911
  43   2.0000      -0.320522        -8.7219
  44   2.0000      -0.303931        -8.2704
  45   2.0000      -0.296534        -8.0691
  46   2.0000      -0.292540        -7.9604
  47   2.0000      -0.287082        -7.8119
  48   2.0000      -0.257186        -6.9984
  49   2.0000      -0.202278        -5.5043
  50   2.0000      -0.138684        -3.7738
  51   0.0000      -0.070146        -1.9088
  52   0.0000      -0.013431        -0.3655
  53   0.0000      -0.002810        -0.0765
  54   0.0000       0.005414         0.1473
  55   0.0000       0.013874         0.3775

MULLIKEN ATOMIC CHARGES
-----------------------
   0 C :   -0.417546
   1 N :   -0.267337
   2 C :   -0.311176
   3 C :   -0.219387
   4 H :    0.240848
   5 H :    0.127689
   6 C :    0.724230
   7 C :    0.376178
   8 C :   -1.630105
   9 N :   -0.549140
  10 H :    0.172999
  11 H :    0.302951
  12 H :    0.192610
  13 H :    0.580380
  14 H :    0.777448
  15 O :   -0.698549
  16 F :   -0.286609
  17 C :   -0.318433
  18 H :    0.066456
  19 H :    0.290924
  20 C :   -0.247112
  21 H :    0.134851
  22 H :    0.144564
  23 C :   -0.323857
  24 H :    0.342145
  25 H :    0.147259
  26 H :    0.244848
  27 H :    0.085361
  28 H :    0.086344
  29 H :    0.231170
Sum of atomic charges:   -0.0000000

LOEWDIN ATOMIC CHARGES
----------------------
   0 C :   -0.184536
   1 N :    0.036843
   2 C :   -0.187945
   3 C :   -0.088846
   4 H :    0.118815
   5 H :    0.121673
   6 C :   -0.470229
   7 C :   -0.552604
   8 C :    0.018538
   9 N :    0.131693
  10 H :    0.097949
  11 H :    0.059955
  12 H :    0.127065
  13 H :    0.023865
  14 H :   -0.002849
  15 O :    0.072296
  16 F :    0.195695
  17 C :   -0.177727
  18 H :    0.109208
  19 H :    0.101901
  20 C :   -0.194863
  21 H :    0.106255
  22 H :    0.104081
  23 C :   -0.199400
  24 H :    0.098064
  25 H :    0.112739
  26 H :    0.090047
  27 H :    0.114363
  28 H :    0.110472
  29 H :    0.107483

  Mayer bond orders larger than 0.100000
B(  0-C ,  1-N ) :   0.8624 B(  0-C ,  7-C ) :   0.1090 B(  0-C , 17-C ) :   0.8788
B(  0-C , 18-H ) :   0.9761 B(  0-C , 19-H ) :   0.8534 B(  0-C , 23-C ) :   0.1766
B(  1-N ,  7-C ) :   0.9263 B(  1-N ,  9-N ) :   0.1168 B(  1-N , 12-H ) :   0.8736
B(  2-C ,  3-C ) :   0.9790 B(  2-C , 20-C ) :   0.1697 B(  2-C , 23-C ) :   1.1331
B(  2-C , 26-H ) :   0.1158 B(  2-C , 28-H ) :   0.9208 B(  2-C , 29-H ) :   0.8411
B(  3-C ,  4-H ) :   0.8966 B(  3-C ,  5-H ) :   0.8761 B(  3-C ,  6-C ) :   1.1136
B(  3-C , 20-C ) :   0.1533 B(  6-C , 15-O ) :   1.2660 B(  6-C , 16-F ) :   0.8374
B(  6-C , 23-C ) :   0.1139 B(  7-C ,  8-C ) :   1.6434 B(  7-C ,  9-N ) :   0.7314
B(  7-C , 14-H ) :  -0.1489 B(  7-C , 15-O ) :   0.1290 B(  7-C , 20-C ) :   0.1315
B(  8-C , 13-H ) :   0.7287 B(  8-C , 14-H ) :   0.3252 B(  9-N , 10-H ) :   0.9254
B(  9-N , 11-H ) :   0.7511 B( 13-H , 14-H ) :   0.2069 B( 17-C , 20-C ) :   1.2116
B( 17-C , 21-H ) :   0.9015 B( 17-C , 22-H ) :   0.9102 B( 17-C , 23-C ) :   0.2421
B( 17-C , 24-H ) :   0.1006 B( 20-C , 23-C ) :   0.6464 B( 20-C , 24-H ) :   0.9369
B( 20-C , 25-H ) :   0.7691 B( 23-C , 26-H ) :   1.0076 B( 23-C , 27-H ) :   0.8297

Dispersion correction           -0.043991777
FINAL SINGLE POINT ENERGY      -638.076578036512

DIPOLE MOMENT
-------------
                                X             Y             Z
Electronic contribution:     -4.31704       0.10765     -12.46466
Nuclear contribution   :      4.07548       1.14852      13.79455
                        -----------------------------------------
Total Dipole Moment    :     -0.24156       1.25616       1.32989
                        -----------------------------------------
Magnitude (a.u.)       :      1.84524
Magnitude (Debye)      :      4.69022

Rotational constants in cm-1:     0.033274     0.023559     0.016968
Rotational constants in MHz :   997.539108   706.293545   508.690532

                             ****ORCA TERMINATED NORMALLY****
TOTAL RUN TIME: 0 days 0 hours 2 minutes 28 seconds 945 msec
