                         Program Version 5.0.0 -  RELEASE  -
|  1> !TPSS D3BJ RIJCOSX def2-TZVPD def2/J TightSCF xyzfile
|  2>
|  3> *xyzfile 0 1 D6.xyz
|  4>
|  5> %MaxCore 64000
|  6>
|  7> %pal nprocs 4
|  8> end
|  9>
| 10> %scf
| 11>   MaxIter 150
| 12> end
| 13>
| 14>
| 15>                          ****END OF INPUT****

CARTESIAN COORDINATES (ANGSTROEM)
---------------------------------
  C      2.234473   -2.989754   -2.397622
  N      2.756799   -2.945553   -3.765029
  C     -1.104325    0.251374   -2.860056
  C     -0.711893    0.842517   -4.218344
  H      0.154626    1.499800   -4.130909
  H     -1.538134    1.459222   -4.582671
  C     -0.397624   -0.205875   -5.288018
  C      1.987208   -2.590451   -4.818975
  N      0.743221   -3.017493   -4.913524
  C      2.499636   -1.848598   -5.803241
  H      3.309780   -1.292818   -5.558947
  H      1.801025   -1.304298   -6.289129
  H      3.716116   -2.628797   -3.829533
  H      0.395828   -3.627747   -4.185024
  H      0.039201   -2.454383   -5.371367
  O      0.617165   -0.005348   -5.998273
  F     -1.133173   -1.221380   -5.341465
  C      2.191199   -1.619503   -1.715492
  H      2.872783   -3.666368   -1.828014
  H      1.246188   -3.447444   -2.407842
  C      1.298729   -0.554314   -2.359773
  H      1.872917   -1.787955   -0.681310
  H      3.216809   -1.238432   -1.654428
  C     -0.196255   -0.863365   -2.325763
  H      1.612531   -0.371346   -3.393065
  H      1.480944    0.388638   -1.834444
  H     -0.404105   -1.761825   -2.909448
  H     -0.490439   -1.087880   -1.294131
  H     -1.143842    1.066711   -2.129680
  H     -2.114401   -0.156834   -2.930323

 Total Charge           Charge          ....    0
 Multiplicity           Mult            ....    1
 Number of Electrons    NEL             ....  102
 Basis Dimension        Dim             ....  640

ORBITAL ENERGIES
----------------

  NO   OCC          E(Eh)            E(eV)
   0   2.0000     -24.496308      -666.5784
   1   2.0000     -18.896519      -514.2004
   2   2.0000     -14.094836      -383.5400
   3   2.0000     -14.092142      -383.4667
   4   2.0000     -10.156961      -276.3850
   5   2.0000     -10.021167      -272.6898
   6   2.0000     -10.019668      -272.6490
   7   2.0000     -10.013180      -272.4725
   8   2.0000     -10.005594      -272.2660
   9   2.0000      -9.993875      -271.9472
  10   2.0000      -9.989667      -271.8327
  11   2.0000      -9.987846      -271.7831
  12   2.0000      -9.878690      -268.8128
  13   2.0000      -1.261300       -34.3217
  14   2.0000      -0.975423       -26.5426
  15   2.0000      -0.896213       -24.3872
  16   2.0000      -0.821652       -22.3583
  17   2.0000      -0.772324       -21.0160
  18   2.0000      -0.733039       -19.9470
  19   2.0000      -0.687714       -18.7136
  20   2.0000      -0.655148       -17.8275
  21   2.0000      -0.627362       -17.0714
  22   2.0000      -0.609767       -16.5926
  23   2.0000      -0.568548       -15.4710
  24   2.0000      -0.553142       -15.0518
  25   2.0000      -0.534459       -14.5434
  26   2.0000      -0.510551       -13.8928
  27   2.0000      -0.503304       -13.6956
  28   2.0000      -0.484502       -13.1840
  29   2.0000      -0.460677       -12.5357
  30   2.0000      -0.448882       -12.2147
  31   2.0000      -0.438836       -11.9413
  32   2.0000      -0.428209       -11.6522
  33   2.0000      -0.419177       -11.4064
  34   2.0000      -0.403351       -10.9757
  35   2.0000      -0.396687       -10.7944
  36   2.0000      -0.372989       -10.1496
  37   2.0000      -0.366314        -9.9679
  38   2.0000      -0.349072        -9.4987
  39   2.0000      -0.344706        -9.3799
  40   2.0000      -0.342098        -9.3089
  41   2.0000      -0.336257        -9.1500
  42   2.0000      -0.328736        -8.9454
  43   2.0000      -0.319489        -8.6937
  44   2.0000      -0.300747        -8.1838
  45   2.0000      -0.298855        -8.1322
  46   2.0000      -0.296739        -8.0747
  47   2.0000      -0.291363        -7.9284
  48   2.0000      -0.244362        -6.6494
  49   2.0000      -0.208701        -5.6790
  50   2.0000      -0.129456        -3.5227
  51   0.0000      -0.069741        -1.8977
  52   0.0000      -0.017178        -0.4675
  53   0.0000      -0.002840        -0.0773
  54   0.0000      -0.001211        -0.0330
  55   0.0000       0.009849         0.2680

MULLIKEN ATOMIC CHARGES
-----------------------
   0 C :   -0.461954
   1 N :   -0.281451
   2 C :   -0.256534
   3 C :   -0.218387
   4 H :    0.233922
   5 H :    0.112613
   6 C :    0.682286
   7 C :    0.308605
   8 N :   -0.492892
   9 C :   -1.260323
  10 H :    0.278730
  11 H :    0.678793
  12 H :    0.213989
  13 H :    0.261523
  14 H :    0.298965
  15 O :   -0.596973
  16 F :   -0.355303
  17 C :   -0.358054
  18 H :    0.081566
  19 H :    0.295533
  20 C :   -0.249808
  21 H :    0.155028
  22 H :    0.146483
  23 C :   -0.393736
  24 H :    0.395943
  25 H :    0.132144
  26 H :    0.250897
  27 H :    0.086619
  28 H :    0.087575
  29 H :    0.224200
Sum of atomic charges:   -0.0000000

LOEWDIN ATOMIC CHARGES
----------------------
   0 C :   -0.190040
   1 N :    0.038793
   2 C :   -0.190248
   3 C :   -0.089516
   4 H :    0.120680
   5 H :    0.121226
   6 C :   -0.476957
   7 C :   -0.560844
   8 N :    0.153858
   9 C :    0.004918
  10 H :    0.017736
  11 H :   -0.018811
  12 H :    0.134795
  13 H :    0.100248
  14 H :    0.074405
  15 O :    0.083879
  16 F :    0.196161
  17 C :   -0.177936
  18 H :    0.108128
  19 H :    0.096533
  20 C :   -0.191172
  21 H :    0.104987
  22 H :    0.107196
  23 C :   -0.202792
  24 H :    0.102703
  25 H :    0.114405
  26 H :    0.086020
  27 H :    0.114045
  28 H :    0.111197
  29 H :    0.106406

  Mayer bond orders larger than 0.100000
B(  0-C ,  1-N ) :   0.9386 B(  0-C ,  8-N ) :   0.1284 B(  0-C , 17-C ) :   0.8683
B(  0-C , 18-H ) :   1.0018 B(  0-C , 19-H ) :   0.8430 B(  0-C , 23-C ) :   0.1693
B(  1-N ,  7-C ) :   0.9514 B(  1-N , 12-H ) :   0.8226 B(  2-C ,  3-C ) :   0.9760
B(  2-C , 20-C ) :   0.1617 B(  2-C , 23-C ) :   1.1155 B(  2-C , 28-H ) :   0.9095
B(  2-C , 29-H ) :   0.8538 B(  3-C ,  4-H ) :   0.8851 B(  3-C ,  5-H ) :   0.8890
B(  3-C ,  6-C ) :   1.1297 B(  3-C , 20-C ) :   0.1445 B(  6-C , 15-O ) :   1.4234
B(  6-C , 16-F ) :   0.6961 B(  6-C , 23-C ) :   0.1038 B(  7-C ,  8-N ) :   0.8505
B(  7-C ,  9-C ) :   1.5207 B(  7-C , 10-H ) :  -0.1154 B(  7-C , 11-H ) :  -0.1139
B(  7-C , 20-C ) :   0.1010 B(  8-N , 13-H ) :   0.8161 B(  8-N , 14-H ) :   0.7054
B(  9-C , 10-H ) :   1.1394 B(  9-C , 11-H ) :   0.5481 B( 11-H , 15-O ) :  -0.1160
B( 15-O , 16-F ) :   0.1009 B( 17-C , 20-C ) :   1.2638 B( 17-C , 21-H ) :   0.9177
B( 17-C , 22-H ) :   0.8930 B( 17-C , 23-C ) :   0.2553 B( 20-C , 23-C ) :   0.6271
B( 20-C , 24-H ) :   0.9008 B( 20-C , 25-H ) :   0.7813 B( 20-C , 26-H ) :  -0.1003
B( 23-C , 26-H ) :   0.9861 B( 23-C , 27-H ) :   0.8555

Dispersion correction           -0.043843529
FINAL SINGLE POINT ENERGY      -638.061658298190

DIPOLE MOMENT
-------------
                                X             Y             Z
Electronic contribution:     -5.61642      -0.78367     -11.75834
Nuclear contribution   :      4.34606       1.32859      13.65749
                        -----------------------------------------
Total Dipole Moment    :     -1.27035       0.54492       1.89915
                        -----------------------------------------
Magnitude (a.u.)       :      2.34893
Magnitude (Debye)      :      5.97052

Rotational constants in cm-1:     0.033551     0.023540     0.017085
Rotational constants in MHz :  1005.818710   705.725032   512.192443

                             ****ORCA TERMINATED NORMALLY****
TOTAL RUN TIME: 0 days 0 hours 2 minutes 20 seconds 677 msec
