                         Program Version 5.0.0 -  RELEASE  -
|  1> !wB97X-D3 RIJCOSX def2-TZVP def2/J TightSCF
|  2> *xyz -1 1
|  3> C         -0.71189        0.84252       -4.21834
|  4> C         -0.39762       -0.20587       -5.28802
|  5> O          0.61717       -0.00535       -5.99827
|  6> O         -1.13317       -1.22138       -5.34147
|  7> H         -0.00939        1.64646       -4.28960
|  8> H         -0.64409        0.39449       -3.24902
|  9> H         -1.70192        1.21961       -4.36851
| 10> *
| 11>
| 12> %MaxCore 64000
| 13>
| 14> %pal nprocs 18
| 15> end
| 16>
| 17> %scf
| 18>   MaxIter 150
| 19> end
| 20>
| 21>
| 22>                          ****END OF INPUT****

CARTESIAN COORDINATES (ANGSTROEM)
---------------------------------
  C     -0.711890    0.842520   -4.218340
  C     -0.397620   -0.205870   -5.288020
  O      0.617170   -0.005350   -5.998270
  O     -1.133170   -1.221380   -5.341470
  H     -0.009390    1.646460   -4.289600
  H     -0.644090    0.394490   -3.249020
  H     -1.701920    1.219610   -4.368510

 Total Charge           Charge          ....   -1
 Multiplicity           Mult            ....    1
 Number of Electrons    NEL             ....   32
 Basis Dimension        Dim             ....  142

ORBITAL ENERGIES
----------------

  NO   OCC          E(Eh)            E(eV)
   0   2.0000     -18.946919      -515.5719
   1   2.0000     -18.946085      -515.5492
   2   2.0000     -10.146812      -276.1088
   3   2.0000     -10.078754      -274.2568
   4   2.0000      -0.921897       -25.0861
   5   2.0000      -0.826794       -22.4982
   6   2.0000      -0.652598       -17.7581
   7   2.0000      -0.401846       -10.9348
   8   2.0000      -0.354230        -9.6391
   9   2.0000      -0.339686        -9.2433
  10   2.0000      -0.316307        -8.6071
  11   2.0000      -0.272293        -7.4095
  12   2.0000      -0.253185        -6.8895
  13   2.0000      -0.127266        -3.4631
  14   2.0000      -0.123438        -3.3589
  15   2.0000      -0.109158        -2.9703
  16   0.0000       0.286250         7.7893
  17   0.0000       0.331048         9.0083
  18   0.0000       0.357670         9.7327
  19   0.0000       0.386152        10.5077
  20   0.0000       0.393265        10.7013

MULLIKEN ATOMIC CHARGES
-----------------------
   0 C :   -0.304977
   1 C :    0.274380
   2 O :   -0.573827
   3 O :   -0.578488
   4 H :    0.061137
   5 H :    0.062555
   6 H :    0.059219
Sum of atomic charges:   -1.0000000

LOEWDIN ATOMIC CHARGES
----------------------
   0 C :   -0.324957
   1 C :   -0.717532
   2 O :   -0.129060
   3 O :   -0.132027
   4 H :    0.099008
   5 H :    0.103047
   6 H :    0.101522

  Mayer bond orders larger than 0.100000
B(  0-C ,  1-C ) :   0.9278 B(  0-C ,  4-H ) :   0.9747 B(  0-C ,  5-H ) :   0.9714
B(  0-C ,  6-H ) :   0.9712 B(  1-C ,  2-O ) :   1.8439 B(  1-C ,  3-O ) :   1.8336

Dispersion correction           -0.000904839
FINAL SINGLE POINT ENERGY      -228.547522769885

DIPOLE MOMENT
-------------
                                X             Y             Z
Electronic contribution:      0.76016      -2.49423      -2.52868
Nuclear contribution   :     -1.06347       3.45957       3.47855
                        -----------------------------------------
Total Dipole Moment    :     -0.30330       0.96534       0.94988
                        -----------------------------------------
Magnitude (a.u.)       :      1.38786
Magnitude (Debye)      :      3.52765

Rotational constants in cm-1:     0.393276     0.333956     0.186777
Rotational constants in MHz : 11790.103634 10011.747201  5599.422324

                             ****ORCA TERMINATED NORMALLY****
TOTAL RUN TIME: 0 days 0 hours 0 minutes 8 seconds 511 msec
