                         Program Version 5.0.0 -  RELEASE  -
|  1> !wB97X-D3 RIJCOSX def2-TZVP def2/J TightSCF
|  2> *xyz 1 1
|  3> C          2.23447       -2.98975       -2.39762
|  4> N          2.75680       -2.94555       -3.76503
|  5> C          1.98721       -2.59045       -4.81898
|  6> N          0.74322       -3.01749       -4.91352
|  7> N          2.49964       -1.84860       -5.80324
|  8> H          3.30978       -1.29282       -5.55895
|  9> H          1.80103       -1.30430       -6.28913
| 10> H          3.71612       -2.62880       -3.82953
| 11> H          0.39583       -3.62775       -4.18502
| 12> H          0.03920       -2.45438       -5.37137
| 13> H          1.22098       -3.33251       -2.41386
| 14> H          2.27280       -2.00995       -1.96933
| 15> H          2.82798       -3.65908       -1.81056
| 16> *
| 17>
| 18> %MaxCore 64000
| 19>
| 20> %pal nprocs 18
| 21> end
| 22>
| 23> %scf
| 24>   MaxIter 150
| 25> end
| 26>
| 27>
| 28>                          ****END OF INPUT****

CARTESIAN COORDINATES (ANGSTROEM)
---------------------------------
  C      2.234470   -2.989750   -2.397620
  N      2.756800   -2.945550   -3.765030
  C      1.987210   -2.590450   -4.818980
  N      0.743220   -3.017490   -4.913520
  N      2.499640   -1.848600   -5.803240
  H      3.309780   -1.292820   -5.558950
  H      1.801030   -1.304300   -6.289130
  H      3.716120   -2.628800   -3.829530
  H      0.395830   -3.627750   -4.185020
  H      0.039200   -2.454380   -5.371370
  H      1.220980   -3.332510   -2.413860
  H      2.272800   -2.009950   -1.969330
  H      2.827980   -3.659080   -1.810560

 Total Charge           Charge          ....    1
 Multiplicity           Mult            ....    1
 Number of Electrons    NEL             ....   40
 Basis Dimension        Dim             ....  203

ORBITAL ENERGIES
----------------

  NO   OCC          E(Eh)            E(eV)
   0   2.0000     -14.655364      -398.7927
   1   2.0000     -14.652154      -398.7054
   2   2.0000     -14.651239      -398.6805
   3   2.0000     -10.623049      -289.0679
   4   2.0000     -10.480661      -285.1933
   5   2.0000      -1.344395       -36.5828
   6   2.0000      -1.227204       -33.3939
   7   2.0000      -1.222941       -33.2779
   8   2.0000      -1.018465       -27.7139
   9   2.0000      -0.942350       -25.6426
  10   2.0000      -0.894169       -24.3316
  11   2.0000      -0.857544       -23.3350
  12   2.0000      -0.805877       -21.9290
  13   2.0000      -0.788525       -21.4568
  14   2.0000      -0.748624       -20.3711
  15   2.0000      -0.740420       -20.1478
  16   2.0000      -0.696017       -18.9396
  17   2.0000      -0.680361       -18.5136
  18   2.0000      -0.588147       -16.0043
  19   2.0000      -0.552916       -15.0456
  20   0.0000      -0.114953        -3.1280
  21   0.0000      -0.074348        -2.0231
  22   0.0000      -0.037380        -1.0172
  23   0.0000      -0.025951        -0.7062
  24   0.0000      -0.003626        -0.0987

MULLIKEN ATOMIC CHARGES
-----------------------
   0 C :   -0.231819
   1 N :   -0.308485
   2 C :    0.459596
   3 N :   -0.422883
   4 N :   -0.395671
   5 H :    0.285302
   6 H :    0.284932
   7 H :    0.265705
   8 H :    0.293898
   9 H :    0.301157
  10 H :    0.112792
  11 H :    0.169440
  12 H :    0.186036
Sum of atomic charges:    1.0000000

LOEWDIN ATOMIC CHARGES
----------------------
   0 C :   -0.258090
   1 N :    0.125647
   2 C :   -0.394948
   3 N :    0.083491
   4 N :    0.058165
   5 H :    0.197950
   6 H :    0.201708
   7 H :    0.206902
   8 H :    0.200092
   9 H :    0.202247
  10 H :    0.117797
  11 H :    0.125371
  12 H :    0.133668

  Mayer bond orders larger than 0.100000
B(  0-C ,  1-N ) :   0.8888 B(  0-C , 10-H ) :   0.9757 B(  0-C , 11-H ) :   0.9649
B(  0-C , 12-H ) :   0.9592 B(  1-N ,  2-C ) :   1.3451 B(  1-N ,  7-H ) :   0.9044
B(  2-C ,  3-N ) :   1.3491 B(  2-C ,  4-N ) :   1.3305 B(  3-N ,  8-H ) :   0.8936
B(  3-N ,  9-H ) :   0.8843 B(  4-N ,  5-H ) :   0.8946 B(  4-N ,  6-H ) :   0.8911

Dispersion correction           -0.002421492
FINAL SINGLE POINT ENERGY      -245.094987548930

DIPOLE MOMENT
-------------
                                X             Y             Z
Electronic contribution:      0.26302      -0.02693      -3.01905
Nuclear contribution   :     -0.61773       0.88991       3.03801
                        -----------------------------------------
Total Dipole Moment    :     -0.35471       0.86299       0.01896
                        -----------------------------------------
Magnitude (a.u.)       :      0.93323
Magnitude (Debye)      :      2.37209

Rotational constants in cm-1:     0.302561     0.133407     0.098295
Rotational constants in MHz :  9070.558660  3999.431512  2946.819102

                             ****ORCA TERMINATED NORMALLY****
TOTAL RUN TIME: 0 days 0 hours 0 minutes 13 seconds 973 msec
