                         Program Version 5.0.0 -  RELEASE  -
|  1> !wB97X-D3 RIJCOSX def2-TZVP def2/J TightSCF
|  2> *xyz 0 1
|  3> C         -0.71189        0.84252       -4.21834
|  4> C         -0.39762       -0.20587       -5.28802
|  5> F          0.61717       -0.00535       -5.99827
|  6> O         -1.13317       -1.22138       -5.34147
|  7> H         -0.00939        1.64646       -4.28960
|  8> H         -0.64409        0.39449       -3.24902
|  9> H         -1.70192        1.21961       -4.36851
| 10> *
| 11>
| 12> %MaxCore 64000
| 13>
| 14> %pal nprocs 18
| 15> end
| 16>
| 17> %scf
| 18>   MaxIter 150
| 19> end
| 20>
| 21>
| 22>                          ****END OF INPUT****

CARTESIAN COORDINATES (ANGSTROEM)
---------------------------------
  C     -0.711890    0.842520   -4.218340
  C     -0.397620   -0.205870   -5.288020
  F      0.617170   -0.005350   -5.998270
  O     -1.133170   -1.221380   -5.341470
  H     -0.009390    1.646460   -4.289600
  H     -0.644090    0.394490   -3.249020
  H     -1.701920    1.219610   -4.368510

 Total Charge           Charge          ....    0
 Multiplicity           Mult            ....    1
 Number of Electrons    NEL             ....   32
 Basis Dimension        Dim             ....  142

ORBITAL ENERGIES
----------------

  NO   OCC          E(Eh)            E(eV)
   0   2.0000     -24.856429      -676.3778
   1   2.0000     -19.235385      -523.4214
   2   2.0000     -10.459219      -284.6098
   3   2.0000     -10.299563      -280.2654
   4   2.0000      -1.437540       -39.1175
   5   2.0000      -1.148964       -31.2649
   6   2.0000      -0.888267       -24.1710
   7   2.0000      -0.767989       -20.8981
   8   2.0000      -0.653684       -17.7876
   9   2.0000      -0.650353       -17.6970
  10   2.0000      -0.608527       -16.5589
  11   2.0000      -0.545141       -14.8340
  12   2.0000      -0.531965       -14.4755
  13   2.0000      -0.499567       -13.5939
  14   2.0000      -0.448292       -12.1986
  15   2.0000      -0.391254       -10.6466
  16   0.0000       0.057632         1.5683
  17   0.0000       0.117892         3.2080
  18   0.0000       0.182256         4.9594
  19   0.0000       0.199313         5.4236
  20   0.0000       0.207737         5.6528

MULLIKEN ATOMIC CHARGES
-----------------------
   0 C :   -0.351525
   1 C :    0.388771
   2 F :   -0.104624
   3 O :   -0.359183
   4 H :    0.125743
   5 H :    0.151103
   6 H :    0.149716
Sum of atomic charges:   -0.0000000

LOEWDIN ATOMIC CHARGES
----------------------
   0 C :   -0.261413
   1 C :   -0.512250
   2 F :    0.322225
   3 O :    0.053735
   4 H :    0.122331
   5 H :    0.138064
   6 H :    0.137307

  Mayer bond orders larger than 0.100000
B(  0-C ,  1-C ) :   0.9914 B(  0-C ,  4-H ) :   0.9673 B(  0-C ,  5-H ) :   0.9526
B(  0-C ,  6-H ) :   0.9543 B(  1-C ,  2-F ) :   1.1587 B(  1-C ,  3-O ) :   2.0388

Dispersion correction           -0.000909835
FINAL SINGLE POINT ENERGY      -253.120118339371

DIPOLE MOMENT
-------------
                                X             Y             Z
Electronic contribution:      2.42128      -2.26629      -3.81685
Nuclear contribution   :     -2.12043       3.31297       4.29327
                        -----------------------------------------
Total Dipole Moment    :      0.30085       1.04668       0.47643
                        -----------------------------------------
Magnitude (a.u.)       :      1.18871
Magnitude (Debye)      :      3.02146

Rotational constants in cm-1:     0.368089     0.321934     0.177312
Rotational constants in MHz : 11035.034199  9651.332398  5315.666874

                             ****ORCA TERMINATED NORMALLY****
TOTAL RUN TIME: 0 days 0 hours 0 minutes 8 seconds 13 msec
