                         Program Version 5.0.0 -  RELEASE  -
|  1> !wB97X-D3 RIJCOSX def2-TZVP def2/J TightSCF
|  2> *xyz 0 1
|  3> C          2.23447       -2.98975       -2.39762
|  4> C          2.75680       -2.94555       -3.76503
|  5> C          1.98721       -2.59045       -4.81898
|  6> N          0.74322       -3.01749       -4.91352
|  7> N          2.49964       -1.84860       -5.80324
|  8> H          3.30978       -1.29282       -5.55895
|  9> H          1.80103       -1.30430       -6.28913
| 10> H          3.71612       -2.62880       -3.82953
| 11> H          0.39583       -3.62775       -4.18502
| 12> H          0.03920       -2.45438       -5.37137
| 13> H          1.22098       -3.33251       -2.41386
| 14> H          2.27280       -2.00995       -1.96933
| 15> H          2.82798       -3.65908       -1.81056
| 16> *
| 17>
| 18> %MaxCore 64000
| 19>
| 20> %pal nprocs 18
| 21> end
| 22>
| 23> %scf
| 24>   MaxIter 150
| 25> end
| 26>
| 27>
| 28>                          ****END OF INPUT****

CARTESIAN COORDINATES (ANGSTROEM)
---------------------------------
  C      2.234470   -2.989750   -2.397620
  C      2.756800   -2.945550   -3.765030
  C      1.987210   -2.590450   -4.818980
  N      0.743220   -3.017490   -4.913520
  N      2.499640   -1.848600   -5.803240
  H      3.309780   -1.292820   -5.558950
  H      1.801030   -1.304300   -6.289130
  H      3.716120   -2.628800   -3.829530
  H      0.395830   -3.627750   -4.185020
  H      0.039200   -2.454380   -5.371370
  H      1.220980   -3.332510   -2.413860
  H      2.272800   -2.009950   -1.969330
  H      2.827980   -3.659080   -1.810560

 Total Charge           Charge          ....    0
 Multiplicity           Mult            ....    1
 Number of Electrons    NEL             ....   40
 Basis Dimension        Dim             ....  203

ORBITAL ENERGIES
----------------

  NO   OCC          E(Eh)            E(eV)
   0   2.0000     -14.424573      -392.5126
   1   2.0000     -14.420481      -392.4012
   2   2.0000     -10.321899      -280.8732
   3   2.0000     -10.237455      -278.5753
   4   2.0000     -10.196426      -277.4589
   5   2.0000      -1.087402       -29.5897
   6   2.0000      -0.993591       -27.0370
   7   2.0000      -0.866290       -23.5729
   8   2.0000      -0.765222       -20.8228
   9   2.0000      -0.692255       -18.8372
  10   2.0000      -0.644122       -17.5275
  11   2.0000      -0.607999       -16.5445
  12   2.0000      -0.566807       -15.4236
  13   2.0000      -0.536303       -14.5935
  14   2.0000      -0.500384       -13.6161
  15   2.0000      -0.473046       -12.8722
  16   2.0000      -0.452845       -12.3225
  17   2.0000      -0.431020       -11.7287
  18   2.0000      -0.369325       -10.0499
  19   2.0000      -0.243107        -6.6153
  20   0.0000       0.098215         2.6726
  21   0.0000       0.126487         3.4419
  22   0.0000       0.143857         3.9146
  23   0.0000       0.155513         4.2317
  24   0.0000       0.181107         4.9282

MULLIKEN ATOMIC CHARGES
-----------------------
   0 C :   -0.261884
   1 C :   -0.358897
   2 C :    0.351808
   3 N :   -0.495833
   4 N :   -0.481656
   5 H :    0.249694
   6 H :    0.216942
   7 H :    0.059394
   8 H :    0.251225
   9 H :    0.223472
  10 H :    0.039689
  11 H :    0.096555
  12 H :    0.109491
Sum of atomic charges:   -0.0000000

LOEWDIN ATOMIC CHARGES
----------------------
   0 C :   -0.318084
   1 C :   -0.314135
   2 C :   -0.466165
   3 N :   -0.003416
   4 N :   -0.025076
   5 H :    0.176289
   6 H :    0.164311
   7 H :    0.112298
   8 H :    0.178593
   9 H :    0.161018
  10 H :    0.105830
  11 H :    0.112482
  12 H :    0.116055

  Mayer bond orders larger than 0.100000
B(  0-C ,  1-C ) :   0.9853 B(  0-C , 10-H ) :   0.9839 B(  0-C , 11-H ) :   0.9747
B(  0-C , 12-H ) :   0.9892 B(  1-C ,  2-C ) :   1.6479 B(  1-C ,  7-H ) :   1.0223
B(  2-C ,  3-N ) :   1.1400 B(  2-C ,  4-N ) :   1.1289 B(  3-N ,  8-H ) :   0.9246
B(  3-N ,  9-H ) :   0.9151 B(  4-N ,  5-H ) :   0.9208 B(  4-N ,  6-H ) :   0.9271

Dispersion correction           -0.002422996
FINAL SINGLE POINT ENERGY      -228.615119162425

DIPOLE MOMENT
-------------
                                X             Y             Z
Electronic contribution:     -0.33794       0.10145      -3.48088
Nuclear contribution   :     -0.47056       0.83150       3.15332
                        -----------------------------------------
Total Dipole Moment    :     -0.80850       0.93295      -0.32756
                        -----------------------------------------
Magnitude (a.u.)       :      1.27724
Magnitude (Debye)      :      3.24650

Rotational constants in cm-1:     0.307275     0.134774     0.099280
Rotational constants in MHz :  9211.860934  4040.421317  2976.324646

                             ****ORCA TERMINATED NORMALLY****
TOTAL RUN TIME: 0 days 0 hours 0 minutes 16 seconds 133 msec
