                         Program Version 5.0.0 -  RELEASE  -
|  1> !wB97X-D3 RIJCOSX def2-TZVP def2/J TightSCF
|  2> *xyz 0 1
|  3> C         -0.71189        0.84252       -4.21834
|  4> C         -0.39762       -0.20587       -5.28802
|  5> O          0.61717       -0.00535       -5.99827
|  6> F         -1.13317       -1.22138       -5.34147
|  7> H         -0.00939        1.64646       -4.28960
|  8> H         -0.64409        0.39449       -3.24902
|  9> H         -1.70192        1.21961       -4.36851
| 10> *
| 11>
| 12> %MaxCore 64000
| 13>
| 14> %pal nprocs 18
| 15> end
| 16>
| 17> %scf
| 18>   MaxIter 150
| 19> end
| 20>
| 21>
| 22>                          ****END OF INPUT****

CARTESIAN COORDINATES (ANGSTROEM)
---------------------------------
  C     -0.711890    0.842520   -4.218340
  C     -0.397620   -0.205870   -5.288020
  O      0.617170   -0.005350   -5.998270
  F     -1.133170   -1.221380   -5.341470
  H     -0.009390    1.646460   -4.289600
  H     -0.644090    0.394490   -3.249020
  H     -1.701920    1.219610   -4.368510

 Total Charge           Charge          ....    0
 Multiplicity           Mult            ....    1
 Number of Electrons    NEL             ....   32
 Basis Dimension        Dim             ....  142

ORBITAL ENERGIES
----------------

  NO   OCC          E(Eh)            E(eV)
   0   2.0000     -24.856944      -676.3918
   1   2.0000     -19.235318      -523.4196
   2   2.0000     -10.458857      -284.6000
   3   2.0000     -10.299275      -280.2575
   4   2.0000      -1.437573       -39.1183
   5   2.0000      -1.149335       -31.2750
   6   2.0000      -0.887782       -24.1578
   7   2.0000      -0.768083       -20.9006
   8   2.0000      -0.654423       -17.8078
   9   2.0000      -0.649987       -17.6871
  10   2.0000      -0.607960       -16.5434
  11   2.0000      -0.544358       -14.8127
  12   2.0000      -0.532614       -14.4932
  13   2.0000      -0.499418       -13.5899
  14   2.0000      -0.450712       -12.2645
  15   2.0000      -0.389296       -10.5933
  16   0.0000       0.061550         1.6749
  17   0.0000       0.117439         3.1957
  18   0.0000       0.188777         5.1369
  19   0.0000       0.189510         5.1568
  20   0.0000       0.206900         5.6300

MULLIKEN ATOMIC CHARGES
-----------------------
   0 C :   -0.347600
   1 C :    0.386630
   2 O :   -0.360052
   3 F :   -0.105248
   4 H :    0.152763
   5 H :    0.138031
   6 H :    0.135476
Sum of atomic charges:    0.0000000

LOEWDIN ATOMIC CHARGES
----------------------
   0 C :   -0.260609
   1 C :   -0.512338
   2 O :    0.054256
   3 F :    0.321926
   4 H :    0.135637
   5 H :    0.131380
   6 H :    0.129747

  Mayer bond orders larger than 0.100000
B(  0-C ,  1-C ) :   1.0023 B(  0-C ,  4-H ) :   0.9708 B(  0-C ,  5-H ) :   0.9494
B(  0-C ,  6-H ) :   0.9511 B(  1-C ,  2-O ) :   2.0384 B(  1-C ,  3-F ) :   1.1555

Dispersion correction           -0.000897078
FINAL SINGLE POINT ENERGY      -253.120142954903

DIPOLE MOMENT
-------------
                                X             Y             Z
Electronic contribution:     -0.44076      -4.25804      -2.74453
Nuclear contribution   :     -0.31181       4.56949       3.61460
                        -----------------------------------------
Total Dipole Moment    :     -0.75256       0.31145       0.87007
                        -----------------------------------------
Magnitude (a.u.)       :      1.19180
Magnitude (Debye)      :      3.02931

Rotational constants in cm-1:     0.370228     0.320104     0.177247
Rotational constants in MHz : 11099.151631  9596.483000  5313.726171

                             ****ORCA TERMINATED NORMALLY****
TOTAL RUN TIME: 0 days 0 hours 0 minutes 7 seconds 931 msec
