                         Program Version 5.0.0 -  RELEASE  -
|  1> !wB97X-D3 RIJCOSX def2-TZVP def2/J TightSCF
|  2> *xyz 0 1
|  3> C          2.23447       -2.98975       -2.39762
|  4> N          2.75680       -2.94555       -3.76503
|  5> C          1.98721       -2.59045       -4.81898
|  6> C          0.74322       -3.01749       -4.91352
|  7> N          2.49964       -1.84860       -5.80324
|  8> H          3.30978       -1.29282       -5.55895
|  9> H          1.80103       -1.30430       -6.28913
| 10> H          3.71612       -2.62880       -3.82953
| 11> H          0.39583       -3.62775       -4.18502
| 12> H          0.03920       -2.45438       -5.37137
| 13> H          1.22098       -3.33251       -2.41386
| 14> H          2.27280       -2.00995       -1.96933
| 15> H          2.82798       -3.65908       -1.81056
| 16> *
| 17>
| 18> %MaxCore 64000
| 19>
| 20> %pal nprocs 18
| 21> end
| 22>
| 23> %scf
| 24>   MaxIter 150
| 25> end
| 26>
| 27>
| 28>                          ****END OF INPUT****

CARTESIAN COORDINATES (ANGSTROEM)
---------------------------------
  C      2.234470   -2.989750   -2.397620
  N      2.756800   -2.945550   -3.765030
  C      1.987210   -2.590450   -4.818980
  C      0.743220   -3.017490   -4.913520
  N      2.499640   -1.848600   -5.803240
  H      3.309780   -1.292820   -5.558950
  H      1.801030   -1.304300   -6.289130
  H      3.716120   -2.628800   -3.829530
  H      0.395830   -3.627750   -4.185020
  H      0.039200   -2.454380   -5.371370
  H      1.220980   -3.332510   -2.413860
  H      2.272800   -2.009950   -1.969330
  H      2.827980   -3.659080   -1.810560

 Total Charge           Charge          ....    0
 Multiplicity           Mult            ....    1
 Number of Electrons    NEL             ....   40
 Basis Dimension        Dim             ....  203

ORBITAL ENERGIES
----------------

  NO   OCC          E(Eh)            E(eV)
   0   2.0000     -14.424202      -392.5025
   1   2.0000     -14.420450      -392.4004
   2   2.0000     -10.321617      -280.8655
   3   2.0000     -10.296580      -280.1842
   4   2.0000     -10.187598      -277.2186
   5   2.0000      -1.085234       -29.5307
   6   2.0000      -1.002198       -27.2712
   7   2.0000      -0.838693       -22.8220
   8   2.0000      -0.807588       -21.9756
   9   2.0000      -0.671854       -18.2821
  10   2.0000      -0.645925       -17.5765
  11   2.0000      -0.615298       -16.7431
  12   2.0000      -0.551140       -14.9973
  13   2.0000      -0.536471       -14.5981
  14   2.0000      -0.517417       -14.0796
  15   2.0000      -0.488316       -13.2878
  16   2.0000      -0.472025       -12.8444
  17   2.0000      -0.454575       -12.3696
  18   2.0000      -0.346619        -9.4320
  19   2.0000      -0.263257        -7.1636
  20   0.0000       0.102013         2.7759
  21   0.0000       0.128417         3.4944
  22   0.0000       0.152793         4.1577
  23   0.0000       0.153213         4.1691
  24   0.0000       0.175088         4.7644

MULLIKEN ATOMIC CHARGES
-----------------------
   0 C :   -0.199885
   1 N :   -0.370268
   2 C :    0.362410
   3 C :   -0.488511
   4 N :   -0.478441
   5 H :    0.209433
   6 H :    0.247336
   7 H :    0.196912
   8 H :    0.071246
   9 H :    0.094641
  10 H :    0.123335
  11 H :    0.110142
  12 H :    0.121650
Sum of atomic charges:   -0.0000000

LOEWDIN ATOMIC CHARGES
----------------------
   0 C :   -0.292790
   1 N :    0.068232
   2 C :   -0.462375
   3 C :   -0.321865
   4 N :   -0.026446
   5 H :    0.156858
   6 H :    0.180554
   7 H :    0.172474
   8 H :    0.098261
   9 H :    0.097992
  10 H :    0.117908
  11 H :    0.102261
  12 H :    0.108936

  Mayer bond orders larger than 0.100000
B(  0-C ,  1-N ) :   0.9273 B(  0-C , 10-H ) :   0.9775 B(  0-C , 11-H ) :   0.9831
B(  0-C , 12-H ) :   0.9748 B(  1-N ,  2-C ) :   1.1288 B(  1-N ,  7-H ) :   0.9362
B(  2-C ,  3-C ) :   1.6477 B(  2-C ,  4-N ) :   1.1345 B(  3-C ,  8-H ) :   1.0213
B(  3-C ,  9-H ) :   0.9850 B(  4-N ,  5-H ) :   0.9246 B(  4-N ,  6-H ) :   0.9200

Dispersion correction           -0.002419930
FINAL SINGLE POINT ENERGY      -228.608944070162

DIPOLE MOMENT
-------------
                                X             Y             Z
Electronic contribution:      1.59042       0.16130      -2.34988
Nuclear contribution   :     -0.87840       0.81693       2.92070
                        -----------------------------------------
Total Dipole Moment    :      0.71202       0.97823       0.57082
                        -----------------------------------------
Magnitude (a.u.)       :      1.33781
Magnitude (Debye)      :      3.40044

Rotational constants in cm-1:     0.323282     0.134248     0.100848
Rotational constants in MHz :  9691.753357  4024.663509  3023.338831

                             ****ORCA TERMINATED NORMALLY****
TOTAL RUN TIME: 0 days 0 hours 0 minutes 12 seconds 104 msec
