                         Program Version 5.0.0 -  RELEASE  -
|  1> !wB97X-D3 RIJCOSX def2-TZVP def2/J TightSCF
|  2> *xyz 0 1
|  3> C          2.23447       -2.98975       -2.39762
|  4> N          2.75680       -2.94555       -3.76503
|  5> C          1.98721       -2.59045       -4.81898
|  6> N          0.74322       -3.01749       -4.91352
|  7> C          2.49964       -1.84860       -5.80324
|  8> H          3.30978       -1.29282       -5.55895
|  9> H          1.80103       -1.30430       -6.28913
| 10> H          3.71612       -2.62880       -3.82953
| 11> H          0.39583       -3.62775       -4.18502
| 12> H          0.03920       -2.45438       -5.37137
| 13> H          1.22098       -3.33251       -2.41386
| 14> H          2.27280       -2.00995       -1.96933
| 15> H          2.82798       -3.65908       -1.81056
| 16> *
| 17>
| 18> %MaxCore 64000
| 19>
| 20> %pal nprocs 18
| 21> end
| 22>
| 23> %scf
| 24>   MaxIter 150
| 25> end
| 26>
| 27>
| 28>                          ****END OF INPUT****

CARTESIAN COORDINATES (ANGSTROEM)
---------------------------------
  C      2.234470   -2.989750   -2.397620
  N      2.756800   -2.945550   -3.765030
  C      1.987210   -2.590450   -4.818980
  N      0.743220   -3.017490   -4.913520
  C      2.499640   -1.848600   -5.803240
  H      3.309780   -1.292820   -5.558950
  H      1.801030   -1.304300   -6.289130
  H      3.716120   -2.628800   -3.829530
  H      0.395830   -3.627750   -4.185020
  H      0.039200   -2.454380   -5.371370
  H      1.220980   -3.332510   -2.413860
  H      2.272800   -2.009950   -1.969330
  H      2.827980   -3.659080   -1.810560

 Total Charge           Charge          ....    0
 Multiplicity           Mult            ....    1
 Number of Electrons    NEL             ....   40
 Basis Dimension        Dim             ....  203

ORBITAL ENERGIES
----------------

  NO   OCC          E(Eh)            E(eV)
   0   2.0000     -14.423945      -392.4955
   1   2.0000     -14.423817      -392.4920
   2   2.0000     -10.325954      -280.9835
   3   2.0000     -10.306031      -280.4414
   4   2.0000     -10.183204      -277.0991
   5   2.0000      -1.087829       -29.6013
   6   2.0000      -1.002890       -27.2900
   7   2.0000      -0.857017       -23.3206
   8   2.0000      -0.785905       -21.3856
   9   2.0000      -0.707399       -19.2493
  10   2.0000      -0.642123       -17.4731
  11   2.0000      -0.591370       -16.0920
  12   2.0000      -0.582287       -15.8448
  13   2.0000      -0.550772       -14.9873
  14   2.0000      -0.503966       -13.7136
  15   2.0000      -0.485843       -13.2205
  16   2.0000      -0.468788       -12.7564
  17   2.0000      -0.457543       -12.4504
  18   2.0000      -0.349570        -9.5123
  19   2.0000      -0.258773        -7.0416
  20   0.0000       0.103898         2.8272
  21   0.0000       0.125081         3.4036
  22   0.0000       0.138742         3.7754
  23   0.0000       0.157807         4.2942
  24   0.0000       0.176578         4.8049

MULLIKEN ATOMIC CHARGES
-----------------------
   0 C :   -0.210273
   1 N :   -0.356870
   2 C :    0.334561
   3 N :   -0.495347
   4 C :   -0.442640
   5 H :    0.065982
   6 H :    0.064122
   7 H :    0.229936
   8 H :    0.224488
   9 H :    0.255979
  10 H :    0.084330
  11 H :    0.115735
  12 H :    0.129998
Sum of atomic charges:    0.0000000

LOEWDIN ATOMIC CHARGES
----------------------
   0 C :   -0.303489
   1 N :    0.069830
   2 C :   -0.461367
   3 N :    0.000885
   4 C :   -0.352522
   5 H :    0.094865
   6 H :    0.099839
   7 H :    0.189703
   8 H :    0.163558
   9 H :    0.179078
  10 H :    0.105364
  11 H :    0.103471
  12 H :    0.110784

  Mayer bond orders larger than 0.100000
B(  0-C ,  1-N ) :   0.9471 B(  0-C , 10-H ) :   0.9814 B(  0-C , 11-H ) :   0.9749
B(  0-C , 12-H ) :   0.9754 B(  1-N ,  2-C ) :   1.1665 B(  1-N ,  7-H ) :   0.9279
B(  2-C ,  3-N ) :   1.1260 B(  2-C ,  4-C ) :   1.6978 B(  3-N ,  8-H ) :   0.9308
B(  3-N ,  9-H ) :   0.9151 B(  4-C ,  5-H ) :   1.0160 B(  4-C ,  6-H ) :   1.0026

Dispersion correction           -0.002432462
FINAL SINGLE POINT ENERGY      -228.603453610045

DIPOLE MOMENT
-------------
                                X             Y             Z
Electronic contribution:     -0.11536      -1.05193      -1.44560
Nuclear contribution   :     -0.52265       1.05368       2.74049
                        -----------------------------------------
Total Dipole Moment    :     -0.63800       0.00175       1.29489
                        -----------------------------------------
Magnitude (a.u.)       :      1.44354
Magnitude (Debye)      :      3.66918

Rotational constants in cm-1:     0.310125     0.138772     0.101978
Rotational constants in MHz :  9297.312912  4160.277024  3057.230514

                             ****ORCA TERMINATED NORMALLY****
TOTAL RUN TIME: 0 days 0 hours 0 minutes 11 seconds 807 msec
