                         Program Version 5.0.0 -  RELEASE  -
|  1> !wB97X-D3 RIJCOSX def2-TZVP def2/J TightSCF xyzfile
|  2>
|  3> *xyzfile 0 1 D5.xyz
|  4>
|  5> %MaxCore 64000
|  6>
|  7> %pal nprocs 18
|  8> end
|  9>
| 10> %scf
| 11>   MaxIter 150
| 12> end
| 13>
| 14>
| 15>                          ****END OF INPUT****

CARTESIAN COORDINATES (ANGSTROEM)
---------------------------------
  C      2.234473   -2.989754   -2.397622
  N      2.756799   -2.945553   -3.765029
  C     -1.104325    0.251374   -2.860056
  C     -0.711893    0.842517   -4.218344
  H      0.154626    1.499800   -4.130909
  H     -1.538134    1.459222   -4.582671
  C     -0.397624   -0.205875   -5.288018
  C      1.987208   -2.590451   -4.818975
  C      0.743221   -3.017493   -4.913524
  N      2.499636   -1.848598   -5.803241
  H      3.309780   -1.292818   -5.558947
  H      1.801025   -1.304298   -6.289129
  H      3.716116   -2.628797   -3.829533
  H      0.395828   -3.627747   -4.185024
  H      0.039201   -2.454383   -5.371367
  O      0.617165   -0.005348   -5.998273
  F     -1.133173   -1.221380   -5.341465
  C      2.191199   -1.619503   -1.715492
  H      2.872783   -3.666368   -1.828014
  H      1.246188   -3.447444   -2.407842
  C      1.298729   -0.554314   -2.359773
  H      1.872917   -1.787955   -0.681310
  H      3.216809   -1.238432   -1.654428
  C     -0.196255   -0.863365   -2.325763
  H      1.612531   -0.371346   -3.393065
  H      1.480944    0.388638   -1.834444
  H     -0.404105   -1.761825   -2.909448
  H     -0.490439   -1.087880   -1.294131
  H     -1.143842    1.066711   -2.129680
  H     -2.114401   -0.156834   -2.930323

 Total Charge           Charge          ....    0
 Multiplicity           Mult            ....    1
 Number of Electrons    NEL             ....  102
 Basis Dimension        Dim             ....  505

ORBITAL ENERGIES
----------------

  NO   OCC          E(Eh)            E(eV)
   0   2.0000     -24.863476      -676.5696
   1   2.0000     -19.250140      -523.8230
   2   2.0000     -14.413900      -392.2222
   3   2.0000     -14.392382      -391.6366
   4   2.0000     -10.468353      -284.8584
   5   2.0000     -10.310581      -280.5652
   6   2.0000     -10.308353      -280.5045
   7   2.0000     -10.303286      -280.3667
   8   2.0000     -10.292970      -280.0860
   9   2.0000     -10.276137      -279.6279
  10   2.0000     -10.275673      -279.6153
  11   2.0000     -10.275453      -279.6093
  12   2.0000     -10.172017      -276.7947
  13   2.0000      -1.448304       -39.4103
  14   2.0000      -1.167661       -31.7737
  15   2.0000      -1.071892       -29.1677
  16   2.0000      -0.989840       -26.9349
  17   2.0000      -0.946084       -25.7443
  18   2.0000      -0.902514       -24.5587
  19   2.0000      -0.850178       -23.1345
  20   2.0000      -0.819271       -22.2935
  21   2.0000      -0.800163       -21.7735
  22   2.0000      -0.772570       -21.0227
  23   2.0000      -0.729897       -19.8615
  24   2.0000      -0.695107       -18.9148
  25   2.0000      -0.677946       -18.4478
  26   2.0000      -0.660050       -17.9609
  27   2.0000      -0.647303       -17.6140
  28   2.0000      -0.630426       -17.1548
  29   2.0000      -0.621325       -16.9071
  30   2.0000      -0.589747       -16.0478
  31   2.0000      -0.584092       -15.8939
  32   2.0000      -0.575610       -15.6631
  33   2.0000      -0.550872       -14.9900
  34   2.0000      -0.543942       -14.8014
  35   2.0000      -0.519972       -14.1492
  36   2.0000      -0.512803       -13.9541
  37   2.0000      -0.508559       -13.8386
  38   2.0000      -0.489979       -13.3330
  39   2.0000      -0.485639       -13.2149
  40   2.0000      -0.473246       -12.8777
  41   2.0000      -0.466843       -12.7035
  42   2.0000      -0.453665       -12.3449
  43   2.0000      -0.451789       -12.2938
  44   2.0000      -0.437694       -11.9103
  45   2.0000      -0.423592       -11.5265
  46   2.0000      -0.422392       -11.4939
  47   2.0000      -0.412981       -11.2378
  48   2.0000      -0.395872       -10.7722
  49   2.0000      -0.330111        -8.9828
  50   2.0000      -0.251415        -6.8414
  51   0.0000       0.045488         1.2378
  52   0.0000       0.100490         2.7345
  53   0.0000       0.114424         3.1136
  54   0.0000       0.128851         3.5062
  55   0.0000       0.136314         3.7093

MULLIKEN ATOMIC CHARGES
-----------------------
   0 C :   -0.125047
   1 N :   -0.319139
   2 C :   -0.212754
   3 C :   -0.216089
   4 H :    0.149924
   5 H :    0.145149
   6 C :    0.404755
   7 C :    0.242043
   8 C :   -0.502513
   9 N :   -0.419395
  10 H :    0.200238
  11 H :    0.257559
  12 H :    0.194651
  13 H :    0.080285
  14 H :    0.099006
  15 O :   -0.402579
  16 F :   -0.097844
  17 C :   -0.227117
  18 H :    0.126005
  19 H :    0.125285
  20 C :   -0.163260
  21 H :    0.097874
  22 H :    0.105114
  23 C :   -0.228282
  24 H :    0.114783
  25 H :    0.103860
  26 H :    0.123704
  27 H :    0.105158
  28 H :    0.117522
  29 H :    0.121104
Sum of atomic charges:    0.0000000

LOEWDIN ATOMIC CHARGES
----------------------
   0 C :   -0.277125
   1 N :    0.101480
   2 C :   -0.263972
   3 C :   -0.229219
   4 H :    0.155728
   5 H :    0.155234
   6 C :   -0.479221
   7 C :   -0.476899
   8 C :   -0.325114
   9 N :   -0.016170
  10 H :    0.152828
  11 H :    0.165312
  12 H :    0.174520
  13 H :    0.094075
  14 H :    0.091036
  15 O :    0.060807
  16 F :    0.346986
  17 C :   -0.271159
  18 H :    0.131365
  19 H :    0.136303
  20 C :   -0.266089
  21 H :    0.138051
  22 H :    0.133858
  23 C :   -0.269260
  24 H :    0.140799
  25 H :    0.136547
  26 H :    0.139940
  27 H :    0.137606
  28 H :    0.140856
  29 H :    0.140896

  Mayer bond orders larger than 0.100000
B(  0-C ,  1-N ) :   0.9128 B(  0-C , 17-C ) :   0.9799 B(  0-C , 18-H ) :   0.9839
B(  0-C , 19-H ) :   0.9849 B(  1-N ,  7-C ) :   1.1420 B(  1-N , 12-H ) :   0.9268
B(  2-C ,  3-C ) :   0.9460 B(  2-C , 23-C ) :   0.9664 B(  2-C , 28-H ) :   0.9704
B(  2-C , 29-H ) :   0.9809 B(  3-C ,  4-H ) :   0.9666 B(  3-C ,  5-H ) :   0.9466
B(  3-C ,  6-C ) :   0.9968 B(  6-C , 15-O ) :   1.9266 B(  6-C , 16-F ) :   1.1462
B(  7-C ,  8-C ) :   1.5772 B(  7-C ,  9-N ) :   1.1966 B(  8-C , 13-H ) :   1.0347
B(  8-C , 14-H ) :   1.0142 B(  9-N , 10-H ) :   0.9283 B(  9-N , 11-H ) :   0.8864
B( 17-C , 20-C ) :   0.9733 B( 17-C , 21-H ) :   0.9755 B( 17-C , 22-H ) :   0.9820
B( 20-C , 23-C ) :   0.9211 B( 20-C , 24-H ) :   0.9565 B( 20-C , 25-H ) :   0.9747
B( 23-C , 26-H ) :   0.9842 B( 23-C , 27-H ) :   0.9737

Dispersion correction           -0.015816978
FINAL SINGLE POINT ENERGY      -637.789893301720

DIPOLE MOMENT
-------------
                                X             Y             Z
Electronic contribution:     -4.35107       0.23263     -12.40433
Nuclear contribution   :      4.07548       1.14852      13.79455
                        -----------------------------------------
Total Dipole Moment    :     -0.27559       1.38115       1.39021
                        -----------------------------------------
Magnitude (a.u.)       :      1.97895
Magnitude (Debye)      :      5.03008

Rotational constants in cm-1:     0.033274     0.023559     0.016968
Rotational constants in MHz :   997.539108   706.293545   508.690532

                             ****ORCA TERMINATED NORMALLY****
TOTAL RUN TIME: 0 days 0 hours 1 minutes 29 seconds 827 msec
