                         Program Version 5.0.0 -  RELEASE  -
|  1> !PBE0 D3BJ RIJCOSX def2-TZVP def2/J TightSCF
|  2> *xyz -1 1
|  3> C         -0.72184       -0.99951       -3.43931
|  4> C          0.28725       -1.71177       -2.52740
|  5> H          1.13178       -2.06738       -3.15940
|  6> H         -0.20414       -2.63733       -2.17048
|  7> O          0.71050       -0.92751       -1.48177
|  8> H         -1.01315       -1.65739       -4.23129
|  9> H         -0.27123       -0.12142       -3.85259
| 10> H         -1.58442       -0.72333       -2.86958
| 11> *
| 12> %MaxCore 64000
| 13>
| 14> %pal nprocs 4
| 15> end
| 16>
| 17> %scf
| 18>   MaxIter 150
| 19> end
| 20>
| 21>
| 22>                          ****END OF INPUT****

CARTESIAN COORDINATES (ANGSTROEM)
---------------------------------
  C     -0.721840   -0.999510   -3.439310
  C      0.287250   -1.711770   -2.527400
  H      1.131780   -2.067380   -3.159400
  H     -0.204140   -2.637330   -2.170480
  O      0.710500   -0.927510   -1.481770
  H     -1.013150   -1.657390   -4.231290
  H     -0.271230   -0.121420   -3.852590
  H     -1.584420   -0.723330   -2.869580

 Total Charge           Charge          ....   -1
 Multiplicity           Mult            ....    1
 Number of Electrons    NEL             ....   26
 Basis Dimension        Dim             ....  123

ORBITAL ENERGIES
----------------

  NO   OCC          E(Eh)            E(eV)
   0   2.0000     -18.848957      -512.9062
   1   2.0000     -10.022351      -272.7220
   2   2.0000     -10.002473      -272.1811
   3   2.0000      -0.689035       -18.7496
   4   2.0000      -0.539885       -14.6910
   5   2.0000      -0.381375       -10.3777
   6   2.0000      -0.255488        -6.9522
   7   2.0000      -0.233429        -6.3519
   8   2.0000      -0.177016        -4.8169
   9   2.0000      -0.158828        -4.3219
  10   2.0000      -0.110588        -3.0092
  11   2.0000       0.034692         0.9440
  12   2.0000       0.037319         1.0155
  13   0.0000       0.226312         6.1583
  14   0.0000       0.262756         7.1499
  15   0.0000       0.288117         7.8401
  16   0.0000       0.290088         7.8937
  17   0.0000       0.323962         8.8155

MULLIKEN ATOMIC CHARGES
-----------------------
   0 C :   -0.163639
   1 C :    0.027985
   2 H :   -0.064004
   3 H :   -0.062241
   4 O :   -0.775579
   5 H :   -0.026198
   6 H :    0.030694
   7 H :    0.032982
Sum of atomic charges:   -1.0000000

LOEWDIN ATOMIC CHARGES
----------------------
   0 C :   -0.368476
   1 C :   -0.555805
   2 H :    0.053392
   3 H :    0.054725
   4 O :   -0.433305
   5 H :    0.073624
   6 H :    0.087541
   7 H :    0.088304

  Mayer bond orders larger than 0.100000
B(  0-C ,  1-C ) :   0.9067 B(  0-C ,  4-O ) :  -0.2513 B(  0-C ,  5-H ) :   0.9209
B(  0-C ,  6-H ) :   0.9621 B(  0-C ,  7-H ) :   0.9640 B(  1-C ,  2-H ) :   0.9206
B(  1-C ,  3-H ) :   0.9216 B(  1-C ,  4-O ) :   1.6123

Dispersion correction           -0.003049217
FINAL SINGLE POINT ENERGY      -154.296846157155

DIPOLE MOMENT
-------------
                                X             Y             Z
Electronic contribution:      1.51725       0.81190       2.50056
Nuclear contribution   :     -2.24828      -1.06600      -3.62481
                        -----------------------------------------
Total Dipole Moment    :     -0.73103      -0.25409      -1.12424
                        -----------------------------------------
Magnitude (a.u.)       :      1.36488
Magnitude (Debye)      :      3.46925

Rotational constants in cm-1:     1.278116     0.325414     0.286672
Rotational constants in MHz : 38316.964654  9755.653004  8594.216906

                             ****ORCA TERMINATED NORMALLY****
TOTAL RUN TIME: 0 days 0 hours 0 minutes 11 seconds 527 msec
