                         Program Version 5.0.0 -  RELEASE  -
|  1> !PBE0 D3BJ RIJCOSX def2-TZVP def2/J TightSCF
|  2> *xyz 1 1
|  3> C          3.48828        1.60092       -1.52204
|  4> C          4.34297        1.31342       -2.75683
|  5> N          2.81029        0.42878       -1.01420
|  6> H          2.71455        2.33145       -1.76030
|  7> H          4.09099        2.06315       -0.73338
|  8> C          3.29098       -0.41802       -0.12908
|  9> N          2.51754       -1.43202        0.23936
| 10> N          4.53549       -0.28441        0.39580
| 11> H          5.04363        0.57189        0.22290
| 12> H          4.72335       -0.73327        1.28180
| 13> H          1.93479        0.10230       -1.40379
| 14> H          1.67464       -1.50562       -0.31610
| 15> H          2.92850       -2.21850        0.72549
| 16> H          3.73575        0.86277       -3.51385
| 17> H          5.13754        0.64699       -2.49333
| 18> H          4.75374        2.22930       -3.12740
| 19> *
| 20> %MaxCore 64000
| 21>
| 22> %pal nprocs 4
| 23> end
| 24>
| 25> %scf
| 26>   MaxIter 150
| 27> end
| 28>
| 29>
| 30>                          ****END OF INPUT****

CARTESIAN COORDINATES (ANGSTROEM)
---------------------------------
  C      3.488280    1.600920   -1.522040
  C      4.342970    1.313420   -2.756830
  N      2.810290    0.428780   -1.014200
  H      2.714550    2.331450   -1.760300
  H      4.090990    2.063150   -0.733380
  C      3.290980   -0.418020   -0.129080
  N      2.517540   -1.432020    0.239360
  N      4.535490   -0.284410    0.395800
  H      5.043630    0.571890    0.222900
  H      4.723350   -0.733270    1.281800
  H      1.934790    0.102300   -1.403790
  H      1.674640   -1.505620   -0.316100
  H      2.928500   -2.218500    0.725490
  H      3.735750    0.862770   -3.513850
  H      5.137540    0.646990   -2.493330
  H      4.753740    2.229300   -3.127400

 Total Charge           Charge          ....    1
 Multiplicity           Mult            ....    1
 Number of Electrons    NEL             ....   48
 Basis Dimension        Dim             ....  246

ORBITAL ENERGIES
----------------

  NO   OCC          E(Eh)            E(eV)
   0   2.0000     -14.613436      -397.6518
   1   2.0000     -14.606483      -397.4626
   2   2.0000     -14.604360      -397.4048
   3   2.0000     -10.553297      -287.1698
   4   2.0000     -10.431695      -283.8609
   5   2.0000     -10.355153      -281.7780
   6   2.0000      -1.247835       -33.9553
   7   2.0000      -1.133903       -30.8551
   8   2.0000      -1.119581       -30.4654
   9   2.0000      -0.957025       -26.0420
  10   2.0000      -0.858892       -23.3716
  11   2.0000      -0.827000       -22.5038
  12   2.0000      -0.796956       -21.6863
  13   2.0000      -0.764309       -20.7979
  14   2.0000      -0.706804       -19.2331
  15   2.0000      -0.697959       -18.9924
  16   2.0000      -0.668501       -18.1908
  17   2.0000      -0.654333       -17.8053
  18   2.0000      -0.616914       -16.7871
  19   2.0000      -0.575323       -15.6553
  20   2.0000      -0.545744       -14.8505
  21   2.0000      -0.525540       -14.3007
  22   2.0000      -0.491699       -13.3798
  23   2.0000      -0.464549       -12.6410
  24   0.0000      -0.161829        -4.4036
  25   0.0000      -0.147080        -4.0022
  26   0.0000      -0.115475        -3.1422
  27   0.0000      -0.099185        -2.6990
  28   0.0000      -0.073540        -2.0011

MULLIKEN ATOMIC CHARGES
-----------------------
   0 C :   -0.202415
   1 C :   -0.321234
   2 N :   -0.214089
   3 H :    0.173747
   4 H :    0.139306
   5 C :    0.397098
   6 N :   -0.382714
   7 N :   -0.412935
   8 H :    0.282281
   9 H :    0.285898
  10 H :    0.248288
  11 H :    0.271337
  12 H :    0.295950
  13 H :    0.140240
  14 H :    0.132319
  15 H :    0.166924
Sum of atomic charges:    1.0000000

LOEWDIN ATOMIC CHARGES
----------------------
   0 C :   -0.288665
   1 C :   -0.284535
   2 N :    0.181012
   3 H :    0.153793
   4 H :    0.141739
   5 C :   -0.407973
   6 N :    0.065412
   7 N :    0.049480
   8 H :    0.191825
   9 H :    0.197047
  10 H :    0.211263
  11 H :    0.199240
  12 H :    0.201890
  13 H :    0.127933
  14 H :    0.123039
  15 H :    0.137500

  Mayer bond orders larger than 0.100000
B(  0-C ,  1-C ) :   1.0060 B(  0-C ,  2-N ) :   0.8926 B(  0-C ,  3-H ) :   0.9473
B(  0-C ,  4-H ) :   0.9603 B(  1-C , 13-H ) :   0.9631 B(  1-C , 14-H ) :   0.9581
B(  1-C , 15-H ) :   0.9618 B(  2-N ,  5-C ) :   1.4139 B(  2-N , 10-H ) :   0.8951
B(  5-C ,  6-N ) :   1.3575 B(  5-C ,  7-N ) :   1.3340 B(  6-N , 11-H ) :   0.8941
B(  6-N , 12-H ) :   0.8846 B(  7-N ,  8-H ) :   0.8887 B(  7-N ,  9-H ) :   0.8907

Dispersion correction           -0.010418957
FINAL SINGLE POINT ENERGY      -284.178669480695

DIPOLE MOMENT
-------------
                                X             Y             Z
Electronic contribution:     -1.93833      -3.01536       3.74198
Nuclear contribution   :      1.59382       2.33278      -3.02574
                        -----------------------------------------
Total Dipole Moment    :     -0.34451      -0.68259       0.71625
                        -----------------------------------------
Magnitude (a.u.)       :      1.04767
Magnitude (Debye)      :      2.66298

Rotational constants in cm-1:     0.232230     0.073139     0.063030
Rotational constants in MHz :  6962.079716  2192.649203  1889.578947

                             ****ORCA TERMINATED NORMALLY****
TOTAL RUN TIME: 0 days 0 hours 0 minutes 34 seconds 637 msec
