                         Program Version 5.0.0 -  RELEASE  -
|  1> !PBE0 D3BJ RIJCOSX def2-TZVP def2/J TightSCF
|  2> *xyz 0 1
|  3> C         -0.72184       -0.99951       -3.43931
|  4> C          0.28725       -1.71177       -2.52740
|  5> H          1.13178       -2.06738       -3.15940
|  6> H         -0.20414       -2.63733       -2.17048
|  7> F          0.71050       -0.92751       -1.48177
|  8> H         -1.01315       -1.65739       -4.23129
|  9> H         -0.27123       -0.12142       -3.85259
| 10> H         -1.58442       -0.72333       -2.86958
| 11> *
| 12> %MaxCore 64000
| 13>
| 14> %pal nprocs 4
| 15> end
| 16>
| 17> %scf
| 18>   MaxIter 150
| 19> end
| 20>
| 21>
| 22>                          ****END OF INPUT****

CARTESIAN COORDINATES (ANGSTROEM)
---------------------------------
  C     -0.721840   -0.999510   -3.439310
  C      0.287250   -1.711770   -2.527400
  H      1.131780   -2.067380   -3.159400
  H     -0.204140   -2.637330   -2.170480
  F      0.710500   -0.927510   -1.481770
  H     -1.013150   -1.657390   -4.231290
  H     -0.271230   -0.121420   -3.852590
  H     -1.584420   -0.723330   -2.869580

 Total Charge           Charge          ....    0
 Multiplicity           Mult            ....    1
 Number of Electrons    NEL             ....   26
 Basis Dimension        Dim             ....  123

ORBITAL ENERGIES
----------------

  NO   OCC          E(Eh)            E(eV)
   0   2.0000     -24.754926      -673.6158
   1   2.0000     -10.297966      -280.2219
   2   2.0000     -10.213980      -277.9365
   3   2.0000      -1.227201       -33.3938
   4   2.0000      -0.787710       -21.4347
   5   2.0000      -0.650622       -17.7043
   6   2.0000      -0.522336       -14.2135
   7   2.0000      -0.509163       -13.8550
   8   2.0000      -0.472113       -12.8468
   9   2.0000      -0.418521       -11.3885
  10   2.0000      -0.413598       -11.2546
  11   2.0000      -0.348978        -9.4962
  12   2.0000      -0.341947        -9.3048
  13   0.0000       0.051693         1.4066
  14   0.0000       0.090325         2.4579
  15   0.0000       0.105701         2.8763
  16   0.0000       0.109125         2.9694
  17   0.0000       0.122370         3.3298

MULLIKEN ATOMIC CHARGES
-----------------------
   0 C :   -0.339491
   1 C :    0.016068
   2 H :    0.095735
   3 H :    0.094888
   4 F :   -0.229097
   5 H :    0.115410
   6 H :    0.122955
   7 H :    0.123531
Sum of atomic charges:    0.0000000

LOEWDIN ATOMIC CHARGES
----------------------
   0 C :   -0.313977
   1 C :   -0.369840
   2 H :    0.117976
   3 H :    0.117439
   4 F :    0.089616
   5 H :    0.122839
   6 H :    0.117827
   7 H :    0.118120

  Mayer bond orders larger than 0.100000
B(  0-C ,  1-C ) :   1.0135 B(  0-C ,  5-H ) :   0.9559 B(  0-C ,  6-H ) :   0.9676
B(  0-C ,  7-H ) :   0.9676 B(  1-C ,  2-H ) :   0.9664 B(  1-C ,  3-H ) :   0.9672
B(  1-C ,  4-F ) :   1.0042

Dispersion correction           -0.002810165
FINAL SINGLE POINT ENERGY      -178.938081364523

DIPOLE MOMENT
-------------
                                X             Y             Z
Electronic contribution:      2.70726       1.05593       4.23544
Nuclear contribution   :     -2.97459      -1.40206      -4.79987
                        -----------------------------------------
Total Dipole Moment    :     -0.26733      -0.34613      -0.56443
                        -----------------------------------------
Magnitude (a.u.)       :      0.71404
Magnitude (Debye)      :      1.81494

Rotational constants in cm-1:     1.257024     0.302702     0.267953
Rotational constants in MHz : 37684.643733  9074.792567  8033.038070

                             ****ORCA TERMINATED NORMALLY****
TOTAL RUN TIME: 0 days 0 hours 0 minutes 9 seconds 894 msec
