                         Program Version 5.0.0 -  RELEASE  -
|  1> !PBE0 D3BJ RIJCOSX def2-TZVP def2/J TightSCF
|  2> *xyz 0 1
|  3> C          3.48828        1.60092       -1.52204
|  4> C          4.34297        1.31342       -2.75683
|  5> C          2.81029        0.42878       -1.01420
|  6> H          2.71455        2.33145       -1.76030
|  7> H          4.09099        2.06315       -0.73338
|  8> C          3.29098       -0.41802       -0.12908
|  9> N          2.51754       -1.43202        0.23936
| 10> N          4.53549       -0.28441        0.39580
| 11> H          5.04363        0.57189        0.22290
| 12> H          4.72335       -0.73327        1.28180
| 13> H          1.93479        0.10230       -1.40379
| 14> H          1.67464       -1.50562       -0.31610
| 15> H          2.92850       -2.21850        0.72549
| 16> H          3.73575        0.86277       -3.51385
| 17> H          5.13754        0.64699       -2.49333
| 18> H          4.75374        2.22930       -3.12740
| 19> *
| 20> %MaxCore 64000
| 21>
| 22> %pal nprocs 4
| 23> end
| 24>
| 25> %scf
| 26>   MaxIter 150
| 27> end
| 28>
| 29>
| 30>                          ****END OF INPUT****

CARTESIAN COORDINATES (ANGSTROEM)
---------------------------------
  C      3.488280    1.600920   -1.522040
  C      4.342970    1.313420   -2.756830
  C      2.810290    0.428780   -1.014200
  H      2.714550    2.331450   -1.760300
  H      4.090990    2.063150   -0.733380
  C      3.290980   -0.418020   -0.129080
  N      2.517540   -1.432020    0.239360
  N      4.535490   -0.284410    0.395800
  H      5.043630    0.571890    0.222900
  H      4.723350   -0.733270    1.281800
  H      1.934790    0.102300   -1.403790
  H      1.674640   -1.505620   -0.316100
  H      2.928500   -2.218500    0.725490
  H      3.735750    0.862770   -3.513850
  H      5.137540    0.646990   -2.493330
  H      4.753740    2.229300   -3.127400

 Total Charge           Charge          ....    0
 Multiplicity           Mult            ....    1
 Number of Electrons    NEL             ....   48
 Basis Dimension        Dim             ....  246

ORBITAL ENERGIES
----------------

  NO   OCC          E(Eh)            E(eV)
   0   2.0000     -14.381524      -391.3411
   1   2.0000     -14.376936      -391.2163
   2   2.0000     -10.258049      -279.1357
   3   2.0000     -10.196402      -277.4582
   4   2.0000     -10.182458      -277.0788
   5   2.0000     -10.142132      -275.9814
   6   2.0000      -0.984656       -26.7939
   7   2.0000      -0.894831       -24.3496
   8   2.0000      -0.797596       -21.7037
   9   2.0000      -0.716063       -19.4851
  10   2.0000      -0.632605       -17.2141
  11   2.0000      -0.595593       -16.2069
  12   2.0000      -0.551519       -15.0076
  13   2.0000      -0.524802       -14.2806
  14   2.0000      -0.478935       -13.0325
  15   2.0000      -0.451664       -12.2904
  16   2.0000      -0.429988       -11.7006
  17   2.0000      -0.409203       -11.1350
  18   2.0000      -0.393143       -10.6980
  19   2.0000      -0.364069        -9.9068
  20   2.0000      -0.343076        -9.3356
  21   2.0000      -0.330580        -8.9955
  22   2.0000      -0.276514        -7.5243
  23   2.0000      -0.170981        -4.6526
  24   0.0000       0.031028         0.8443
  25   0.0000       0.060428         1.6443
  26   0.0000       0.069343         1.8869
  27   0.0000       0.086431         2.3519
  28   0.0000       0.098294         2.6747

MULLIKEN ATOMIC CHARGES
-----------------------
   0 C :   -0.210921
   1 C :   -0.308552
   2 C :   -0.281472
   3 H :    0.096664
   4 H :    0.070325
   5 C :    0.275072
   6 N :   -0.463506
   7 N :   -0.488142
   8 H :    0.239771
   9 H :    0.221030
  10 H :    0.070622
  11 H :    0.239211
  12 H :    0.225235
  13 H :    0.104907
  14 H :    0.106666
  15 H :    0.103090
Sum of atomic charges:   -0.0000000

LOEWDIN ATOMIC CHARGES
----------------------
   0 C :   -0.311752
   1 C :   -0.305498
   2 C :   -0.279961
   3 H :    0.140722
   4 H :    0.128895
   5 C :   -0.460329
   6 N :   -0.018554
   7 N :   -0.029183
   8 H :    0.170784
   9 H :    0.160158
  10 H :    0.121590
  11 H :    0.182397
  12 H :    0.162957
  13 H :    0.115322
  14 H :    0.113730
  15 H :    0.108721

  Mayer bond orders larger than 0.100000
B(  0-C ,  1-C ) :   0.9815 B(  0-C ,  2-C ) :   1.0464 B(  0-C ,  3-H ) :   0.9653
B(  0-C ,  4-H ) :   0.9687 B(  1-C , 13-H ) :   0.9770 B(  1-C , 14-H ) :   0.9737
B(  1-C , 15-H ) :   0.9704 B(  2-C ,  5-C ) :   1.7011 B(  2-C , 10-H ) :   0.9699
B(  5-C ,  6-N ) :   1.1834 B(  5-C ,  7-N ) :   1.1658 B(  6-N , 11-H ) :   0.9124
B(  6-N , 12-H ) :   0.9152 B(  7-N ,  8-H ) :   0.9160 B(  7-N ,  9-H ) :   0.9171

Dispersion correction           -0.010840267
FINAL SINGLE POINT ENERGY      -267.706850493783

DIPOLE MOMENT
-------------
                                X             Y             Z
Electronic contribution:     -1.26401      -2.97676       3.70153
Nuclear contribution   :      1.44676       2.38443      -3.07370
                        -----------------------------------------
Total Dipole Moment    :      0.18275      -0.59234       0.62783
                        -----------------------------------------
Magnitude (a.u.)       :      0.88229
Magnitude (Debye)      :      2.24259

Rotational constants in cm-1:     0.235977     0.073199     0.063283
Rotational constants in MHz :  7074.404583  2194.453291  1897.179599

                             ****ORCA TERMINATED NORMALLY****
TOTAL RUN TIME: 0 days 0 hours 0 minutes 36 seconds 864 msec
