                         Program Version 5.0.0 -  RELEASE  -
|  1> !PBE0 D3BJ RIJCOSX def2-TZVP def2/J TightSCF
|  2> *xyz 0 1
|  3> C          3.48828        1.60092       -1.52204
|  4> C          4.34297        1.31342       -2.75683
|  5> N          2.81029        0.42878       -1.01420
|  6> H          2.71455        2.33145       -1.76030
|  7> H          4.09099        2.06315       -0.73338
|  8> C          3.29098       -0.41802       -0.12908
|  9> C          2.51754       -1.43202        0.23936
| 10> N          4.53549       -0.28441        0.39580
| 11> H          5.04363        0.57189        0.22290
| 12> H          4.72335       -0.73327        1.28180
| 13> H          1.93479        0.10230       -1.40379
| 14> H          1.67464       -1.50562       -0.31610
| 15> H          2.92850       -2.21850        0.72549
| 16> H          3.73575        0.86277       -3.51385
| 17> H          5.13754        0.64699       -2.49333
| 18> H          4.75374        2.22930       -3.12740
| 19> *
| 20> %MaxCore 64000
| 21>
| 22> %pal nprocs 4
| 23> end
| 24>
| 25> %scf
| 26>   MaxIter 150
| 27> end
| 28>
| 29>
| 30>                          ****END OF INPUT****

CARTESIAN COORDINATES (ANGSTROEM)
---------------------------------
  C      3.488280    1.600920   -1.522040
  C      4.342970    1.313420   -2.756830
  N      2.810290    0.428780   -1.014200
  H      2.714550    2.331450   -1.760300
  H      4.090990    2.063150   -0.733380
  C      3.290980   -0.418020   -0.129080
  C      2.517540   -1.432020    0.239360
  N      4.535490   -0.284410    0.395800
  H      5.043630    0.571890    0.222900
  H      4.723350   -0.733270    1.281800
  H      1.934790    0.102300   -1.403790
  H      1.674640   -1.505620   -0.316100
  H      2.928500   -2.218500    0.725490
  H      3.735750    0.862770   -3.513850
  H      5.137540    0.646990   -2.493330
  H      4.753740    2.229300   -3.127400

 Total Charge           Charge          ....    0
 Multiplicity           Mult            ....    1
 Number of Electrons    NEL             ....   48
 Basis Dimension        Dim             ....  246

ORBITAL ENERGIES
----------------

  NO   OCC          E(Eh)            E(eV)
   0   2.0000     -14.385101      -391.4385
   1   2.0000     -14.381704      -391.3461
   2   2.0000     -10.263750      -279.2908
   3   2.0000     -10.262756      -279.2638
   4   2.0000     -10.209442      -277.8130
   5   2.0000     -10.127065      -275.5714
   6   2.0000      -0.996622       -27.1195
   7   2.0000      -0.908868       -24.7316
   8   2.0000      -0.798816       -21.7369
   9   2.0000      -0.723752       -19.6943
  10   2.0000      -0.649249       -17.6670
  11   2.0000      -0.615110       -16.7380
  12   2.0000      -0.550919       -14.9913
  13   2.0000      -0.514837       -14.0094
  14   2.0000      -0.492477       -13.4010
  15   2.0000      -0.453982       -12.3535
  16   2.0000      -0.444313       -12.0904
  17   2.0000      -0.417224       -11.3532
  18   2.0000      -0.390552       -10.6275
  19   2.0000      -0.384472       -10.4620
  20   2.0000      -0.375051       -10.2056
  21   2.0000      -0.368594       -10.0299
  22   2.0000      -0.269484        -7.3330
  23   2.0000      -0.170832        -4.6486
  24   0.0000       0.029792         0.8107
  25   0.0000       0.056513         1.5378
  26   0.0000       0.065610         1.7853
  27   0.0000       0.086762         2.3609
  28   0.0000       0.092044         2.5046

MULLIKEN ATOMIC CHARGES
-----------------------
   0 C :   -0.174159
   1 C :   -0.294418
   2 N :   -0.275928
   3 H :    0.120223
   4 H :    0.102592
   5 C :    0.331114
   6 C :   -0.514117
   7 N :   -0.486091
   8 H :    0.221470
   9 H :    0.248803
  10 H :    0.219847
  11 H :    0.061163
  12 H :    0.099963
  13 H :    0.109570
  14 H :    0.118711
  15 H :    0.111258
Sum of atomic charges:   -0.0000000

LOEWDIN ATOMIC CHARGES
----------------------
   0 C :   -0.320913
   1 C :   -0.308630
   2 N :    0.128783
   3 H :    0.133058
   4 H :    0.128091
   5 C :   -0.464083
   6 C :   -0.351386
   7 N :   -0.024825
   8 H :    0.157525
   9 H :    0.177000
  10 H :    0.198724
  11 H :    0.098392
  12 H :    0.097684
  13 H :    0.116941
  14 H :    0.117470
  15 H :    0.116170

  Mayer bond orders larger than 0.100000
B(  0-C ,  1-C ) :   0.9853 B(  0-C ,  2-N ) :   0.9665 B(  0-C ,  3-H ) :   0.9670
B(  0-C ,  4-H ) :   0.9688 B(  1-C , 13-H ) :   0.9695 B(  1-C , 14-H ) :   0.9673
B(  1-C , 15-H ) :   0.9645 B(  2-N ,  5-C ) :   1.2109 B(  2-N , 10-H ) :   0.9142
B(  5-C ,  6-C ) :   1.6658 B(  5-C ,  7-N ) :   1.1485 B(  6-C , 11-H ) :   0.9977
B(  6-C , 12-H ) :   0.9963 B(  7-N ,  8-H ) :   0.9188 B(  7-N ,  9-H ) :   0.9159

Dispersion correction           -0.010745136
FINAL SINGLE POINT ENERGY      -267.693863691451

DIPOLE MOMENT
-------------
                                X             Y             Z
Electronic contribution:     -0.85706      -1.04134       2.42813
Nuclear contribution   :      1.38466       1.98967      -2.80776
                        -----------------------------------------
Total Dipole Moment    :      0.52760       0.94832      -0.37963
                        -----------------------------------------
Magnitude (a.u.)       :      1.14970
Magnitude (Debye)      :      2.92229

Rotational constants in cm-1:     0.235618     0.075969     0.065309
Rotational constants in MHz :  7063.646698  2277.495424  1957.925383

                             ****ORCA TERMINATED NORMALLY****
TOTAL RUN TIME: 0 days 0 hours 0 minutes 33 seconds 803 msec
