                         Program Version 5.0.0 -  RELEASE  -
|  1> !PBE0 D3BJ RIJCOSX def2-TZVP def2/J TightSCF
|  2> *xyz 0 1
|  3> C          3.48828        1.60092       -1.52204
|  4> C          4.34297        1.31342       -2.75683
|  5> N          2.81029        0.42878       -1.01420
|  6> H          2.71455        2.33145       -1.76030
|  7> H          4.09099        2.06315       -0.73338
|  8> C          3.29098       -0.41802       -0.12908
|  9> N          2.51754       -1.43202        0.23936
| 10> C          4.53549       -0.28441        0.39580
| 11> H          5.04363        0.57189        0.22290
| 12> H          4.72335       -0.73327        1.28180
| 13> H          1.93479        0.10230       -1.40379
| 14> H          1.67464       -1.50562       -0.31610
| 15> H          2.92850       -2.21850        0.72549
| 16> H          3.73575        0.86277       -3.51385
| 17> H          5.13754        0.64699       -2.49333
| 18> H          4.75374        2.22930       -3.12740
| 19> *
| 20> %MaxCore 64000
| 21>
| 22> %pal nprocs 4
| 23> end
| 24>
| 25> %scf
| 26>   MaxIter 150
| 27> end
| 28>
| 29>
| 30>                          ****END OF INPUT****

CARTESIAN COORDINATES (ANGSTROEM)
---------------------------------
  C      3.488280    1.600920   -1.522040
  C      4.342970    1.313420   -2.756830
  N      2.810290    0.428780   -1.014200
  H      2.714550    2.331450   -1.760300
  H      4.090990    2.063150   -0.733380
  C      3.290980   -0.418020   -0.129080
  N      2.517540   -1.432020    0.239360
  C      4.535490   -0.284410    0.395800
  H      5.043630    0.571890    0.222900
  H      4.723350   -0.733270    1.281800
  H      1.934790    0.102300   -1.403790
  H      1.674640   -1.505620   -0.316100
  H      2.928500   -2.218500    0.725490
  H      3.735750    0.862770   -3.513850
  H      5.137540    0.646990   -2.493330
  H      4.753740    2.229300   -3.127400

 Total Charge           Charge          ....    0
 Multiplicity           Mult            ....    1
 Number of Electrons    NEL             ....   48
 Basis Dimension        Dim             ....  246

ORBITAL ENERGIES
----------------

  NO   OCC          E(Eh)            E(eV)
   0   2.0000     -14.390596      -391.5880
   1   2.0000     -14.383676      -391.3997
   2   2.0000     -10.265201      -279.3303
   3   2.0000     -10.255808      -279.0747
   4   2.0000     -10.201338      -277.5925
   5   2.0000     -10.127814      -275.5918
   6   2.0000      -1.005655       -27.3653
   7   2.0000      -0.914238       -24.8777
   8   2.0000      -0.778821       -21.1928
   9   2.0000      -0.726766       -19.7763
  10   2.0000      -0.663545       -18.0560
  11   2.0000      -0.580020       -15.7831
  12   2.0000      -0.558142       -15.1878
  13   2.0000      -0.544531       -14.8174
  14   2.0000      -0.481776       -13.1098
  15   2.0000      -0.453434       -12.3386
  16   2.0000      -0.440108       -11.9759
  17   2.0000      -0.406736       -11.0679
  18   2.0000      -0.390935       -10.6379
  19   2.0000      -0.380352       -10.3499
  20   2.0000      -0.371422       -10.1069
  21   2.0000      -0.358609        -9.7582
  22   2.0000      -0.263583        -7.1725
  23   2.0000      -0.173404        -4.7186
  24   0.0000       0.024606         0.6696
  25   0.0000       0.059519         1.6196
  26   0.0000       0.070283         1.9125
  27   0.0000       0.084935         2.3112
  28   0.0000       0.102814         2.7977

MULLIKEN ATOMIC CHARGES
-----------------------
   0 C :   -0.131440
   1 C :   -0.321801
   2 N :   -0.286276
   3 H :    0.113275
   4 H :    0.122668
   5 C :    0.310392
   6 N :   -0.455749
   7 C :   -0.536951
   8 H :    0.084909
   9 H :    0.095183
  10 H :    0.185183
  11 H :    0.207841
  12 H :    0.257174
  13 H :    0.097373
  14 H :    0.144562
  15 H :    0.113657
Sum of atomic charges:   -0.0000000

LOEWDIN ATOMIC CHARGES
----------------------
   0 C :   -0.303366
   1 C :   -0.306434
   2 N :    0.126306
   3 H :    0.130522
   4 H :    0.139128
   5 C :   -0.475680
   6 N :   -0.009709
   7 C :   -0.369462
   8 H :    0.094568
   9 H :    0.095643
  10 H :    0.178654
  11 H :    0.163377
  12 H :    0.181882
  13 H :    0.113287
  14 H :    0.124022
  15 H :    0.117262

  Mayer bond orders larger than 0.100000
B(  0-C ,  1-C ) :   0.9954 B(  0-C ,  2-N ) :   0.9467 B(  0-C ,  3-H ) :   0.9678
B(  0-C ,  4-H ) :   0.9565 B(  1-C , 13-H ) :   0.9701 B(  1-C , 14-H ) :   0.9695
B(  1-C , 15-H ) :   0.9674 B(  2-N ,  5-C ) :   1.2027 B(  2-N , 10-H ) :   0.9202
B(  5-C ,  6-N ) :   1.1699 B(  5-C ,  7-C ) :   1.6573 B(  6-N , 11-H ) :   0.9211
B(  6-N , 12-H ) :   0.9104 B(  7-C ,  8-H ) :   1.0018 B(  7-C ,  9-H ) :   0.9879

Dispersion correction           -0.010810544
FINAL SINGLE POINT ENERGY      -267.693683959752

DIPOLE MOMENT
-------------
                                X             Y             Z
Electronic contribution:     -2.87998      -2.32123       2.17777
Nuclear contribution   :      1.81275       2.23313      -2.77458
                        -----------------------------------------
Total Dipole Moment    :     -1.06723      -0.08810      -0.59680
                        -----------------------------------------
Magnitude (a.u.)       :      1.22593
Magnitude (Debye)      :      3.11608

Rotational constants in cm-1:     0.245202     0.073668     0.064348
Rotational constants in MHz :  7350.977980  2208.513334  1929.108541

                             ****ORCA TERMINATED NORMALLY****
TOTAL RUN TIME: 0 days 0 hours 0 minutes 32 seconds 99 msec
