                         Program Version 5.0.0 -  RELEASE  -
|  1> !PBE0 D3BJ RIJCOSX def2-TZVP def2/J TightSCF xyzfile
|  2>
|  3> *xyzfile 0 1 D1.xyz
|  4>
|  5> %MaxCore 64000
|  6>
|  7> %pal nprocs 18
|  8> end
|  9>
| 10> %scf
| 11>   MaxIter 150
| 12> end
| 13>
| 14>
| 15>                          ****END OF INPUT****

CARTESIAN COORDINATES (ANGSTROEM)
---------------------------------
  C      3.488276    1.600919   -1.522040
  C      4.342970    1.313419   -2.756826
  C      2.810285    0.428783   -1.014196
  H      5.132033    0.604994   -2.484466
  C      3.535896    0.749253   -3.924604
  H      4.841247    2.242136   -3.054083
  H      2.991617   -0.132199   -3.574137
  H      4.225505    0.392784   -4.695962
  C      2.564776    1.750890   -4.544523
  H      1.918749    2.171679   -3.769419
  C      1.686235    1.161657   -5.650111
  H      3.132494    2.594775   -4.951604
  C      0.839616   -0.037582   -5.220473
  H      2.323886    0.866395   -6.490796
  H      1.029518    1.951850   -6.029329
  C     -0.151019    0.254955   -4.094256
  H      1.499442   -0.857141   -4.922958
  H      0.290097   -0.410143   -6.091131
  H      0.328265    0.833022   -3.299125
  C     -0.721843   -0.999513   -3.439309
  H     -0.957367    0.884951   -4.485450
  H     -1.083403   -1.697555   -4.205656
  H     -1.581056   -0.723848   -2.820490
  C      0.287250   -1.711771   -2.527405
  H      1.131780   -2.067380   -3.159396
  H     -0.204137   -2.637326   -2.170480
  F      0.710505   -0.927506   -1.481767
  H      2.714548    2.331455   -1.760302
  H      4.090991    2.063151   -0.733382
  C      3.290978   -0.418021   -0.129083
  N      2.517536   -1.432017    0.239360
  N      4.535490   -0.284410    0.395800
  H      5.043627    0.571888    0.222899
  H      4.723346   -0.733273    1.281800
  H      1.934787    0.102305   -1.403788
  H      1.674638   -1.505616   -0.316095
  H      2.928503   -2.218502    0.725494

 Total Charge           Charge          ....    0
 Multiplicity           Mult            ....    1
 Number of Electrons    NEL             ....  112
 Basis Dimension        Dim             ....  572

ORBITAL ENERGIES
----------------

  NO   OCC          E(Eh)            E(eV)
   0   2.0000     -24.787342      -674.4979
   1   2.0000     -14.367160      -390.9503
   2   2.0000     -14.351115      -390.5137
   3   2.0000     -10.309385      -280.5326
   4   2.0000     -10.240872      -278.6683
   5   2.0000     -10.232335      -278.4360
   6   2.0000     -10.217210      -278.0244
   7   2.0000     -10.213207      -277.9155
   8   2.0000     -10.208609      -277.7904
   9   2.0000     -10.200618      -277.5729
  10   2.0000     -10.194743      -277.4131
  11   2.0000     -10.189665      -277.2749
  12   2.0000     -10.183086      -277.0958
  13   2.0000     -10.115495      -275.2566
  14   2.0000      -1.268133       -34.5076
  15   2.0000      -0.966978       -26.3128
  16   2.0000      -0.878137       -23.8953
  17   2.0000      -0.842617       -22.9288
  18   2.0000      -0.817452       -22.2440
  19   2.0000      -0.787817       -21.4376
  20   2.0000      -0.753259       -20.4972
  21   2.0000      -0.714043       -19.4301
  22   2.0000      -0.687212       -18.7000
  23   2.0000      -0.652527       -17.7562
  24   2.0000      -0.621289       -16.9061
  25   2.0000      -0.606172       -16.4948
  26   2.0000      -0.581482       -15.8229
  27   2.0000      -0.564209       -15.3529
  28   2.0000      -0.549766       -14.9599
  29   2.0000      -0.537101       -14.6153
  30   2.0000      -0.527918       -14.3654
  31   2.0000      -0.511129       -13.9085
  32   2.0000      -0.501008       -13.6331
  33   2.0000      -0.477267       -12.9871
  34   2.0000      -0.469320       -12.7708
  35   2.0000      -0.456225       -12.4145
  36   2.0000      -0.449953       -12.2438
  37   2.0000      -0.436606       -11.8807
  38   2.0000      -0.425880       -11.5888
  39   2.0000      -0.415761       -11.3134
  40   2.0000      -0.407642       -11.0925
  41   2.0000      -0.389434       -10.5970
  42   2.0000      -0.383911       -10.4468
  43   2.0000      -0.376422       -10.2430
  44   2.0000      -0.372170       -10.1273
  45   2.0000      -0.368924       -10.0389
  46   2.0000      -0.349199        -9.5022
  47   2.0000      -0.340981        -9.2786
  48   2.0000      -0.331239        -9.0135
  49   2.0000      -0.328776        -8.9464
  50   2.0000      -0.325550        -8.8587
  51   2.0000      -0.310451        -8.4478
  52   2.0000      -0.304018        -8.2727
  53   2.0000      -0.298661        -8.1270
  54   2.0000      -0.259592        -7.0638
  55   2.0000      -0.154222        -4.1966
  56   0.0000       0.038124         1.0374
  57   0.0000       0.046844         1.2747
  58   0.0000       0.054802         1.4912
  59   0.0000       0.061370         1.6700
  60   0.0000       0.071399         1.9429

MULLIKEN ATOMIC CHARGES
-----------------------
   0 C :   -0.283117
   1 C :   -0.071092
   2 C :   -0.384103
   3 H :    0.090792
   4 C :   -0.211423
   5 H :    0.071501
   6 H :    0.099208
   7 H :    0.090622
   8 C :   -0.265571
   9 H :    0.109538
  10 C :   -0.110024
  11 H :    0.098007
  12 C :   -0.271109
  13 H :    0.096139
  14 H :    0.093831
  15 C :   -0.208987
  16 H :    0.108112
  17 H :    0.105199
  18 H :    0.123621
  19 C :   -0.151886
  20 H :    0.107073
  21 H :    0.105045
  22 H :    0.113766
  23 C :   -0.055261
  24 H :    0.112469
  25 H :    0.123152
  26 F :   -0.221116
  27 H :    0.103506
  28 H :    0.083067
  29 C :    0.251323
  30 N :   -0.481408
  31 N :   -0.487026
  32 H :    0.236324
  33 H :    0.215913
  34 H :    0.198316
  35 H :    0.252769
  36 H :    0.212827
Sum of atomic charges:   -0.0000000

LOEWDIN ATOMIC CHARGES
----------------------
   0 C :   -0.292300
   1 C :   -0.266334
   2 C :   -0.285539
   3 H :    0.135155
   4 C :   -0.270170
   5 H :    0.128773
   6 H :    0.135884
   7 H :    0.134041
   8 C :   -0.272326
   9 H :    0.133985
  10 C :   -0.271414
  11 H :    0.136990
  12 C :   -0.274611
  13 H :    0.137291
  14 H :    0.136668
  15 C :   -0.270780
  16 H :    0.133241
  17 H :    0.136025
  18 H :    0.144267
  19 C :   -0.275741
  20 H :    0.138748
  21 H :    0.146010
  22 H :    0.141436
  23 C :   -0.345619
  24 H :    0.126634
  25 H :    0.126759
  26 F :    0.146970
  27 H :    0.139429
  28 H :    0.129901
  29 C :   -0.462657
  30 N :   -0.026402
  31 N :   -0.034290
  32 H :    0.168507
  33 H :    0.157054
  34 H :    0.117573
  35 H :    0.160484
  36 H :    0.156358

  Mayer bond orders larger than 0.100000
B(  0-C ,  1-C ) :   0.9707 B(  0-C ,  2-C ) :   0.9856 B(  0-C , 27-H ) :   0.9926
B(  0-C , 28-H ) :   0.9716 B(  1-C ,  3-H ) :   0.9484 B(  1-C ,  4-C ) :   1.0179
B(  1-C ,  5-H ) :   0.9545 B(  2-C , 29-C ) :   1.6777 B(  2-C , 34-H ) :   0.9509
B(  4-C ,  6-H ) :   0.9624 B(  4-C ,  7-H ) :   0.9551 B(  4-C ,  8-C ) :   0.9962
B(  8-C ,  9-H ) :   0.9802 B(  8-C , 10-C ) :   1.0026 B(  8-C , 11-H ) :   0.9525
B( 10-C , 12-C ) :   0.9993 B( 10-C , 13-H ) :   0.9554 B( 10-C , 14-H ) :   0.9593
B( 12-C , 15-C ) :   0.9886 B( 12-C , 16-H ) :   0.9779 B( 12-C , 17-H ) :   0.9509
B( 15-C , 18-H ) :   0.9702 B( 15-C , 19-C ) :   0.9909 B( 15-C , 20-H ) :   0.9528
B( 19-C , 21-H ) :   0.9452 B( 19-C , 22-H ) :   0.9534 B( 19-C , 23-C ) :   1.0328
B( 23-C , 24-H ) :   0.9697 B( 23-C , 25-H ) :   0.9549 B( 23-C , 26-F ) :   0.9183
B( 29-C , 30-N ) :   1.2262 B( 29-C , 31-N ) :   1.1634 B( 30-N , 35-H ) :   0.8801
B( 30-N , 36-H ) :   0.9193 B( 31-N , 32-H ) :   0.9154 B( 31-N , 33-H ) :   0.9177

Dispersion correction           -0.035156289
FINAL SINGLE POINT ENERGY      -641.833848349993

DIPOLE MOMENT
-------------
                                X             Y             Z
Electronic contribution:     -1.56486      -4.90603      10.78103
Nuclear contribution   :      1.15699       3.94991     -10.89335
                        -----------------------------------------
Total Dipole Moment    :     -0.40787      -0.95612      -0.11232
                        -----------------------------------------
Magnitude (a.u.)       :      1.04554
Magnitude (Debye)      :      2.65754

Rotational constants in cm-1:     0.026548     0.016177     0.010851
Rotational constants in MHz :   795.884848   484.988695   325.313537

                             ****ORCA TERMINATED NORMALLY****
TOTAL RUN TIME: 0 days 0 hours 0 minutes 57 seconds 213 msec
