                         Program Version 5.0.0 -  RELEASE  -
|  1> !PBE0 D3BJ RIJCOSX def2-TZVP def2/J TightSCF xyzfile
|  2>
|  3> *xyzfile 0 1 D2.xyz
|  4>
|  5> %MaxCore 64000
|  6>
|  7> %pal nprocs 18
|  8> end
|  9>
| 10> %scf
| 11>   MaxIter 150
| 12> end
| 13>
| 14>
| 15>                          ****END OF INPUT****

CARTESIAN COORDINATES (ANGSTROEM)
---------------------------------
  C      3.488276    1.600919   -1.522040
  C      4.342970    1.313419   -2.756826
  N      2.810285    0.428783   -1.014196
  H      5.132033    0.604994   -2.484466
  C      3.535896    0.749253   -3.924604
  H      4.841247    2.242136   -3.054083
  H      2.991617   -0.132199   -3.574137
  H      4.225505    0.392784   -4.695962
  C      2.564776    1.750890   -4.544523
  H      1.918749    2.171679   -3.769419
  C      1.686235    1.161657   -5.650111
  H      3.132494    2.594775   -4.951604
  C      0.839616   -0.037582   -5.220473
  H      2.323886    0.866395   -6.490796
  H      1.029518    1.951850   -6.029329
  C     -0.151019    0.254955   -4.094256
  H      1.499442   -0.857141   -4.922958
  H      0.290097   -0.410143   -6.091131
  H      0.328265    0.833022   -3.299125
  C     -0.721843   -0.999513   -3.439309
  H     -0.957367    0.884951   -4.485450
  H     -1.083403   -1.697555   -4.205656
  H     -1.581056   -0.723848   -2.820490
  C      0.287250   -1.711771   -2.527405
  H      1.131780   -2.067380   -3.159396
  H     -0.204137   -2.637326   -2.170480
  F      0.710505   -0.927506   -1.481767
  H      2.714548    2.331455   -1.760302
  H      4.090991    2.063151   -0.733382
  C      3.290978   -0.418021   -0.129083
  C      2.517536   -1.432017    0.239360
  N      4.535490   -0.284410    0.395800
  H      5.043627    0.571888    0.222899
  H      4.723346   -0.733273    1.281800
  H      1.934787    0.102305   -1.403788
  H      1.674638   -1.505616   -0.316095
  H      2.928503   -2.218502    0.725494

 Total Charge           Charge          ....    0
 Multiplicity           Mult            ....    1
 Number of Electrons    NEL             ....  112
 Basis Dimension        Dim             ....  572

ORBITAL ENERGIES
----------------

  NO   OCC          E(Eh)            E(eV)
   0   2.0000     -24.785447      -674.4463
   1   2.0000     -14.365662      -390.9095
   2   2.0000     -14.358558      -390.7162
   3   2.0000     -10.308466      -280.5076
   4   2.0000     -10.247523      -278.8493
   5   2.0000     -10.243493      -278.7396
   6   2.0000     -10.234484      -278.4945
   7   2.0000     -10.224643      -278.2267
   8   2.0000     -10.221140      -278.1314
   9   2.0000     -10.219117      -278.0763
  10   2.0000     -10.215888      -277.9885
  11   2.0000     -10.213628      -277.9269
  12   2.0000     -10.212786      -277.9040
  13   2.0000     -10.099813      -274.8299
  14   2.0000      -1.266219       -34.4556
  15   2.0000      -0.977849       -26.6086
  16   2.0000      -0.892781       -24.2938
  17   2.0000      -0.850831       -23.1523
  18   2.0000      -0.823322       -22.4037
  19   2.0000      -0.795801       -21.6548
  20   2.0000      -0.749908       -20.4060
  21   2.0000      -0.725685       -19.7469
  22   2.0000      -0.690644       -18.7934
  23   2.0000      -0.663357       -18.0509
  24   2.0000      -0.630020       -17.1437
  25   2.0000      -0.614437       -16.7197
  26   2.0000      -0.594036       -16.1645
  27   2.0000      -0.576358       -15.6835
  28   2.0000      -0.551468       -15.0062
  29   2.0000      -0.537977       -14.6391
  30   2.0000      -0.525820       -14.3083
  31   2.0000      -0.511136       -13.9087
  32   2.0000      -0.498647       -13.5689
  33   2.0000      -0.487645       -13.2695
  34   2.0000      -0.481826       -13.1112
  35   2.0000      -0.467537       -12.7223
  36   2.0000      -0.451338       -12.2815
  37   2.0000      -0.444385       -12.0923
  38   2.0000      -0.442176       -12.0322
  39   2.0000      -0.426682       -11.6106
  40   2.0000      -0.408145       -11.1062
  41   2.0000      -0.395297       -10.7566
  42   2.0000      -0.386041       -10.5047
  43   2.0000      -0.383327       -10.4309
  44   2.0000      -0.376868       -10.2551
  45   2.0000      -0.371922       -10.1205
  46   2.0000      -0.357637        -9.7318
  47   2.0000      -0.354395        -9.6436
  48   2.0000      -0.348385        -9.4800
  49   2.0000      -0.339448        -9.2369
  50   2.0000      -0.331623        -9.0239
  51   2.0000      -0.327815        -8.9203
  52   2.0000      -0.324573        -8.8321
  53   2.0000      -0.321028        -8.7356
  54   2.0000      -0.252008        -6.8575
  55   2.0000      -0.151844        -4.1319
  56   0.0000       0.036332         0.9887
  57   0.0000       0.042889         1.1671
  58   0.0000       0.049954         1.3593
  59   0.0000       0.055575         1.5123
  60   0.0000       0.065403         1.7797

MULLIKEN ATOMIC CHARGES
-----------------------
   0 C :   -0.257657
   1 C :   -0.057676
   2 N :   -0.271651
   3 H :    0.106275
   4 C :   -0.267536
   5 H :    0.082593
   6 H :    0.110838
   7 H :    0.103673
   8 C :   -0.255459
   9 H :    0.104778
  10 C :   -0.113320
  11 H :    0.103720
  12 C :   -0.275961
  13 H :    0.100964
  14 H :    0.098259
  15 C :   -0.214210
  16 H :    0.112253
  17 H :    0.110410
  18 H :    0.108894
  19 C :   -0.149092
  20 H :    0.111278
  21 H :    0.105795
  22 H :    0.116597
  23 C :   -0.041457
  24 H :    0.110192
  25 H :    0.129154
  26 F :   -0.222200
  27 H :    0.132172
  28 H :    0.116354
  29 C :    0.312891
  30 C :   -0.580546
  31 N :   -0.492552
  32 H :    0.217879
  33 H :    0.244220
  34 H :    0.240811
  35 H :    0.126583
  36 H :    0.092736
Sum of atomic charges:   -0.0000000

LOEWDIN ATOMIC CHARGES
----------------------
   0 C :   -0.302866
   1 C :   -0.274384
   2 N :    0.128494
   3 H :    0.138500
   4 C :   -0.272378
   5 H :    0.135461
   6 H :    0.136347
   7 H :    0.138623
   8 C :   -0.273971
   9 H :    0.132166
  10 C :   -0.270131
  11 H :    0.138302
  12 C :   -0.274164
  13 H :    0.138677
  14 H :    0.138151
  15 C :   -0.272503
  16 H :    0.133830
  17 H :    0.137928
  18 H :    0.138696
  19 C :   -0.276344
  20 H :    0.139598
  21 H :    0.146329
  22 H :    0.142149
  23 C :   -0.339634
  24 H :    0.126203
  25 H :    0.131209
  26 F :    0.146800
  27 H :    0.132215
  28 H :    0.129259
  29 C :   -0.466336
  30 C :   -0.365120
  31 N :   -0.031008
  32 H :    0.154741
  33 H :    0.174075
  34 H :    0.174867
  35 H :    0.093519
  36 H :    0.092701

  Mayer bond orders larger than 0.100000
B(  0-C ,  1-C ) :   0.9546 B(  0-C ,  2-N ) :   0.9579 B(  0-C , 27-H ) :   0.9808
B(  0-C , 28-H ) :   0.9709 B(  1-C ,  3-H ) :   0.9459 B(  1-C ,  4-C ) :   0.9939
B(  1-C ,  5-H ) :   0.9510 B(  2-N , 29-C ) :   1.2258 B(  2-N , 34-H ) :   0.8793
B(  4-C ,  6-H ) :   0.9708 B(  4-C ,  7-H ) :   0.9540 B(  4-C ,  8-C ) :   0.9916
B(  8-C ,  9-H ) :   0.9784 B(  8-C , 10-C ) :   1.0057 B(  8-C , 11-H ) :   0.9519
B( 10-C , 12-C ) :   0.9938 B( 10-C , 13-H ) :   0.9563 B( 10-C , 14-H ) :   0.9595
B( 12-C , 15-C ) :   0.9848 B( 12-C , 16-H ) :   0.9801 B( 12-C , 17-H ) :   0.9508
B( 15-C , 18-H ) :   0.9763 B( 15-C , 19-C ) :   0.9878 B( 15-C , 20-H ) :   0.9519
B( 19-C , 21-H ) :   0.9452 B( 19-C , 22-H ) :   0.9539 B( 19-C , 23-C ) :   1.0257
B( 23-C , 24-H ) :   0.9690 B( 23-C , 25-H ) :   0.9604 B( 23-C , 26-F ) :   0.9063
B( 29-C , 30-C ) :   1.6650 B( 29-C , 31-N ) :   1.1317 B( 30-C , 35-H ) :   1.0004
B( 30-C , 36-H ) :   0.9879 B( 31-N , 32-H ) :   0.9184 B( 31-N , 33-H ) :   0.9169

Dispersion correction           -0.034943364
FINAL SINGLE POINT ENERGY      -641.820982329113

DIPOLE MOMENT
-------------
                                X             Y             Z
Electronic contribution:     -1.25170      -3.13134       9.46301
Nuclear contribution   :      1.09892       3.58083     -10.64472
                        -----------------------------------------
Total Dipole Moment    :     -0.15278       0.44949      -1.18171
                        -----------------------------------------
Magnitude (a.u.)       :      1.27351
Magnitude (Debye)      :      3.23700

Rotational constants in cm-1:     0.026768     0.016312     0.010954
Rotational constants in MHz :   802.489946   489.033275   328.388904

                             ****ORCA TERMINATED NORMALLY****
TOTAL RUN TIME: 0 days 0 hours 1 minutes 8 seconds 602 msec
