                         Program Version 5.0.0 -  RELEASE  -
|  1> !PBE0 D3BJ RIJCOSX def2-TZVP def2/J TightSCF xyzfile
|  2>
|  3> *xyzfile 0 1 D3.xyz
|  4>
|  5> %MaxCore 64000
|  6>
|  7> %pal nprocs 18
|  8> end
|  9>
| 10> %scf
| 11>   MaxIter 150
| 12> end
| 13>
| 14>
| 15>                          ****END OF INPUT****

CARTESIAN COORDINATES (ANGSTROEM)
---------------------------------
  C      3.488276    1.600919   -1.522040
  C      4.342970    1.313419   -2.756826
  N      2.810285    0.428783   -1.014196
  H      5.132033    0.604994   -2.484466
  C      3.535896    0.749253   -3.924604
  H      4.841247    2.242136   -3.054083
  H      2.991617   -0.132199   -3.574137
  H      4.225505    0.392784   -4.695962
  C      2.564776    1.750890   -4.544523
  H      1.918749    2.171679   -3.769419
  C      1.686235    1.161657   -5.650111
  H      3.132494    2.594775   -4.951604
  C      0.839616   -0.037582   -5.220473
  H      2.323886    0.866395   -6.490796
  H      1.029518    1.951850   -6.029329
  C     -0.151019    0.254955   -4.094256
  H      1.499442   -0.857141   -4.922958
  H      0.290097   -0.410143   -6.091131
  H      0.328265    0.833022   -3.299125
  C     -0.721843   -0.999513   -3.439309
  H     -0.957367    0.884951   -4.485450
  H     -1.083403   -1.697555   -4.205656
  H     -1.581056   -0.723848   -2.820490
  C      0.287250   -1.711771   -2.527405
  H      1.131780   -2.067380   -3.159396
  H     -0.204137   -2.637326   -2.170480
  F      0.710505   -0.927506   -1.481767
  H      2.714548    2.331455   -1.760302
  H      4.090991    2.063151   -0.733382
  C      3.290978   -0.418021   -0.129083
  N      2.517536   -1.432017    0.239360
  C      4.535490   -0.284410    0.395800
  H      5.043627    0.571888    0.222899
  H      4.723346   -0.733273    1.281800
  H      1.934787    0.102305   -1.403788
  H      1.674638   -1.505616   -0.316095
  H      2.928503   -2.218502    0.725494

 Total Charge           Charge          ....    0
 Multiplicity           Mult            ....    1
 Number of Electrons    NEL             ....  112
 Basis Dimension        Dim             ....  572

ORBITAL ENERGIES
----------------

  NO   OCC          E(Eh)            E(eV)
   0   2.0000     -24.815577      -675.2662
   1   2.0000     -14.362390      -390.8205
   2   2.0000     -14.354263      -390.5994
   3   2.0000     -10.327166      -281.0165
   4   2.0000     -10.246851      -278.8310
   5   2.0000     -10.245843      -278.8036
   6   2.0000     -10.239414      -278.6286
   7   2.0000     -10.232295      -278.4349
   8   2.0000     -10.226264      -278.2708
   9   2.0000     -10.221157      -278.1318
  10   2.0000     -10.215405      -277.9753
  11   2.0000     -10.211318      -277.8641
  12   2.0000     -10.205504      -277.7059
  13   2.0000     -10.110561      -275.1223
  14   2.0000      -1.295163       -35.2432
  15   2.0000      -0.983797       -26.7705
  16   2.0000      -0.893645       -24.3173
  17   2.0000      -0.857266       -23.3274
  18   2.0000      -0.826891       -22.5008
  19   2.0000      -0.792439       -21.5634
  20   2.0000      -0.749989       -20.4083
  21   2.0000      -0.716000       -19.4833
  22   2.0000      -0.709142       -19.2967
  23   2.0000      -0.674283       -18.3482
  24   2.0000      -0.640284       -17.4230
  25   2.0000      -0.613027       -16.6813
  26   2.0000      -0.591187       -16.0870
  27   2.0000      -0.578229       -15.7344
  28   2.0000      -0.572544       -15.5797
  29   2.0000      -0.544495       -14.8165
  30   2.0000      -0.536345       -14.5947
  31   2.0000      -0.524786       -14.2801
  32   2.0000      -0.508527       -13.8377
  33   2.0000      -0.491388       -13.3713
  34   2.0000      -0.478315       -13.0156
  35   2.0000      -0.468899       -12.7594
  36   2.0000      -0.454192       -12.3592
  37   2.0000      -0.450912       -12.2699
  38   2.0000      -0.442888       -12.0516
  39   2.0000      -0.423743       -11.5306
  40   2.0000      -0.414454       -11.2779
  41   2.0000      -0.398343       -10.8395
  42   2.0000      -0.392042       -10.6680
  43   2.0000      -0.384495       -10.4626
  44   2.0000      -0.382565       -10.4101
  45   2.0000      -0.372587       -10.1386
  46   2.0000      -0.363158        -9.8820
  47   2.0000      -0.360097        -9.7987
  48   2.0000      -0.351648        -9.5688
  49   2.0000      -0.348046        -9.4708
  50   2.0000      -0.341624        -9.2961
  51   2.0000      -0.327821        -8.9205
  52   2.0000      -0.326176        -8.8757
  53   2.0000      -0.319218        -8.6864
  54   2.0000      -0.241736        -6.5780
  55   2.0000      -0.155948        -4.2436
  56   0.0000       0.027658         0.7526
  57   0.0000       0.041278         1.1232
  58   0.0000       0.050489         1.3739
  59   0.0000       0.054555         1.4845
  60   0.0000       0.065538         1.7834

MULLIKEN ATOMIC CHARGES
-----------------------
   0 C :   -0.208419
   1 C :   -0.080866
   2 N :   -0.289063
   3 H :    0.127379
   4 C :   -0.264312
   5 H :    0.086292
   6 H :    0.095535
   7 H :    0.103525
   8 C :   -0.259004
   9 H :    0.104978
  10 C :   -0.114388
  11 H :    0.105494
  12 C :   -0.274955
  13 H :    0.102326
  14 H :    0.098798
  15 C :   -0.218160
  16 H :    0.110995
  17 H :    0.112051
  18 H :    0.113082
  19 C :   -0.155236
  20 H :    0.115503
  21 H :    0.112375
  22 H :    0.120370
  23 C :   -0.052833
  24 H :    0.122442
  25 H :    0.134808
  26 F :   -0.242815
  27 H :    0.125626
  28 H :    0.131860
  29 C :    0.305934
  30 N :   -0.485905
  31 C :   -0.566679
  32 H :    0.081985
  33 H :    0.089964
  34 H :    0.228827
  35 H :    0.239463
  36 H :    0.243019
Sum of atomic charges:   -0.0000000

LOEWDIN ATOMIC CHARGES
----------------------
   0 C :   -0.284739
   1 C :   -0.268998
   2 N :    0.126075
   3 H :    0.145686
   4 C :   -0.273989
   5 H :    0.136879
   6 H :    0.132057
   7 H :    0.138303
   8 C :   -0.274080
   9 H :    0.131768
  10 C :   -0.270002
  11 H :    0.139125
  12 C :   -0.274258
  13 H :    0.139250
  14 H :    0.138187
  15 C :   -0.271505
  16 H :    0.133348
  17 H :    0.138172
  18 H :    0.139573
  19 C :   -0.274599
  20 H :    0.141084
  21 H :    0.148766
  22 H :    0.143123
  23 C :   -0.342379
  24 H :    0.128682
  25 H :    0.131358
  26 F :    0.138756
  27 H :    0.129537
  28 H :    0.140085
  29 C :   -0.472656
  30 N :   -0.018758
  31 C :   -0.383793
  32 H :    0.092311
  33 H :    0.093070
  34 H :    0.162887
  35 H :    0.147424
  36 H :    0.174251

  Mayer bond orders larger than 0.100000
B(  0-C ,  1-C ) :   0.9753 B(  0-C ,  2-N ) :   0.9479 B(  0-C , 27-H ) :   0.9822
B(  0-C , 28-H ) :   0.9555 B(  1-C ,  3-H ) :   0.9443 B(  1-C ,  4-C ) :   0.9985
B(  1-C ,  5-H ) :   0.9577 B(  2-N , 29-C ) :   1.2195 B(  2-N , 34-H ) :   0.8807
B(  4-C ,  6-H ) :   0.9704 B(  4-C ,  7-H ) :   0.9537 B(  4-C ,  8-C ) :   0.9894
B(  8-C ,  9-H ) :   0.9795 B(  8-C , 10-C ) :   1.0031 B(  8-C , 11-H ) :   0.9524
B( 10-C , 12-C ) :   0.9949 B( 10-C , 13-H ) :   0.9559 B( 10-C , 14-H ) :   0.9596
B( 12-C , 15-C ) :   0.9824 B( 12-C , 16-H ) :   0.9804 B( 12-C , 17-H ) :   0.9503
B( 15-C , 18-H ) :   0.9769 B( 15-C , 19-C ) :   0.9873 B( 15-C , 20-H ) :   0.9523
B( 19-C , 21-H ) :   0.9437 B( 19-C , 22-H ) :   0.9544 B( 19-C , 23-C ) :   1.0300
B( 23-C , 24-H ) :   0.9690 B( 23-C , 25-H ) :   0.9575 B( 23-C , 26-F ) :   0.8840
B( 29-C , 30-N ) :   1.1761 B( 29-C , 31-C ) :   1.6217 B( 30-N , 35-H ) :   0.8887
B( 30-N , 36-H ) :   0.9164 B( 31-C , 32-H ) :   0.9994 B( 31-C , 33-H ) :   0.9866

Dispersion correction           -0.034927332
FINAL SINGLE POINT ENERGY      -641.832882616275

DIPOLE MOMENT
-------------
                                X             Y             Z
Electronic contribution:     -3.26568      -4.33089       9.09116
Nuclear contribution   :      1.49917       3.80845     -10.61369
                        -----------------------------------------
Total Dipole Moment    :     -1.76651      -0.52243      -1.52253
                        -----------------------------------------
Magnitude (a.u.)       :      2.38989
Magnitude (Debye)      :      6.07462

Rotational constants in cm-1:     0.026547     0.016542     0.011018
Rotational constants in MHz :   795.873737   495.912559   330.323979

                             ****ORCA TERMINATED NORMALLY****
TOTAL RUN TIME: 0 days 0 hours 1 minutes 10 seconds 439 msec
