                         Program Version 5.0.0 -  RELEASE  -
|  1> !M062X D3Zero RIJCOSX def2-TZVPD def2/J TightSCF
|  2> *xyz -1 1
|  3> C          0.70466        1.44313       -4.50363
|  4> C          1.72854        1.42432       -5.63944
|  5> H          2.64672        1.95379       -5.38105
|  6> H          1.29992        1.93061       -6.50361
|  7> S          2.25263       -0.18811       -6.27184
|  8> O          3.56261       -0.44446       -5.63155
|  9> O          2.34494       -0.03374       -7.69650
| 10> O          1.26606       -1.15918       -5.80536
| 11> H         -0.17385        0.91270       -4.80656
| 12> H          0.44778        2.45562       -4.27173
| 13> H          1.12367        0.97423       -3.63791
| 14> *
| 15>
| 16> %MaxCore 64000
| 17>
| 18> %pal nprocs 4
| 19> end
| 20>
| 21> %scf
| 22>   MaxIter 150
| 23> end
| 24>
| 25>
| 26>                          ****END OF INPUT****

CARTESIAN COORDINATES (ANGSTROEM)
---------------------------------
  C      0.704660    1.443130   -4.503630
  C      1.728540    1.424320   -5.639440
  H      2.646720    1.953790   -5.381050
  H      1.299920    1.930610   -6.503610
  S      2.252630   -0.188110   -6.271840
  O      3.562610   -0.444460   -5.631550
  O      2.344940   -0.033740   -7.696500
  O      1.266060   -1.159180   -5.805360
  H     -0.173850    0.912700   -4.806560
  H      0.447780    2.455620   -4.271730
  H      1.123670    0.974230   -3.637910

 Total Charge           Charge          ....   -1
 Multiplicity           Mult            ....    1
 Number of Electrons    NEL             ....   58
 Basis Dimension        Dim             ....  285

ORBITAL ENERGIES
----------------

  NO   OCC          E(Eh)            E(eV)
   0   2.0000     -89.889790     -2446.0255
   1   2.0000     -19.409005      -528.1459
   2   2.0000     -19.402389      -527.9658
   3   2.0000     -19.393652      -527.7281
   4   2.0000     -10.396410      -282.9007
   5   2.0000     -10.392238      -282.7872
   6   2.0000      -8.214488      -223.5276
   7   2.0000      -6.137230      -167.0025
   8   2.0000      -6.136013      -166.9694
   9   2.0000      -6.135820      -166.9642
  10   2.0000      -1.046114       -28.4662
  11   2.0000      -0.912908       -24.8415
  12   2.0000      -0.889378       -24.2012
  13   2.0000      -0.729935       -19.8625
  14   2.0000      -0.596854       -16.2412
  15   2.0000      -0.467038       -12.7087
  16   2.0000      -0.392484       -10.6800
  17   2.0000      -0.390036       -10.6134
  18   2.0000      -0.351904        -9.5758
  19   2.0000      -0.338552        -9.2125
  20   2.0000      -0.332131        -9.0377
  21   2.0000      -0.291534        -7.9330
  22   2.0000      -0.284035        -7.7290
  23   2.0000      -0.227255        -6.1839
  24   2.0000      -0.225719        -6.1421
  25   2.0000      -0.188339        -5.1250
  26   2.0000      -0.176869        -4.8129
  27   2.0000      -0.169336        -4.6079
  28   2.0000      -0.137570        -3.7435
  29   0.0000       0.126645         3.4462
  30   0.0000       0.143839         3.9141
  31   0.0000       0.146609         3.9894
  32   0.0000       0.156866         4.2685
  33   0.0000       0.173996         4.7347

MULLIKEN ATOMIC CHARGES
-----------------------
   0 C :   -1.070683
   1 C :   -0.526978
   2 H :    0.312602
   3 H :    0.329664
   4 S :    1.328696
   5 O :   -0.776246
   6 O :   -0.746669
   7 O :   -0.761063
   8 H :    0.279304
   9 H :    0.340271
  10 H :    0.291102
Sum of atomic charges:   -1.0000000

LOEWDIN ATOMIC CHARGES
----------------------
   0 C :   -0.148850
   1 C :   -0.318777
   2 H :    0.081942
   3 H :    0.076186
   4 S :    0.375029
   5 O :   -0.434352
   6 O :   -0.396600
   7 O :   -0.408365
   8 H :    0.058591
   9 H :    0.050592
  10 H :    0.064605

  Mayer bond orders larger than 0.100000
B(  0-C ,  1-C ) :   0.4506 B(  0-C ,  8-H ) :   1.0214 B(  0-C ,  9-H ) :   0.9257
B(  0-C , 10-H ) :   0.9960 B(  1-C ,  2-H ) :   0.9781 B(  1-C ,  3-H ) :   0.9518
B(  1-C ,  4-S ) :   0.8883 B(  1-C ,  5-O ) :   0.1150 B(  1-C ,  6-O ) :   0.1047
B(  4-S ,  5-O ) :   1.4197 B(  4-S ,  6-O ) :   1.4520 B(  4-S ,  7-O ) :   1.4480

Dispersion correction           -0.000153212
FINAL SINGLE POINT ENERGY      -703.157481819771

DIPOLE MOMENT
-------------
                                X             Y             Z
Electronic contribution:      3.62826      -5.58376      -4.28493
Nuclear contribution   :     -4.50297       7.24642       5.01775
                        -----------------------------------------
Total Dipole Moment    :     -0.87471       1.66266       0.73282
                        -----------------------------------------
Magnitude (a.u.)       :      2.01658
Magnitude (Debye)      :      5.12573

Rotational constants in cm-1:     0.162459     0.081286     0.079601
Rotational constants in MHz :  4870.394399  2436.893583  2386.374948

                             ****ORCA TERMINATED NORMALLY****
TOTAL RUN TIME: 0 days 0 hours 0 minutes 51 seconds 653 msec
