                         Program Version 5.0.0 -  RELEASE  -
|  1> !M062X D3Zero RIJCOSX def2-TZVPD def2/J TightSCF
|  2> *xyz 1 1
|  3> C          2.91632       -1.24259       -1.54313
|  4> C          3.46659       -1.59097       -2.88908
|  5> N          4.65227       -1.14316       -3.25969
|  6> N          2.75226       -2.29204       -3.72803
|  7> H          1.77836       -2.48960       -3.51274
|  8> H          2.94861       -2.20854       -4.71681
|  9> H          5.14672       -0.51251       -2.63385
| 10> H          4.78303       -1.00720       -4.25350
| 11> C          2.80408        0.29070       -1.35924
| 12> H          1.94047       -1.71653       -1.44116
| 13> H          3.55857       -1.66343       -0.76637
| 14> H          2.17393        0.69633       -2.12297
| 15> H          3.77707        0.73043       -1.42880
| 16> H          2.38369        0.50492       -0.39889
| 17> *
| 18>
| 19> %MaxCore 64000
| 20>
| 21> %pal nprocs 4
| 22> end
| 23>
| 24> %scf
| 25>   MaxIter 150
| 26> end
| 27>
| 28>
| 29>                          ****END OF INPUT****

CARTESIAN COORDINATES (ANGSTROEM)
---------------------------------
  C      2.916320   -1.242590   -1.543130
  C      3.466590   -1.590970   -2.889080
  N      4.652270   -1.143160   -3.259690
  N      2.752260   -2.292040   -3.728030
  H      1.778360   -2.489600   -3.512740
  H      2.948610   -2.208540   -4.716810
  H      5.146720   -0.512510   -2.633850
  H      4.783030   -1.007200   -4.253500
  C      2.804080    0.290700   -1.359240
  H      1.940470   -1.716530   -1.441160
  H      3.558570   -1.663430   -0.766370
  H      2.173930    0.696330   -2.122970
  H      3.777070    0.730430   -1.428800
  H      2.383690    0.504920   -0.398890

 Total Charge           Charge          ....    1
 Multiplicity           Mult            ....    1
 Number of Electrons    NEL             ....   40
 Basis Dimension        Dim             ....  266

ORBITAL ENERGIES
----------------

  NO   OCC          E(Eh)            E(eV)
   0   2.0000     -14.997451      -408.1014
   1   2.0000     -14.991653      -407.9436
   2   2.0000     -10.865628      -295.6688
   3   2.0000     -10.738123      -292.1992
   4   2.0000     -10.697257      -291.0872
   5   2.0000      -1.323982       -36.0274
   6   2.0000      -1.217248       -33.1230
   7   2.0000      -1.069565       -29.1044
   8   2.0000      -0.953572       -25.9480
   9   2.0000      -0.900850       -24.5134
  10   2.0000      -0.844074       -22.9684
  11   2.0000      -0.831471       -22.6255
  12   2.0000      -0.768652       -20.9161
  13   2.0000      -0.738856       -20.1053
  14   2.0000      -0.695333       -18.9210
  15   2.0000      -0.669490       -18.2178
  16   2.0000      -0.616455       -16.7746
  17   2.0000      -0.606684       -16.5087
  18   2.0000      -0.594660       -16.1815
  19   2.0000      -0.562559       -15.3080
  20   0.0000      -0.183514        -4.9937
  21   0.0000      -0.148463        -4.0399
  22   0.0000      -0.111243        -3.0271
  23   0.0000      -0.106678        -2.9029
  24   0.0000      -0.085976        -2.3395

MULLIKEN ATOMIC CHARGES
-----------------------
   0 C :   -0.645554
   1 C :    1.003369
   2 N :   -0.585032
   3 N :   -0.546228
   4 H :    0.305316
   5 H :    0.281076
   6 H :    0.310134
   7 H :    0.278875
   8 C :   -1.055107
   9 H :    0.339754
  10 H :    0.338312
  11 H :    0.330266
  12 H :    0.325241
  13 H :    0.319577
Sum of atomic charges:    1.0000000

LOEWDIN ATOMIC CHARGES
----------------------
   0 C :   -0.138161
   1 C :   -0.365824
   2 N :    0.221088
   3 N :    0.226270
   4 H :    0.154136
   5 H :    0.149714
   6 H :    0.146690
   7 H :    0.148905
   8 C :   -0.049090
   9 H :    0.123994
  10 H :    0.139891
  11 H :    0.085589
  12 H :    0.069314
  13 H :    0.087483

  Mayer bond orders larger than 0.100000
B(  0-C ,  1-C ) :   0.7436 B(  0-C ,  8-C ) :   0.5347 B(  0-C ,  9-H ) :   0.9160
B(  0-C , 10-H ) :   0.9698 B(  1-C ,  2-N ) :   1.0363 B(  1-C ,  3-N ) :   1.1087
B(  2-N ,  3-N ) :   0.1024 B(  2-N ,  6-H ) :   0.8863 B(  2-N ,  7-H ) :   0.9573
B(  3-N ,  4-H ) :   0.9062 B(  3-N ,  5-H ) :   0.9442 B(  8-C , 11-H ) :   0.9766
B(  8-C , 12-H ) :   0.9075 B(  8-C , 13-H ) :   0.9891

Dispersion correction           -0.000192261
FINAL SINGLE POINT ENERGY      -228.998364577168

DIPOLE MOMENT
-------------
                                X             Y             Z
Electronic contribution:      1.30081      -2.84107      -2.75402
Nuclear contribution   :     -1.30215       2.77761       1.84194
                        -----------------------------------------
Total Dipole Moment    :     -0.00134      -0.06347      -0.91209
                        -----------------------------------------
Magnitude (a.u.)       :      0.91430
Magnitude (Debye)      :      2.32396

Rotational constants in cm-1:     0.267442     0.127541     0.099068
Rotational constants in MHz :  8017.703171  3823.592522  2969.992494

                             ****ORCA TERMINATED NORMALLY****
TOTAL RUN TIME: 0 days 0 hours 0 minutes 48 seconds 687 msec
