                         Program Version 5.0.0 -  RELEASE  -
|  1> !M062X D3Zero RIJCOSX def2-TZVPD def2/J TightSCF xyzfile
|  2>
|  3> *xyzfile 0 1 B.xyz
|  4>
|  5> %MaxCore 64000
|  6>
|  7> %pal nprocs 4
|  8> end
|  9>
| 10> %scf
| 11>   MaxIter 150
| 12> end
| 13>
| 14>
| 15>                          ****END OF INPUT****

CARTESIAN COORDINATES (ANGSTROEM)
---------------------------------
  C      2.916324   -1.242589   -1.543125
  C      0.704661    1.443129   -4.503630
  C      1.728539    1.424320   -5.639443
  H      2.646718    1.953794   -5.381054
  H      1.299916    1.930613   -6.503614
  S      2.252625   -0.188115   -6.271840
  C      3.466585   -1.590971   -2.889082
  N      4.652275   -1.143164   -3.259692
  N      2.752264   -2.292043   -3.728029
  H      1.778364   -2.489604   -3.512738
  H      2.948612   -2.208544   -4.716813
  H      5.146723   -0.512508   -2.633852
  H      4.783030   -1.007203   -4.253498
  O      3.562607   -0.444464   -5.631552
  O      2.344944   -0.033742   -7.696501
  C      2.804084    0.290698   -1.359243
  C      1.052550    0.695659   -3.214915
  H     -0.232483    1.032925   -4.884449
  H      0.511700    2.495794   -4.267966
  C      2.388380    1.093669   -2.597108
  H      3.763425    0.674718   -0.999889
  H      2.094788    0.461222   -0.545756
  O      1.266058   -1.159177   -5.805365
  H      3.167316    1.013242   -3.359430
  H      2.357690    2.149375   -2.310997
  H      1.039284   -0.368429   -3.449329
  H      0.250787    0.865605   -2.488283
  H      1.940472   -1.716529   -1.441161
  H      3.558569   -1.663433   -0.766371

 Total Charge           Charge          ....    0
 Multiplicity           Mult            ....    1
 Number of Electrons    NEL             ....  112
 Basis Dimension        Dim             ....  643

ORBITAL ENERGIES
----------------

  NO   OCC          E(Eh)            E(eV)
   0   2.0000     -90.045325     -2450.2579
   1   2.0000     -19.567699      -532.4642
   2   2.0000     -19.560601      -532.2710
   3   2.0000     -19.551027      -532.0105
   4   2.0000     -14.821899      -403.3244
   5   2.0000     -14.821409      -403.3111
   6   2.0000     -10.701500      -291.2026
   7   2.0000     -10.601421      -288.4793
   8   2.0000     -10.579910      -287.8940
   9   2.0000     -10.551167      -287.1119
  10   2.0000     -10.538412      -286.7648
  11   2.0000     -10.534502      -286.6584
  12   2.0000     -10.532510      -286.6042
  13   2.0000      -8.370405      -227.7703
  14   2.0000      -6.292826      -171.2365
  15   2.0000      -6.292579      -171.2298
  16   2.0000      -6.291270      -171.1942
  17   2.0000      -1.205014       -32.7901
  18   2.0000      -1.154824       -31.4244
  19   2.0000      -1.064500       -28.9665
  20   2.0000      -1.061926       -28.8965
  21   2.0000      -1.046973       -28.4896
  22   2.0000      -0.947958       -25.7952
  23   2.0000      -0.900079       -24.4924
  24   2.0000      -0.849570       -23.1180
  25   2.0000      -0.792739       -21.5715
  26   2.0000      -0.758574       -20.6419
  27   2.0000      -0.722746       -19.6669
  28   2.0000      -0.680964       -18.5300
  29   2.0000      -0.673262       -18.3204
  30   2.0000      -0.662016       -18.0144
  31   2.0000      -0.616495       -16.7757
  32   2.0000      -0.598895       -16.2967
  33   2.0000      -0.594087       -16.1659
  34   2.0000      -0.569065       -15.4851
  35   2.0000      -0.543104       -14.7786
  36   2.0000      -0.540007       -14.6943
  37   2.0000      -0.520117       -14.1531
  38   2.0000      -0.510763       -13.8986
  39   2.0000      -0.504688       -13.7333
  40   2.0000      -0.497883       -13.5481
  41   2.0000      -0.487542       -13.2667
  42   2.0000      -0.479175       -13.0390
  43   2.0000      -0.450270       -12.2525
  44   2.0000      -0.443041       -12.0557
  45   2.0000      -0.437714       -11.9108
  46   2.0000      -0.411398       -11.1947
  47   2.0000      -0.401041       -10.9129
  48   2.0000      -0.390679       -10.6309
  49   2.0000      -0.388729       -10.5778
  50   2.0000      -0.381757       -10.3881
  51   2.0000      -0.377342       -10.2680
  52   2.0000      -0.343068        -9.3354
  53   2.0000      -0.335811        -9.1379
  54   2.0000      -0.319767        -8.7013
  55   2.0000      -0.301147        -8.1946
  56   0.0000      -0.026464        -0.7201
  57   0.0000      -0.011620        -0.3162
  58   0.0000       0.002705         0.0736
  59   0.0000       0.014009         0.3812
  60   0.0000       0.020749         0.5646

MULLIKEN ATOMIC CHARGES
-----------------------
   0 C :   -0.927797
   1 C :   -0.981852
   2 C :   -0.854486
   3 H :    0.364840
   4 H :    0.417070
   5 S :    1.496685
   6 C :    0.895483
   7 N :   -0.646026
   8 N :   -0.550373
   9 H :    0.344413
  10 H :    0.322747
  11 H :    0.315066
  12 H :    0.412662
  13 O :   -0.892665
  14 O :   -0.797033
  15 C :   -0.833003
  16 C :   -0.216660
  17 H :    0.380511
  18 H :    0.401679
  19 C :   -0.442224
  20 H :    0.411660
  21 H :    0.404575
  22 O :   -0.828423
  23 H :    0.217157
  24 H :    0.423541
  25 H :    0.096982
  26 H :    0.356986
  27 H :    0.363654
  28 H :    0.344830
Sum of atomic charges:    0.0000000

LOEWDIN ATOMIC CHARGES
----------------------
   0 C :   -0.104699
   1 C :   -0.225586
   2 C :   -0.238951
   3 H :    0.094002
   4 H :    0.096568
   5 S :    0.451788
   6 C :   -0.385956
   7 N :    0.205105
   8 N :    0.220993
   9 H :    0.139849
  10 H :    0.100575
  11 H :    0.140485
  12 H :    0.102368
  13 O :   -0.419383
  14 O :   -0.335474
  15 C :   -0.182687
  16 C :   -0.210867
  17 H :    0.115185
  18 H :    0.115085
  19 C :   -0.208198
  20 H :    0.109540
  21 H :    0.117632
  22 O :   -0.374169
  23 H :    0.096323
  24 H :    0.124557
  25 H :    0.083524
  26 H :    0.121020
  27 H :    0.122221
  28 H :    0.129150

  Mayer bond orders larger than 0.100000
B(  0-C ,  6-C ) :   0.7313 B(  0-C , 15-C ) :   0.5646 B(  0-C , 16-C ) :   0.1176
B(  0-C , 19-C ) :  -0.1941 B(  0-C , 27-H ) :   0.9665 B(  0-C , 28-H ) :   1.0031
B(  1-C ,  2-C ) :   0.6005 B(  1-C , 16-C ) :   0.6541 B(  1-C , 17-H ) :   0.9377
B(  1-C , 18-H ) :   0.9156 B(  1-C , 19-C ) :   0.1671 B(  1-C , 25-H ) :   0.1165
B(  2-C ,  3-H ) :   0.9085 B(  2-C ,  4-H ) :   0.9229 B(  2-C ,  5-S ) :   0.8986
B(  2-C , 13-O ) :   0.1558 B(  2-C , 14-O ) :   0.1739 B(  2-C , 19-C ) :   0.1074
B(  5-S , 13-O ) :   1.2722 B(  5-S , 14-O ) :   1.2642 B(  5-S , 22-O ) :   1.2504
B(  6-C ,  7-N ) :   1.0374 B(  6-C ,  8-N ) :   1.1753 B(  6-C , 19-C ) :   0.1442
B(  7-N ,  8-N ) :   0.1004 B(  7-N , 11-H ) :   0.8693 B(  7-N , 12-H ) :   0.8191
B(  8-N ,  9-H ) :   0.8306 B(  8-N , 10-H ) :   0.8298 B( 15-C , 16-C ) :   0.1717
B( 15-C , 19-C ) :   0.5387 B( 15-C , 20-H ) :   0.9020 B( 15-C , 21-H ) :   0.9368
B( 16-C , 19-C ) :   0.3127 B( 16-C , 23-H ) :  -0.1543 B( 16-C , 25-H ) :   1.0735
B( 16-C , 26-H ) :   0.9152 B( 19-C , 23-H ) :   1.1221 B( 19-C , 24-H ) :   0.8361
B( 19-C , 25-H ) :  -0.1531

Dispersion correction           -0.001680590
FINAL SINGLE POINT ENERGY     -1009.749138161912

DIPOLE MOMENT
-------------
                                X             Y             Z
Electronic contribution:      2.74463      -6.26473     -13.28678
Nuclear contribution   :     -1.90023       6.18953      17.82209
                        -----------------------------------------
Total Dipole Moment    :      0.84440      -0.07520       4.53531
                        -----------------------------------------
Magnitude (a.u.)       :      4.61386
Magnitude (Debye)      :     11.72751

Rotational constants in cm-1:     0.036337     0.018755     0.015005
Rotational constants in MHz :  1089.341704   562.266628   449.834770

                             ****ORCA TERMINATED NORMALLY****
TOTAL RUN TIME: 0 days 0 hours 5 minutes 43 seconds 141 msec
