                         Program Version 5.0.0 -  RELEASE  -
|  1> !M062X D3Zero RIJCOSX def2-TZVPD def2/J TightSCF
|  2> *xyz 0 1
|  3> C          0.70466        1.44313       -4.50363
|  4> C          1.72854        1.42432       -5.63944
|  5> H          2.64672        1.95379       -5.38105
|  6> H          1.29992        1.93061       -6.50361
|  7> S          2.25263       -0.18811       -6.27184
|  8> F          3.56261       -0.44446       -5.63155
|  9> O          2.34494       -0.03374       -7.69650
| 10> O          1.26606       -1.15918       -5.80536
| 11> H         -0.17385        0.91270       -4.80656
| 12> H          0.44778        2.45562       -4.27173
| 13> H          1.12367        0.97423       -3.63791
| 14> *
| 15>
| 16> %MaxCore 64000
| 17>
| 18> %pal nprocs 4
| 19> end
| 20>
| 21> %scf
| 22>   MaxIter 150
| 23> end
| 24>
| 25>
| 26>                          ****END OF INPUT****

CARTESIAN COORDINATES (ANGSTROEM)
---------------------------------
  C      0.704660    1.443130   -4.503630
  C      1.728540    1.424320   -5.639440
  H      2.646720    1.953790   -5.381050
  H      1.299920    1.930610   -6.503610
  S      2.252630   -0.188110   -6.271840
  F      3.562610   -0.444460   -5.631550
  O      2.344940   -0.033740   -7.696500
  O      1.266060   -1.159180   -5.805360
  H     -0.173850    0.912700   -4.806560
  H      0.447780    2.455620   -4.271730
  H      1.123670    0.974230   -3.637910

 Total Charge           Charge          ....    0
 Multiplicity           Mult            ....    1
 Number of Electrons    NEL             ....   58
 Basis Dimension        Dim             ....  285

ORBITAL ENERGIES
----------------

  NO   OCC          E(Eh)            E(eV)
   0   2.0000     -90.151994     -2453.1605
   1   2.0000     -25.349419      -689.7928
   2   2.0000     -19.644049      -534.5418
   3   2.0000     -19.636978      -534.3493
   4   2.0000     -10.599018      -288.4139
   5   2.0000     -10.554687      -287.2076
   6   2.0000      -8.477124      -230.6743
   7   2.0000      -6.402005      -174.2074
   8   2.0000      -6.397191      -174.0764
   9   2.0000      -6.396325      -174.0529
  10   2.0000      -1.499537       -40.8045
  11   2.0000      -1.237040       -33.6616
  12   2.0000      -1.140960       -31.0471
  13   2.0000      -0.920773       -25.0555
  14   2.0000      -0.824011       -22.4225
  15   2.0000      -0.762430       -20.7468
  16   2.0000      -0.671862       -18.2823
  17   2.0000      -0.666373       -18.1329
  18   2.0000      -0.639722       -17.4077
  19   2.0000      -0.569025       -15.4839
  20   2.0000      -0.558695       -15.2029
  21   2.0000      -0.536807       -14.6073
  22   2.0000      -0.502898       -13.6845
  23   2.0000      -0.474939       -12.9238
  24   2.0000      -0.469801       -12.7839
  25   2.0000      -0.453535       -12.3413
  26   2.0000      -0.412056       -11.2126
  27   2.0000      -0.400343       -10.8939
  28   2.0000      -0.394708       -10.7406
  29   0.0000       0.000160         0.0044
  30   0.0000       0.020162         0.5486
  31   0.0000       0.024718         0.6726
  32   0.0000       0.030015         0.8167
  33   0.0000       0.053716         1.4617

MULLIKEN ATOMIC CHARGES
-----------------------
   0 C :   -1.088843
   1 C :   -0.532735
   2 H :    0.401095
   3 H :    0.363143
   4 S :    1.330174
   5 F :   -0.165590
   6 O :   -0.645224
   7 O :   -0.654915
   8 H :    0.318795
   9 H :    0.353609
  10 H :    0.320491
Sum of atomic charges:    0.0000000

LOEWDIN ATOMIC CHARGES
----------------------
   0 C :   -0.109624
   1 C :   -0.269707
   2 H :    0.098583
   3 H :    0.101689
   4 S :    0.626675
   5 F :   -0.093376
   6 O :   -0.282321
   7 O :   -0.295790
   8 H :    0.073931
   9 H :    0.074621
  10 H :    0.075320

  Mayer bond orders larger than 0.100000
B(  0-C ,  1-C ) :   0.5084 B(  0-C ,  8-H ) :   0.9927 B(  0-C ,  9-H ) :   0.9230
B(  0-C , 10-H ) :   0.9579 B(  1-C ,  2-H ) :   0.8532 B(  1-C ,  3-H ) :   0.9282
B(  1-C ,  4-S ) :   0.8868 B(  4-S ,  5-F ) :   0.8971 B(  4-S ,  6-O ) :   1.6258
B(  4-S ,  7-O ) :   1.6206

Dispersion correction           -0.000155906
FINAL SINGLE POINT ENERGY      -727.686004599214

DIPOLE MOMENT
-------------
                                X             Y             Z
Electronic contribution:      6.29722      -6.45234      -3.67903
Nuclear contribution   :     -6.09914       7.80989       4.64238
                        -----------------------------------------
Total Dipole Moment    :      0.19808       1.35755       0.96336
                        -----------------------------------------
Magnitude (a.u.)       :      1.67637
Magnitude (Debye)      :      4.26100

Rotational constants in cm-1:     0.154372     0.078826     0.078033
Rotational constants in MHz :  4627.943144  2363.154585  2339.382767

                             ****ORCA TERMINATED NORMALLY****
TOTAL RUN TIME: 0 days 0 hours 0 minutes 55 seconds 422 msec
