                         Program Version 5.0.0 -  RELEASE  -
|  1> !M062X D3Zero RIJCOSX def2-TZVPD def2/J TightSCF
|  2> *xyz 0 1
|  3> C          2.91632       -1.24259       -1.54313
|  4> C          3.46659       -1.59097       -2.88908
|  5> C          4.65227       -1.14316       -3.25969
|  6> N          2.75226       -2.29204       -3.72803
|  7> H          1.77836       -2.48960       -3.51274
|  8> H          2.94861       -2.20854       -4.71681
|  9> H          5.14672       -0.51251       -2.63385
| 10> H          4.78303       -1.00720       -4.25350
| 11> C          2.80408        0.29070       -1.35924
| 12> H          1.94047       -1.71653       -1.44116
| 13> H          3.55857       -1.66343       -0.76637
| 14> H          2.17393        0.69633       -2.12297
| 15> H          3.77707        0.73043       -1.42880
| 16> H          2.38369        0.50492       -0.39889
| 17> *
| 18>
| 19> %MaxCore 64000
| 20>
| 21> %pal nprocs 4
| 22> end
| 23>
| 24> %scf
| 25>   MaxIter 150
| 26> end
| 27>
| 28>
| 29>                          ****END OF INPUT****

CARTESIAN COORDINATES (ANGSTROEM)
---------------------------------
  C      2.916320   -1.242590   -1.543130
  C      3.466590   -1.590970   -2.889080
  C      4.652270   -1.143160   -3.259690
  N      2.752260   -2.292040   -3.728030
  H      1.778360   -2.489600   -3.512740
  H      2.948610   -2.208540   -4.716810
  H      5.146720   -0.512510   -2.633850
  H      4.783030   -1.007200   -4.253500
  C      2.804080    0.290700   -1.359240
  H      1.940470   -1.716530   -1.441160
  H      3.558570   -1.663430   -0.766370
  H      2.173930    0.696330   -2.122970
  H      3.777070    0.730430   -1.428800
  H      2.383690    0.504920   -0.398890

 Total Charge           Charge          ....    0
 Multiplicity           Mult            ....    1
 Number of Electrons    NEL             ....   40
 Basis Dimension        Dim             ....  266

ORBITAL ENERGIES
----------------

  NO   OCC          E(Eh)            E(eV)
   0   2.0000     -14.750999      -401.3951
   1   2.0000     -10.557785      -287.2919
   2   2.0000     -10.537702      -286.7455
   3   2.0000     -10.520816      -286.2860
   4   2.0000     -10.464257      -284.7469
   5   2.0000      -1.047452       -28.5026
   6   2.0000      -0.880195       -23.9513
   7   2.0000      -0.807247       -21.9663
   8   2.0000      -0.732109       -19.9217
   9   2.0000      -0.644197       -17.5295
  10   2.0000      -0.596928       -16.2432
  11   2.0000      -0.552023       -15.0213
  12   2.0000      -0.519520       -14.1369
  13   2.0000      -0.477208       -12.9855
  14   2.0000      -0.457171       -12.4402
  15   2.0000      -0.443272       -12.0620
  16   2.0000      -0.418663       -11.3924
  17   2.0000      -0.405892       -11.0449
  18   2.0000      -0.391213       -10.6454
  19   2.0000      -0.244553        -6.6546
  20   0.0000       0.015743         0.4284
  21   0.0000       0.036918         1.0046
  22   0.0000       0.041631         1.1328
  23   0.0000       0.051959         1.4139
  24   0.0000       0.068722         1.8700

MULLIKEN ATOMIC CHARGES
-----------------------
   0 C :   -0.654637
   1 C :    0.791882
   2 C :   -0.951523
   3 N :   -0.621532
   4 H :    0.269830
   5 H :    0.235285
   6 H :    0.272389
   7 H :    0.192973
   8 C :   -1.068772
   9 H :    0.327888
  10 H :    0.305611
  11 H :    0.301840
  12 H :    0.300567
  13 H :    0.298198
Sum of atomic charges:    0.0000000

LOEWDIN ATOMIC CHARGES
----------------------
   0 C :   -0.191536
   1 C :   -0.508626
   2 C :    0.012785
   3 N :    0.091988
   4 H :    0.109199
   5 H :    0.114109
   6 H :    0.021352
   7 H :    0.024322
   8 C :   -0.088112
   9 H :    0.101921
  10 H :    0.117298
  11 H :    0.073103
  12 H :    0.060164
  13 H :    0.062034

  Mayer bond orders larger than 0.100000
B(  0-C ,  1-C ) :   0.5605 B(  0-C ,  8-C ) :   0.5106 B(  0-C ,  9-H ) :   1.0008
B(  0-C , 10-H ) :   0.9772 B(  1-C ,  2-C ) :   1.4514 B(  1-C ,  3-N ) :   0.8408
B(  1-C ,  7-H ) :  -0.1469 B(  1-C ,  9-H ) :  -0.1406 B(  2-C ,  3-N ) :   0.1206
B(  2-C ,  6-H ) :   0.9532 B(  2-C ,  7-H ) :   1.1483 B(  3-N ,  4-H ) :   0.9498
B(  3-N ,  5-H ) :   0.9668 B(  8-C , 11-H ) :   0.9868 B(  8-C , 12-H ) :   0.9904
B(  8-C , 13-H ) :   0.9780

Dispersion correction           -0.000189315
FINAL SINGLE POINT ENERGY      -212.527947929661

DIPOLE MOMENT
-------------
                                X             Y             Z
Electronic contribution:      0.11435      -2.71376      -1.79990
Nuclear contribution   :     -0.99366       2.78648       1.68526
                        -----------------------------------------
Total Dipole Moment    :     -0.87931       0.07272      -0.11464
                        -----------------------------------------
Magnitude (a.u.)       :      0.88973
Magnitude (Debye)      :      2.26151

Rotational constants in cm-1:     0.282898     0.128664     0.101801
Rotational constants in MHz :  8481.061354  3857.240210  3051.924245

                             ****ORCA TERMINATED NORMALLY****
TOTAL RUN TIME: 0 days 0 hours 0 minutes 48 seconds 223 msec
