                         Program Version 5.0.0 -  RELEASE  -
|  1> !M062X D3Zero RIJCOSX def2-TZVPD def2/J TightSCF
|  2> *xyz 0 1
|  3> C          0.70466        1.44313       -4.50363
|  4> C          1.72854        1.42432       -5.63944
|  5> H          2.64672        1.95379       -5.38105
|  6> H          1.29992        1.93061       -6.50361
|  7> S          2.25263       -0.18811       -6.27184
|  8> O          3.56261       -0.44446       -5.63155
|  9> F          2.34494       -0.03374       -7.69650
| 10> O          1.26606       -1.15918       -5.80536
| 11> H         -0.17385        0.91270       -4.80656
| 12> H          0.44778        2.45562       -4.27173
| 13> H          1.12367        0.97423       -3.63791
| 14> *
| 15>
| 16> %MaxCore 64000
| 17>
| 18> %pal nprocs 4
| 19> end
| 20>
| 21> %scf
| 22>   MaxIter 150
| 23> end
| 24>
| 25>
| 26>                          ****END OF INPUT****

CARTESIAN COORDINATES (ANGSTROEM)
---------------------------------
  C      0.704660    1.443130   -4.503630
  C      1.728540    1.424320   -5.639440
  H      2.646720    1.953790   -5.381050
  H      1.299920    1.930610   -6.503610
  S      2.252630   -0.188110   -6.271840
  O      3.562610   -0.444460   -5.631550
  F      2.344940   -0.033740   -7.696500
  O      1.266060   -1.159180   -5.805360
  H     -0.173850    0.912700   -4.806560
  H      0.447780    2.455620   -4.271730
  H      1.123670    0.974230   -3.637910

 Total Charge           Charge          ....    0
 Multiplicity           Mult            ....    1
 Number of Electrons    NEL             ....   58
 Basis Dimension        Dim             ....  285

ORBITAL ENERGIES
----------------

  NO   OCC          E(Eh)            E(eV)
   0   2.0000     -90.154176     -2453.2199
   1   2.0000     -25.372848      -690.4303
   2   2.0000     -19.637386      -534.3604
   3   2.0000     -19.628954      -534.1310
   4   2.0000     -10.600070      -288.4426
   5   2.0000     -10.555411      -287.2273
   6   2.0000      -8.479364      -230.7352
   7   2.0000      -6.404155      -174.2659
   8   2.0000      -6.399263      -174.1328
   9   2.0000      -6.398623      -174.1154
  10   2.0000      -1.538161       -41.8555
  11   2.0000      -1.221837       -33.2479
  12   2.0000      -1.120693       -30.4956
  13   2.0000      -0.922011       -25.0892
  14   2.0000      -0.841240       -22.8913
  15   2.0000      -0.770765       -20.9736
  16   2.0000      -0.695189       -18.9170
  17   2.0000      -0.689141       -18.7525
  18   2.0000      -0.642184       -17.4747
  19   2.0000      -0.566976       -15.4282
  20   2.0000      -0.561777       -15.2867
  21   2.0000      -0.522083       -14.2066
  22   2.0000      -0.499834       -13.6012
  23   2.0000      -0.474235       -12.9046
  24   2.0000      -0.460292       -12.5252
  25   2.0000      -0.454529       -12.3684
  26   2.0000      -0.404167       -10.9979
  27   2.0000      -0.391294       -10.6476
  28   2.0000      -0.379211       -10.3188
  29   0.0000      -0.001025        -0.0279
  30   0.0000       0.017034         0.4635
  31   0.0000       0.024979         0.6797
  32   0.0000       0.030511         0.8303
  33   0.0000       0.053977         1.4688

MULLIKEN ATOMIC CHARGES
-----------------------
   0 C :   -1.112146
   1 C :   -0.533588
   2 H :    0.364578
   3 H :    0.401730
   4 S :    1.305456
   5 O :   -0.657700
   6 F :   -0.122289
   7 O :   -0.648750
   8 H :    0.320585
   9 H :    0.352837
  10 H :    0.329284
Sum of atomic charges:   -0.0000000

LOEWDIN ATOMIC CHARGES
----------------------
   0 C :   -0.103779
   1 C :   -0.274560
   2 H :    0.102001
   3 H :    0.092516
   4 S :    0.626091
   5 O :   -0.316568
   6 F :   -0.057688
   7 O :   -0.296588
   8 H :    0.072821
   9 H :    0.075604
  10 H :    0.080152

  Mayer bond orders larger than 0.100000
B(  0-C ,  1-C ) :   0.5417 B(  0-C ,  8-H ) :   0.9737 B(  0-C ,  9-H ) :   0.9156
B(  0-C , 10-H ) :   0.9647 B(  1-C ,  2-H ) :   0.9345 B(  1-C ,  3-H ) :   0.8484
B(  1-C ,  4-S ) :   0.8854 B(  4-S ,  5-O ) :   1.5939 B(  4-S ,  6-F ) :   0.9472
B(  4-S ,  7-O ) :   1.6242

Dispersion correction           -0.000150511
FINAL SINGLE POINT ENERGY      -727.666488182527

DIPOLE MOMENT
-------------
                                X             Y             Z
Electronic contribution:      4.18745      -5.75108      -7.20674
Nuclear contribution   :     -4.83029       7.38191       6.79413
                        -----------------------------------------
Total Dipole Moment    :     -0.64284       1.63082      -0.41261
                        -----------------------------------------
Magnitude (a.u.)       :      1.80085
Magnitude (Debye)      :      4.57740

Rotational constants in cm-1:     0.156575     0.079070     0.076729
Rotational constants in MHz :  4694.010604  2370.444114  2300.280155

                             ****ORCA TERMINATED NORMALLY****
TOTAL RUN TIME: 0 days 0 hours 0 minutes 52 seconds 438 msec
