                         Program Version 5.0.0 -  RELEASE  -
|  1> !M062X D3Zero RIJCOSX def2-TZVPD def2/J TightSCF
|  2> *xyz 0 1
|  3> C          2.91632       -1.24259       -1.54313
|  4> C          3.46659       -1.59097       -2.88908
|  5> N          4.65227       -1.14316       -3.25969
|  6> C          2.75226       -2.29204       -3.72803
|  7> H          1.77836       -2.48960       -3.51274
|  8> H          2.94861       -2.20854       -4.71681
|  9> H          5.14672       -0.51251       -2.63385
| 10> H          4.78303       -1.00720       -4.25350
| 11> C          2.80408        0.29070       -1.35924
| 12> H          1.94047       -1.71653       -1.44116
| 13> H          3.55857       -1.66343       -0.76637
| 14> H          2.17393        0.69633       -2.12297
| 15> H          3.77707        0.73043       -1.42880
| 16> H          2.38369        0.50492       -0.39889
| 17> *
| 18>
| 19> %MaxCore 64000
| 20>
| 21> %pal nprocs 4
| 22> end
| 23>
| 24> %scf
| 25>   MaxIter 150
| 26> end
| 27>
| 28>
| 29>                          ****END OF INPUT****

CARTESIAN COORDINATES (ANGSTROEM)
---------------------------------
  C      2.916320   -1.242590   -1.543130
  C      3.466590   -1.590970   -2.889080
  N      4.652270   -1.143160   -3.259690
  C      2.752260   -2.292040   -3.728030
  H      1.778360   -2.489600   -3.512740
  H      2.948610   -2.208540   -4.716810
  H      5.146720   -0.512510   -2.633850
  H      4.783030   -1.007200   -4.253500
  C      2.804080    0.290700   -1.359240
  H      1.940470   -1.716530   -1.441160
  H      3.558570   -1.663430   -0.766370
  H      2.173930    0.696330   -2.122970
  H      3.777070    0.730430   -1.428800
  H      2.383690    0.504920   -0.398890

 Total Charge           Charge          ....    0
 Multiplicity           Mult            ....    1
 Number of Electrons    NEL             ....   40
 Basis Dimension        Dim             ....  266

ORBITAL ENERGIES
----------------

  NO   OCC          E(Eh)            E(eV)
   0   2.0000     -14.746990      -401.2860
   1   2.0000     -10.556246      -287.2501
   2   2.0000     -10.536147      -286.7031
   3   2.0000     -10.525411      -286.4110
   4   2.0000     -10.468121      -284.8520
   5   2.0000      -1.041986       -28.3539
   6   2.0000      -0.877535       -23.8789
   7   2.0000      -0.819031       -22.2870
   8   2.0000      -0.724507       -19.7148
   9   2.0000      -0.643897       -17.5213
  10   2.0000      -0.601240       -16.3606
  11   2.0000      -0.548313       -14.9204
  12   2.0000      -0.505532       -13.7562
  13   2.0000      -0.503007       -13.6875
  14   2.0000      -0.454217       -12.3599
  15   2.0000      -0.446890       -12.1605
  16   2.0000      -0.419825       -11.4240
  17   2.0000      -0.404877       -11.0173
  18   2.0000      -0.385611       -10.4930
  19   2.0000      -0.252152        -6.8614
  20   0.0000       0.014234         0.3873
  21   0.0000       0.038020         1.0346
  22   0.0000       0.043276         1.1776
  23   0.0000       0.050737         1.3806
  24   0.0000       0.068443         1.8624

MULLIKEN ATOMIC CHARGES
-----------------------
   0 C :   -0.708669
   1 C :    0.858913
   2 N :   -0.676398
   3 C :   -0.872750
   4 H :    0.193177
   5 H :    0.222388
   6 H :    0.269940
   7 H :    0.232197
   8 C :   -1.028852
   9 H :    0.301094
  10 H :    0.329060
  11 H :    0.280558
  12 H :    0.282743
  13 H :    0.316598
Sum of atomic charges:   -0.0000000

LOEWDIN ATOMIC CHARGES
----------------------
   0 C :   -0.194692
   1 C :   -0.510179
   2 N :    0.092201
   3 C :    0.018671
   4 H :    0.025001
   5 H :    0.025145
   6 H :    0.105264
   7 H :    0.113925
   8 C :   -0.089219
   9 H :    0.108671
  10 H :    0.113596
  11 H :    0.074064
  12 H :    0.053867
  13 H :    0.063684

  Mayer bond orders larger than 0.100000
B(  0-C ,  1-C ) :   0.7173 B(  0-C ,  3-C ) :   0.1232 B(  0-C ,  8-C ) :   0.5424
B(  0-C ,  9-H ) :   0.9642 B(  0-C , 10-H ) :   0.9177 B(  0-C , 11-H ) :  -0.1112
B(  1-C ,  2-N ) :   0.7210 B(  1-C ,  3-C ) :   1.3702 B(  1-C ,  5-H ) :  -0.1394
B(  2-N ,  3-C ) :   0.1117 B(  2-N ,  6-H ) :   0.9185 B(  2-N ,  7-H ) :   0.9786
B(  3-C ,  4-H ) :   1.0645 B(  3-C ,  5-H ) :   1.1000 B(  8-C , 11-H ) :   1.0425
B(  8-C , 12-H ) :   0.9494 B(  8-C , 13-H ) :   0.9832

Dispersion correction           -0.000188799
FINAL SINGLE POINT ENERGY      -212.531940893785

DIPOLE MOMENT
-------------
                                X             Y             Z
Electronic contribution:      1.70549      -1.74777      -1.40700
Nuclear contribution   :     -1.43372       2.52039       1.57679
                        -----------------------------------------
Total Dipole Moment    :      0.27178       0.77262       0.16979
                        -----------------------------------------
Magnitude (a.u.)       :      0.83644
Magnitude (Debye)      :      2.12606

Rotational constants in cm-1:     0.274962     0.131786     0.102554
Rotational constants in MHz :  8243.150005  3950.846092  3074.493018

                             ****ORCA TERMINATED NORMALLY****
TOTAL RUN TIME: 0 days 0 hours 0 minutes 53 seconds 439 msec
