                         Program Version 5.0.0 -  RELEASE  -
|  1> !M062X D3Zero RIJCOSX def2-TZVPD def2/J TightSCF
|  2> *xyz 0 1
|  3> C          0.70466        1.44313       -4.50363
|  4> C          1.72854        1.42432       -5.63944
|  5> H          2.64672        1.95379       -5.38105
|  6> H          1.29992        1.93061       -6.50361
|  7> S          2.25263       -0.18811       -6.27184
|  8> O          3.56261       -0.44446       -5.63155
|  9> O          2.34494       -0.03374       -7.69650
| 10> F          1.26606       -1.15918       -5.80536
| 11> H         -0.17385        0.91270       -4.80656
| 12> H          0.44778        2.45562       -4.27173
| 13> H          1.12367        0.97423       -3.63791
| 14> *
| 15>
| 16> %MaxCore 64000
| 17>
| 18> %pal nprocs 4
| 19> end
| 20>
| 21> %scf
| 22>   MaxIter 150
| 23> end
| 24>
| 25>
| 26>                          ****END OF INPUT****

CARTESIAN COORDINATES (ANGSTROEM)
---------------------------------
  C      0.704660    1.443130   -4.503630
  C      1.728540    1.424320   -5.639440
  H      2.646720    1.953790   -5.381050
  H      1.299920    1.930610   -6.503610
  S      2.252630   -0.188110   -6.271840
  O      3.562610   -0.444460   -5.631550
  O      2.344940   -0.033740   -7.696500
  F      1.266060   -1.159180   -5.805360
  H     -0.173850    0.912700   -4.806560
  H      0.447780    2.455620   -4.271730
  H      1.123670    0.974230   -3.637910

 Total Charge           Charge          ....    0
 Multiplicity           Mult            ....    1
 Number of Electrons    NEL             ....   58
 Basis Dimension        Dim             ....  285

ORBITAL ENERGIES
----------------

  NO   OCC          E(Eh)            E(eV)
   0   2.0000     -90.152689     -2453.1794
   1   2.0000     -25.360435      -690.0925
   2   2.0000     -19.644205      -534.5460
   3   2.0000     -19.628464      -534.1176
   4   2.0000     -10.599090      -288.4159
   5   2.0000     -10.562498      -287.4202
   6   2.0000      -8.477879      -230.6948
   7   2.0000      -6.402843      -174.2302
   8   2.0000      -6.397665      -174.0893
   9   2.0000      -6.397178      -174.0761
  10   2.0000      -1.516507       -41.2663
  11   2.0000      -1.232565       -33.5398
  12   2.0000      -1.128906       -30.7191
  13   2.0000      -0.925062       -25.1722
  14   2.0000      -0.829102       -22.5610
  15   2.0000      -0.770866       -20.9763
  16   2.0000      -0.688461       -18.7340
  17   2.0000      -0.679534       -18.4911
  18   2.0000      -0.633148       -17.2288
  19   2.0000      -0.571071       -15.5396
  20   2.0000      -0.555511       -15.1162
  21   2.0000      -0.526784       -14.3345
  22   2.0000      -0.518467       -14.1082
  23   2.0000      -0.482774       -13.1369
  24   2.0000      -0.463699       -12.6179
  25   2.0000      -0.459692       -12.5088
  26   2.0000      -0.407742       -11.0952
  27   2.0000      -0.393760       -10.7148
  28   2.0000      -0.385290       -10.4843
  29   0.0000      -0.002271        -0.0618
  30   0.0000       0.020735         0.5642
  31   0.0000       0.025052         0.6817
  32   0.0000       0.028583         0.7778
  33   0.0000       0.054773         1.4905

MULLIKEN ATOMIC CHARGES
-----------------------
   0 C :   -1.142324
   1 C :   -0.468317
   2 H :    0.351786
   3 H :    0.370227
   4 S :    1.326325
   5 O :   -0.663946
   6 O :   -0.638527
   7 F :   -0.156909
   8 H :    0.345791
   9 H :    0.336177
  10 H :    0.339716
Sum of atomic charges:    0.0000000

LOEWDIN ATOMIC CHARGES
----------------------
   0 C :   -0.112215
   1 C :   -0.265918
   2 H :    0.108077
   3 H :    0.097805
   4 S :    0.624660
   5 O :   -0.317710
   6 O :   -0.281623
   7 F :   -0.074689
   8 H :    0.070026
   9 H :    0.075280
  10 H :    0.076309

  Mayer bond orders larger than 0.100000
B(  0-C ,  1-C ) :   0.4707 B(  0-C ,  8-H ) :   0.9368 B(  0-C ,  9-H ) :   0.9475
B(  0-C , 10-H ) :   0.9584 B(  1-C ,  2-H ) :   0.9321 B(  1-C ,  3-H ) :   0.9133
B(  1-C ,  4-S ) :   0.8773 B(  4-S ,  5-O ) :   1.5979 B(  4-S ,  6-O ) :   1.6365
B(  4-S ,  7-F ) :   0.9256

Dispersion correction           -0.000160022
FINAL SINGLE POINT ENERGY      -727.676125625808

DIPOLE MOMENT
-------------
                                X             Y             Z
Electronic contribution:      2.34800      -7.63671      -3.97826
Nuclear contribution   :     -3.70606       8.55465       4.82350
                        -----------------------------------------
Total Dipole Moment    :     -1.35806       0.91794       0.84524
                        -----------------------------------------
Magnitude (a.u.)       :      1.84428
Magnitude (Debye)      :      4.68780

Rotational constants in cm-1:     0.153201     0.080978     0.077494
Rotational constants in MHz :  4592.852844  2427.650814  2323.207507

                             ****ORCA TERMINATED NORMALLY****
TOTAL RUN TIME: 0 days 0 hours 0 minutes 53 seconds 558 msec
