                         Program Version 5.0.0 -  RELEASE  -
|  1> !M062X D3Zero RIJCOSX def2-TZVPD def2/J TightSCF xyzfile
|  2>
|  3> *xyzfile 0 1 D1.xyz
|  4>
|  5> %MaxCore 64000
|  6>
|  7> %pal nprocs 4
|  8> end
|  9>
| 10> %scf
| 11>   MaxIter 150
| 12> end
| 13>
| 14>
| 15>                          ****END OF INPUT****

CARTESIAN COORDINATES (ANGSTROEM)
---------------------------------
  C      2.916324   -1.242589   -1.543125
  C      0.704661    1.443129   -4.503630
  C      1.728539    1.424320   -5.639443
  H      2.646718    1.953794   -5.381054
  H      1.299916    1.930613   -6.503614
  S      2.252625   -0.188115   -6.271840
  C      3.466585   -1.590971   -2.889082
  C      4.652275   -1.143164   -3.259692
  N      2.752264   -2.292043   -3.728029
  H      1.778364   -2.489604   -3.512738
  H      2.948612   -2.208544   -4.716813
  H      5.146723   -0.512508   -2.633852
  H      4.783030   -1.007203   -4.253498
  F      3.562607   -0.444464   -5.631552
  O      2.344944   -0.033742   -7.696501
  C      2.804084    0.290698   -1.359243
  C      1.052550    0.695659   -3.214915
  H     -0.232483    1.032925   -4.884449
  H      0.511700    2.495794   -4.267966
  C      2.388380    1.093669   -2.597108
  H      3.763425    0.674718   -0.999889
  H      2.094788    0.461222   -0.545756
  O      1.266058   -1.159177   -5.805365
  H      3.167316    1.013242   -3.359430
  H      2.357690    2.149375   -2.310997
  H      1.039284   -0.368429   -3.449329
  H      0.250787    0.865605   -2.488283
  H      1.940472   -1.716529   -1.441161
  H      3.558569   -1.663433   -0.766371

 Total Charge           Charge          ....    0
 Multiplicity           Mult            ....    1
 Number of Electrons    NEL             ....  112
 Basis Dimension        Dim             ....  643

ORBITAL ENERGIES
----------------

  NO   OCC          E(Eh)            E(eV)
   0   2.0000     -90.159679     -2453.3696
   1   2.0000     -25.358756      -690.0468
   2   2.0000     -19.651123      -534.7342
   3   2.0000     -19.647469      -534.6348
   4   2.0000     -14.743135      -401.1811
   5   2.0000     -10.601149      -288.4719
   6   2.0000     -10.565867      -287.5119
   7   2.0000     -10.556936      -287.2688
   8   2.0000     -10.543148      -286.8936
   9   2.0000     -10.541054      -286.8367
  10   2.0000     -10.539332      -286.7898
  11   2.0000     -10.538547      -286.7684
  12   2.0000     -10.462045      -284.6867
  13   2.0000      -8.485199      -230.8940
  14   2.0000      -6.410164      -174.4294
  15   2.0000      -6.405102      -174.2917
  16   2.0000      -6.404352      -174.2713
  17   2.0000      -1.511831       -41.1390
  18   2.0000      -1.246586       -33.9213
  19   2.0000      -1.151946       -31.3460
  20   2.0000      -1.044545       -28.4235
  21   2.0000      -0.942355       -25.6428
  22   2.0000      -0.904198       -24.6045
  23   2.0000      -0.862110       -23.4592
  24   2.0000      -0.832796       -22.6615
  25   2.0000      -0.796202       -21.6657
  26   2.0000      -0.779654       -21.2155
  27   2.0000      -0.724299       -19.7092
  28   2.0000      -0.688123       -18.7248
  29   2.0000      -0.679386       -18.4870
  30   2.0000      -0.666194       -18.1281
  31   2.0000      -0.648501       -17.6466
  32   2.0000      -0.630723       -17.1628
  33   2.0000      -0.591695       -16.1008
  34   2.0000      -0.578086       -15.7305
  35   2.0000      -0.566335       -15.4107
  36   2.0000      -0.553478       -15.0609
  37   2.0000      -0.548612       -14.9285
  38   2.0000      -0.541976       -14.7479
  39   2.0000      -0.516330       -14.0500
  40   2.0000      -0.503053       -13.6888
  41   2.0000      -0.493082       -13.4174
  42   2.0000      -0.477147       -12.9838
  43   2.0000      -0.459921       -12.5151
  44   2.0000      -0.452738       -12.3196
  45   2.0000      -0.450411       -12.2563
  46   2.0000      -0.441271       -12.0076
  47   2.0000      -0.427436       -11.6311
  48   2.0000      -0.420918       -11.4538
  49   2.0000      -0.411314       -11.1924
  50   2.0000      -0.405445       -11.0327
  51   2.0000      -0.399587       -10.8733
  52   2.0000      -0.387180       -10.5357
  53   2.0000      -0.383189       -10.4271
  54   2.0000      -0.378352       -10.2955
  55   2.0000      -0.241667        -6.5761
  56   0.0000       0.000945         0.0257
  57   0.0000       0.011651         0.3170
  58   0.0000       0.017109         0.4656
  59   0.0000       0.018306         0.4981
  60   0.0000       0.034691         0.9440

MULLIKEN ATOMIC CHARGES
-----------------------
   0 C :   -1.238452
   1 C :   -0.977799
   2 C :   -0.800571
   3 H :    0.435485
   4 H :    0.422223
   5 S :    1.330321
   6 C :    0.816988
   7 C :   -1.027946
   8 N :   -0.620981
   9 H :    0.343363
  10 H :    0.242042
  11 H :    0.331012
  12 H :    0.348324
  13 F :   -0.174541
  14 O :   -0.721066
  15 C :   -0.792740
  16 C :   -0.170849
  17 H :    0.378049
  18 H :    0.427848
  19 C :   -0.474444
  20 H :    0.405031
  21 H :    0.417453
  22 O :   -0.702060
  23 H :    0.180530
  24 H :    0.396359
  25 H :    0.126269
  26 H :    0.361795
  27 H :    0.379443
  28 H :    0.358913
Sum of atomic charges:   -0.0000000

LOEWDIN ATOMIC CHARGES
----------------------
   0 C :   -0.135304
   1 C :   -0.217596
   2 C :   -0.209314
   3 H :    0.104611
   4 H :    0.107637
   5 S :    0.649686
   6 C :   -0.498393
   7 C :    0.011511
   8 N :    0.108143
   9 H :    0.114280
  10 H :    0.080616
  11 H :    0.035913
  12 H :    0.012227
  13 F :   -0.119882
  14 O :   -0.267555
  15 C :   -0.186884
  16 C :   -0.207649
  17 H :    0.117521
  18 H :    0.122843
  19 C :   -0.210800
  20 H :    0.110780
  21 H :    0.110339
  22 O :   -0.289590
  23 H :    0.092451
  24 H :    0.120380
  25 H :    0.086893
  26 H :    0.124447
  27 H :    0.110698
  28 H :    0.121992

  Mayer bond orders larger than 0.100000
B(  0-C ,  6-C ) :   0.5224 B(  0-C , 15-C ) :   0.6688 B(  0-C , 16-C ) :   0.1142
B(  0-C , 27-H ) :   0.9785 B(  0-C , 28-H ) :   0.9604 B(  1-C ,  2-C ) :   0.5881
B(  1-C , 16-C ) :   0.6142 B(  1-C , 17-H ) :   0.9575 B(  1-C , 18-H ) :   0.8899
B(  1-C , 19-C ) :   0.1794 B(  2-C ,  3-H ) :   0.8313 B(  2-C ,  4-H ) :   0.9016
B(  2-C ,  5-S ) :   0.9036 B(  2-C , 14-O ) :   0.1362 B(  2-C , 19-C ) :   0.1014
B(  5-S , 13-F ) :   0.9659 B(  5-S , 14-O ) :   1.3667 B(  5-S , 22-O ) :   1.5036
B(  6-C ,  7-C ) :   1.5131 B(  6-C ,  8-N ) :   0.6191 B(  6-C , 10-H ) :  -0.1010
B(  6-C , 12-H ) :  -0.1754 B(  6-C , 27-H ) :  -0.1095 B(  7-C , 11-H ) :   1.0488
B(  7-C , 12-H ) :   0.8839 B(  8-N ,  9-H ) :   0.8081 B(  8-N , 10-H ) :   0.8804
B( 15-C , 16-C ) :   0.1494 B( 15-C , 19-C ) :   0.6977 B( 15-C , 20-H ) :   0.9044
B( 15-C , 21-H ) :   0.9175 B( 16-C , 19-C ) :   0.2403 B( 16-C , 23-H ) :  -0.2388
B( 16-C , 25-H ) :   1.1280 B( 16-C , 26-H ) :   0.8997 B( 19-C , 23-H ) :   1.1697
B( 19-C , 24-H ) :   0.8270 B( 19-C , 25-H ) :  -0.1489

Dispersion correction           -0.001664800
FINAL SINGLE POINT ENERGY     -1017.629922004275

DIPOLE MOMENT
-------------
                                X             Y             Z
Electronic contribution:      2.15815      -4.90576     -18.53525
Nuclear contribution   :     -2.89481       6.29550      19.36835
                        -----------------------------------------
Total Dipole Moment    :     -0.73666       1.38974       0.83310
                        -----------------------------------------
Magnitude (a.u.)       :      1.77992
Magnitude (Debye)      :      4.52419

Rotational constants in cm-1:     0.036515     0.018832     0.015081
Rotational constants in MHz :  1094.679513   564.567051   452.109105

                             ****ORCA TERMINATED NORMALLY****
TOTAL RUN TIME: 0 days 0 hours 5 minutes 27 seconds 162 msec
