                         Program Version 5.0.0 -  RELEASE  -
|  1> !M062X D3Zero RIJCOSX def2-TZVPD def2/J TightSCF xyzfile
|  2>
|  3> *xyzfile 0 1 D2.xyz
|  4>
|  5> %MaxCore 64000
|  6>
|  7> %pal nprocs 4
|  8> end
|  9>
| 10> %scf
| 11>   MaxIter 150
| 12> end
| 13>
| 14>
| 15>                          ****END OF INPUT****

CARTESIAN COORDINATES (ANGSTROEM)
---------------------------------
  C      2.916324   -1.242589   -1.543125
  C      0.704661    1.443129   -4.503630
  C      1.728539    1.424320   -5.639443
  H      2.646718    1.953794   -5.381054
  H      1.299916    1.930613   -6.503614
  S      2.252625   -0.188115   -6.271840
  C      3.466585   -1.590971   -2.889082
  N      4.652275   -1.143164   -3.259692
  C      2.752264   -2.292043   -3.728029
  H      1.778364   -2.489604   -3.512738
  H      2.948612   -2.208544   -4.716813
  H      5.146723   -0.512508   -2.633852
  H      4.783030   -1.007203   -4.253498
  F      3.562607   -0.444464   -5.631552
  O      2.344944   -0.033742   -7.696501
  C      2.804084    0.290698   -1.359243
  C      1.052550    0.695659   -3.214915
  H     -0.232483    1.032925   -4.884449
  H      0.511700    2.495794   -4.267966
  C      2.388380    1.093669   -2.597108
  H      3.763425    0.674718   -0.999889
  H      2.094788    0.461222   -0.545756
  O      1.266058   -1.159177   -5.805365
  H      3.167316    1.013242   -3.359430
  H      2.357690    2.149375   -2.310997
  H      1.039284   -0.368429   -3.449329
  H      0.250787    0.865605   -2.488283
  H      1.940472   -1.716529   -1.441161
  H      3.558569   -1.663433   -0.766371

 Total Charge           Charge          ....    0
 Multiplicity           Mult            ....    1
 Number of Electrons    NEL             ....  112
 Basis Dimension        Dim             ....  643

ORBITAL ENERGIES
----------------

  NO   OCC          E(Eh)            E(eV)
   0   2.0000     -90.153747     -2453.2082
   1   2.0000     -25.356739      -689.9919
   2   2.0000     -19.646287      -534.6026
   3   2.0000     -19.636622      -534.3397
   4   2.0000     -14.745341      -401.2411
   5   2.0000     -10.597782      -288.3803
   6   2.0000     -10.561837      -287.4022
   7   2.0000     -10.552641      -287.1520
   8   2.0000     -10.543705      -286.9088
   9   2.0000     -10.541836      -286.8580
  10   2.0000     -10.537125      -286.7297
  11   2.0000     -10.537092      -286.7288
  12   2.0000     -10.464696      -284.7588
  13   2.0000      -8.479172      -230.7300
  14   2.0000      -6.404275      -174.2692
  15   2.0000      -6.399000      -174.1257
  16   2.0000      -6.398237      -174.1049
  17   2.0000      -1.509619       -41.0788
  18   2.0000      -1.239723       -33.7346
  19   2.0000      -1.143133       -31.1062
  20   2.0000      -1.043082       -28.3837
  21   2.0000      -0.939009       -25.5517
  22   2.0000      -0.901875       -24.5413
  23   2.0000      -0.860588       -23.4178
  24   2.0000      -0.832707       -22.6591
  25   2.0000      -0.807017       -21.9600
  26   2.0000      -0.772493       -21.0206
  27   2.0000      -0.718660       -19.5557
  28   2.0000      -0.686026       -18.6677
  29   2.0000      -0.674701       -18.3595
  30   2.0000      -0.664991       -18.0953
  31   2.0000      -0.643704       -17.5161
  32   2.0000      -0.631875       -17.1942
  33   2.0000      -0.599171       -16.3043
  34   2.0000      -0.571986       -15.5645
  35   2.0000      -0.564748       -15.3676
  36   2.0000      -0.554060       -15.0767
  37   2.0000      -0.544082       -14.8052
  38   2.0000      -0.526459       -14.3257
  39   2.0000      -0.516655       -14.0589
  40   2.0000      -0.508588       -13.8394
  41   2.0000      -0.487686       -13.2706
  42   2.0000      -0.473391       -12.8816
  43   2.0000      -0.463556       -12.6140
  44   2.0000      -0.453366       -12.3367
  45   2.0000      -0.449251       -12.2247
  46   2.0000      -0.432447       -11.7675
  47   2.0000      -0.426026       -11.5927
  48   2.0000      -0.415323       -11.3015
  49   2.0000      -0.404031       -10.9943
  50   2.0000      -0.399664       -10.8754
  51   2.0000      -0.394507       -10.7351
  52   2.0000      -0.388080       -10.5602
  53   2.0000      -0.379578       -10.3288
  54   2.0000      -0.376274       -10.2389
  55   2.0000      -0.249640        -6.7931
  56   0.0000      -0.002363        -0.0643
  57   0.0000       0.011134         0.3030
  58   0.0000       0.014727         0.4007
  59   0.0000       0.022342         0.6079
  60   0.0000       0.036849         1.0027

MULLIKEN ATOMIC CHARGES
-----------------------
   0 C :   -1.163674
   1 C :   -0.987078
   2 C :   -0.808750
   3 H :    0.430821
   4 H :    0.425507
   5 S :    1.332429
   6 C :    0.727915
   7 N :   -0.707874
   8 C :   -1.065398
   9 H :    0.440132
  10 H :    0.440604
  11 H :    0.296708
  12 H :    0.326816
  13 F :   -0.183406
  14 O :   -0.731687
  15 C :   -0.842374
  16 C :   -0.107634
  17 H :    0.386797
  18 H :    0.423591
  19 C :   -0.437699
  20 H :    0.391895
  21 H :    0.387407
  22 O :   -0.674265
  23 H :    0.178980
  24 H :    0.400962
  25 H :    0.080971
  26 H :    0.352075
  27 H :    0.341556
  28 H :    0.344673
Sum of atomic charges:   -0.0000000

LOEWDIN ATOMIC CHARGES
----------------------
   0 C :   -0.138024
   1 C :   -0.217209
   2 C :   -0.211147
   3 H :    0.101884
   4 H :    0.107123
   5 S :    0.650070
   6 C :   -0.497444
   7 N :    0.102290
   8 C :    0.010017
   9 H :    0.042428
  10 H :    0.007722
  11 H :    0.115938
  12 H :    0.092511
  13 F :   -0.123597
  14 O :   -0.269240
  15 C :   -0.190402
  16 C :   -0.205668
  17 H :    0.118301
  18 H :    0.121594
  19 C :   -0.211818
  20 H :    0.104984
  21 H :    0.111339
  22 O :   -0.280647
  23 H :    0.091014
  24 H :    0.119569
  25 H :    0.089528
  26 H :    0.124622
  27 H :    0.116587
  28 H :    0.117677

  Mayer bond orders larger than 0.100000
B(  0-C ,  6-C ) :   0.6012 B(  0-C ,  8-C ) :   0.2609 B(  0-C , 15-C ) :   0.6235
B(  0-C , 16-C ) :   0.1852 B(  0-C , 19-C ) :  -0.1507 B(  0-C , 27-H ) :   0.9962
B(  0-C , 28-H ) :   0.9664 B(  1-C ,  2-C ) :   0.5891 B(  1-C , 16-C ) :   0.5765
B(  1-C , 17-H ) :   0.9383 B(  1-C , 18-H ) :   0.9033 B(  1-C , 19-C ) :   0.1653
B(  1-C , 25-H ) :   0.1459 B(  2-C ,  3-H ) :   0.8345 B(  2-C ,  4-H ) :   0.8976
B(  2-C ,  5-S ) :   0.9042 B(  2-C , 14-O ) :   0.1404 B(  2-C , 19-C ) :   0.1166
B(  5-S , 13-F ) :   0.9857 B(  5-S , 14-O ) :   1.3472 B(  5-S , 22-O ) :   1.5622
B(  6-C ,  7-N ) :   0.6396 B(  6-C ,  8-C ) :   1.5780 B(  6-C ,  9-H ) :  -0.1266
B(  6-C , 10-H ) :  -0.1892 B(  6-C , 19-C ) :   0.1492 B(  7-N , 11-H ) :   0.8655
B(  7-N , 12-H ) :   0.8334 B(  8-C ,  9-H ) :   0.9203 B(  8-C , 10-H ) :   0.8517
B(  8-C , 16-C ) :  -0.1088 B(  9-H , 10-H ) :   0.1353 B( 15-C , 16-C ) :   0.1593
B( 15-C , 19-C ) :   0.6208 B( 15-C , 20-H ) :   0.9367 B( 15-C , 21-H ) :   0.9385
B( 16-C , 19-C ) :   0.3199 B( 16-C , 23-H ) :  -0.1987 B( 16-C , 25-H ) :   1.1392
B( 16-C , 26-H ) :   0.9156 B( 19-C , 23-H ) :   1.1129 B( 19-C , 24-H ) :   0.8544
B( 19-C , 25-H ) :  -0.1204

Dispersion correction           -0.001668263
FINAL SINGLE POINT ENERGY     -1017.631047194810

DIPOLE MOMENT
-------------
                                X             Y             Z
Electronic contribution:      3.43257      -4.24186     -18.21640
Nuclear contribution   :     -3.13969       6.14743      19.30799
                        -----------------------------------------
Total Dipole Moment    :      0.29288       1.90557       1.09159
                        -----------------------------------------
Magnitude (a.u.)       :      2.21553
Magnitude (Debye)      :      5.63143

Rotational constants in cm-1:     0.036460     0.018762     0.015014
Rotational constants in MHz :  1093.039020   562.475626   450.105862

                             ****ORCA TERMINATED NORMALLY****
TOTAL RUN TIME: 0 days 0 hours 6 minutes 11 seconds 168 msec
