                         Program Version 5.0.0 -  RELEASE  -
|  1> !M062X D3Zero RIJCOSX def2-TZVPD def2/J TightSCF xyzfile
|  2>
|  3> *xyzfile 0 1 D3.xyz
|  4>
|  5> %MaxCore 64000
|  6>
|  7> %pal nprocs 4
|  8> end
|  9>
| 10> %scf
| 11>   MaxIter 150
| 12> end
| 13>
| 14>
| 15>                          ****END OF INPUT****

CARTESIAN COORDINATES (ANGSTROEM)
---------------------------------
  C      2.916324   -1.242589   -1.543125
  C      0.704661    1.443129   -4.503630
  C      1.728539    1.424320   -5.639443
  H      2.646718    1.953794   -5.381054
  H      1.299916    1.930613   -6.503614
  S      2.252625   -0.188115   -6.271840
  C      3.466585   -1.590971   -2.889082
  C      4.652275   -1.143164   -3.259692
  N      2.752264   -2.292043   -3.728029
  H      1.778364   -2.489604   -3.512738
  H      2.948612   -2.208544   -4.716813
  H      5.146723   -0.512508   -2.633852
  H      4.783030   -1.007203   -4.253498
  O      3.562607   -0.444464   -5.631552
  F      2.344944   -0.033742   -7.696501
  C      2.804084    0.290698   -1.359243
  C      1.052550    0.695659   -3.214915
  H     -0.232483    1.032925   -4.884449
  H      0.511700    2.495794   -4.267966
  C      2.388380    1.093669   -2.597108
  H      3.763425    0.674718   -0.999889
  H      2.094788    0.461222   -0.545756
  O      1.266058   -1.159177   -5.805365
  H      3.167316    1.013242   -3.359430
  H      2.357690    2.149375   -2.310997
  H      1.039284   -0.368429   -3.449329
  H      0.250787    0.865605   -2.488283
  H      1.940472   -1.716529   -1.441161
  H      3.558569   -1.663433   -0.766371

 Total Charge           Charge          ....    0
 Multiplicity           Mult            ....    1
 Number of Electrons    NEL             ....  112
 Basis Dimension        Dim             ....  643

ORBITAL ENERGIES
----------------

  NO   OCC          E(Eh)            E(eV)
   0   2.0000     -90.166112     -2453.5446
   1   2.0000     -25.382317      -690.6880
   2   2.0000     -19.651812      -534.7530
   3   2.0000     -19.642617      -534.5028
   4   2.0000     -14.719104      -400.5272
   5   2.0000     -10.604844      -288.5725
   6   2.0000     -10.567364      -287.5526
   7   2.0000     -10.536738      -286.7192
   8   2.0000     -10.533450      -286.6297
   9   2.0000     -10.528335      -286.4906
  10   2.0000     -10.526329      -286.4360
  11   2.0000     -10.523623      -286.3623
  12   2.0000     -10.435983      -283.9775
  13   2.0000      -8.491762      -231.0726
  14   2.0000      -6.416453      -174.6006
  15   2.0000      -6.411484      -174.4654
  16   2.0000      -6.411167      -174.4567
  17   2.0000      -1.547966       -42.1223
  18   2.0000      -1.239070       -33.7168
  19   2.0000      -1.138290       -30.9744
  20   2.0000      -1.020782       -27.7769
  21   2.0000      -0.941311       -25.6144
  22   2.0000      -0.895857       -24.3775
  23   2.0000      -0.863539       -23.4981
  24   2.0000      -0.827010       -22.5041
  25   2.0000      -0.793326       -21.5875
  26   2.0000      -0.765327       -20.8256
  27   2.0000      -0.724680       -19.7196
  28   2.0000      -0.705856       -19.2073
  29   2.0000      -0.693287       -18.8653
  30   2.0000      -0.660174       -17.9642
  31   2.0000      -0.647279       -17.6134
  32   2.0000      -0.614817       -16.7300
  33   2.0000      -0.582500       -15.8506
  34   2.0000      -0.571538       -15.5523
  35   2.0000      -0.568979       -15.4827
  36   2.0000      -0.551897       -15.0179
  37   2.0000      -0.544052       -14.8044
  38   2.0000      -0.523814       -14.2537
  39   2.0000      -0.505848       -13.7648
  40   2.0000      -0.494817       -13.4647
  41   2.0000      -0.485136       -13.2012
  42   2.0000      -0.472923       -12.8689
  43   2.0000      -0.450415       -12.2564
  44   2.0000      -0.444689       -12.1006
  45   2.0000      -0.430437       -11.7128
  46   2.0000      -0.423327       -11.5193
  47   2.0000      -0.416931       -11.3453
  48   2.0000      -0.412959       -11.2372
  49   2.0000      -0.400502       -10.8982
  50   2.0000      -0.397347       -10.8124
  51   2.0000      -0.391656       -10.6575
  52   2.0000      -0.374671       -10.1953
  53   2.0000      -0.368362       -10.0236
  54   2.0000      -0.361493        -9.8367
  55   2.0000      -0.217859        -5.9282
  56   0.0000      -0.008078        -0.2198
  57   0.0000       0.011807         0.3213
  58   0.0000       0.015052         0.4096
  59   0.0000       0.022162         0.6031
  60   0.0000       0.035840         0.9753

MULLIKEN ATOMIC CHARGES
-----------------------
   0 C :   -1.234469
   1 C :   -0.999519
   2 C :   -0.863430
   3 H :    0.409701
   4 H :    0.506448
   5 S :    1.337420
   6 C :    0.765179
   7 C :   -1.015276
   8 N :   -0.644981
   9 H :    0.338975
  10 H :    0.299132
  11 H :    0.311374
  12 H :    0.388424
  13 O :   -0.729410
  14 F :   -0.129799
  15 C :   -0.763639
  16 C :   -0.169422
  17 H :    0.368426
  18 H :    0.416327
  19 C :   -0.516138
  20 H :    0.403260
  21 H :    0.416624
  22 O :   -0.710785
  23 H :    0.222217
  24 H :    0.387581
  25 H :    0.109787
  26 H :    0.363564
  27 H :    0.376003
  28 H :    0.356424
Sum of atomic charges:   -0.0000000

LOEWDIN ATOMIC CHARGES
----------------------
   0 C :   -0.139025
   1 C :   -0.214908
   2 C :   -0.212392
   3 H :    0.107953
   4 H :    0.098854
   5 S :    0.672677
   6 C :   -0.501059
   7 C :    0.008978
   8 N :    0.103678
   9 H :    0.109141
  10 H :    0.077086
  11 H :    0.033143
  12 H :    0.003380
  13 O :   -0.321129
  14 F :   -0.046019
  15 C :   -0.188854
  16 C :   -0.204491
  17 H :    0.115713
  18 H :    0.123816
  19 C :   -0.209177
  20 H :    0.109955
  21 H :    0.107913
  22 O :   -0.290071
  23 H :    0.095828
  24 H :    0.118371
  25 H :    0.088730
  26 H :    0.123872
  27 H :    0.108400
  28 H :    0.119638

  Mayer bond orders larger than 0.100000
B(  0-C ,  6-C ) :   0.5222 B(  0-C , 15-C ) :   0.6817 B(  0-C , 16-C ) :   0.1174
B(  0-C , 27-H ) :   0.9824 B(  0-C , 28-H ) :   0.9605 B(  1-C ,  2-C ) :   0.6720
B(  1-C , 16-C ) :   0.5940 B(  1-C , 17-H ) :   0.9477 B(  1-C , 18-H ) :   0.8947
B(  1-C , 19-C ) :   0.1859 B(  2-C ,  3-H ) :   0.9090 B(  2-C ,  4-H ) :   0.7730
B(  2-C ,  5-S ) :   0.8644 B(  2-C , 13-O ) :   0.1286 B(  2-C , 16-C ) :  -0.1027
B(  2-C , 19-C ) :   0.1101 B(  5-S , 13-O ) :   1.5949 B(  5-S , 14-F ) :   0.8362
B(  5-S , 22-O ) :   1.5445 B(  6-C ,  7-C ) :   1.5451 B(  6-C ,  8-N ) :   0.6663
B(  6-C , 12-H ) :  -0.1585 B(  6-C , 27-H ) :  -0.1093 B(  7-C , 11-H ) :   1.0828
B(  7-C , 12-H ) :   0.8647 B(  8-N ,  9-H ) :   0.8116 B(  8-N , 10-H ) :   0.8181
B( 15-C , 16-C ) :   0.1570 B( 15-C , 19-C ) :   0.6802 B( 15-C , 20-H ) :   0.9084
B( 15-C , 21-H ) :   0.9174 B( 16-C , 19-C ) :   0.2754 B( 16-C , 23-H ) :  -0.2067
B( 16-C , 25-H ) :   1.1264 B( 16-C , 26-H ) :   0.9065 B( 19-C , 23-H ) :   1.1362
B( 19-C , 24-H ) :   0.8439 B( 19-C , 25-H ) :  -0.1324 B( 23-H , 24-H ) :   0.1060

Dispersion correction           -0.001639596
FINAL SINGLE POINT ENERGY     -1017.613098370634

DIPOLE MOMENT
-------------
                                X             Y             Z
Electronic contribution:      0.04225      -4.10601     -22.51501
Nuclear contribution   :     -1.50273       5.82595      21.72909
                        -----------------------------------------
Total Dipole Moment    :     -1.46048       1.71993      -0.78593
                        -----------------------------------------
Magnitude (a.u.)       :      2.38932
Magnitude (Debye)      :      6.07317

Rotational constants in cm-1:     0.036883     0.018294     0.014745
Rotational constants in MHz :  1105.724679   548.429785   442.050481

                             ****ORCA TERMINATED NORMALLY****
TOTAL RUN TIME: 0 days 0 hours 5 minutes 56 seconds 174 msec
