                         Program Version 5.0.0 -  RELEASE  -
|  1> !M062X D3Zero RIJCOSX def2-TZVPD def2/J TightSCF xyzfile
|  2>
|  3> *xyzfile 0 1 D4.xyz
|  4>
|  5> %MaxCore 64000
|  6>
|  7> %pal nprocs 4
|  8> end
|  9>
| 10> %scf
| 11>   MaxIter 150
| 12> end
| 13>
| 14>
| 15>                          ****END OF INPUT****

CARTESIAN COORDINATES (ANGSTROEM)
---------------------------------
  C      2.916324   -1.242589   -1.543125
  C      0.704661    1.443129   -4.503630
  C      1.728539    1.424320   -5.639443
  H      2.646718    1.953794   -5.381054
  H      1.299916    1.930613   -6.503614
  S      2.252625   -0.188115   -6.271840
  C      3.466585   -1.590971   -2.889082
  N      4.652275   -1.143164   -3.259692
  C      2.752264   -2.292043   -3.728029
  H      1.778364   -2.489604   -3.512738
  H      2.948612   -2.208544   -4.716813
  H      5.146723   -0.512508   -2.633852
  H      4.783030   -1.007203   -4.253498
  O      3.562607   -0.444464   -5.631552
  F      2.344944   -0.033742   -7.696501
  C      2.804084    0.290698   -1.359243
  C      1.052550    0.695659   -3.214915
  H     -0.232483    1.032925   -4.884449
  H      0.511700    2.495794   -4.267966
  C      2.388380    1.093669   -2.597108
  H      3.763425    0.674718   -0.999889
  H      2.094788    0.461222   -0.545756
  O      1.266058   -1.159177   -5.805365
  H      3.167316    1.013242   -3.359430
  H      2.357690    2.149375   -2.310997
  H      1.039284   -0.368429   -3.449329
  H      0.250787    0.865605   -2.488283
  H      1.940472   -1.716529   -1.441161
  H      3.558569   -1.663433   -0.766371

 Total Charge           Charge          ....    0
 Multiplicity           Mult            ....    1
 Number of Electrons    NEL             ....  112
 Basis Dimension        Dim             ....  643

ORBITAL ENERGIES
----------------

  NO   OCC          E(Eh)            E(eV)
   0   2.0000     -90.162270     -2453.4401
   1   2.0000     -25.378682      -690.5891
   2   2.0000     -19.643061      -534.5149
   3   2.0000     -19.639447      -534.4165
   4   2.0000     -14.717704      -400.4891
   5   2.0000     -10.601710      -288.4872
   6   2.0000     -10.563564      -287.4492
   7   2.0000     -10.531117      -286.5663
   8   2.0000     -10.530859      -286.5593
   9   2.0000     -10.530804      -286.5578
  10   2.0000     -10.529340      -286.5179
  11   2.0000     -10.521656      -286.3088
  12   2.0000     -10.440759      -284.1075
  13   2.0000      -8.487565      -230.9584
  14   2.0000      -6.412290      -174.4873
  15   2.0000      -6.407270      -174.3507
  16   2.0000      -6.407071      -174.3453
  17   2.0000      -1.544230       -42.0206
  18   2.0000      -1.232311       -33.5329
  19   2.0000      -1.132682       -30.8218
  20   2.0000      -1.016802       -27.6686
  21   2.0000      -0.937808       -25.5190
  22   2.0000      -0.894311       -24.3354
  23   2.0000      -0.858824       -23.3698
  24   2.0000      -0.826776       -22.4977
  25   2.0000      -0.801016       -21.7968
  26   2.0000      -0.763065       -20.7641
  27   2.0000      -0.717708       -19.5298
  28   2.0000      -0.702599       -19.1187
  29   2.0000      -0.688605       -18.7379
  30   2.0000      -0.657334       -17.8870
  31   2.0000      -0.646205       -17.5841
  32   2.0000      -0.613555       -16.6957
  33   2.0000      -0.583981       -15.8909
  34   2.0000      -0.573461       -15.6047
  35   2.0000      -0.566026       -15.4023
  36   2.0000      -0.546601       -14.8738
  37   2.0000      -0.528708       -14.3869
  38   2.0000      -0.525552       -14.3010
  39   2.0000      -0.508710       -13.8427
  40   2.0000      -0.496147       -13.5009
  41   2.0000      -0.478105       -13.0099
  42   2.0000      -0.469986       -12.7890
  43   2.0000      -0.449849       -12.2410
  44   2.0000      -0.445591       -12.1251
  45   2.0000      -0.435074       -11.8390
  46   2.0000      -0.422005       -11.4834
  47   2.0000      -0.415947       -11.3185
  48   2.0000      -0.409784       -11.1508
  49   2.0000      -0.393683       -10.7127
  50   2.0000      -0.390450       -10.6247
  51   2.0000      -0.387376       -10.5410
  52   2.0000      -0.375875       -10.2281
  53   2.0000      -0.367848       -10.0096
  54   2.0000      -0.357328        -9.7234
  55   2.0000      -0.226334        -6.1588
  56   0.0000      -0.006748        -0.1836
  57   0.0000       0.013048         0.3551
  58   0.0000       0.014836         0.4037
  59   0.0000       0.023433         0.6377
  60   0.0000       0.037772         1.0278

MULLIKEN ATOMIC CHARGES
-----------------------
   0 C :   -1.169477
   1 C :   -1.002347
   2 C :   -0.866931
   3 H :    0.398167
   4 H :    0.504713
   5 S :    1.305620
   6 C :    0.716563
   7 N :   -0.711572
   8 C :   -1.033338
   9 H :    0.446681
  10 H :    0.414152
  11 H :    0.294084
  12 H :    0.382079
  13 O :   -0.745672
  14 F :   -0.131157
  15 C :   -0.818193
  16 C :   -0.093488
  17 H :    0.378389
  18 H :    0.410497
  19 C :   -0.469496
  20 H :    0.389025
  21 H :    0.383497
  22 O :   -0.688760
  23 H :    0.225599
  24 H :    0.390362
  25 H :    0.054082
  26 H :    0.351037
  27 H :    0.343586
  28 H :    0.342296
Sum of atomic charges:   -0.0000000

LOEWDIN ATOMIC CHARGES
----------------------
   0 C :   -0.141500
   1 C :   -0.214506
   2 C :   -0.214108
   3 H :    0.105362
   4 H :    0.098417
   5 S :    0.673847
   6 C :   -0.499268
   7 N :    0.101692
   8 C :    0.003605
   9 H :    0.037497
  10 H :    0.004057
  11 H :    0.112055
  12 H :    0.081990
  13 O :   -0.328260
  14 F :   -0.046268
  15 C :   -0.192102
  16 C :   -0.202578
  17 H :    0.116456
  18 H :    0.122630
  19 C :   -0.210335
  20 H :    0.104252
  21 H :    0.108976
  22 O :   -0.278937
  23 H :    0.094314
  24 H :    0.117547
  25 H :    0.091192
  26 H :    0.124031
  27 H :    0.114308
  28 H :    0.115632

  Mayer bond orders larger than 0.100000
B(  0-C ,  6-C ) :   0.5975 B(  0-C ,  8-C ) :   0.2747 B(  0-C , 15-C ) :   0.6367
B(  0-C , 16-C ) :   0.1886 B(  0-C , 19-C ) :  -0.1570 B(  0-C , 27-H ) :   0.9922
B(  0-C , 28-H ) :   0.9653 B(  1-C ,  2-C ) :   0.6822 B(  1-C , 16-C ) :   0.5590
B(  1-C , 17-H ) :   0.9254 B(  1-C , 18-H ) :   0.9087 B(  1-C , 19-C ) :   0.1684
B(  1-C , 25-H ) :   0.1413 B(  2-C ,  3-H ) :   0.9182 B(  2-C ,  4-H ) :   0.7763
B(  2-C ,  5-S ) :   0.8555 B(  2-C , 13-O ) :   0.1341 B(  2-C , 16-C ) :  -0.1072
B(  2-C , 19-C ) :   0.1188 B(  5-S , 13-O ) :   1.6250 B(  5-S , 14-F ) :   0.8256
B(  5-S , 22-O ) :   1.5907 B(  6-C ,  7-N ) :   0.6629 B(  6-C ,  8-C ) :   1.6128
B(  6-C ,  9-H ) :  -0.1257 B(  6-C , 10-H ) :  -0.1589 B(  6-C , 15-C ) :  -0.1098
B(  6-C , 19-C ) :   0.1511 B(  7-N , 11-H ) :   0.8604 B(  7-N , 12-H ) :   0.8068
B(  8-C ,  9-H ) :   0.9285 B(  8-C , 10-H ) :   0.8607 B(  8-C , 16-C ) :  -0.1273
B(  8-C , 19-C ) :   0.1038 B(  9-H , 10-H ) :   0.1233 B( 15-C , 16-C ) :   0.1592
B( 15-C , 19-C ) :   0.6161 B( 15-C , 20-H ) :   0.9374 B( 15-C , 21-H ) :   0.9403
B( 16-C , 19-C ) :   0.3579 B( 16-C , 23-H ) :  -0.1677 B( 16-C , 25-H ) :   1.1374
B( 16-C , 26-H ) :   0.9270 B( 19-C , 23-H ) :   1.0835 B( 19-C , 24-H ) :   0.8718
B( 19-C , 25-H ) :  -0.1117 B( 23-H , 24-H ) :   0.1097

Dispersion correction           -0.001643803
FINAL SINGLE POINT ENERGY     -1017.616880686361

DIPOLE MOMENT
-------------
                                X             Y             Z
Electronic contribution:      1.29193      -3.43886     -22.20383
Nuclear contribution   :     -1.74760       5.67788      21.66873
                        -----------------------------------------
Total Dipole Moment    :     -0.45568       2.23902      -0.53510
                        -----------------------------------------
Magnitude (a.u.)       :      2.34674
Magnitude (Debye)      :      5.96493

Rotational constants in cm-1:     0.036818     0.018222     0.014682
Rotational constants in MHz :  1103.783048   546.296792   440.157914

                             ****ORCA TERMINATED NORMALLY****
TOTAL RUN TIME: 0 days 0 hours 5 minutes 50 seconds 631 msec
