                         Program Version 5.0.0 -  RELEASE  -
|  1> !M062X D3Zero RIJCOSX def2-TZVPD def2/J TightSCF xyzfile
|  2>
|  3> *xyzfile 0 1 D5.xyz
|  4>
|  5> %MaxCore 64000
|  6>
|  7> %pal nprocs 4
|  8> end
|  9>
| 10> %scf
| 11>   MaxIter 150
| 12> end
| 13>
| 14>
| 15>                          ****END OF INPUT****

CARTESIAN COORDINATES (ANGSTROEM)
---------------------------------
  C      2.916324   -1.242589   -1.543125
  C      0.704661    1.443129   -4.503630
  C      1.728539    1.424320   -5.639443
  H      2.646718    1.953794   -5.381054
  H      1.299916    1.930613   -6.503614
  S      2.252625   -0.188115   -6.271840
  C      3.466585   -1.590971   -2.889082
  C      4.652275   -1.143164   -3.259692
  N      2.752264   -2.292043   -3.728029
  H      1.778364   -2.489604   -3.512738
  H      2.948612   -2.208544   -4.716813
  H      5.146723   -0.512508   -2.633852
  H      4.783030   -1.007203   -4.253498
  O      3.562607   -0.444464   -5.631552
  O      2.344944   -0.033742   -7.696501
  C      2.804084    0.290698   -1.359243
  C      1.052550    0.695659   -3.214915
  H     -0.232483    1.032925   -4.884449
  H      0.511700    2.495794   -4.267966
  C      2.388380    1.093669   -2.597108
  H      3.763425    0.674718   -0.999889
  H      2.094788    0.461222   -0.545756
  F      1.266058   -1.159177   -5.805365
  H      3.167316    1.013242   -3.359430
  H      2.357690    2.149375   -2.310997
  H      1.039284   -0.368429   -3.449329
  H      0.250787    0.865605   -2.488283
  H      1.940472   -1.716529   -1.441161
  H      3.558569   -1.663433   -0.766371

 Total Charge           Charge          ....    0
 Multiplicity           Mult            ....    1
 Number of Electrons    NEL             ....  112
 Basis Dimension        Dim             ....  643

ORBITAL ENERGIES
----------------

  NO   OCC          E(Eh)            E(eV)
   0   2.0000     -90.161667     -2453.4237
   1   2.0000     -25.372276      -690.4147
   2   2.0000     -19.652551      -534.7731
   3   2.0000     -19.638950      -534.4030
   4   2.0000     -14.737215      -401.0200
   5   2.0000     -10.602201      -288.5006
   6   2.0000     -10.572190      -287.6839
   7   2.0000     -10.549270      -287.0602
   8   2.0000     -10.543669      -286.9078
   9   2.0000     -10.536206      -286.7047
  10   2.0000     -10.534581      -286.6605
  11   2.0000     -10.533032      -286.6184
  12   2.0000     -10.446197      -284.2555
  13   2.0000      -8.487328      -230.9519
  14   2.0000      -6.412286      -174.4872
  15   2.0000      -6.406908      -174.3408
  16   2.0000      -6.406633      -174.3334
  17   2.0000      -1.529612       -41.6229
  18   2.0000      -1.243175       -33.8285
  19   2.0000      -1.142978       -31.1020
  20   2.0000      -1.036773       -28.2120
  21   2.0000      -0.946575       -25.7576
  22   2.0000      -0.901345       -24.5268
  23   2.0000      -0.862333       -23.4653
  24   2.0000      -0.827384       -22.5143
  25   2.0000      -0.800927       -21.7943
  26   2.0000      -0.771479       -20.9930
  27   2.0000      -0.728709       -19.8292
  28   2.0000      -0.697728       -18.9861
  29   2.0000      -0.695850       -18.9350
  30   2.0000      -0.666566       -18.1382
  31   2.0000      -0.643663       -17.5150
  32   2.0000      -0.625286       -17.0149
  33   2.0000      -0.587016       -15.9735
  34   2.0000      -0.574317       -15.6280
  35   2.0000      -0.569495       -15.4967
  36   2.0000      -0.556323       -15.1383
  37   2.0000      -0.545937       -14.8557
  38   2.0000      -0.533458       -14.5161
  39   2.0000      -0.519362       -14.1326
  40   2.0000      -0.502463       -13.6727
  41   2.0000      -0.486192       -13.2299
  42   2.0000      -0.479653       -13.0520
  43   2.0000      -0.456328       -12.4173
  44   2.0000      -0.453659       -12.3447
  45   2.0000      -0.443659       -12.0726
  46   2.0000      -0.437184       -11.8964
  47   2.0000      -0.420635       -11.4460
  48   2.0000      -0.418318       -11.3830
  49   2.0000      -0.408225       -11.1084
  50   2.0000      -0.399573       -10.8729
  51   2.0000      -0.394536       -10.7359
  52   2.0000      -0.383193       -10.4272
  53   2.0000      -0.375199       -10.2097
  54   2.0000      -0.371509       -10.1093
  55   2.0000      -0.230439        -6.2706
  56   0.0000      -0.006506        -0.1770
  57   0.0000       0.008288         0.2255
  58   0.0000       0.015630         0.4253
  59   0.0000       0.019603         0.5334
  60   0.0000       0.033212         0.9037

MULLIKEN ATOMIC CHARGES
-----------------------
   0 C :   -1.217339
   1 C :   -1.038304
   2 C :   -0.729455
   3 H :    0.407991
   4 H :    0.413939
   5 S :    1.346539
   6 C :    0.800136
   7 C :   -1.011512
   8 N :   -0.686081
   9 H :    0.342958
  10 H :    0.292053
  11 H :    0.308341
  12 H :    0.394141
  13 O :   -0.705237
  14 O :   -0.719986
  15 C :   -0.768502
  16 C :   -0.164692
  17 H :    0.368605
  18 H :    0.415535
  19 C :   -0.507690
  20 H :    0.405696
  21 H :    0.419163
  22 F :   -0.177301
  23 H :    0.227889
  24 H :    0.396799
  25 H :    0.098397
  26 H :    0.361452
  27 H :    0.372452
  28 H :    0.354014
Sum of atomic charges:   -0.0000000

LOEWDIN ATOMIC CHARGES
----------------------
   0 C :   -0.138968
   1 C :   -0.223063
   2 C :   -0.204138
   3 H :    0.113620
   4 H :    0.103856
   5 S :    0.659466
   6 C :   -0.502128
   7 C :    0.017916
   8 N :    0.094661
   9 H :    0.107506
  10 H :    0.078744
  11 H :    0.036482
  12 H :    0.006547
  13 O :   -0.318395
  14 O :   -0.265624
  15 C :   -0.187838
  16 C :   -0.208718
  17 H :    0.113631
  18 H :    0.123210
  19 C :   -0.207321
  20 H :    0.111104
  21 H :    0.108586
  22 F :   -0.075503
  23 H :    0.096825
  24 H :    0.120407
  25 H :    0.086361
  26 H :    0.124180
  27 H :    0.107923
  28 H :    0.120672

  Mayer bond orders larger than 0.100000
B(  0-C ,  6-C ) :   0.5260 B(  0-C , 15-C ) :   0.6778 B(  0-C , 16-C ) :   0.1112
B(  0-C , 27-H ) :   0.9871 B(  0-C , 28-H ) :   0.9599 B(  1-C ,  2-C ) :   0.5972
B(  1-C , 16-C ) :   0.5027 B(  1-C , 17-H ) :   0.9829 B(  1-C , 18-H ) :   0.8970
B(  1-C , 19-C ) :   0.1862 B(  2-C ,  3-H ) :   0.8863 B(  2-C ,  4-H ) :   0.9307
B(  2-C ,  5-S ) :   0.8717 B(  2-C , 13-O ) :   0.1155 B(  2-C , 14-O ) :   0.1377
B(  2-C , 16-C ) :  -0.1352 B(  2-C , 19-C ) :   0.1091 B(  5-S , 13-O ) :   1.5905
B(  5-S , 14-O ) :   1.4141 B(  5-S , 22-F ) :   0.9139 B(  6-C ,  7-C ) :   1.5469
B(  6-C ,  8-N ) :   0.6384 B(  6-C , 12-H ) :  -0.1501 B(  6-C , 13-O ) :  -0.1051
B(  6-C , 27-H ) :  -0.1115 B(  7-C , 11-H ) :   1.0916 B(  7-C , 12-H ) :   0.8610
B(  8-N ,  9-H ) :   0.8277 B(  8-N , 10-H ) :   0.8040 B( 15-C , 16-C ) :   0.1648
B( 15-C , 19-C ) :   0.6858 B( 15-C , 20-H ) :   0.9055 B( 15-C , 21-H ) :   0.9174
B( 16-C , 19-C ) :   0.2967 B( 16-C , 23-H ) :  -0.1910 B( 16-C , 25-H ) :   1.1090
B( 16-C , 26-H ) :   0.9174 B( 19-C , 23-H ) :   1.1303 B( 19-C , 24-H ) :   0.8309
B( 19-C , 25-H ) :  -0.1278 B( 23-H , 24-H ) :   0.1018

Dispersion correction           -0.001665665
FINAL SINGLE POINT ENERGY     -1017.618026847175

DIPOLE MOMENT
-------------
                                X             Y             Z
Electronic contribution:     -1.73082      -6.03008     -18.98117
Nuclear contribution   :     -0.26930       7.11259      19.56706
                        -----------------------------------------
Total Dipole Moment    :     -2.00012       1.08250       0.58589
                        -----------------------------------------
Magnitude (a.u.)       :      2.34852
Magnitude (Debye)      :      5.96947

Rotational constants in cm-1:     0.036519     0.018683     0.015073
Rotational constants in MHz :  1094.801738   560.111127   451.890222

                             ****ORCA TERMINATED NORMALLY****
TOTAL RUN TIME: 0 days 0 hours 7 minutes 0 seconds 344 msec
