                         Program Version 5.0.0 -  RELEASE  -
|  1> !M062X D3Zero RIJCOSX def2-TZVPD def2/J TightSCF xyzfile
|  2>
|  3> *xyzfile 0 1 D6.xyz
|  4>
|  5> %MaxCore 64000
|  6>
|  7> %pal nprocs 4
|  8> end
|  9>
| 10> %scf
| 11>   MaxIter 150
| 12> end
| 13>
| 14>
| 15>                          ****END OF INPUT****

CARTESIAN COORDINATES (ANGSTROEM)
---------------------------------
  C      2.916324   -1.242589   -1.543125
  C      0.704661    1.443129   -4.503630
  C      1.728539    1.424320   -5.639443
  H      2.646718    1.953794   -5.381054
  H      1.299916    1.930613   -6.503614
  S      2.252625   -0.188115   -6.271840
  C      3.466585   -1.590971   -2.889082
  N      4.652275   -1.143164   -3.259692
  C      2.752264   -2.292043   -3.728029
  H      1.778364   -2.489604   -3.512738
  H      2.948612   -2.208544   -4.716813
  H      5.146723   -0.512508   -2.633852
  H      4.783030   -1.007203   -4.253498
  O      3.562607   -0.444464   -5.631552
  O      2.344944   -0.033742   -7.696501
  C      2.804084    0.290698   -1.359243
  C      1.052550    0.695659   -3.214915
  H     -0.232483    1.032925   -4.884449
  H      0.511700    2.495794   -4.267966
  C      2.388380    1.093669   -2.597108
  H      3.763425    0.674718   -0.999889
  H      2.094788    0.461222   -0.545756
  F      1.266058   -1.159177   -5.805365
  H      3.167316    1.013242   -3.359430
  H      2.357690    2.149375   -2.310997
  H      1.039284   -0.368429   -3.449329
  H      0.250787    0.865605   -2.488283
  H      1.940472   -1.716529   -1.441161
  H      3.558569   -1.663433   -0.766371

 Total Charge           Charge          ....    0
 Multiplicity           Mult            ....    1
 Number of Electrons    NEL             ....  112
 Basis Dimension        Dim             ....  643

ORBITAL ENERGIES
----------------

  NO   OCC          E(Eh)            E(eV)
   0   2.0000     -90.158996     -2453.3510
   1   2.0000     -25.362108      -690.1380
   2   2.0000     -19.649019      -534.6770
   3   2.0000     -19.635208      -534.3012
   4   2.0000     -14.727450      -400.7543
   5   2.0000     -10.599442      -288.4255
   6   2.0000     -10.568563      -287.5852
   7   2.0000     -10.546049      -286.9726
   8   2.0000     -10.543318      -286.8983
   9   2.0000     -10.540058      -286.8096
  10   2.0000     -10.537953      -286.7523
  11   2.0000     -10.532355      -286.6000
  12   2.0000     -10.456846      -284.5452
  13   2.0000      -8.484174      -230.8661
  14   2.0000      -6.409062      -174.3995
  15   2.0000      -6.403935      -174.2599
  16   2.0000      -6.403581      -174.2503
  17   2.0000      -1.519075       -41.3361
  18   2.0000      -1.239248       -33.7216
  19   2.0000      -1.139455       -31.0061
  20   2.0000      -1.027374       -27.9563
  21   2.0000      -0.943376       -25.6706
  22   2.0000      -0.899687       -24.4817
  23   2.0000      -0.856693       -23.3118
  24   2.0000      -0.829489       -22.5716
  25   2.0000      -0.805634       -21.9224
  26   2.0000      -0.769562       -20.9408
  27   2.0000      -0.720877       -19.6161
  28   2.0000      -0.690656       -18.7937
  29   2.0000      -0.685290       -18.6477
  30   2.0000      -0.663685       -18.0598
  31   2.0000      -0.645086       -17.5537
  32   2.0000      -0.621837       -16.9210
  33   2.0000      -0.585398       -15.9295
  34   2.0000      -0.570306       -15.5188
  35   2.0000      -0.567144       -15.4328
  36   2.0000      -0.552105       -15.0235
  37   2.0000      -0.542128       -14.7520
  38   2.0000      -0.531324       -14.4581
  39   2.0000      -0.513148       -13.9635
  40   2.0000      -0.510181       -13.8827
  41   2.0000      -0.484347       -13.1797
  42   2.0000      -0.477275       -12.9873
  43   2.0000      -0.463791       -12.6204
  44   2.0000      -0.452463       -12.3121
  45   2.0000      -0.448075       -12.1927
  46   2.0000      -0.431585       -11.7440
  47   2.0000      -0.425776       -11.5859
  48   2.0000      -0.417194       -11.3524
  49   2.0000      -0.402621       -10.9559
  50   2.0000      -0.398317       -10.8388
  51   2.0000      -0.388850       -10.5812
  52   2.0000      -0.384429       -10.4609
  53   2.0000      -0.375341       -10.2135
  54   2.0000      -0.369131       -10.0446
  55   2.0000      -0.240541        -6.5455
  56   0.0000      -0.002530        -0.0689
  57   0.0000       0.011255         0.3063
  58   0.0000       0.016304         0.4437
  59   0.0000       0.021620         0.5883
  60   0.0000       0.036651         0.9973

MULLIKEN ATOMIC CHARGES
-----------------------
   0 C :   -1.154588
   1 C :   -1.032275
   2 C :   -0.744963
   3 H :    0.400239
   4 H :    0.417684
   5 S :    1.345506
   6 C :    0.732094
   7 N :   -0.706545
   8 C :   -1.141050
   9 H :    0.476140
  10 H :    0.460448
  11 H :    0.295054
  12 H :    0.378319
  13 O :   -0.729695
  14 O :   -0.720899
  15 C :   -0.820845
  16 C :   -0.110004
  17 H :    0.374606
  18 H :    0.410562
  19 C :   -0.471131
  20 H :    0.391984
  21 H :    0.386690
  22 F :   -0.169590
  23 H :    0.237296
  24 H :    0.397583
  25 H :    0.067122
  26 H :    0.350702
  27 H :    0.338973
  28 H :    0.340580
Sum of atomic charges:   -0.0000000

LOEWDIN ATOMIC CHARGES
----------------------
   0 C :   -0.139371
   1 C :   -0.222457
   2 C :   -0.205350
   3 H :    0.111254
   4 H :    0.103511
   5 S :    0.662555
   6 C :   -0.497750
   7 N :    0.108734
   8 C :   -0.004412
   9 H :    0.034330
  10 H :    0.003821
  11 H :    0.114720
  12 H :    0.085033
  13 O :   -0.326516
  14 O :   -0.265893
  15 C :   -0.190332
  16 C :   -0.207137
  17 H :    0.114457
  18 H :    0.122047
  19 C :   -0.208534
  20 H :    0.105652
  21 H :    0.109931
  22 F :   -0.067893
  23 H :    0.095297
  24 H :    0.119628
  25 H :    0.088706
  26 H :    0.124275
  27 H :    0.114225
  28 H :    0.117469

  Mayer bond orders larger than 0.100000
B(  0-C ,  6-C ) :   0.6114 B(  0-C ,  8-C ) :   0.2633 B(  0-C , 15-C ) :   0.6274
B(  0-C , 16-C ) :   0.1941 B(  0-C , 19-C ) :  -0.1559 B(  0-C , 27-H ) :   0.9989
B(  0-C , 28-H ) :   0.9587 B(  1-C ,  2-C ) :   0.6014 B(  1-C , 16-C ) :   0.4722
B(  1-C , 17-H ) :   0.9629 B(  1-C , 18-H ) :   0.9117 B(  1-C , 19-C ) :   0.1654
B(  2-C ,  3-H ) :   0.8937 B(  2-C ,  4-H ) :   0.9308 B(  2-C ,  5-S ) :   0.8693
B(  2-C , 13-O ) :   0.1322 B(  2-C , 14-O ) :   0.1459 B(  2-C , 16-C ) :  -0.1391
B(  2-C , 19-C ) :   0.1222 B(  5-S , 13-O ) :   1.6183 B(  5-S , 14-O ) :   1.3832
B(  5-S , 22-F ) :   0.9346 B(  6-C ,  7-N ) :   0.6948 B(  6-C ,  8-C ) :   1.6046
B(  6-C ,  9-H ) :  -0.1328 B(  6-C , 10-H ) :  -0.1393 B(  6-C , 13-O ) :  -0.1525
B(  6-C , 19-C ) :   0.1541 B(  7-N , 11-H ) :   0.8605 B(  7-N , 12-H ) :   0.8015
B(  8-C ,  9-H ) :   0.9117 B(  8-C , 10-H ) :   0.7794 B(  8-C , 16-C ) :  -0.1498
B(  8-C , 19-C ) :   0.1067 B(  9-H , 10-H ) :   0.1181 B( 15-C , 16-C ) :   0.1586
B( 15-C , 19-C ) :   0.6222 B( 15-C , 20-H ) :   0.9357 B( 15-C , 21-H ) :   0.9397
B( 16-C , 19-C ) :   0.3697 B( 16-C , 23-H ) :  -0.1624 B( 16-C , 25-H ) :   1.1292
B( 16-C , 26-H ) :   0.9341 B( 19-C , 23-H ) :   1.0790 B( 19-C , 24-H ) :   0.8588
B( 19-C , 25-H ) :  -0.1099 B( 23-H , 24-H ) :   0.1056

Dispersion correction           -0.001669187
FINAL SINGLE POINT ENERGY     -1017.628176974658

DIPOLE MOMENT
-------------
                                X             Y             Z
Electronic contribution:     -0.48752      -5.33941     -18.64064
Nuclear contribution   :     -0.51418       6.96452      19.50670
                        -----------------------------------------
Total Dipole Moment    :     -1.00170       1.62511       0.86606
                        -----------------------------------------
Magnitude (a.u.)       :      2.09630
Magnitude (Debye)      :      5.32836

Rotational constants in cm-1:     0.036455     0.018603     0.015008
Rotational constants in MHz :  1092.895336   557.693628   449.926016

                             ****ORCA TERMINATED NORMALLY****
TOTAL RUN TIME: 0 days 0 hours 6 minutes 8 seconds 96 msec
