                         Program Version 5.0.0 -  RELEASE  -
|  1> !B3LYP D3BJ RIJCOSX def2-TZVPD def2/J TightSCF
|  2> *xyz -1 1
|  3> C         -0.87096        0.24804       -2.66280
|  4> C         -0.47749        0.60819       -4.10105
|  5> H          0.20677        1.45830       -4.11875
|  6> H         -1.36844        0.92942       -4.64785
|  7> C          0.18467       -0.50664       -4.91676
|  8> O         -0.15869       -1.70109       -4.65798
|  9> O          1.05594       -0.17441       -5.74037
| 10> H         -1.54056       -0.58646       -2.67455
| 11> H         -1.35339        1.08600       -2.20455
| 12> H          0.00660       -0.00662       -2.10609
| 13> *
| 14>
| 15> %MaxCore 64000
| 16>
| 17> %pal nprocs 4
| 18> end
| 19>
| 20> %scf
| 21>   MaxIter 150
| 22> end
| 23>
| 24>
| 25>                          ****END OF INPUT****

CARTESIAN COORDINATES (ANGSTROEM)
---------------------------------
  C     -0.870960    0.248040   -2.662800
  C     -0.477490    0.608190   -4.101050
  H      0.206770    1.458300   -4.118750
  H     -1.368440    0.929420   -4.647850
  C      0.184670   -0.506640   -4.916760
  O     -0.158690   -1.701090   -4.657980
  O      1.055940   -0.174410   -5.740370
  H     -1.540560   -0.586460   -2.674550
  H     -1.353390    1.086000   -2.204550
  H      0.006600   -0.006620   -2.106090

 Total Charge           Charge          ....   -1
 Multiplicity           Mult            ....    1
 Number of Electrons    NEL             ....   40
 Basis Dimension        Dim             ....  236

ORBITAL ENERGIES
----------------

  NO   OCC          E(Eh)            E(eV)
   0   2.0000     -18.862964      -513.2874
   1   2.0000     -18.859529      -513.1939
   2   2.0000     -10.051658      -273.5195
   3   2.0000     -10.002260      -272.1753
   4   2.0000      -9.994938      -271.9761
   5   2.0000      -0.820583       -22.3292
   6   2.0000      -0.727826       -19.8052
   7   2.0000      -0.602274       -16.3887
   8   2.0000      -0.474734       -12.9182
   9   2.0000      -0.316966        -8.6251
  10   2.0000      -0.292489        -7.9590
  11   2.0000      -0.260440        -7.0869
  12   2.0000      -0.228426        -6.2158
  13   2.0000      -0.214891        -5.8475
  14   2.0000      -0.207460        -5.6453
  15   2.0000      -0.178958        -4.8697
  16   2.0000      -0.160023        -4.3544
  17   2.0000      -0.049540        -1.3480
  18   2.0000      -0.042975        -1.1694
  19   2.0000      -0.028815        -0.7841
  20   0.0000       0.132771         3.6129
  21   0.0000       0.158333         4.3085
  22   0.0000       0.173663         4.7256
  23   0.0000       0.183762         5.0004
  24   0.0000       0.204517         5.5652

MULLIKEN ATOMIC CHARGES
-----------------------
   0 C :   -0.933784
   1 C :   -0.049771
   2 H :    0.185418
   3 H :    0.154547
   4 C :    0.349930
   5 O :   -0.739869
   6 O :   -0.722024
   7 H :    0.224278
   8 H :    0.283405
   9 H :    0.247870
Sum of atomic charges:   -1.0000000

LOEWDIN ATOMIC CHARGES
----------------------
   0 C :   -0.131022
   1 C :   -0.205502
   2 H :    0.084169
   3 H :    0.091344
   4 C :   -0.769558
   5 O :   -0.115191
   6 O :   -0.098254
   7 H :    0.050247
   8 H :    0.038155
   9 H :    0.055613

  Mayer bond orders larger than 0.100000
B(  0-C ,  1-C ) :   0.5974 B(  0-C ,  7-H ) :   1.0320 B(  0-C ,  8-H ) :   0.9557
B(  0-C ,  9-H ) :   0.9837 B(  1-C ,  2-H ) :   1.0126 B(  1-C ,  3-H ) :   0.9538
B(  1-C ,  4-C ) :   0.9553 B(  4-C ,  5-O ) :   1.4349 B(  4-C ,  6-O ) :   1.4535

Dispersion correction           -0.010902249
FINAL SINGLE POINT ENERGY      -267.817192739759

DIPOLE MOMENT
-------------
                                X             Y             Z
Electronic contribution:      2.63568      -2.92452      -4.56594
Nuclear contribution   :     -3.54611       4.15440       5.90446
                        -----------------------------------------
Total Dipole Moment    :     -0.91043       1.22988       1.33852
                        -----------------------------------------
Magnitude (a.u.)       :      2.03300
Magnitude (Debye)      :      5.16749

Rotational constants in cm-1:     0.332789     0.132085     0.101080
Rotational constants in MHz :  9976.755824  3959.803182  3030.288811

                             ****ORCA TERMINATED NORMALLY****
TOTAL RUN TIME: 0 days 0 hours 0 minutes 30 seconds 821 msec
