                         Program Version 5.0.0 -  RELEASE  -
|  1> !B3LYP D3BJ RIJCOSX def2-TZVPD def2/J TightSCF
|  2> *xyz 1 1
|  3> C          2.48645       -2.67712       -2.56345
|  4> C          3.03764       -2.36672       -3.92351
|  5> N          2.28036       -2.45441       -4.96769
|  6> N          4.32174       -2.01793       -4.01664
|  7> H          4.87994       -1.91167       -3.17382
|  8> H          4.71015       -1.67088       -4.88356
|  9> H          1.27042       -2.41265       -4.86614
| 10> H          2.58183       -2.05528       -5.84688
| 11> C          2.49799       -1.46946       -1.61030
| 12> H          1.47259       -3.05153       -2.69437
| 13> H          3.08320       -3.49064       -2.14147
| 14> H          1.91240       -0.67831       -2.02991
| 15> H          3.50450       -1.13364       -1.47227
| 16> H          2.08509       -1.75655       -0.66585
| 17> *
| 18>
| 19> %MaxCore 64000
| 20>
| 21> %pal nprocs 4
| 22> end
| 23>
| 24> %scf
| 25>   MaxIter 150
| 26> end
| 27>
| 28>
| 29>                          ****END OF INPUT****

CARTESIAN COORDINATES (ANGSTROEM)
---------------------------------
  C      2.486450   -2.677120   -2.563450
  C      3.037640   -2.366720   -3.923510
  N      2.280360   -2.454410   -4.967690
  N      4.321740   -2.017930   -4.016640
  H      4.879940   -1.911670   -3.173820
  H      4.710150   -1.670880   -4.883560
  H      1.270420   -2.412650   -4.866140
  H      2.581830   -2.055280   -5.846880
  C      2.497990   -1.469460   -1.610300
  H      1.472590   -3.051530   -2.694370
  H      3.083200   -3.490640   -2.141470
  H      1.912400   -0.678310   -2.029910
  H      3.504500   -1.133640   -1.472270
  H      2.085090   -1.756550   -0.665850

 Total Charge           Charge          ....    1
 Multiplicity           Mult            ....    1
 Number of Electrons    NEL             ....   40
 Basis Dimension        Dim             ....  266

ORBITAL ENERGIES
----------------

  NO   OCC          E(Eh)            E(eV)
   0   2.0000     -14.564192      -396.3118
   1   2.0000     -14.558883      -396.1673
   2   2.0000     -10.492655      -285.5197
   3   2.0000     -10.367738      -282.1205
   4   2.0000     -10.325418      -280.9689
   5   2.0000      -1.207448       -32.8563
   6   2.0000      -1.111805       -30.2537
   7   2.0000      -0.968783       -26.3619
   8   2.0000      -0.866271       -23.5724
   9   2.0000      -0.815689       -22.1960
  10   2.0000      -0.775301       -21.0970
  11   2.0000      -0.750349       -20.4180
  12   2.0000      -0.702389       -19.1130
  13   2.0000      -0.651446       -17.7267
  14   2.0000      -0.623834       -16.9754
  15   2.0000      -0.608805       -16.5664
  16   2.0000      -0.549851       -14.9622
  17   2.0000      -0.539911       -14.6917
  18   2.0000      -0.530368       -14.4320
  19   2.0000      -0.497026       -13.5248
  20   0.0000      -0.217444        -5.9170
  21   0.0000      -0.170687        -4.6446
  22   0.0000      -0.130395        -3.5482
  23   0.0000      -0.125457        -3.4139
  24   0.0000      -0.096919        -2.6373

MULLIKEN ATOMIC CHARGES
-----------------------
   0 C :   -0.273493
   1 C :    0.550851
   2 N :   -0.253177
   3 N :   -0.294465
   4 H :    0.223026
   5 H :    0.198615
   6 H :    0.252038
   7 H :    0.215372
   8 C :   -1.098298
   9 H :    0.248295
  10 H :    0.264836
  11 H :    0.335310
  12 H :    0.328774
  13 H :    0.302318
Sum of atomic charges:    1.0000000

LOEWDIN ATOMIC CHARGES
----------------------
   0 C :   -0.140217
   1 C :   -0.358626
   2 N :    0.234844
   3 N :    0.229940
   4 H :    0.144100
   5 H :    0.142639
   6 H :    0.154176
   7 H :    0.147589
   8 C :   -0.048336
   9 H :    0.121730
  10 H :    0.136583
  11 H :    0.081926
  12 H :    0.068283
  13 H :    0.085369

  Mayer bond orders larger than 0.100000
B(  0-C ,  1-C ) :   0.8069 B(  0-C ,  8-C ) :   0.6252 B(  0-C ,  9-H ) :   0.9792
B(  0-C , 10-H ) :   0.9499 B(  1-C ,  2-N ) :   1.3291 B(  1-C ,  3-N ) :   1.2154
B(  2-N ,  6-H ) :   0.9202 B(  2-N ,  7-H ) :   0.9669 B(  3-N ,  4-H ) :   0.9478
B(  3-N ,  5-H ) :   0.9955 B(  8-C , 11-H ) :   0.9562 B(  8-C , 12-H ) :   0.9133
B(  8-C , 13-H ) :   0.9951

Dispersion correction           -0.016681930
FINAL SINGLE POINT ENERGY      -228.991131774543

DIPOLE MOMENT
-------------
                                X             Y             Z
Electronic contribution:      1.05410      -1.07566      -3.89803
Nuclear contribution   :     -0.84604       1.34287       2.92710
                        -----------------------------------------
Total Dipole Moment    :      0.20806       0.26721      -0.97093
                        -----------------------------------------
Magnitude (a.u.)       :      1.02830
Magnitude (Debye)      :      2.61373

Rotational constants in cm-1:     0.265816     0.126189     0.097583
Rotational constants in MHz :  7968.948902  3783.040103  2925.457702

                             ****ORCA TERMINATED NORMALLY****
TOTAL RUN TIME: 0 days 0 hours 0 minutes 35 seconds 486 msec
