                         Program Version 5.0.0 -  RELEASE  -
|  1> !B3LYP D3BJ RIJCOSX def2-TZVPD def2/J TightSCF xyzfile
|  2>
|  3> *xyzfile 0 1 B.xyz
|  4>
|  5> %MaxCore 64000
|  6>
|  7> %pal nprocs 4
|  8> end
|  9>
| 10> %scf
| 11>   MaxIter 150
| 12> end
| 13>
| 14>
| 15>                          ****END OF INPUT****

CARTESIAN COORDINATES (ANGSTROEM)
---------------------------------
  C      2.486452   -2.677121   -2.563447
  C     -0.870963    0.248043   -2.662804
  C     -0.477492    0.608191   -4.101052
  H      0.206773    1.458299   -4.118748
  H     -1.368442    0.929419   -4.647855
  C      0.184673   -0.506640   -4.916760
  C      3.037640   -2.366715   -3.923509
  N      2.280360   -2.454408   -4.967692
  N      4.321736   -2.017932   -4.016641
  H      4.879940   -1.911668   -3.173823
  H      4.710148   -1.670882   -4.883561
  H      1.270423   -2.412650   -4.866143
  H      2.581829   -2.055282   -5.846878
  O     -0.158685   -1.701088   -4.657981
  O      1.055938   -0.174410   -5.740373
  C      2.497991   -1.469464   -1.610303
  C      1.582841   -0.321986   -2.042619
  H      2.193083   -1.833912   -0.625420
  H      3.523356   -1.103982   -1.490392
  C      0.100160   -0.673551   -1.915815
  H      1.822311   -0.040361   -3.072834
  H      1.813180    0.557019   -1.433266
  H     -0.063284   -1.679120   -2.301112
  H     -0.168820   -0.691680   -0.853831
  H     -1.001048    1.181040   -2.104071
  H     -1.844645   -0.246592   -2.663281
  H      1.472592   -3.051527   -2.694366
  H      3.083201   -3.490638   -2.141472

 Total Charge           Charge          ....    0
 Multiplicity           Mult            ....    1
 Number of Electrons    NEL             ....   94
 Basis Dimension        Dim             ....  594

ORBITAL ENERGIES
----------------

  NO   OCC          E(Eh)            E(eV)
   0   2.0000     -19.037328      -518.0320
   1   2.0000     -19.030730      -517.8525
   2   2.0000     -14.397232      -391.7686
   3   2.0000     -14.360655      -390.7733
   4   2.0000     -10.316510      -280.7265
   5   2.0000     -10.218873      -278.0697
   6   2.0000     -10.213271      -277.9172
   7   2.0000     -10.195118      -277.4233
   8   2.0000     -10.165013      -276.6041
   9   2.0000     -10.146886      -276.1108
  10   2.0000     -10.142362      -275.9877
  11   2.0000     -10.130865      -275.6749
  12   2.0000      -1.031703       -28.0741
  13   2.0000      -0.999260       -27.1912
  14   2.0000      -0.934294       -25.4234
  15   2.0000      -0.905783       -24.6476
  16   2.0000      -0.830245       -22.5921
  17   2.0000      -0.776939       -21.1416
  18   2.0000      -0.733064       -19.9477
  19   2.0000      -0.678965       -18.4756
  20   2.0000      -0.659437       -17.9442
  21   2.0000      -0.616029       -16.7630
  22   2.0000      -0.606918       -16.5151
  23   2.0000      -0.579439       -15.7673
  24   2.0000      -0.556691       -15.1483
  25   2.0000      -0.523940       -14.2571
  26   2.0000      -0.498333       -13.5603
  27   2.0000      -0.479725       -13.0540
  28   2.0000      -0.458161       -12.4672
  29   2.0000      -0.451888       -12.2965
  30   2.0000      -0.444420       -12.0933
  31   2.0000      -0.422791       -11.5047
  32   2.0000      -0.412336       -11.2202
  33   2.0000      -0.408526       -11.1166
  34   2.0000      -0.391086       -10.6420
  35   2.0000      -0.380815       -10.3625
  36   2.0000      -0.368750       -10.0342
  37   2.0000      -0.357597        -9.7307
  38   2.0000      -0.352500        -9.5920
  39   2.0000      -0.335653        -9.1336
  40   2.0000      -0.323248        -8.7960
  41   2.0000      -0.315289        -8.5794
  42   2.0000      -0.306494        -8.3401
  43   2.0000      -0.297622        -8.0987
  44   2.0000      -0.227521        -6.1912
  45   2.0000      -0.214540        -5.8379
  46   2.0000      -0.202552        -5.5117
  47   0.0000      -0.048241        -1.3127
  48   0.0000      -0.031503        -0.8572
  49   0.0000       0.003268         0.0889
  50   0.0000       0.014743         0.4012
  51   0.0000       0.021456         0.5838

MULLIKEN ATOMIC CHARGES
-----------------------
   0 C :   -0.433156
   1 C :   -0.467953
   2 C :   -0.470698
   3 H :    0.207575
   4 H :    0.248947
   5 C :    0.679679
   6 C :    0.331108
   7 N :   -0.199381
   8 N :   -0.344397
   9 H :    0.192189
  10 H :    0.183951
  11 H :    0.287484
  12 H :    0.189605
  13 O :   -0.850356
  14 O :   -0.768871
  15 C :   -0.414097
  16 C :   -0.407554
  17 H :    0.241969
  18 H :    0.236196
  19 C :   -0.442449
  20 H :    0.250495
  21 H :    0.242745
  22 H :    0.220307
  23 H :    0.304549
  24 H :    0.219788
  25 H :    0.246296
  26 H :    0.247623
  27 H :    0.268406
Sum of atomic charges:   -0.0000000

LOEWDIN ATOMIC CHARGES
----------------------
   0 C :   -0.100522
   1 C :   -0.192649
   2 C :   -0.125820
   3 H :    0.104676
   4 H :    0.113649
   5 C :   -0.691556
   6 C :   -0.364941
   7 N :    0.235278
   8 N :    0.193917
   9 H :    0.123527
  10 H :    0.128882
  11 H :    0.048974
  12 H :    0.132013
  13 O :   -0.069523
  14 O :   -0.039940
  15 C :   -0.183425
  16 C :   -0.189118
  17 H :    0.114981
  18 H :    0.099022
  19 C :   -0.208931
  20 H :    0.104452
  21 H :    0.116336
  22 H :    0.088240
  23 H :    0.110564
  24 H :    0.102676
  25 H :    0.106263
  26 H :    0.117378
  27 H :    0.125596

  Mayer bond orders larger than 0.100000
B(  0-C ,  6-C ) :   0.7643 B(  0-C , 15-C ) :   0.8025 B(  0-C , 19-C ) :   0.1066
B(  0-C , 26-H ) :   0.9811 B(  0-C , 27-H ) :   0.9359 B(  1-C ,  2-C ) :   0.8023
B(  1-C , 19-C ) :   1.0539 B(  1-C , 22-H ) :   0.1197 B(  1-C , 24-H ) :   0.9797
B(  1-C , 25-H ) :   0.9317 B(  2-C ,  3-H ) :   1.0471 B(  2-C ,  4-H ) :   0.9109
B(  2-C ,  5-C ) :   0.9259 B(  2-C , 16-C ) :   0.1098 B(  5-C , 13-O ) :   1.1645
B(  5-C , 14-O ) :   1.3039 B(  6-C ,  7-N ) :   1.4913 B(  6-C ,  8-N ) :   1.0539
B(  6-C , 15-C ) :   0.1693 B(  7-N ,  8-N ) :   0.1013 B(  7-N , 11-H ) :   0.6997
B(  7-N , 12-H ) :   0.9281 B(  8-N ,  9-H ) :   0.9917 B(  8-N , 10-H ) :   0.9689
B( 11-H , 13-O ) :   0.2277 B( 13-O , 14-O ) :   0.1008 B( 15-C , 16-C ) :   0.9579
B( 15-C , 17-H ) :   0.9542 B( 15-C , 18-H ) :   0.8847 B( 15-C , 19-C ) :   0.2314
B( 16-C , 19-C ) :   0.4637 B( 16-C , 20-H ) :   0.9178 B( 16-C , 21-H ) :   0.9626
B( 19-C , 22-H ) :   0.9652 B( 19-C , 23-H ) :   0.8945

Dispersion correction           -0.051342766
FINAL SINGLE POINT ENERGY      -574.390788971902

DIPOLE MOMENT
-------------
                                X             Y             Z
Electronic contribution:      1.68339      -2.91276      -8.81161
Nuclear contribution   :      1.39386       1.90489      10.36520
                        -----------------------------------------
Total Dipole Moment    :      3.07725      -1.00787       1.55359
                        -----------------------------------------
Magnitude (a.u.)       :      3.59150
Magnitude (Debye)      :      9.12888

Rotational constants in cm-1:     0.041165     0.025922     0.019001
Rotational constants in MHz :  1234.086888   777.109255   569.639629

                             ****ORCA TERMINATED NORMALLY****
TOTAL RUN TIME: 0 days 0 hours 5 minutes 7 seconds 965 msec
