                         Program Version 5.0.0 -  RELEASE  -
|  1> !B3LYP D3BJ RIJCOSX def2-TZVPD def2/J TightSCF
|  2> *xyz 0 1
|  3> C         -0.87096        0.24804       -2.66280
|  4> C         -0.47749        0.60819       -4.10105
|  5> H          0.20677        1.45830       -4.11875
|  6> H         -1.36844        0.92942       -4.64785
|  7> C          0.18467       -0.50664       -4.91676
|  8> F         -0.15869       -1.70109       -4.65798
|  9> O          1.05594       -0.17441       -5.74037
| 10> H         -1.54056       -0.58646       -2.67455
| 11> H         -1.35339        1.08600       -2.20455
| 12> H          0.00660       -0.00662       -2.10609
| 13> *
| 14>
| 15> %MaxCore 64000
| 16>
| 17> %pal nprocs 4
| 18> end
| 19>
| 20> %scf
| 21>   MaxIter 150
| 22> end
| 23>
| 24>
| 25>                          ****END OF INPUT****

CARTESIAN COORDINATES (ANGSTROEM)
---------------------------------
  C     -0.870960    0.248040   -2.662800
  C     -0.477490    0.608190   -4.101050
  H      0.206770    1.458300   -4.118750
  H     -1.368440    0.929420   -4.647850
  C      0.184670   -0.506640   -4.916760
  F     -0.158690   -1.701090   -4.657980
  O      1.055940   -0.174410   -5.740370
  H     -1.540560   -0.586460   -2.674550
  H     -1.353390    1.086000   -2.204550
  H      0.006600   -0.006620   -2.106090

 Total Charge           Charge          ....    0
 Multiplicity           Mult            ....    1
 Number of Electrons    NEL             ....   40
 Basis Dimension        Dim             ....  236

ORBITAL ENERGIES
----------------

  NO   OCC          E(Eh)            E(eV)
   0   2.0000     -24.748247      -673.4340
   1   2.0000     -19.133639      -520.6528
   2   2.0000     -10.347814      -281.5783
   3   2.0000     -10.201947      -277.6091
   4   2.0000     -10.175888      -276.9000
   5   2.0000      -1.310975       -35.6734
   6   2.0000      -1.041245       -28.3337
   7   2.0000      -0.802216       -21.8294
   8   2.0000      -0.686087       -18.6694
   9   2.0000      -0.642878       -17.4936
  10   2.0000      -0.546240       -14.8640
  11   2.0000      -0.539372       -14.6771
  12   2.0000      -0.497985       -13.5509
  13   2.0000      -0.468213       -12.7407
  14   2.0000      -0.434776       -11.8309
  15   2.0000      -0.403937       -10.9917
  16   2.0000      -0.389656       -10.6031
  17   2.0000      -0.380865       -10.3639
  18   2.0000      -0.352019        -9.5789
  19   2.0000      -0.294901        -8.0247
  20   0.0000      -0.031790        -0.8650
  21   0.0000      -0.002830        -0.0770
  22   0.0000       0.027490         0.7480
  23   0.0000       0.036185         0.9847
  24   0.0000       0.048230         1.3124

MULLIKEN ATOMIC CHARGES
-----------------------
   0 C :   -1.026799
   1 C :   -0.061783
   2 H :    0.221281
   3 H :    0.237242
   4 C :    0.468013
   5 F :   -0.224191
   6 O :   -0.488673
   7 H :    0.282013
   8 H :    0.284038
   9 H :    0.308859
Sum of atomic charges:   -0.0000000

LOEWDIN ATOMIC CHARGES
----------------------
   0 C :   -0.088797
   1 C :   -0.146882
   2 H :    0.115673
   3 H :    0.119339
   4 C :   -0.482402
   5 F :    0.192838
   6 O :    0.088104
   7 H :    0.065151
   8 H :    0.066381
   9 H :    0.070595

  Mayer bond orders larger than 0.100000
B(  0-C ,  1-C ) :   0.6157 B(  0-C ,  7-H ) :   0.9816 B(  0-C ,  8-H ) :   0.9822
B(  0-C ,  9-H ) :   0.9559 B(  1-C ,  2-H ) :   0.9844 B(  1-C ,  3-H ) :   0.9191
B(  1-C ,  4-C ) :   0.9386 B(  4-C ,  5-F ) :   1.0099 B(  4-C ,  6-O ) :   1.7551

Dispersion correction           -0.010257549
FINAL SINGLE POINT ENERGY      -292.385372534302

DIPOLE MOMENT
-------------
                                X             Y             Z
Electronic contribution:      2.60686      -5.35039      -5.29037
Nuclear contribution   :     -3.42837       5.66737       6.17046
                        -----------------------------------------
Total Dipole Moment    :     -0.82150       0.31698       0.88009
                        -----------------------------------------
Magnitude (a.u.)       :      1.24495
Magnitude (Debye)      :      3.16441

Rotational constants in cm-1:     0.304660     0.130969     0.097716
Rotational constants in MHz :  9133.464515  3926.366384  2929.457090

                             ****ORCA TERMINATED NORMALLY****
TOTAL RUN TIME: 0 days 0 hours 0 minutes 27 seconds 794 msec
