                         Program Version 5.0.0 -  RELEASE  -
|  1> !B3LYP D3BJ RIJCOSX def2-TZVPD def2/J TightSCF
|  2> *xyz 0 1
|  3> C          2.48645       -2.67712       -2.56345
|  4> C          3.03764       -2.36672       -3.92351
|  5> C          2.28036       -2.45441       -4.96769
|  6> N          4.32174       -2.01793       -4.01664
|  7> H          4.87994       -1.91167       -3.17382
|  8> H          4.71015       -1.67088       -4.88356
|  9> H          1.27042       -2.41265       -4.86614
| 10> H          2.58183       -2.05528       -5.84688
| 11> C          2.49799       -1.46946       -1.61030
| 12> H          1.47259       -3.05153       -2.69437
| 13> H          3.08320       -3.49064       -2.14147
| 14> H          1.91240       -0.67831       -2.02991
| 15> H          3.50450       -1.13364       -1.47227
| 16> H          2.08509       -1.75655       -0.66585
| 17> *
| 18>
| 19> %MaxCore 64000
| 20>
| 21> %pal nprocs 4
| 22> end
| 23>
| 24> %scf
| 25>   MaxIter 150
| 26> end
| 27>
| 28>
| 29>                          ****END OF INPUT****

CARTESIAN COORDINATES (ANGSTROEM)
---------------------------------
  C      2.486450   -2.677120   -2.563450
  C      3.037640   -2.366720   -3.923510
  C      2.280360   -2.454410   -4.967690
  N      4.321740   -2.017930   -4.016640
  H      4.879940   -1.911670   -3.173820
  H      4.710150   -1.670880   -4.883560
  H      1.270420   -2.412650   -4.866140
  H      2.581830   -2.055280   -5.846880
  C      2.497990   -1.469460   -1.610300
  H      1.472590   -3.051530   -2.694370
  H      3.083200   -3.490640   -2.141470
  H      1.912400   -0.678310   -2.029910
  H      3.504500   -1.133640   -1.472270
  H      2.085090   -1.756550   -0.665850

 Total Charge           Charge          ....    0
 Multiplicity           Mult            ....    1
 Number of Electrons    NEL             ....   40
 Basis Dimension        Dim             ....  266

ORBITAL ENERGIES
----------------

  NO   OCC          E(Eh)            E(eV)
   0   2.0000     -14.316319      -389.5668
   1   2.0000     -10.188287      -277.2374
   2   2.0000     -10.167518      -276.6722
   3   2.0000     -10.156165      -276.3633
   4   2.0000     -10.098006      -274.7807
   5   2.0000      -0.925134       -25.1742
   6   2.0000      -0.778795       -21.1921
   7   2.0000      -0.725047       -19.7295
   8   2.0000      -0.635616       -17.2960
   9   2.0000      -0.567454       -15.4412
  10   2.0000      -0.524762       -14.2795
  11   2.0000      -0.477523       -12.9941
  12   2.0000      -0.437039       -11.8924
  13   2.0000      -0.431423       -11.7396
  14   2.0000      -0.389432       -10.5970
  15   2.0000      -0.382698       -10.4137
  16   2.0000      -0.355664        -9.6781
  17   2.0000      -0.334661        -9.1066
  18   2.0000      -0.325999        -8.8709
  19   2.0000      -0.197452        -5.3729
  20   0.0000      -0.000020        -0.0006
  21   0.0000       0.024799         0.6748
  22   0.0000       0.034208         0.9308
  23   0.0000       0.039399         1.0721
  24   0.0000       0.051753         1.4083

MULLIKEN ATOMIC CHARGES
-----------------------
   0 C :   -0.318855
   1 C :    0.608172
   2 C :   -0.997531
   3 N :   -0.378445
   4 H :    0.150256
   5 H :    0.148787
   6 H :    0.256384
   7 H :    0.279784
   8 C :   -1.054740
   9 H :    0.187310
  10 H :    0.250418
  11 H :    0.303755
  12 H :    0.283993
  13 H :    0.280713
Sum of atomic charges:    0.0000000

LOEWDIN ATOMIC CHARGES
----------------------
   0 C :   -0.193281
   1 C :   -0.493855
   2 C :    0.011850
   3 N :    0.106822
   4 H :    0.100656
   5 H :    0.107468
   6 H :    0.025383
   7 H :    0.021689
   8 C :   -0.086673
   9 H :    0.105524
  10 H :    0.110639
  11 H :    0.069909
  12 H :    0.052867
  13 H :    0.061000

  Mayer bond orders larger than 0.100000
B(  0-C ,  1-C ) :   0.7763 B(  0-C ,  8-C ) :   0.6214 B(  0-C ,  9-H ) :   1.0148
B(  0-C , 10-H ) :   0.9320 B(  1-C ,  2-C ) :   1.3882 B(  1-C ,  3-N ) :   0.9908
B(  1-C ,  7-H ) :  -0.1077 B(  2-C ,  6-H ) :   0.9717 B(  2-C ,  7-H ) :   1.0599
B(  3-N ,  4-H ) :   1.0162 B(  3-N ,  5-H ) :   1.0093 B(  8-C , 11-H ) :   0.9954
B(  8-C , 12-H ) :   0.9508 B(  8-C , 13-H ) :   0.9962

Dispersion correction           -0.017401463
FINAL SINGLE POINT ENERGY      -212.519906066280

DIPOLE MOMENT
-------------
                                X             Y             Z
Electronic contribution:      1.52401      -0.88222      -2.13076
Nuclear contribution   :     -0.99743       1.27863       2.57190
                        -----------------------------------------
Total Dipole Moment    :      0.52658       0.39641       0.44114
                        -----------------------------------------
Magnitude (a.u.)       :      0.79312
Magnitude (Debye)      :      2.01594

Rotational constants in cm-1:     0.274050     0.130114     0.100964
Rotational constants in MHz :  8215.815505  3900.722919  3026.834930

                             ****ORCA TERMINATED NORMALLY****
TOTAL RUN TIME: 0 days 0 hours 0 minutes 41 seconds 266 msec
