                         Program Version 5.0.0 -  RELEASE  -
|  1> !B3LYP D3BJ RIJCOSX def2-TZVPD def2/J TightSCF
|  2> *xyz 0 1
|  3> C         -0.87096        0.24804       -2.66280
|  4> C         -0.47749        0.60819       -4.10105
|  5> H          0.20677        1.45830       -4.11875
|  6> H         -1.36844        0.92942       -4.64785
|  7> C          0.18467       -0.50664       -4.91676
|  8> O         -0.15869       -1.70109       -4.65798
|  9> F          1.05594       -0.17441       -5.74037
| 10> H         -1.54056       -0.58646       -2.67455
| 11> H         -1.35339        1.08600       -2.20455
| 12> H          0.00660       -0.00662       -2.10609
| 13> *
| 14>
| 15> %MaxCore 64000
| 16>
| 17> %pal nprocs 4
| 18> end
| 19>
| 20> %scf
| 21>   MaxIter 150
| 22> end
| 23>
| 24>
| 25>                          ****END OF INPUT****

CARTESIAN COORDINATES (ANGSTROEM)
---------------------------------
  C     -0.870960    0.248040   -2.662800
  C     -0.477490    0.608190   -4.101050
  H      0.206770    1.458300   -4.118750
  H     -1.368440    0.929420   -4.647850
  C      0.184670   -0.506640   -4.916760
  O     -0.158690   -1.701090   -4.657980
  F      1.055940   -0.174410   -5.740370
  H     -1.540560   -0.586460   -2.674550
  H     -1.353390    1.086000   -2.204550
  H      0.006600   -0.006620   -2.106090

 Total Charge           Charge          ....    0
 Multiplicity           Mult            ....    1
 Number of Electrons    NEL             ....   40
 Basis Dimension        Dim             ....  236

ORBITAL ENERGIES
----------------

  NO   OCC          E(Eh)            E(eV)
   0   2.0000     -24.757565      -673.6876
   1   2.0000     -19.130365      -520.5637
   2   2.0000     -10.350156      -281.6421
   3   2.0000     -10.203124      -277.6411
   4   2.0000     -10.170122      -276.7431
   5   2.0000      -1.329572       -36.1795
   6   2.0000      -1.026051       -27.9203
   7   2.0000      -0.798510       -21.7286
   8   2.0000      -0.695834       -18.9346
   9   2.0000      -0.641864       -17.4660
  10   2.0000      -0.554499       -15.0887
  11   2.0000      -0.540076       -14.6962
  12   2.0000      -0.509003       -13.8507
  13   2.0000      -0.467112       -12.7108
  14   2.0000      -0.433177       -11.7873
  15   2.0000      -0.396209       -10.7814
  16   2.0000      -0.377760       -10.2794
  17   2.0000      -0.376032       -10.2324
  18   2.0000      -0.347212        -9.4481
  19   2.0000      -0.292241        -7.9523
  20   0.0000      -0.034302        -0.9334
  21   0.0000      -0.000278        -0.0076
  22   0.0000       0.025763         0.7011
  23   0.0000       0.038349         1.0435
  24   0.0000       0.047664         1.2970

MULLIKEN ATOMIC CHARGES
-----------------------
   0 C :   -0.988435
   1 C :   -0.132400
   2 H :    0.248562
   3 H :    0.232337
   4 C :    0.513686
   5 O :   -0.507506
   6 F :   -0.216239
   7 H :    0.268454
   8 H :    0.294225
   9 H :    0.287316
Sum of atomic charges:   -0.0000000

LOEWDIN ATOMIC CHARGES
----------------------
   0 C :   -0.083021
   1 C :   -0.153543
   2 H :    0.107115
   3 H :    0.119295
   4 C :   -0.483520
   5 O :    0.067956
   6 F :    0.219116
   7 H :    0.068616
   8 H :    0.066158
   9 H :    0.071828

  Mayer bond orders larger than 0.100000
B(  0-C ,  1-C ) :   0.6794 B(  0-C ,  7-H ) :   1.0004 B(  0-C ,  8-H ) :   0.9571
B(  0-C ,  9-H ) :   0.9546 B(  1-C ,  2-H ) :   0.9604 B(  1-C ,  3-H ) :   0.9260
B(  1-C ,  4-C ) :   0.9448 B(  4-C ,  5-O ) :   1.7277 B(  4-C ,  6-F ) :   1.0137

Dispersion correction           -0.010350740
FINAL SINGLE POINT ENERGY      -292.378697164924

DIPOLE MOMENT
-------------
                                X             Y             Z
Electronic contribution:      4.64032      -2.83334      -7.11148
Nuclear contribution   :     -4.75269       4.00281       7.35060
                        -----------------------------------------
Total Dipole Moment    :     -0.11237       1.16948       0.23912
                        -----------------------------------------
Magnitude (a.u.)       :      1.19895
Magnitude (Debye)      :      3.04749

Rotational constants in cm-1:     0.323805     0.124913     0.096140
Rotational constants in MHz :  9707.430323  3744.789513  2882.191141

                             ****ORCA TERMINATED NORMALLY****
TOTAL RUN TIME: 0 days 0 hours 0 minutes 27 seconds 996 msec
