                         Program Version 5.0.0 -  RELEASE  -
|  1> !B3LYP D3BJ RIJCOSX def2-TZVPD def2/J TightSCF
|  2> *xyz 0 1
|  3> C          2.48645       -2.67712       -2.56345
|  4> C          3.03764       -2.36672       -3.92351
|  5> N          2.28036       -2.45441       -4.96769
|  6> C          4.32174       -2.01793       -4.01664
|  7> H          4.87994       -1.91167       -3.17382
|  8> H          4.71015       -1.67088       -4.88356
|  9> H          1.27042       -2.41265       -4.86614
| 10> H          2.58183       -2.05528       -5.84688
| 11> C          2.49799       -1.46946       -1.61030
| 12> H          1.47259       -3.05153       -2.69437
| 13> H          3.08320       -3.49064       -2.14147
| 14> H          1.91240       -0.67831       -2.02991
| 15> H          3.50450       -1.13364       -1.47227
| 16> H          2.08509       -1.75655       -0.66585
| 17> *
| 18>
| 19> %MaxCore 64000
| 20>
| 21> %pal nprocs 4
| 22> end
| 23>
| 24> %scf
| 25>   MaxIter 150
| 26> end
| 27>
| 28>
| 29>                          ****END OF INPUT****

CARTESIAN COORDINATES (ANGSTROEM)
---------------------------------
  C      2.486450   -2.677120   -2.563450
  C      3.037640   -2.366720   -3.923510
  N      2.280360   -2.454410   -4.967690
  C      4.321740   -2.017930   -4.016640
  H      4.879940   -1.911670   -3.173820
  H      4.710150   -1.670880   -4.883560
  H      1.270420   -2.412650   -4.866140
  H      2.581830   -2.055280   -5.846880
  C      2.497990   -1.469460   -1.610300
  H      1.472590   -3.051530   -2.694370
  H      3.083200   -3.490640   -2.141470
  H      1.912400   -0.678310   -2.029910
  H      3.504500   -1.133640   -1.472270
  H      2.085090   -1.756550   -0.665850

 Total Charge           Charge          ....    0
 Multiplicity           Mult            ....    1
 Number of Electrons    NEL             ....   40
 Basis Dimension        Dim             ....  266

ORBITAL ENERGIES
----------------

  NO   OCC          E(Eh)            E(eV)
   0   2.0000     -14.320216      -389.6729
   1   2.0000     -10.188473      -277.2424
   2   2.0000     -10.168210      -276.6911
   3   2.0000     -10.152327      -276.2589
   4   2.0000     -10.099087      -274.8101
   5   2.0000      -0.940714       -25.5981
   6   2.0000      -0.779879       -21.2216
   7   2.0000      -0.709328       -19.3018
   8   2.0000      -0.640634       -17.4325
   9   2.0000      -0.571407       -15.5488
  10   2.0000      -0.521513       -14.1911
  11   2.0000      -0.481897       -13.1131
  12   2.0000      -0.444996       -12.1090
  13   2.0000      -0.409638       -11.1468
  14   2.0000      -0.394635       -10.7386
  15   2.0000      -0.379483       -10.3263
  16   2.0000      -0.353408        -9.6167
  17   2.0000      -0.338198        -9.2028
  18   2.0000      -0.334732        -9.1085
  19   2.0000      -0.188097        -5.1184
  20   0.0000       0.000967         0.0263
  21   0.0000       0.021318         0.5801
  22   0.0000       0.034383         0.9356
  23   0.0000       0.038619         1.0509
  24   0.0000       0.052723         1.4347

MULLIKEN ATOMIC CHARGES
-----------------------
   0 C :   -0.263275
   1 C :    0.700787
   2 N :   -0.326159
   3 C :   -1.236784
   4 H :    0.269452
   5 H :    0.262402
   6 H :    0.186988
   7 H :    0.165495
   8 C :   -1.048966
   9 H :    0.221833
  10 H :    0.213729
  11 H :    0.289074
  12 H :    0.289238
  13 H :    0.276186
Sum of atomic charges:   -0.0000000

LOEWDIN ATOMIC CHARGES
----------------------
   0 C :   -0.193332
   1 C :   -0.500473
   2 N :    0.104570
   3 C :    0.023831
   4 H :    0.018096
   5 H :    0.014187
   6 H :    0.107332
   7 H :    0.112256
   8 C :   -0.085908
   9 H :    0.098923
  10 H :    0.113532
  11 H :    0.067875
  12 H :    0.059175
  13 H :    0.059936

  Mayer bond orders larger than 0.100000
B(  0-C ,  1-C ) :   0.6935 B(  0-C ,  8-C ) :   0.5858 B(  0-C ,  9-H ) :   1.0543
B(  0-C , 10-H ) :   0.9581 B(  1-C ,  2-N ) :   1.1048 B(  1-C ,  3-C ) :   1.2223
B(  1-C ,  5-H ) :  -0.1016 B(  1-C ,  9-H ) :  -0.1057 B(  2-N ,  6-H ) :   0.9760
B(  2-N ,  7-H ) :   0.9764 B(  3-C ,  4-H ) :   0.9458 B(  3-C ,  5-H ) :   1.0572
B(  8-C , 11-H ) :   0.9696 B(  8-C , 12-H ) :   0.9795 B(  8-C , 13-H ) :   0.9798

Dispersion correction           -0.017450843
FINAL SINGLE POINT ENERGY      -212.520370913870

DIPOLE MOMENT
-------------
                                X             Y             Z
Electronic contribution:     -0.24738      -1.19814      -2.96556
Nuclear contribution   :     -0.52463       1.37972       2.79217
                        -----------------------------------------
Total Dipole Moment    :     -0.77201       0.18158      -0.17339
                        -----------------------------------------
Magnitude (a.u.)       :      0.81181
Magnitude (Debye)      :      2.06346

Rotational constants in cm-1:     0.281086     0.127387     0.100311
Rotational constants in MHz :  8426.743103  3818.969834  3007.238026

                             ****ORCA TERMINATED NORMALLY****
TOTAL RUN TIME: 0 days 0 hours 0 minutes 38 seconds 498 msec
