                         Program Version 5.0.0 -  RELEASE  -
|  1> !B3LYP D3BJ RIJCOSX def2-TZVPD def2/J TightSCF xyzfile
|  2>
|  3> *xyzfile 0 1 D1.xyz
|  4>
|  5> %MaxCore 64000
|  6>
|  7> %pal nprocs 4
|  8> end
|  9>
| 10> %scf
| 11>   MaxIter 150
| 12> end
| 13>
| 14>
| 15>                          ****END OF INPUT****

CARTESIAN COORDINATES (ANGSTROEM)
---------------------------------
  C      2.486452   -2.677121   -2.563447
  C     -0.870963    0.248043   -2.662804
  C     -0.477492    0.608191   -4.101052
  H      0.206773    1.458299   -4.118748
  H     -1.368442    0.929419   -4.647855
  C      0.184673   -0.506640   -4.916760
  C      3.037640   -2.366715   -3.923509
  C      2.280360   -2.454408   -4.967692
  N      4.321736   -2.017932   -4.016641
  H      4.879940   -1.911668   -3.173823
  H      4.710148   -1.670882   -4.883561
  H      1.270423   -2.412650   -4.866143
  H      2.581829   -2.055282   -5.846878
  F     -0.158685   -1.701088   -4.657981
  O      1.055938   -0.174410   -5.740373
  C      2.497991   -1.469464   -1.610303
  C      1.582841   -0.321986   -2.042619
  H      2.193083   -1.833912   -0.625420
  H      3.523356   -1.103982   -1.490392
  C      0.100160   -0.673551   -1.915815
  H      1.822311   -0.040361   -3.072834
  H      1.813180    0.557019   -1.433266
  H     -0.063284   -1.679120   -2.301112
  H     -0.168820   -0.691680   -0.853831
  H     -1.001048    1.181040   -2.104071
  H     -1.844645   -0.246592   -2.663281
  H      1.472592   -3.051527   -2.694366
  H      3.083201   -3.490638   -2.141472

 Total Charge           Charge          ....    0
 Multiplicity           Mult            ....    1
 Number of Electrons    NEL             ....   94
 Basis Dimension        Dim             ....  594

ORBITAL ENERGIES
----------------

  NO   OCC          E(Eh)            E(eV)
   0   2.0000     -24.748596      -673.4435
   1   2.0000     -19.129744      -520.5468
   2   2.0000     -14.303916      -389.2293
   3   2.0000     -10.346068      -281.5308
   4   2.0000     -10.197563      -277.4898
   5   2.0000     -10.181958      -277.0652
   6   2.0000     -10.172671      -276.8125
   7   2.0000     -10.170025      -276.7404
   8   2.0000     -10.167191      -276.6633
   9   2.0000     -10.165874      -276.6275
  10   2.0000     -10.161377      -276.5051
  11   2.0000     -10.076179      -274.1868
  12   2.0000      -1.318324       -35.8734
  13   2.0000      -1.040148       -28.3039
  14   2.0000      -0.913235       -24.8504
  15   2.0000      -0.825737       -22.4695
  16   2.0000      -0.791299       -21.5323
  17   2.0000      -0.743453       -20.2304
  18   2.0000      -0.720624       -19.6092
  19   2.0000      -0.676737       -18.4149
  20   2.0000      -0.657150       -17.8820
  21   2.0000      -0.616989       -16.7891
  22   2.0000      -0.579964       -15.7816
  23   2.0000      -0.571721       -15.5573
  24   2.0000      -0.547870       -14.9083
  25   2.0000      -0.536863       -14.6088
  26   2.0000      -0.509364       -13.8605
  27   2.0000      -0.494944       -13.4681
  28   2.0000      -0.479301       -13.0425
  29   2.0000      -0.469817       -12.7844
  30   2.0000      -0.457889       -12.4598
  31   2.0000      -0.441694       -12.0191
  32   2.0000      -0.430415       -11.7122
  33   2.0000      -0.412001       -11.2111
  34   2.0000      -0.404066       -10.9952
  35   2.0000      -0.388281       -10.5657
  36   2.0000      -0.375937       -10.2298
  37   2.0000      -0.373119       -10.1531
  38   2.0000      -0.358158        -9.7460
  39   2.0000      -0.352308        -9.5868
  40   2.0000      -0.340002        -9.2519
  41   2.0000      -0.335400        -9.1267
  42   2.0000      -0.320232        -8.7140
  43   2.0000      -0.313695        -8.5361
  44   2.0000      -0.310838        -8.4583
  45   2.0000      -0.288963        -7.8631
  46   2.0000      -0.182159        -4.9568
  47   0.0000      -0.031404        -0.8545
  48   0.0000      -0.001317        -0.0359
  49   0.0000       0.007677         0.2089
  50   0.0000       0.018056         0.4913
  51   0.0000       0.022284         0.6064

MULLIKEN ATOMIC CHARGES
-----------------------
   0 C :   -0.529985
   1 C :   -0.472647
   2 C :   -0.379248
   3 H :    0.234980
   4 H :    0.269360
   5 C :    0.544033
   6 C :    0.398133
   7 C :   -1.059191
   8 N :   -0.400743
   9 H :    0.139119
  10 H :    0.146843
  11 H :    0.610396
  12 H :    0.227826
  13 F :   -0.308297
  14 O :   -0.551600
  15 C :   -0.465865
  16 C :   -0.349563
  17 H :    0.235148
  18 H :    0.270587
  19 C :   -0.479319
  20 H :    0.265543
  21 H :    0.232662
  22 H :    0.202238
  23 H :    0.316936
  24 H :    0.228480
  25 H :    0.257027
  26 H :    0.126918
  27 H :    0.290230
Sum of atomic charges:   -0.0000000

LOEWDIN ATOMIC CHARGES
----------------------
   0 C :   -0.138217
   1 C :   -0.188605
   2 C :   -0.092888
   3 H :    0.121793
   4 H :    0.123669
   5 C :   -0.474596
   6 C :   -0.466981
   7 C :    0.014363
   8 N :    0.111520
   9 H :    0.097546
  10 H :    0.108162
  11 H :   -0.000971
  12 H :    0.037088
  13 F :    0.161923
  14 O :    0.096280
  15 C :   -0.189868
  16 C :   -0.190676
  17 H :    0.107915
  18 H :    0.099439
  19 C :   -0.203587
  20 H :    0.104037
  21 H :    0.115111
  22 H :    0.092705
  23 H :    0.116397
  24 H :    0.110847
  25 H :    0.107716
  26 H :    0.103987
  27 H :    0.115891

  Mayer bond orders larger than 0.100000
B(  0-C ,  6-C ) :   0.7160 B(  0-C ,  8-N ) :   0.1284 B(  0-C , 15-C ) :   0.8423
B(  0-C , 26-H ) :   1.0263 B(  0-C , 27-H ) :   0.9157 B(  1-C ,  2-C ) :   0.8134
B(  1-C , 19-C ) :   0.9595 B(  1-C , 24-H ) :   0.9678 B(  1-C , 25-H ) :   0.9671
B(  2-C ,  3-H ) :   1.0163 B(  2-C ,  4-H ) :   0.9072 B(  2-C ,  5-C ) :   0.8822
B(  5-C , 13-F ) :   0.9537 B(  5-C , 14-O ) :   1.6627 B(  6-C ,  7-C ) :   1.5372
B(  6-C ,  8-N ) :   0.8890 B(  6-C , 11-H ) :  -0.1868 B(  6-C , 12-H ) :  -0.1244
B(  7-C , 11-H ) :   0.6931 B(  7-C , 12-H ) :   1.1209 B(  8-N ,  9-H ) :   1.0437
B(  8-N , 10-H ) :   0.9900 B( 15-C , 16-C ) :   0.9809 B( 15-C , 17-H ) :   0.9576
B( 15-C , 18-H ) :   0.8748 B( 15-C , 19-C ) :   0.2635 B( 16-C , 19-C ) :   0.4364
B( 16-C , 20-H ) :   0.9381 B( 16-C , 21-H ) :   0.9633 B( 19-C , 22-H ) :   1.0258
B( 19-C , 23-H ) :   0.8737

Dispersion correction           -0.051146776
FINAL SINGLE POINT ENERGY      -582.284931431616

DIPOLE MOMENT
-------------
                                X             Y             Z
Electronic contribution:     -3.70587      -1.63017     -10.24993
Nuclear contribution   :      3.32973       2.37270      11.37738
                        -----------------------------------------
Total Dipole Moment    :     -0.37614       0.74253       1.12745
                        -----------------------------------------
Magnitude (a.u.)       :      1.40142
Magnitude (Debye)      :      3.56213

Rotational constants in cm-1:     0.040902     0.025807     0.019036
Rotational constants in MHz :  1226.202138   773.670450   570.681201

                             ****ORCA TERMINATED NORMALLY****
TOTAL RUN TIME: 0 days 0 hours 5 minutes 3 seconds 555 msec
