                         Program Version 5.0.0 -  RELEASE  -
|  1> !B3LYP D3BJ RIJCOSX def2-TZVPD def2/J TightSCF xyzfile
|  2>
|  3> *xyzfile 0 1 D2.xyz
|  4>
|  5> %MaxCore 64000
|  6>
|  7> %pal nprocs 4
|  8> end
|  9>
| 10> %scf
| 11>   MaxIter 150
| 12> end
| 13>
| 14>
| 15>                          ****END OF INPUT****

CARTESIAN COORDINATES (ANGSTROEM)
---------------------------------
  C      2.486452   -2.677121   -2.563447
  C     -0.870963    0.248043   -2.662804
  C     -0.477492    0.608191   -4.101052
  H      0.206773    1.458299   -4.118748
  H     -1.368442    0.929419   -4.647855
  C      0.184673   -0.506640   -4.916760
  C      3.037640   -2.366715   -3.923509
  N      2.280360   -2.454408   -4.967692
  C      4.321736   -2.017932   -4.016641
  H      4.879940   -1.911668   -3.173823
  H      4.710148   -1.670882   -4.883561
  H      1.270423   -2.412650   -4.866143
  H      2.581829   -2.055282   -5.846878
  F     -0.158685   -1.701088   -4.657981
  O      1.055938   -0.174410   -5.740373
  C      2.497991   -1.469464   -1.610303
  C      1.582841   -0.321986   -2.042619
  H      2.193083   -1.833912   -0.625420
  H      3.523356   -1.103982   -1.490392
  C      0.100160   -0.673551   -1.915815
  H      1.822311   -0.040361   -3.072834
  H      1.813180    0.557019   -1.433266
  H     -0.063284   -1.679120   -2.301112
  H     -0.168820   -0.691680   -0.853831
  H     -1.001048    1.181040   -2.104071
  H     -1.844645   -0.246592   -2.663281
  H      1.472592   -3.051527   -2.694366
  H      3.083201   -3.490638   -2.141472

 Total Charge           Charge          ....    0
 Multiplicity           Mult            ....    1
 Number of Electrons    NEL             ....   94
 Basis Dimension        Dim             ....  594

ORBITAL ENERGIES
----------------

  NO   OCC          E(Eh)            E(eV)
   0   2.0000     -24.776731      -674.2091
   1   2.0000     -19.149575      -521.0864
   2   2.0000     -14.292458      -388.9176
   3   2.0000     -10.364966      -282.0451
   4   2.0000     -10.209091      -277.8035
   5   2.0000     -10.189438      -277.2687
   6   2.0000     -10.176155      -276.9072
   7   2.0000     -10.175157      -276.8801
   8   2.0000     -10.168110      -276.6884
   9   2.0000     -10.164772      -276.5975
  10   2.0000     -10.162354      -276.5317
  11   2.0000     -10.085882      -274.4508
  12   2.0000      -1.345186       -36.6044
  13   2.0000      -1.059877       -28.8407
  14   2.0000      -0.923512       -25.1300
  15   2.0000      -0.833566       -22.6825
  16   2.0000      -0.793847       -21.6017
  17   2.0000      -0.753384       -20.5006
  18   2.0000      -0.708896       -19.2900
  19   2.0000      -0.690759       -18.7965
  20   2.0000      -0.666987       -18.1497
  21   2.0000      -0.625917       -17.0321
  22   2.0000      -0.592565       -16.1245
  23   2.0000      -0.585144       -15.9226
  24   2.0000      -0.567648       -15.4465
  25   2.0000      -0.540224       -14.7002
  26   2.0000      -0.512621       -13.9491
  27   2.0000      -0.497307       -13.5324
  28   2.0000      -0.482052       -13.1173
  29   2.0000      -0.476353       -12.9622
  30   2.0000      -0.471306       -12.8249
  31   2.0000      -0.444514       -12.0959
  32   2.0000      -0.428557       -11.6616
  33   2.0000      -0.421332       -11.4650
  34   2.0000      -0.409357       -11.1392
  35   2.0000      -0.393080       -10.6962
  36   2.0000      -0.387336       -10.5399
  37   2.0000      -0.377741       -10.2789
  38   2.0000      -0.367635       -10.0039
  39   2.0000      -0.358184        -9.7467
  40   2.0000      -0.346555        -9.4302
  41   2.0000      -0.339381        -9.2350
  42   2.0000      -0.324801        -8.8383
  43   2.0000      -0.324319        -8.8252
  44   2.0000      -0.316134        -8.6024
  45   2.0000      -0.303332        -8.2541
  46   2.0000      -0.172679        -4.6988
  47   0.0000      -0.049095        -1.3359
  48   0.0000      -0.007495        -0.2039
  49   0.0000       0.013258         0.3608
  50   0.0000       0.016038         0.4364
  51   0.0000       0.019527         0.5313

MULLIKEN ATOMIC CHARGES
-----------------------
   0 C :   -0.389304
   1 C :   -0.483962
   2 C :   -0.367294
   3 H :    0.238975
   4 H :    0.273250
   5 C :    0.592844
   6 C :    0.495241
   7 N :   -0.419928
   8 C :   -1.316653
   9 H :    0.303032
  10 H :    0.272336
  11 H :    0.396165
  12 H :    0.153200
  13 F :   -0.346847
  14 O :   -0.550632
  15 C :   -0.426518
  16 C :   -0.523580
  17 H :    0.237509
  18 H :    0.287214
  19 C :   -0.410448
  20 H :    0.287147
  21 H :    0.238899
  22 H :    0.182364
  23 H :    0.323433
  24 H :    0.233791
  25 H :    0.262189
  26 H :    0.215657
  27 H :    0.241924
Sum of atomic charges:    0.0000000

LOEWDIN ATOMIC CHARGES
----------------------
   0 C :   -0.137762
   1 C :   -0.188150
   2 C :   -0.091907
   3 H :    0.124142
   4 H :    0.125317
   5 C :   -0.469376
   6 C :   -0.480690
   7 N :    0.120832
   8 C :    0.027175
   9 H :    0.015432
  10 H :    0.015345
  11 H :    0.058040
  12 H :    0.113685
  13 F :    0.171721
  14 O :    0.100175
  15 C :   -0.185926
  16 C :   -0.190478
  17 H :    0.108205
  18 H :    0.105861
  19 C :   -0.205957
  20 H :    0.102464
  21 H :    0.116701
  22 H :    0.089805
  23 H :    0.117442
  24 H :    0.112529
  25 H :    0.107998
  26 H :    0.097984
  27 H :    0.119393

  Mayer bond orders larger than 0.100000
B(  0-C ,  6-C ) :   0.6488 B(  0-C , 15-C ) :   0.7945 B(  0-C , 26-H ) :   1.0129
B(  0-C , 27-H ) :   0.9224 B(  1-C ,  2-C ) :   0.8088 B(  1-C , 19-C ) :   0.9180
B(  1-C , 24-H ) :   0.9614 B(  1-C , 25-H ) :   0.9692 B(  2-C ,  3-H ) :   1.0067
B(  2-C ,  4-H ) :   0.9075 B(  2-C ,  5-C ) :   0.8924 B(  5-C , 13-F ) :   0.8247
B(  5-C , 14-O ) :   1.6931 B(  6-C ,  7-N ) :   1.0646 B(  6-C ,  8-C ) :   1.2403
B(  6-C , 15-C ) :   0.1368 B(  7-N ,  8-C ) :   0.1773 B(  7-N , 11-H ) :   0.6946
B(  7-N , 12-H ) :   0.9194 B(  8-C ,  9-H ) :   0.9648 B(  8-C , 10-H ) :   1.0292
B( 15-C , 16-C ) :   0.9959 B( 15-C , 17-H ) :   0.9316 B( 15-C , 18-H ) :   0.9049
B( 15-C , 19-C ) :   0.2364 B( 16-C , 19-C ) :   0.4060 B( 16-C , 20-H ) :   0.9600
B( 16-C , 21-H ) :   0.9546 B( 16-C , 22-H ) :  -0.1051 B( 19-C , 22-H ) :   1.0527
B( 19-C , 23-H ) :   0.8605

Dispersion correction           -0.050931621
FINAL SINGLE POINT ENERGY      -582.296695552818

DIPOLE MOMENT
-------------
                                X             Y             Z
Electronic contribution:     -5.34300      -1.78722     -10.87884
Nuclear contribution   :      3.65024       2.44123      11.52670
                        -----------------------------------------
Total Dipole Moment    :     -1.69276       0.65402       0.64786
                        -----------------------------------------
Magnitude (a.u.)       :      1.92689
Magnitude (Debye)      :      4.89777

Rotational constants in cm-1:     0.040600     0.026409     0.019262
Rotational constants in MHz :  1217.142957   791.712481   577.449390

                             ****ORCA TERMINATED NORMALLY****
TOTAL RUN TIME: 0 days 0 hours 5 minutes 43 seconds 237 msec
