                         Program Version 5.0.0 -  RELEASE  -
|  1> !B3LYP D3BJ RIJCOSX def2-TZVPD def2/J TightSCF xyzfile
|  2>
|  3> *xyzfile 0 1 D3.xyz
|  4>
|  5> %MaxCore 64000
|  6>
|  7> %pal nprocs 4
|  8> end
|  9>
| 10> %scf
| 11>   MaxIter 150
| 12> end
| 13>
| 14>
| 15>                          ****END OF INPUT****

CARTESIAN COORDINATES (ANGSTROEM)
---------------------------------
  C      2.486452   -2.677121   -2.563447
  C     -0.870963    0.248043   -2.662804
  C     -0.477492    0.608191   -4.101052
  H      0.206773    1.458299   -4.118748
  H     -1.368442    0.929419   -4.647855
  C      0.184673   -0.506640   -4.916760
  C      3.037640   -2.366715   -3.923509
  C      2.280360   -2.454408   -4.967692
  N      4.321736   -2.017932   -4.016641
  H      4.879940   -1.911668   -3.173823
  H      4.710148   -1.670882   -4.883561
  H      1.270423   -2.412650   -4.866143
  H      2.581829   -2.055282   -5.846878
  O     -0.158685   -1.701088   -4.657981
  F      1.055938   -0.174410   -5.740373
  C      2.497991   -1.469464   -1.610303
  C      1.582841   -0.321986   -2.042619
  H      2.193083   -1.833912   -0.625420
  H      3.523356   -1.103982   -1.490392
  C      0.100160   -0.673551   -1.915815
  H      1.822311   -0.040361   -3.072834
  H      1.813180    0.557019   -1.433266
  H     -0.063284   -1.679120   -2.301112
  H     -0.168820   -0.691680   -0.853831
  H     -1.001048    1.181040   -2.104071
  H     -1.844645   -0.246592   -2.663281
  H      1.472592   -3.051527   -2.694366
  H      3.083201   -3.490638   -2.141472

 Total Charge           Charge          ....    0
 Multiplicity           Mult            ....    1
 Number of Electrons    NEL             ....   94
 Basis Dimension        Dim             ....  594

ORBITAL ENERGIES
----------------

  NO   OCC          E(Eh)            E(eV)
   0   2.0000     -24.755711      -673.6371
   1   2.0000     -19.128442      -520.5114
   2   2.0000     -14.302803      -389.1991
   3   2.0000     -10.351084      -281.6673
   4   2.0000     -10.200038      -277.5572
   5   2.0000     -10.179222      -276.9907
   6   2.0000     -10.170268      -276.7471
   7   2.0000     -10.164282      -276.5842
   8   2.0000     -10.164051      -276.5779
   9   2.0000     -10.161365      -276.5048
  10   2.0000     -10.156351      -276.3684
  11   2.0000     -10.068807      -273.9862
  12   2.0000      -1.329064       -36.1657
  13   2.0000      -1.034754       -28.1571
  14   2.0000      -0.911882       -24.8136
  15   2.0000      -0.820540       -22.3280
  16   2.0000      -0.788743       -21.4628
  17   2.0000      -0.741672       -20.1819
  18   2.0000      -0.718507       -19.5516
  19   2.0000      -0.679579       -18.4923
  20   2.0000      -0.653959       -17.7951
  21   2.0000      -0.613100       -16.6833
  22   2.0000      -0.575905       -15.6712
  23   2.0000      -0.562706       -15.3120
  24   2.0000      -0.549762       -14.9598
  25   2.0000      -0.530034       -14.4229
  26   2.0000      -0.519532       -14.1372
  27   2.0000      -0.507123       -13.7995
  28   2.0000      -0.476518       -12.9667
  29   2.0000      -0.468937       -12.7604
  30   2.0000      -0.453903       -12.3513
  31   2.0000      -0.439234       -11.9522
  32   2.0000      -0.431903       -11.7527
  33   2.0000      -0.403629       -10.9833
  34   2.0000      -0.397289       -10.8108
  35   2.0000      -0.395157       -10.7528
  36   2.0000      -0.378247       -10.2926
  37   2.0000      -0.366367        -9.9694
  38   2.0000      -0.358376        -9.7519
  39   2.0000      -0.353471        -9.6184
  40   2.0000      -0.336290        -9.1509
  41   2.0000      -0.328651        -8.9431
  42   2.0000      -0.317855        -8.6493
  43   2.0000      -0.311895        -8.4871
  44   2.0000      -0.309936        -8.4338
  45   2.0000      -0.268196        -7.2980
  46   2.0000      -0.180910        -4.9228
  47   0.0000      -0.036424        -0.9911
  48   0.0000      -0.000415        -0.0113
  49   0.0000       0.009296         0.2530
  50   0.0000       0.016959         0.4615
  51   0.0000       0.024921         0.6781

MULLIKEN ATOMIC CHARGES
-----------------------
   0 C :   -0.526378
   1 C :   -0.483379
   2 C :   -0.461238
   3 H :    0.303342
   4 H :    0.256531
   5 C :    0.593016
   6 C :    0.446612
   7 C :   -1.289529
   8 N :   -0.402541
   9 H :    0.138136
  10 H :    0.142643
  11 H :    0.798243
  12 H :    0.222280
  13 O :   -0.578091
  14 F :   -0.284239
  15 C :   -0.477490
  16 C :   -0.310948
  17 H :    0.232806
  18 H :    0.265028
  19 C :   -0.500627
  20 H :    0.201125
  21 H :    0.235186
  22 H :    0.227607
  23 H :    0.318603
  24 H :    0.233242
  25 H :    0.262874
  26 H :    0.143850
  27 H :    0.293338
Sum of atomic charges:   -0.0000000

LOEWDIN ATOMIC CHARGES
----------------------
   0 C :   -0.134980
   1 C :   -0.180576
   2 C :   -0.097549
   3 H :    0.114092
   4 H :    0.124084
   5 C :   -0.461030
   6 C :   -0.468903
   7 C :    0.011653
   8 N :    0.106192
   9 H :    0.096490
  10 H :    0.105097
  11 H :   -0.021797
  12 H :    0.035347
  13 O :    0.052297
  14 F :    0.228392
  15 C :   -0.189313
  16 C :   -0.192424
  17 H :    0.108537
  18 H :    0.098244
  19 C :   -0.202822
  20 H :    0.100716
  21 H :    0.113610
  22 H :    0.093152
  23 H :    0.116103
  24 H :    0.111000
  25 H :    0.111012
  26 H :    0.107704
  27 H :    0.115671

  Mayer bond orders larger than 0.100000
B(  0-C ,  6-C ) :   0.7142 B(  0-C ,  8-N ) :   0.1263 B(  0-C , 15-C ) :   0.8343
B(  0-C , 26-H ) :   1.0141 B(  0-C , 27-H ) :   0.9174 B(  1-C ,  2-C ) :   0.8846
B(  1-C , 19-C ) :   1.0383 B(  1-C , 24-H ) :   0.9756 B(  1-C , 25-H ) :   0.9237
B(  2-C ,  3-H ) :   0.9403 B(  2-C ,  4-H ) :   0.9146 B(  2-C ,  5-C ) :   0.9209
B(  2-C , 16-C ) :   0.1003 B(  5-C , 13-O ) :   1.7567 B(  5-C , 14-F ) :   0.8805
B(  6-C ,  7-C ) :   1.4555 B(  6-C ,  8-N ) :   0.8895 B(  6-C , 11-H ) :  -0.1778
B(  6-C , 12-H ) :  -0.1790 B(  7-C , 11-H ) :   0.5887 B(  7-C , 12-H ) :   1.2283
B(  8-N ,  9-H ) :   1.0477 B(  8-N , 10-H ) :   0.9950 B( 11-H , 13-O ) :  -0.2363
B( 15-C , 16-C ) :   1.0094 B( 15-C , 17-H ) :   0.9524 B( 15-C , 18-H ) :   0.8785
B( 15-C , 19-C ) :   0.2527 B( 16-C , 19-C ) :   0.4538 B( 16-C , 20-H ) :   0.9506
B( 16-C , 21-H ) :   0.9637 B( 19-C , 21-H ) :  -0.1016 B( 19-C , 22-H ) :   1.0096
B( 19-C , 23-H ) :   0.8676

Dispersion correction           -0.051411523
FINAL SINGLE POINT ENERGY      -582.279736360394

DIPOLE MOMENT
-------------
                                X             Y             Z
Electronic contribution:     -1.76760       0.89816     -12.10314
Nuclear contribution   :      1.88979       0.56282      12.66056
                        -----------------------------------------
Total Dipole Moment    :      0.12219       1.46098       0.55742
                        -----------------------------------------
Magnitude (a.u.)       :      1.56847
Magnitude (Debye)      :      3.98674

Rotational constants in cm-1:     0.040271     0.025954     0.018866
Rotational constants in MHz :  1207.302496   778.083475   565.600538

                             ****ORCA TERMINATED NORMALLY****
TOTAL RUN TIME: 0 days 0 hours 5 minutes 3 seconds 627 msec
