                         Program Version 5.0.0 -  RELEASE  -
|  1> !B3LYP D3BJ RIJCOSX def2-TZVPD def2/J TightSCF xyzfile
|  2>
|  3> *xyzfile 0 1 D4.xyz
|  4>
|  5> %MaxCore 64000
|  6>
|  7> %pal nprocs 4
|  8> end
|  9>
| 10> %scf
| 11>   MaxIter 150
| 12> end
| 13>
| 14>
| 15>                          ****END OF INPUT****

CARTESIAN COORDINATES (ANGSTROEM)
---------------------------------
  C      2.486452   -2.677121   -2.563447
  C     -0.870963    0.248043   -2.662804
  C     -0.477492    0.608191   -4.101052
  H      0.206773    1.458299   -4.118748
  H     -1.368442    0.929419   -4.647855
  C      0.184673   -0.506640   -4.916760
  C      3.037640   -2.366715   -3.923509
  N      2.280360   -2.454408   -4.967692
  C      4.321736   -2.017932   -4.016641
  H      4.879940   -1.911668   -3.173823
  H      4.710148   -1.670882   -4.883561
  H      1.270423   -2.412650   -4.866143
  H      2.581829   -2.055282   -5.846878
  O     -0.158685   -1.701088   -4.657981
  F      1.055938   -0.174410   -5.740373
  C      2.497991   -1.469464   -1.610303
  C      1.582841   -0.321986   -2.042619
  H      2.193083   -1.833912   -0.625420
  H      3.523356   -1.103982   -1.490392
  C      0.100160   -0.673551   -1.915815
  H      1.822311   -0.040361   -3.072834
  H      1.813180    0.557019   -1.433266
  H     -0.063284   -1.679120   -2.301112
  H     -0.168820   -0.691680   -0.853831
  H     -1.001048    1.181040   -2.104071
  H     -1.844645   -0.246592   -2.663281
  H      1.472592   -3.051527   -2.694366
  H      3.083201   -3.490638   -2.141472

 Total Charge           Charge          ....    0
 Multiplicity           Mult            ....    1
 Number of Electrons    NEL             ....   94
 Basis Dimension        Dim             ....  594

ORBITAL ENERGIES
----------------

  NO   OCC          E(Eh)            E(eV)
   0   2.0000     -24.777549      -674.2314
   1   2.0000     -19.154789      -521.2283
   2   2.0000     -14.283577      -388.6759
   3   2.0000     -10.374264      -282.2981
   4   2.0000     -10.213098      -277.9125
   5   2.0000     -10.187641      -277.2198
   6   2.0000     -10.173174      -276.8261
   7   2.0000     -10.166973      -276.6574
   8   2.0000     -10.166646      -276.6485
   9   2.0000     -10.161500      -276.5085
  10   2.0000     -10.156596      -276.3750
  11   2.0000     -10.083591      -274.3884
  12   2.0000      -1.350781       -36.7566
  13   2.0000      -1.060549       -28.8590
  14   2.0000      -0.917710       -24.9722
  15   2.0000      -0.829617       -22.5750
  16   2.0000      -0.791687       -21.5429
  17   2.0000      -0.751487       -20.4490
  18   2.0000      -0.711183       -19.3523
  19   2.0000      -0.685239       -18.6463
  20   2.0000      -0.664359       -18.0781
  21   2.0000      -0.621742       -16.9185
  22   2.0000      -0.584592       -15.9075
  23   2.0000      -0.577541       -15.7157
  24   2.0000      -0.558353       -15.1936
  25   2.0000      -0.548919       -14.9368
  26   2.0000      -0.528675       -14.3860
  27   2.0000      -0.497263       -13.5312
  28   2.0000      -0.481810       -13.1107
  29   2.0000      -0.476921       -12.9777
  30   2.0000      -0.470658       -12.8072
  31   2.0000      -0.443887       -12.0788
  32   2.0000      -0.425557       -11.5800
  33   2.0000      -0.413551       -11.2533
  34   2.0000      -0.406482       -11.0609
  35   2.0000      -0.394205       -10.7269
  36   2.0000      -0.381559       -10.3827
  37   2.0000      -0.373566       -10.1653
  38   2.0000      -0.361638        -9.8407
  39   2.0000      -0.360795        -9.8177
  40   2.0000      -0.341622        -9.2960
  41   2.0000      -0.336068        -9.1449
  42   2.0000      -0.324031        -8.8173
  43   2.0000      -0.320562        -8.7229
  44   2.0000      -0.314914        -8.5692
  45   2.0000      -0.300235        -8.1698
  46   2.0000      -0.170175        -4.6307
  47   0.0000      -0.057368        -1.5611
  48   0.0000      -0.006113        -0.1663
  49   0.0000       0.012342         0.3358
  50   0.0000       0.018917         0.5148
  51   0.0000       0.019521         0.5312

MULLIKEN ATOMIC CHARGES
-----------------------
   0 C :   -0.373673
   1 C :   -0.493430
   2 C :   -0.448880
   3 H :    0.306954
   4 H :    0.259356
   5 C :    0.681158
   6 C :    0.462614
   7 N :   -0.431369
   8 C :   -1.305679
   9 H :    0.304409
  10 H :    0.272749
  11 H :    0.407314
  12 H :    0.138966
  13 O :   -0.635044
  14 F :   -0.287282
  15 C :   -0.447867
  16 C :   -0.486906
  17 H :    0.235518
  18 H :    0.286562
  19 C :   -0.420563
  20 H :    0.222801
  21 H :    0.239657
  22 H :    0.207527
  23 H :    0.326510
  24 H :    0.238123
  25 H :    0.268271
  26 H :    0.225065
  27 H :    0.247138
Sum of atomic charges:   -0.0000000

LOEWDIN ATOMIC CHARGES
----------------------
   0 C :   -0.135139
   1 C :   -0.179591
   2 C :   -0.094862
   3 H :    0.117233
   4 H :    0.126429
   5 C :   -0.450526
   6 C :   -0.482808
   7 N :    0.116099
   8 C :    0.020323
   9 H :    0.013839
  10 H :    0.011540
  11 H :    0.033491
  12 H :    0.112064
  13 O :    0.059818
  14 F :    0.233302
  15 C :   -0.185503
  16 C :   -0.191955
  17 H :    0.108751
  18 H :    0.104657
  19 C :   -0.204645
  20 H :    0.099053
  21 H :    0.115247
  22 H :    0.090743
  23 H :    0.117304
  24 H :    0.112890
  25 H :    0.111532
  26 H :    0.101547
  27 H :    0.119166

  Mayer bond orders larger than 0.100000
B(  0-C ,  6-C ) :   0.6573 B(  0-C , 15-C ) :   0.7842 B(  0-C , 26-H ) :   1.0118
B(  0-C , 27-H ) :   0.9217 B(  1-C ,  2-C ) :   0.8809 B(  1-C , 19-C ) :   0.9954
B(  1-C , 24-H ) :   0.9666 B(  1-C , 25-H ) :   0.9275 B(  2-C ,  3-H ) :   0.9352
B(  2-C ,  4-H ) :   0.9118 B(  2-C ,  5-C ) :   0.9388 B(  5-C , 13-O ) :   1.5695
B(  5-C , 14-F ) :   0.8969 B(  6-C ,  7-N ) :   1.0627 B(  6-C ,  8-C ) :   1.2677
B(  6-C , 15-C ) :   0.1481 B(  7-N ,  8-C ) :   0.1756 B(  7-N , 11-H ) :   0.6723
B(  7-N , 12-H ) :   0.9360 B(  8-C ,  9-H ) :   0.9699 B(  8-C , 10-H ) :   1.0293
B( 15-C , 16-C ) :   1.0257 B( 15-C , 17-H ) :   0.9257 B( 15-C , 18-H ) :   0.9089
B( 15-C , 19-C ) :   0.2241 B( 16-C , 19-C ) :   0.4206 B( 16-C , 20-H ) :   0.9748
B( 16-C , 21-H ) :   0.9510 B( 19-C , 21-H ) :  -0.1002 B( 19-C , 22-H ) :   1.0344
B( 19-C , 23-H ) :   0.8515

Dispersion correction           -0.051192329
FINAL SINGLE POINT ENERGY      -582.298535544483

DIPOLE MOMENT
-------------
                                X             Y             Z
Electronic contribution:     -3.44896       0.78846     -12.73139
Nuclear contribution   :      2.21030       0.63135      12.80988
                        -----------------------------------------
Total Dipole Moment    :     -1.23866       1.41981       0.07849
                        -----------------------------------------
Magnitude (a.u.)       :      1.88582
Magnitude (Debye)      :      4.79336

Rotational constants in cm-1:     0.039980     0.026547     0.019089
Rotational constants in MHz :  1198.568620   795.867393   572.288555

                             ****ORCA TERMINATED NORMALLY****
TOTAL RUN TIME: 0 days 0 hours 4 minutes 59 seconds 270 msec
