                         Program Version 5.0.0 -  RELEASE  -
|  1> !M062X D3Zero RIJCOSX def2-SVP def2/J TightSCF
|  2> *xyz -1 1
|  3> C         -0.10608        1.76991       -4.08984
|  4> C         -0.25875        1.00432       -5.40983
|  5> C          0.39596       -0.37070       -5.33994
|  6> H          0.23915        1.56939       -6.20125
|  7> H         -1.30936        0.88869       -5.68245
|  8> O         -0.32633       -1.39040       -5.49128
|  9> O          1.61941       -0.40073       -5.03683
| 10> H         -0.57627        2.72718       -4.17630
| 11> H          0.93321        1.90140       -3.87192
| 12> H         -0.56868        1.21534       -3.30031
| 13> *
| 14> %MaxCore 64000
| 15>
| 16> %pal nprocs 4
| 17> end
| 18>
| 19> %scf
| 20>   MaxIter 150
| 21> end
| 22>
| 23>
| 24>                          ****END OF INPUT****

CARTESIAN COORDINATES (ANGSTROEM)
---------------------------------
  C     -0.106080    1.769910   -4.089840
  C     -0.258750    1.004320   -5.409830
  C      0.395960   -0.370700   -5.339940
  H      0.239150    1.569390   -6.201250
  H     -1.309360    0.888690   -5.682450
  O     -0.326330   -1.390400   -5.491280
  O      1.619410   -0.400730   -5.036830
  H     -0.576270    2.727180   -4.176300
  H      0.933210    1.901400   -3.871920
  H     -0.568680    1.215340   -3.300310

 Total Charge           Charge          ....   -1
 Multiplicity           Mult            ....    1
 Number of Electrons    NEL             ....   40
 Basis Dimension        Dim             ....   95

ORBITAL ENERGIES
----------------

  NO   OCC          E(Eh)            E(eV)
   0   2.0000     -19.331142      -526.0271
   1   2.0000     -19.330087      -525.9984
   2   2.0000     -10.406955      -283.1877
   3   2.0000     -10.381443      -282.4934
   4   2.0000     -10.361025      -281.9378
   5   2.0000      -0.893804       -24.3216
   6   2.0000      -0.792081       -21.5536
   7   2.0000      -0.682500       -18.5718
   8   2.0000      -0.542377       -14.7588
   9   2.0000      -0.377816       -10.2809
  10   2.0000      -0.351420        -9.5626
  11   2.0000      -0.312782        -8.5112
  12   2.0000      -0.281211        -7.6521
  13   2.0000      -0.265560        -7.2263
  14   2.0000      -0.258784        -7.0419
  15   2.0000      -0.223014        -6.0685
  16   2.0000      -0.207090        -5.6352
  17   2.0000      -0.080892        -2.2012
  18   2.0000      -0.075395        -2.0516
  19   2.0000      -0.068986        -1.8772
  20   0.0000       0.254394         6.9224
  21   0.0000       0.306114         8.3298
  22   0.0000       0.317980         8.6527
  23   0.0000       0.321137         8.7386
  24   0.0000       0.329508         8.9664

MULLIKEN ATOMIC CHARGES
-----------------------
   0 C :   -0.047542
   1 C :   -0.051350
   2 C :    0.101237
   3 H :   -0.016148
   4 H :   -0.026582
   5 O :   -0.474668
   6 O :   -0.490229
   7 H :   -0.026429
   8 H :    0.021556
   9 H :    0.010153
Sum of atomic charges:   -1.0000000

LOEWDIN ATOMIC CHARGES
----------------------
   0 C :   -0.065671
   1 C :   -0.096988
   2 C :   -0.028613
   3 H :    0.006778
   4 H :   -0.000477
   5 O :   -0.413768
   6 O :   -0.424978
   7 H :   -0.005123
   8 H :    0.015634
   9 H :    0.013207

  Mayer bond orders larger than 0.100000
B(  0-C ,  1-C ) :   1.0878 B(  0-C ,  7-H ) :   0.9696 B(  0-C ,  8-H ) :   0.9663
B(  0-C ,  9-H ) :   0.9754 B(  1-C ,  2-C ) :   0.9193 B(  1-C ,  3-H ) :   0.9397
B(  1-C ,  4-H ) :   0.9433 B(  2-C ,  5-O ) :   1.8430 B(  2-C ,  6-O ) :   1.7964
B(  5-O ,  6-O ) :   0.1029

Dispersion correction           -0.000085539
FINAL SINGLE POINT ENERGY      -267.493631161931

DIPOLE MOMENT
-------------
                                X             Y             Z
Electronic contribution:      1.79188      -5.44453      -1.70296
Nuclear contribution   :     -2.46071       7.20791       1.95694
                        -----------------------------------------
Total Dipole Moment    :     -0.66883       1.76338       0.25397
                        -----------------------------------------
Magnitude (a.u.)       :      1.90299
Magnitude (Debye)      :      4.83701

Rotational constants in cm-1:     0.309435     0.135317     0.107436
Rotational constants in MHz :  9276.637721  4056.700783  3220.846587

                             ****ORCA TERMINATED NORMALLY****
TOTAL RUN TIME: 0 days 0 hours 0 minutes 12 seconds 177 msec
