                         Program Version 5.0.0 -  RELEASE  -
|  1> !M062X D3Zero RIJCOSX def2-SVP def2/J TightSCF
|  2> *xyz 1 1
|  3> C          0.81607       -2.10149       -2.18655
|  4> H          1.69623       -2.36869       -1.60046
|  5> N          1.10055       -2.46749       -3.59927
|  6> C          0.51624       -0.61363       -2.03937
|  7> H         -0.02007       -2.71285       -1.84084
|  8> H          1.70061       -1.75723       -4.07838
|  9> H          0.29386       -2.35977       -4.25632
| 10> H          1.50132       -3.42848       -3.69491
| 11> H         -0.34841       -0.36504       -2.61858
| 12> H          1.35358       -0.04503       -2.38643
| 13> H          0.33317       -0.38682       -1.00984
| 14> *
| 15> %MaxCore 64000
| 16>
| 17> %pal nprocs 4
| 18> end
| 19>
| 20> %scf
| 21>   MaxIter 150
| 22> end
| 23>
| 24>
| 25>                          ****END OF INPUT****

CARTESIAN COORDINATES (ANGSTROEM)
---------------------------------
  C      0.816070   -2.101490   -2.186550
  H      1.696230   -2.368690   -1.600460
  N      1.100550   -2.467490   -3.599270
  C      0.516240   -0.613630   -2.039370
  H     -0.020070   -2.712850   -1.840840
  H      1.700610   -1.757230   -4.078380
  H      0.293860   -2.359770   -4.256320
  H      1.501320   -3.428480   -3.694910
  H     -0.348410   -0.365040   -2.618580
  H      1.353580   -0.045030   -2.386430
  H      0.333170   -0.386820   -1.009840

 Total Charge           Charge          ....    1
 Multiplicity           Mult            ....    1
 Number of Electrons    NEL             ....   26
 Basis Dimension        Dim             ....   82

ORBITAL ENERGIES
----------------

  NO   OCC          E(Eh)            E(eV)
   0   2.0000     -15.101217      -410.9250
   1   2.0000     -10.805460      -294.0315
   2   2.0000     -10.726772      -291.8903
   3   2.0000      -1.308141       -35.5963
   4   2.0000      -1.053700       -28.6726
   5   2.0000      -0.930652       -25.3243
   6   2.0000      -0.864607       -23.5272
   7   2.0000      -0.847704       -23.0672
   8   2.0000      -0.771909       -21.0047
   9   2.0000      -0.705791       -19.2055
  10   2.0000      -0.646441       -17.5905
  11   2.0000      -0.631221       -17.1764
  12   2.0000      -0.613169       -16.6852
  13   0.0000      -0.149634        -4.0718
  14   0.0000      -0.089551        -2.4368
  15   0.0000      -0.085954        -2.3389
  16   0.0000      -0.053303        -1.4505
  17   0.0000      -0.008849        -0.2408

MULLIKEN ATOMIC CHARGES
-----------------------
   0 C :   -0.057690
   1 H :    0.123336
   2 N :   -0.082541
   3 C :   -0.091027
   4 H :    0.126802
   5 H :    0.225473
   6 H :    0.228656
   7 H :    0.249999
   8 H :    0.080185
   9 H :    0.079708
  10 H :    0.117098
Sum of atomic charges:    1.0000000

LOEWDIN ATOMIC CHARGES
----------------------
   0 C :    0.049068
   1 H :    0.058332
   2 N :    0.258440
   3 C :   -0.045010
   4 H :    0.059115
   5 H :    0.154031
   6 H :    0.155862
   7 H :    0.160648
   8 H :    0.041536
   9 H :    0.041161
  10 H :    0.066819

  Mayer bond orders larger than 0.100000
B(  0-C ,  1-H ) :   0.9500 B(  0-C ,  2-N ) :   0.8987 B(  0-C ,  3-C ) :   1.0887
B(  0-C ,  4-H ) :   0.9495 B(  2-N ,  5-H ) :   0.9228 B(  2-N ,  6-H ) :   0.9220
B(  2-N ,  7-H ) :   0.9169 B(  3-C ,  8-H ) :   0.9714 B(  3-C ,  9-H ) :   0.9671
B(  3-C , 10-H ) :   0.9572

Dispersion correction           -0.000054527
FINAL SINGLE POINT ENERGY      -135.346494319526

DIPOLE MOMENT
-------------
                                X             Y             Z
Electronic contribution:      0.43106      -1.45766      -1.11466
Nuclear contribution   :     -0.07506       0.54337      -0.16191
                        -----------------------------------------
Total Dipole Moment    :      0.35600      -0.91430      -1.27657
                        -----------------------------------------
Magnitude (a.u.)       :      1.61007
Magnitude (Debye)      :      4.09246

Rotational constants in cm-1:     0.999557     0.280801     0.246932
Rotational constants in MHz : 29965.963633  8418.199581  7402.841054

                             ****ORCA TERMINATED NORMALLY****
TOTAL RUN TIME: 0 days 0 hours 0 minutes 9 seconds 672 msec
