                         Program Version 5.0.0 -  RELEASE  -
|  1> !M062X D3Zero RIJCOSX def2-TZVP def2/J TightSCF xyzfile
|  2>
|  3> *xyzfile 0 1 B.xyz
|  4>
|  5> %MaxCore 64000
|  6>
|  7> %pal nprocs 18
|  8> end
|  9>
| 10> %scf
| 11>   MaxIter 150
| 12> end
| 13>
| 14>
| 15>                          ****END OF INPUT****

CARTESIAN COORDINATES (ANGSTROEM)
---------------------------------
  C      0.816067   -2.101491   -2.186546
  H      1.696232   -2.368691   -1.600457
  N      1.100552   -2.467492   -3.599269
  C      0.516243   -0.613634   -2.039373
  H     -0.020066   -2.712849   -1.840844
  C     -0.868621   -0.193925   -2.546303
  C     -0.984801    1.284739   -2.928686
  H     -0.764939    1.904116   -2.051568
  H     -2.032613    1.478953   -3.178952
  C     -0.106085    1.769914   -4.089836
  H     -0.347744    2.822196   -4.262942
  H      0.949683    1.745875   -3.808781
  C     -0.258747    1.004323   -5.409829
  C      0.395958   -0.370696   -5.339939
  H      0.239150    1.569393   -6.201253
  H     -1.309360    0.888694   -5.682455
  H      1.700606   -1.757225   -4.078378
  H      0.293855   -2.359766   -4.256324
  H      1.501324   -3.428479   -3.694915
  O     -0.326329   -1.390398   -5.491279
  O      1.619412   -0.400726   -5.036827
  H     -1.607271   -0.412651   -1.768955
  H     -1.157234   -0.796164   -3.409254
  H      1.299044   -0.056805   -2.558982
  H      0.612393   -0.365579   -0.979171

 Total Charge           Charge          ....    0
 Multiplicity           Mult            ....    1
 Number of Electrons    NEL             ....   80
 Basis Dimension        Dim             ....  400

ORBITAL ENERGIES
----------------

  NO   OCC          E(Eh)            E(eV)
   0   2.0000     -19.559426      -532.2390
   1   2.0000     -19.557426      -532.1846
   2   2.0000     -14.832940      -403.6248
   3   2.0000     -10.613391      -288.8051
   4   2.0000     -10.610007      -288.7130
   5   2.0000     -10.549684      -287.0715
   6   2.0000     -10.531467      -286.5758
   7   2.0000     -10.526798      -286.4487
   8   2.0000     -10.519678      -286.2550
   9   2.0000     -10.510340      -286.0009
  10   2.0000      -1.152360       -31.3573
  11   2.0000      -1.087615       -29.5955
  12   2.0000      -1.047592       -28.5064
  13   2.0000      -0.915218       -24.9043
  14   2.0000      -0.869603       -23.6631
  15   2.0000      -0.819259       -22.2932
  16   2.0000      -0.750728       -20.4284
  17   2.0000      -0.713474       -19.4146
  18   2.0000      -0.654162       -17.8006
  19   2.0000      -0.644084       -17.5264
  20   2.0000      -0.618892       -16.8409
  21   2.0000      -0.590574       -16.0703
  22   2.0000      -0.560583       -15.2543
  23   2.0000      -0.541655       -14.7392
  24   2.0000      -0.527413       -14.3516
  25   2.0000      -0.517145       -14.0722
  26   2.0000      -0.496841       -13.5197
  27   2.0000      -0.488198       -13.2845
  28   2.0000      -0.471254       -12.8235
  29   2.0000      -0.456474       -12.4213
  30   2.0000      -0.455532       -12.3956
  31   2.0000      -0.436274       -11.8716
  32   2.0000      -0.416439       -11.3319
  33   2.0000      -0.410615       -11.1734
  34   2.0000      -0.384754       -10.4697
  35   2.0000      -0.370569       -10.0837
  36   2.0000      -0.366859        -9.9828
  37   2.0000      -0.315730        -8.5914
  38   2.0000      -0.308540        -8.3958
  39   2.0000      -0.301574        -8.2062
  40   0.0000       0.027646         0.7523
  41   0.0000       0.065642         1.7862
  42   0.0000       0.077020         2.0958
  43   0.0000       0.088250         2.4014
  44   0.0000       0.090536         2.4636

MULLIKEN ATOMIC CHARGES
-----------------------
   0 C :   -0.183151
   1 H :    0.163056
   2 N :   -0.407082
   3 C :   -0.344418
   4 H :    0.172162
   5 C :   -0.332757
   6 C :   -0.289055
   7 H :    0.140577
   8 H :    0.148894
   9 C :   -0.292914
  10 H :    0.138697
  11 H :    0.165513
  12 C :   -0.276119
  13 C :    0.343064
  14 H :    0.143101
  15 H :    0.142525
  16 H :    0.337200
  17 H :    0.340222
  18 H :    0.285580
  19 O :   -0.538698
  20 O :   -0.550016
  21 H :    0.141890
  22 H :    0.194900
  23 H :    0.207391
  24 H :    0.149436
Sum of atomic charges:   -0.0000000

LOEWDIN ATOMIC CHARGES
----------------------
   0 C :   -0.279303
   1 H :    0.135839
   2 N :    0.109052
   3 C :   -0.270511
   4 H :    0.137910
   5 C :   -0.273666
   6 C :   -0.270687
   7 H :    0.137295
   8 H :    0.140834
   9 C :   -0.270177
  10 H :    0.137705
  11 H :    0.140079
  12 C :   -0.236656
  13 C :   -0.633101
  14 H :    0.148187
  15 H :    0.141227
  16 H :    0.189372
  17 H :    0.190049
  18 H :    0.196880
  19 O :   -0.077348
  20 O :   -0.071578
  21 H :    0.136940
  22 H :    0.147099
  23 H :    0.150536
  24 H :    0.144022

  Mayer bond orders larger than 0.100000
B(  0-C ,  1-H ) :   0.9854 B(  0-C ,  2-N ) :   0.8590 B(  0-C ,  3-C ) :   0.9306
B(  0-C ,  4-H ) :   0.9794 B(  2-N , 16-H ) :   0.7525 B(  2-N , 17-H ) :   0.7623
B(  2-N , 18-H ) :   0.8998 B(  3-C ,  5-C ) :   0.8458 B(  3-C , 23-H ) :   0.9821
B(  3-C , 24-H ) :   0.9632 B(  5-C ,  6-C ) :   0.9155 B(  5-C , 21-H ) :   0.9708
B(  5-C , 22-H ) :   0.9871 B(  6-C ,  7-H ) :   0.9816 B(  6-C ,  8-H ) :   0.9853
B(  6-C ,  9-C ) :   0.9261 B(  9-C , 10-H ) :   0.9830 B(  9-C , 11-H ) :   0.9802
B(  9-C , 12-C ) :   0.8995 B( 12-C , 13-C ) :   0.9409 B( 12-C , 14-H ) :   0.9600
B( 12-C , 15-H ) :   0.9801 B( 13-C , 19-O ) :   1.6624 B( 13-C , 20-O ) :   1.6295
B( 16-H , 20-O ) :   0.1752 B( 17-H , 19-O ) :   0.1650

Dispersion correction           -0.001030543
FINAL SINGLE POINT ENERGY      -480.964590324479

DIPOLE MOMENT
-------------
                                X             Y             Z
Electronic contribution:      2.29277      -3.10248      -6.22662
Nuclear contribution   :     -2.02598       1.95876       8.24116
                        -----------------------------------------
Total Dipole Moment    :      0.26679      -1.14372       2.01454
                        -----------------------------------------
Magnitude (a.u.)       :      2.33187
Magnitude (Debye)      :      5.92716

Rotational constants in cm-1:     0.052900     0.041948     0.028766
Rotational constants in MHz :  1585.892512  1257.572595   862.390225

                             ****ORCA TERMINATED NORMALLY****
TOTAL RUN TIME: 0 days 0 hours 0 minutes 48 seconds 586 msec
