                         Program Version 5.0.0 -  RELEASE  -
|  1> !M062X D3Zero RIJCOSX def2-SVP def2/J TightSCF
|  2> *xyz 0 1
|  3> C         -0.10608        1.76991       -4.08984
|  4> C         -0.25875        1.00432       -5.40983
|  5> C          0.39596       -0.37070       -5.33994
|  6> H          0.23915        1.56939       -6.20125
|  7> H         -1.30936        0.88869       -5.68245
|  8> F         -0.32633       -1.39040       -5.49128
|  9> O          1.61941       -0.40073       -5.03683
| 10> H         -0.57627        2.72718       -4.17630
| 11> H          0.93321        1.90140       -3.87192
| 12> H         -0.56868        1.21534       -3.30031
| 13> *
| 14> %MaxCore 64000
| 15>
| 16> %pal nprocs 4
| 17> end
| 18>
| 19> %scf
| 20>   MaxIter 150
| 21> end
| 22>
| 23>
| 24>                          ****END OF INPUT****

CARTESIAN COORDINATES (ANGSTROEM)
---------------------------------
  C     -0.106080    1.769910   -4.089840
  C     -0.258750    1.004320   -5.409830
  C      0.395960   -0.370700   -5.339940
  H      0.239150    1.569390   -6.201250
  H     -1.309360    0.888690   -5.682450
  F     -0.326330   -1.390400   -5.491280
  O      1.619410   -0.400730   -5.036830
  H     -0.576270    2.727180   -4.176300
  H      0.933210    1.901400   -3.871920
  H     -0.568680    1.215340   -3.300310

 Total Charge           Charge          ....    0
 Multiplicity           Mult            ....    1
 Number of Electrons    NEL             ....   40
 Basis Dimension        Dim             ....   95

ORBITAL ENERGIES
----------------

  NO   OCC          E(Eh)            E(eV)
   0   2.0000     -25.312669      -688.7928
   1   2.0000     -19.634432      -534.2801
   2   2.0000     -10.727522      -291.9107
   3   2.0000     -10.580418      -287.9078
   4   2.0000     -10.556762      -287.2641
   5   2.0000      -1.433432       -39.0057
   6   2.0000      -1.132154       -30.8075
   7   2.0000      -0.889927       -24.2162
   8   2.0000      -0.774574       -21.0772
   9   2.0000      -0.721833       -19.6421
  10   2.0000      -0.635116       -17.2824
  11   2.0000      -0.621311       -16.9067
  12   2.0000      -0.584520       -15.9056
  13   2.0000      -0.535219       -14.5641
  14   2.0000      -0.504294       -13.7225
  15   2.0000      -0.464108       -12.6290
  16   2.0000      -0.444051       -12.0832
  17   2.0000      -0.437432       -11.9031
  18   2.0000      -0.405788       -11.0421
  19   2.0000      -0.362964        -9.8768
  20   0.0000       0.022119         0.6019
  21   0.0000       0.098580         2.6825
  22   0.0000       0.144181         3.9234
  23   0.0000       0.147610         4.0167
  24   0.0000       0.167306         4.5526

MULLIKEN ATOMIC CHARGES
-----------------------
   0 C :   -0.055404
   1 C :   -0.132984
   2 C :    0.294408
   3 H :    0.083971
   4 H :    0.051630
   5 F :   -0.107237
   6 O :   -0.296299
   7 H :    0.048228
   8 H :    0.067445
   9 H :    0.046241
Sum of atomic charges:    0.0000000

LOEWDIN ATOMIC CHARGES
----------------------
   0 C :   -0.040500
   1 C :   -0.078122
   2 C :    0.127916
   3 H :    0.053728
   4 H :    0.031294
   5 F :    0.025900
   6 O :   -0.213632
   7 H :    0.030213
   8 H :    0.034917
   9 H :    0.028287

  Mayer bond orders larger than 0.100000
B(  0-C ,  1-C ) :   1.0820 B(  0-C ,  7-H ) :   0.9717 B(  0-C ,  8-H ) :   0.9706
B(  0-C ,  9-H ) :   0.9783 B(  1-C ,  2-C ) :   0.9947 B(  1-C ,  3-H ) :   0.9339
B(  1-C ,  4-H ) :   0.9413 B(  2-C ,  5-F ) :   1.1641 B(  2-C ,  6-O ) :   2.0473

Dispersion correction           -0.000088786
FINAL SINGLE POINT ENERGY      -292.044816553511

DIPOLE MOMENT
-------------
                                X             Y             Z
Electronic contribution:      0.89016      -8.19643      -2.56640
Nuclear contribution   :     -1.80992       8.85192       2.42184
                        -----------------------------------------
Total Dipole Moment    :     -0.91977       0.65549      -0.14455
                        -----------------------------------------
Magnitude (a.u.)       :      1.13866
Magnitude (Debye)      :      2.89423

Rotational constants in cm-1:     0.298360     0.128849     0.102271
Rotational constants in MHz :  8944.606599  3862.796179  3066.020510

                             ****ORCA TERMINATED NORMALLY****
TOTAL RUN TIME: 0 days 0 hours 0 minutes 11 seconds 925 msec
