                         Program Version 5.0.0 -  RELEASE  -
|  1> !M062X D3Zero RIJCOSX def2-SVP def2/J TightSCF
|  2> *xyz 0 1
|  3> C          0.81607       -2.10149       -2.18655
|  4> H          1.69623       -2.36869       -1.60046
|  5> C          1.10055       -2.46749       -3.59927
|  6> C          0.51624       -0.61363       -2.03937
|  7> H         -0.02007       -2.71285       -1.84084
|  8> H          1.70061       -1.75723       -4.07838
|  9> H          0.29386       -2.35977       -4.25632
| 10> H          1.50132       -3.42848       -3.69491
| 11> H         -0.34841       -0.36504       -2.61858
| 12> H          1.35358       -0.04503       -2.38643
| 13> H          0.33317       -0.38682       -1.00984
| 14> *
| 15> %MaxCore 64000
| 16>
| 17> %pal nprocs 4
| 18> end
| 19>
| 20> %scf
| 21>   MaxIter 150
| 22> end
| 23>
| 24>
| 25>                          ****END OF INPUT****

CARTESIAN COORDINATES (ANGSTROEM)
---------------------------------
  C      0.816070   -2.101490   -2.186550
  H      1.696230   -2.368690   -1.600460
  C      1.100550   -2.467490   -3.599270
  C      0.516240   -0.613630   -2.039370
  H     -0.020070   -2.712850   -1.840840
  H      1.700610   -1.757230   -4.078380
  H      0.293860   -2.359770   -4.256320
  H      1.501320   -3.428480   -3.694910
  H     -0.348410   -0.365040   -2.618580
  H      1.353580   -0.045030   -2.386430
  H      0.333170   -0.386820   -1.009840

 Total Charge           Charge          ....    0
 Multiplicity           Mult            ....    1
 Number of Electrons    NEL             ....   26
 Basis Dimension        Dim             ....   82

ORBITAL ENERGIES
----------------

  NO   OCC          E(Eh)            E(eV)
   0   2.0000     -10.536987      -286.7260
   1   2.0000     -10.529511      -286.5226
   2   2.0000     -10.517142      -286.1860
   3   2.0000      -0.878954       -23.9176
   4   2.0000      -0.770438       -20.9647
   5   2.0000      -0.664712       -18.0877
   6   2.0000      -0.528768       -14.3885
   7   2.0000      -0.513113       -13.9625
   8   2.0000      -0.476964       -12.9788
   9   2.0000      -0.438907       -11.9433
  10   2.0000      -0.400729       -10.9044
  11   2.0000      -0.395522       -10.7627
  12   2.0000      -0.379527       -10.3275
  13   0.0000       0.102797         2.7973
  14   0.0000       0.152201         4.1416
  15   0.0000       0.153961         4.1895
  16   0.0000       0.155446         4.2299
  17   0.0000       0.186453         5.0736

MULLIKEN ATOMIC CHARGES
-----------------------
   0 C :   -0.125359
   1 H :    0.033506
   2 C :   -0.019980
   3 C :   -0.059585
   4 H :    0.035588
   5 H :    0.002179
   6 H :    0.007268
   7 H :    0.028341
   8 H :    0.031624
   9 H :    0.032368
  10 H :    0.034051
Sum of atomic charges:   -0.0000000

LOEWDIN ATOMIC CHARGES
----------------------
   0 C :   -0.048815
   1 H :    0.022992
   2 C :   -0.062997
   3 C :   -0.057897
   4 H :    0.023052
   5 H :    0.018007
   6 H :    0.018704
   7 H :    0.020006
   8 H :    0.021868
   9 H :    0.021953
  10 H :    0.023127

  Mayer bond orders larger than 0.100000
B(  0-C ,  1-H ) :   0.9583 B(  0-C ,  2-C ) :   1.0942 B(  0-C ,  3-C ) :   1.0904
B(  0-C ,  4-H ) :   0.9573 B(  2-C ,  5-H ) :   0.9688 B(  2-C ,  6-H ) :   0.9668
B(  2-C ,  7-H ) :   0.9713 B(  3-C ,  8-H ) :   0.9781 B(  3-C ,  9-H ) :   0.9752
B(  3-C , 10-H ) :   0.9727

Dispersion correction           -0.000053119
FINAL SINGLE POINT ENERGY      -118.959251584443

DIPOLE MOMENT
-------------
                                X             Y             Z
Electronic contribution:     -0.01879      -0.29650       0.45939
Nuclear contribution   :      0.01737       0.30387      -0.47422
                        -----------------------------------------
Total Dipole Moment    :     -0.00142       0.00737      -0.01483
                        -----------------------------------------
Magnitude (a.u.)       :      0.01662
Magnitude (Debye)      :      0.04225

Rotational constants in cm-1:     1.006891     0.295208     0.258491
Rotational constants in MHz : 30185.831813  8850.104914  7749.351732

                             ****ORCA TERMINATED NORMALLY****
TOTAL RUN TIME: 0 days 0 hours 0 minutes 9 seconds 158 msec
