                         Program Version 5.0.0 -  RELEASE  -
|  1> !M062X D3Zero RIJCOSX def2-SVP def2/J TightSCF
|  2> *xyz 0 1
|  3> C         -0.10608        1.76991       -4.08984
|  4> C         -0.25875        1.00432       -5.40983
|  5> C          0.39596       -0.37070       -5.33994
|  6> H          0.23915        1.56939       -6.20125
|  7> H         -1.30936        0.88869       -5.68245
|  8> O         -0.32633       -1.39040       -5.49128
|  9> F          1.61941       -0.40073       -5.03683
| 10> H         -0.57627        2.72718       -4.17630
| 11> H          0.93321        1.90140       -3.87192
| 12> H         -0.56868        1.21534       -3.30031
| 13> *
| 14> %MaxCore 64000
| 15>
| 16> %pal nprocs 4
| 17> end
| 18>
| 19> %scf
| 20>   MaxIter 150
| 21> end
| 22>
| 23>
| 24>                          ****END OF INPUT****

CARTESIAN COORDINATES (ANGSTROEM)
---------------------------------
  C     -0.106080    1.769910   -4.089840
  C     -0.258750    1.004320   -5.409830
  C      0.395960   -0.370700   -5.339940
  H      0.239150    1.569390   -6.201250
  H     -1.309360    0.888690   -5.682450
  O     -0.326330   -1.390400   -5.491280
  F      1.619410   -0.400730   -5.036830
  H     -0.576270    2.727180   -4.176300
  H      0.933210    1.901400   -3.871920
  H     -0.568680    1.215340   -3.300310

 Total Charge           Charge          ....    0
 Multiplicity           Mult            ....    1
 Number of Electrons    NEL             ....   40
 Basis Dimension        Dim             ....   95

ORBITAL ENERGIES
----------------

  NO   OCC          E(Eh)            E(eV)
   0   2.0000     -25.312023      -688.7752
   1   2.0000     -19.634805      -534.2902
   2   2.0000     -10.726453      -291.8816
   3   2.0000     -10.579944      -287.8949
   4   2.0000     -10.561595      -287.3956
   5   2.0000      -1.432297       -38.9748
   6   2.0000      -1.131944       -30.8018
   7   2.0000      -0.894611       -24.3436
   8   2.0000      -0.771209       -20.9857
   9   2.0000      -0.725555       -19.7434
  10   2.0000      -0.636230       -17.3127
  11   2.0000      -0.625619       -17.0240
  12   2.0000      -0.576674       -15.6921
  13   2.0000      -0.535788       -14.5795
  14   2.0000      -0.505633       -13.7590
  15   2.0000      -0.468069       -12.7368
  16   2.0000      -0.450406       -12.2562
  17   2.0000      -0.440549       -11.9879
  18   2.0000      -0.410452       -11.1690
  19   2.0000      -0.359412        -9.7801
  20   0.0000       0.026917         0.7324
  21   0.0000       0.094207         2.5635
  22   0.0000       0.141534         3.8513
  23   0.0000       0.148558         4.0425
  24   0.0000       0.169593         4.6148

MULLIKEN ATOMIC CHARGES
-----------------------
   0 C :   -0.076787
   1 C :   -0.125723
   2 C :    0.291604
   3 H :    0.068183
   4 H :    0.076794
   5 O :   -0.283332
   6 F :   -0.115079
   7 H :    0.054630
   8 H :    0.052769
   9 H :    0.056940
Sum of atomic charges:    0.0000000

LOEWDIN ATOMIC CHARGES
----------------------
   0 C :   -0.049546
   1 C :   -0.074058
   2 C :    0.125739
   3 H :    0.043067
   4 H :    0.047762
   5 O :   -0.206029
   6 F :    0.021173
   7 H :    0.033068
   8 H :    0.027950
   9 H :    0.030874

  Mayer bond orders larger than 0.100000
B(  0-C ,  1-C ) :   1.0661 B(  0-C ,  7-H ) :   0.9712 B(  0-C ,  8-H ) :   0.9735
B(  0-C ,  9-H ) :   0.9769 B(  1-C ,  2-C ) :   1.0061 B(  1-C ,  3-H ) :   0.9323
B(  1-C ,  4-H ) :   0.9511 B(  2-C ,  5-O ) :   2.0741 B(  2-C ,  6-F ) :   1.1463

Dispersion correction           -0.000091821
FINAL SINGLE POINT ENERGY      -292.045973922127

DIPOLE MOMENT
-------------
                                X             Y             Z
Electronic contribution:      4.06508      -6.56377      -1.81498
Nuclear contribution   :     -3.93139       7.77287       1.92635
                        -----------------------------------------
Total Dipole Moment    :      0.13369       1.20910       0.11137
                        -----------------------------------------
Magnitude (a.u.)       :      1.22156
Magnitude (Debye)      :      3.10496

Rotational constants in cm-1:     0.286068     0.133630     0.103472
Rotational constants in MHz :  8576.109806  4006.118234  3102.010802

                             ****ORCA TERMINATED NORMALLY****
TOTAL RUN TIME: 0 days 0 hours 0 minutes 11 seconds 905 msec
