                         Program Version 5.0.0 -  RELEASE  -
|  1> !M062X D3Zero RIJCOSX def2-TZVP def2/J TightSCF xyzfile
|  2>
|  3> *xyzfile 0 1 D1.xyz
|  4>
|  5> %MaxCore 64000
|  6>
|  7> %pal nprocs 18
|  8> end
|  9>
| 10> %scf
| 11>   MaxIter 150
| 12> end
| 13>
| 14>
| 15>                          ****END OF INPUT****

CARTESIAN COORDINATES (ANGSTROEM)
---------------------------------
  C      0.816067   -2.101491   -2.186546
  H      1.696232   -2.368691   -1.600457
  C      1.100552   -2.467492   -3.599269
  C      0.516243   -0.613634   -2.039373
  H     -0.020066   -2.712849   -1.840844
  C     -0.868621   -0.193925   -2.546303
  C     -0.984801    1.284739   -2.928686
  H     -0.764939    1.904116   -2.051568
  H     -2.032613    1.478953   -3.178952
  C     -0.106085    1.769914   -4.089836
  H     -0.347744    2.822196   -4.262942
  H      0.949683    1.745875   -3.808781
  C     -0.258747    1.004323   -5.409829
  C      0.395958   -0.370696   -5.339939
  H      0.239150    1.569393   -6.201253
  H     -1.309360    0.888694   -5.682455
  H      1.700606   -1.757225   -4.078378
  H      0.293855   -2.359766   -4.256324
  H      1.501324   -3.428479   -3.694915
  F     -0.326329   -1.390398   -5.491279
  O      1.619412   -0.400726   -5.036827
  H     -1.607271   -0.412651   -1.768955
  H     -1.157234   -0.796164   -3.409254
  H      1.299044   -0.056805   -2.558982
  H      0.612393   -0.365579   -0.979171

 Total Charge           Charge          ....    0
 Multiplicity           Mult            ....    1
 Number of Electrons    NEL             ....   80
 Basis Dimension        Dim             ....  400

ORBITAL ENERGIES
----------------

  NO   OCC          E(Eh)            E(eV)
   0   2.0000     -25.322386      -689.0571
   1   2.0000     -19.639988      -534.4313
   2   2.0000     -10.728969      -291.9501
   3   2.0000     -10.570356      -287.6340
   4   2.0000     -10.549849      -287.0760
   5   2.0000     -10.537911      -286.7511
   6   2.0000     -10.530420      -286.5473
   7   2.0000     -10.516483      -286.1681
   8   2.0000     -10.506677      -285.9012
   9   2.0000     -10.457342      -284.5587
  10   2.0000      -1.476420       -40.1754
  11   2.0000      -1.168801       -31.8047
  12   2.0000      -0.927037       -25.2260
  13   2.0000      -0.893420       -24.3112
  14   2.0000      -0.842540       -22.9267
  15   2.0000      -0.803454       -21.8631
  16   2.0000      -0.761900       -20.7324
  17   2.0000      -0.727008       -19.7829
  18   2.0000      -0.689086       -18.7510
  19   2.0000      -0.654234       -17.8026
  20   2.0000      -0.638016       -17.3613
  21   2.0000      -0.634395       -17.2628
  22   2.0000      -0.609517       -16.5858
  23   2.0000      -0.551965       -15.0197
  24   2.0000      -0.532400       -14.4873
  25   2.0000      -0.512660       -13.9502
  26   2.0000      -0.508326       -13.8323
  27   2.0000      -0.495260       -13.4767
  28   2.0000      -0.482478       -13.1289
  29   2.0000      -0.468325       -12.7438
  30   2.0000      -0.451524       -12.2866
  31   2.0000      -0.431748       -11.7485
  32   2.0000      -0.428599       -11.6628
  33   2.0000      -0.412543       -11.2259
  34   2.0000      -0.397904       -10.8275
  35   2.0000      -0.390482       -10.6256
  36   2.0000      -0.379640       -10.3305
  37   2.0000      -0.365928        -9.9574
  38   2.0000      -0.357229        -9.7207
  39   2.0000      -0.330923        -9.0049
  40   0.0000       0.001132         0.0308
  41   0.0000       0.059616         1.6222
  42   0.0000       0.086336         2.3493
  43   0.0000       0.091994         2.5033
  44   0.0000       0.093780         2.5519

MULLIKEN ATOMIC CHARGES
-----------------------
   0 C :   -0.199454
   1 H :    0.121638
   2 C :   -0.544195
   3 C :   -0.312951
   4 H :    0.122478
   5 C :   -0.318660
   6 C :   -0.293807
   7 H :    0.151121
   8 H :    0.149685
   9 C :   -0.297069
  10 H :    0.150974
  11 H :    0.183583
  12 C :   -0.295136
  13 C :    0.394170
  14 H :    0.174477
  15 H :    0.163233
  16 H :    0.211083
  17 H :    0.150529
  18 H :    0.129046
  19 F :   -0.110932
  20 O :   -0.350278
  21 H :    0.149142
  22 H :    0.159832
  23 H :    0.176057
  24 H :    0.135435
Sum of atomic charges:    0.0000000

LOEWDIN ATOMIC CHARGES
----------------------
   0 C :   -0.305541
   1 H :    0.135741
   2 C :   -0.337789
   3 C :   -0.271213
   4 H :    0.132964
   5 C :   -0.269972
   6 C :   -0.271881
   7 H :    0.142677
   8 H :    0.138546
   9 C :   -0.260260
  10 H :    0.143088
  11 H :    0.146400
  12 C :   -0.229687
  13 C :   -0.482569
  14 H :    0.161361
  15 H :    0.145893
  16 H :    0.117890
  17 H :    0.107247
  18 H :    0.106215
  19 F :    0.321050
  20 O :    0.075806
  21 H :    0.140909
  22 H :    0.137891
  23 H :    0.140135
  24 H :    0.135100

  Mayer bond orders larger than 0.100000
B(  0-C ,  1-H ) :   0.9834 B(  0-C ,  2-C ) :   0.8952 B(  0-C ,  3-C ) :   0.9256
B(  0-C ,  4-H ) :   0.9874 B(  2-C , 16-H ) :   0.9438 B(  2-C , 17-H ) :   0.9840
B(  2-C , 18-H ) :   0.9837 B(  3-C ,  5-C ) :   0.8535 B(  3-C , 23-H ) :   0.9995
B(  3-C , 24-H ) :   0.9739 B(  5-C ,  6-C ) :   0.9270 B(  5-C , 21-H ) :   0.9744
B(  5-C , 22-H ) :   0.9890 B(  6-C ,  7-H ) :   0.9794 B(  6-C ,  8-H ) :   0.9885
B(  6-C ,  9-C ) :   0.9217 B(  9-C , 10-H ) :   0.9796 B(  9-C , 11-H ) :   0.9743
B(  9-C , 12-C ) :   0.8878 B( 12-C , 13-C ) :   0.9780 B( 12-C , 14-H ) :   0.9576
B( 12-C , 15-H ) :   0.9652 B( 13-C , 19-F ) :   1.1067 B( 13-C , 20-O ) :   1.9562

Dispersion correction           -0.001010852
FINAL SINGLE POINT ENERGY      -488.875407638442

DIPOLE MOMENT
-------------
                                X             Y             Z
Electronic contribution:      0.33705      -1.96336     -10.56036
Nuclear contribution   :     -1.21560       2.80077      10.24180
                        -----------------------------------------
Total Dipole Moment    :     -0.87856       0.83741      -0.31855
                        -----------------------------------------
Magnitude (a.u.)       :      1.25483
Magnitude (Debye)      :      3.18953

Rotational constants in cm-1:     0.051255     0.042531     0.028894
Rotational constants in MHz :  1536.587743  1275.050721   866.218876

                             ****ORCA TERMINATED NORMALLY****
TOTAL RUN TIME: 0 days 0 hours 0 minutes 29 seconds 438 msec
