                         Program Version 5.0.0 -  RELEASE  -
|  1> !CAM-B3LYP RIJCOSX def2-SVPD def2/J TightSCF
|  2> *xyz -1 1
|  3> C         -7.33044       -2.67899       -3.20681
|  4> S         -6.01966       -2.92697       -4.41913
|  5> O         -5.64583       -1.58838       -4.91931
|  6> O         -4.88196       -3.50370       -3.66724
|  7> O         -6.54927       -3.80515       -5.42507
|  8> C         -7.46900       -1.24615       -2.71383
|  9> H         -7.11825       -3.37982       -2.39805
| 10> H         -8.24184       -3.00474       -3.70651
| 11> H         -7.67580       -0.60214       -3.54292
| 12> H         -6.55749       -0.94096       -2.24382
| 13> H         -8.27114       -1.18777       -2.00810
| 14> *
| 15> %MaxCore 64000
| 16>
| 17> %pal nprocs 4
| 18> end
| 19>
| 20> %scf
| 21>   MaxIter 150
| 22> end
| 23>
| 24>
| 25>                          ****END OF INPUT****

CARTESIAN COORDINATES (ANGSTROEM)
---------------------------------
  C     -7.330440   -2.678990   -3.206810
  S     -6.019660   -2.926970   -4.419130
  O     -5.645830   -1.588380   -4.919310
  O     -4.881960   -3.503700   -3.667240
  O     -6.549270   -3.805150   -5.425070
  C     -7.469000   -1.246150   -2.713830
  H     -7.118250   -3.379820   -2.398050
  H     -8.241840   -3.004740   -3.706510
  H     -7.675800   -0.602140   -3.542920
  H     -6.557490   -0.940960   -2.243820
  H     -8.271140   -1.187770   -2.008100

 Total Charge           Charge          ....   -1
 Multiplicity           Mult            ....    1
 Number of Electrons    NEL             ....   58
 Basis Dimension        Dim             ....  176

ORBITAL ENERGIES
----------------

  NO   OCC          E(Eh)            E(eV)
   0   2.0000     -88.962259     -2420.7861
   1   2.0000     -18.998670      -516.9801
   2   2.0000     -18.987536      -516.6771
   3   2.0000     -18.984218      -516.5868
   4   2.0000     -10.126909      -275.5672
   5   2.0000     -10.119770      -275.3729
   6   2.0000      -8.015517      -218.1133
   7   2.0000      -5.985443      -162.8722
   8   2.0000      -5.985359      -162.8699
   9   2.0000      -5.984833      -162.8556
  10   2.0000      -1.013438       -27.5770
  11   2.0000      -0.869259       -23.6538
  12   2.0000      -0.845905       -23.0182
  13   2.0000      -0.717190       -19.5157
  14   2.0000      -0.588073       -16.0023
  15   2.0000      -0.459155       -12.4942
  16   2.0000      -0.396590       -10.7918
  17   2.0000      -0.390997       -10.6396
  18   2.0000      -0.350883        -9.5480
  19   2.0000      -0.332649        -9.0518
  20   2.0000      -0.329819        -8.9748
  21   2.0000      -0.300611        -8.1800
  22   2.0000      -0.290805        -7.9132
  23   2.0000      -0.219228        -5.9655
  24   2.0000      -0.218243        -5.9387
  25   2.0000      -0.181406        -4.9363
  26   2.0000      -0.174310        -4.7432
  27   2.0000      -0.166827        -4.5396
  28   2.0000      -0.129952        -3.5362
  29   0.0000       0.166814         4.5392
  30   0.0000       0.193965         5.2781
  31   0.0000       0.200846         5.4653
  32   0.0000       0.208006         5.6601
  33   0.0000       0.228072         6.2061

MULLIKEN ATOMIC CHARGES
-----------------------
   0 C :   -0.217625
   1 S :    1.312597
   2 O :   -0.838936
   3 O :   -0.830496
   4 O :   -0.778378
   5 C :    0.972807
   6 H :   -0.107017
   7 H :   -0.088749
   8 H :   -0.079952
   9 H :   -0.108088
  10 H :   -0.236163
Sum of atomic charges:   -1.0000000

LOEWDIN ATOMIC CHARGES
----------------------
   0 C :   -0.122352
   1 S :    0.871740
   2 O :   -0.591351
   3 O :   -0.605393
   4 O :   -0.579885
   5 C :    0.096623
   6 H :    0.002252
   7 H :   -0.004162
   8 H :   -0.021105
   9 H :   -0.012164
  10 H :   -0.034203

  Mayer bond orders larger than 0.100000
B(  0-C ,  1-S ) :   0.8844 B(  0-C ,  5-C ) :   1.2519 B(  0-C ,  6-H ) :   0.9609
B(  0-C ,  7-H ) :   0.9660 B(  0-C ,  8-H ) :   0.2178 B(  0-C ,  9-H ) :   0.2072
B(  0-C , 10-H ) :   0.2345 B(  1-S ,  2-O ) :   1.2808 B(  1-S ,  3-O ) :   1.2780
B(  1-S ,  4-O ) :   1.3445 B(  5-C ,  8-H ) :   0.7669 B(  5-C ,  9-H ) :   0.7674
B(  5-C , 10-H ) :   0.7254

FINAL SINGLE POINT ENERGY      -702.668546363842

DIPOLE MOMENT
-------------
                                X             Y             Z
Electronic contribution:      4.58813      -3.48361      -5.01995
Nuclear contribution   :     -6.18165       4.01759       6.33106
                        -----------------------------------------
Total Dipole Moment    :     -1.59352       0.53399       1.31111
                        -----------------------------------------
Magnitude (a.u.)       :      2.13154
Magnitude (Debye)      :      5.41795

Rotational constants in cm-1:     0.161711     0.082788     0.081165
Rotational constants in MHz :  4847.971521  2481.906910  2433.276832

                             ****ORCA TERMINATED NORMALLY****
TOTAL RUN TIME: 0 days 0 hours 0 minutes 33 seconds 4 msec
