                         Program Version 5.0.0 -  RELEASE  -
|  1> !CAM-B3LYP RIJCOSX def2-SVPD def2/J TightSCF
|  2> *xyz 1 1
|  3> C         -2.16038       -1.36949       -3.46710
|  4> N         -3.03011       -1.91086       -4.54107
|  5> C         -2.04772        0.14658       -3.51177
|  6> H         -3.47744       -2.79151       -4.25710
|  7> H         -2.53801       -2.01786       -5.43808
|  8> H         -3.89159       -1.37604       -4.71437
|  9> H         -1.18444       -1.84400       -3.56639
| 10> H         -2.59819       -1.70838       -2.52848
| 11> H         -1.61525        0.44478       -4.44395
| 12> H         -1.42718        0.48198       -2.70720
| 13> H         -3.02145        0.57958       -3.41560
| 14> *
| 15> %MaxCore 64000
| 16>
| 17> %pal nprocs 4
| 18> end
| 19>
| 20> %scf
| 21>   MaxIter 150
| 22> end
| 23>
| 24>
| 25>                          ****END OF INPUT****

CARTESIAN COORDINATES (ANGSTROEM)
---------------------------------
  C     -2.160380   -1.369490   -3.467100
  N     -3.030110   -1.910860   -4.541070
  C     -2.047720    0.146580   -3.511770
  H     -3.477440   -2.791510   -4.257100
  H     -2.538010   -2.017860   -5.438080
  H     -3.891590   -1.376040   -4.714370
  H     -1.184440   -1.844000   -3.566390
  H     -2.598190   -1.708380   -2.528480
  H     -1.615250    0.444780   -4.443950
  H     -1.427180    0.481980   -2.707200
  H     -3.021450    0.579580   -3.415600

 Total Charge           Charge          ....    1
 Multiplicity           Mult            ....    1
 Number of Electrons    NEL             ....   26
 Basis Dimension        Dim             ....  124

ORBITAL ENERGIES
----------------

  NO   OCC          E(Eh)            E(eV)
   0   2.0000     -14.741996      -401.1501
   1   2.0000     -10.514010      -286.1008
   2   2.0000     -10.433654      -283.9142
   3   2.0000      -1.293029       -35.1851
   4   2.0000      -1.044422       -28.4202
   5   2.0000      -0.921844       -25.0846
   6   2.0000      -0.883860       -24.0511
   7   2.0000      -0.843117       -22.9424
   8   2.0000      -0.771524       -20.9942
   9   2.0000      -0.713789       -19.4232
  10   2.0000      -0.650371       -17.6975
  11   2.0000      -0.635373       -17.2894
  12   2.0000      -0.616746       -16.7825
  13   0.0000      -0.160086        -4.3562
  14   0.0000      -0.099638        -2.7113
  15   0.0000      -0.097905        -2.6641
  16   0.0000      -0.088599        -2.4109
  17   0.0000      -0.058431        -1.5900

MULLIKEN ATOMIC CHARGES
-----------------------
   0 C :    0.374043
   1 N :   -0.775549
   2 C :    0.802104
   3 H :    0.345440
   4 H :    0.390496
   5 H :    0.357530
   6 H :   -0.152612
   7 H :   -0.118541
   8 H :   -0.047431
   9 H :   -0.074078
  10 H :   -0.101402
Sum of atomic charges:    1.0000000

LOEWDIN ATOMIC CHARGES
----------------------
   0 C :    0.053585
   1 N :    0.323689
   2 C :    0.172811
   3 H :    0.106694
   4 H :    0.114444
   5 H :    0.106189
   6 H :    0.054563
   7 H :    0.052211
   8 H :    0.001587
   9 H :    0.014919
  10 H :   -0.000692

  Mayer bond orders larger than 0.100000
B(  0-C ,  1-N ) :   0.7214 B(  0-C ,  2-C ) :   1.3100 B(  0-C ,  6-H ) :   0.8909
B(  0-C ,  7-H ) :   0.8893 B(  0-C ,  8-H ) :   0.1678 B(  0-C ,  9-H ) :   0.1970
B(  0-C , 10-H ) :   0.1847 B(  1-N ,  3-H ) :   0.7862 B(  1-N ,  4-H ) :   0.7293
B(  1-N ,  5-H ) :   0.7795 B(  1-N ,  6-H ) :   0.1284 B(  2-C ,  8-H ) :   0.7826
B(  2-C ,  9-H ) :   0.7960 B(  2-C , 10-H ) :   0.8093

FINAL SINGLE POINT ENERGY      -135.359263498469

DIPOLE MOMENT
-------------
                                X             Y             Z
Electronic contribution:     -0.65325      -1.49838      -0.77809
Nuclear contribution   :     -0.15215       0.37393      -0.04773
                        -----------------------------------------
Total Dipole Moment    :     -0.80540      -1.12445      -0.82582
                        -----------------------------------------
Magnitude (a.u.)       :      1.61091
Magnitude (Debye)      :      4.09461

Rotational constants in cm-1:     1.020762     0.277172     0.247319
Rotational constants in MHz : 30601.664035  8309.399682  7414.438136

                             ****ORCA TERMINATED NORMALLY****
TOTAL RUN TIME: 0 days 0 hours 0 minutes 16 seconds 38 msec
