                         Program Version 5.0.0 -  RELEASE  -
|  1> !CAM-B3LYP RIJCOSX def2-SVPD def2/J TightSCF
|  2> *xyz 0 1
|  3> C         -7.33044       -2.67899       -3.20681
|  4> S         -6.01966       -2.92697       -4.41913
|  5> F         -5.64583       -1.58838       -4.91931
|  6> O         -4.88196       -3.50370       -3.66724
|  7> O         -6.54927       -3.80515       -5.42507
|  8> C         -7.46900       -1.24615       -2.71383
|  9> H         -7.11825       -3.37982       -2.39805
| 10> H         -8.24184       -3.00474       -3.70651
| 11> H         -7.67580       -0.60214       -3.54292
| 12> H         -6.55749       -0.94096       -2.24382
| 13> H         -8.27114       -1.18777       -2.00810
| 14> *
| 15> %MaxCore 64000
| 16>
| 17> %pal nprocs 4
| 18> end
| 19>
| 20> %scf
| 21>   MaxIter 150
| 22> end
| 23>
| 24>
| 25>                          ****END OF INPUT****

CARTESIAN COORDINATES (ANGSTROEM)
---------------------------------
  C     -7.330440   -2.678990   -3.206810
  S     -6.019660   -2.926970   -4.419130
  F     -5.645830   -1.588380   -4.919310
  O     -4.881960   -3.503700   -3.667240
  O     -6.549270   -3.805150   -5.425070
  C     -7.469000   -1.246150   -2.713830
  H     -7.118250   -3.379820   -2.398050
  H     -8.241840   -3.004740   -3.706510
  H     -7.675800   -0.602140   -3.542920
  H     -6.557490   -0.940960   -2.243820
  H     -8.271140   -1.187770   -2.008100

 Total Charge           Charge          ....    0
 Multiplicity           Mult            ....    1
 Number of Electrons    NEL             ....   58
 Basis Dimension        Dim             ....  176

ORBITAL ENERGIES
----------------

  NO   OCC          E(Eh)            E(eV)
   0   2.0000     -89.220371     -2427.8097
   1   2.0000     -24.880454      -677.0316
   2   2.0000     -19.233454      -523.3689
   3   2.0000     -19.218347      -522.9578
   4   2.0000     -10.328960      -281.0653
   5   2.0000     -10.291158      -280.0367
   6   2.0000      -8.274450      -225.1592
   7   2.0000      -6.248530      -170.0312
   8   2.0000      -6.242126      -169.8569
   9   2.0000      -6.240733      -169.8190
  10   2.0000      -1.435774       -39.0694
  11   2.0000      -1.197565       -32.5874
  12   2.0000      -1.091229       -29.6939
  13   2.0000      -0.914089       -24.8736
  14   2.0000      -0.806485       -21.9456
  15   2.0000      -0.758727       -20.6460
  16   2.0000      -0.669461       -18.2170
  17   2.0000      -0.649628       -17.6773
  18   2.0000      -0.620606       -16.8875
  19   2.0000      -0.576841       -15.6967
  20   2.0000      -0.551596       -15.0097
  21   2.0000      -0.526202       -14.3187
  22   2.0000      -0.518811       -14.1176
  23   2.0000      -0.488746       -13.2994
  24   2.0000      -0.470637       -12.8067
  25   2.0000      -0.459108       -12.4930
  26   2.0000      -0.406317       -11.0565
  27   2.0000      -0.393205       -10.6996
  28   2.0000      -0.380721       -10.3600
  29   0.0000       0.019529         0.5314
  30   0.0000       0.057177         1.5559
  31   0.0000       0.059757         1.6261
  32   0.0000       0.064514         1.7555
  33   0.0000       0.080289         2.1848

MULLIKEN ATOMIC CHARGES
-----------------------
   0 C :   -0.208304
   1 S :    1.445627
   2 F :   -0.430844
   3 O :   -0.687569
   4 O :   -0.634958
   5 C :    0.970677
   6 H :   -0.058139
   7 H :   -0.039131
   8 H :   -0.077146
   9 H :   -0.094291
  10 H :   -0.185923
Sum of atomic charges:    0.0000000

LOEWDIN ATOMIC CHARGES
----------------------
   0 C :   -0.073911
   1 S :    1.130213
   2 F :   -0.271667
   3 O :   -0.488843
   4 O :   -0.464470
   5 C :    0.127490
   6 H :    0.032752
   7 H :    0.021496
   8 H :   -0.008554
   9 H :   -0.000639
  10 H :   -0.003867

  Mayer bond orders larger than 0.100000
B(  0-C ,  1-S ) :   0.9538 B(  0-C ,  5-C ) :   1.2670 B(  0-C ,  6-H ) :   0.9563
B(  0-C ,  7-H ) :   0.9677 B(  0-C ,  8-H ) :   0.1988 B(  0-C ,  9-H ) :   0.1885
B(  0-C , 10-H ) :   0.2296 B(  1-S ,  2-F ) :   0.6581 B(  1-S ,  3-O ) :   1.4968
B(  1-S ,  4-O ) :   1.5597 B(  5-C ,  8-H ) :   0.7712 B(  5-C ,  9-H ) :   0.7761
B(  5-C , 10-H ) :   0.7369

FINAL SINGLE POINT ENERGY      -727.166440168749

DIPOLE MOMENT
-------------
                                X             Y             Z
Electronic contribution:      5.57446      -1.68412      -6.32400
Nuclear contribution   :     -6.81251       2.87933       7.15058
                        -----------------------------------------
Total Dipole Moment    :     -1.23805       1.19521       0.82658
                        -----------------------------------------
Magnitude (a.u.)       :      1.90907
Magnitude (Debye)      :      4.85247

Rotational constants in cm-1:     0.152543     0.082494     0.078987
Rotational constants in MHz :  4573.135887  2473.116216  2367.980829

                             ****ORCA TERMINATED NORMALLY****
TOTAL RUN TIME: 0 days 0 hours 0 minutes 32 seconds 877 msec
