                         Program Version 5.0.0 -  RELEASE  -
|  1> !CAM-B3LYP RIJCOSX def2-SVPD def2/J TightSCF
|  2> *xyz 0 1
|  3> C         -2.16038       -1.36949       -3.46710
|  4> C         -3.03011       -1.91086       -4.54107
|  5> C         -2.04772        0.14658       -3.51177
|  6> H         -3.47744       -2.79151       -4.25710
|  7> H         -2.53801       -2.01786       -5.43808
|  8> H         -3.89159       -1.37604       -4.71437
|  9> H         -1.18444       -1.84400       -3.56639
| 10> H         -2.59819       -1.70838       -2.52848
| 11> H         -1.61525        0.44478       -4.44395
| 12> H         -1.42718        0.48198       -2.70720
| 13> H         -3.02145        0.57958       -3.41560
| 14> *
| 15> %MaxCore 64000
| 16>
| 17> %pal nprocs 4
| 18> end
| 19>
| 20> %scf
| 21>   MaxIter 150
| 22> end
| 23>
| 24>
| 25>                          ****END OF INPUT****

CARTESIAN COORDINATES (ANGSTROEM)
---------------------------------
  C     -2.160380   -1.369490   -3.467100
  C     -3.030110   -1.910860   -4.541070
  C     -2.047720    0.146580   -3.511770
  H     -3.477440   -2.791510   -4.257100
  H     -2.538010   -2.017860   -5.438080
  H     -3.891590   -1.376040   -4.714370
  H     -1.184440   -1.844000   -3.566390
  H     -2.598190   -1.708380   -2.528480
  H     -1.615250    0.444780   -4.443950
  H     -1.427180    0.481980   -2.707200
  H     -3.021450    0.579580   -3.415600

 Total Charge           Charge          ....    0
 Multiplicity           Mult            ....    1
 Number of Electrons    NEL             ....   26
 Basis Dimension        Dim             ....  124

ORBITAL ENERGIES
----------------

  NO   OCC          E(Eh)            E(eV)
   0   2.0000     -10.245506      -278.7944
   1   2.0000     -10.237138      -278.5667
   2   2.0000     -10.220092      -278.1028
   3   2.0000      -0.868364       -23.6294
   4   2.0000      -0.766449       -20.8561
   5   2.0000      -0.660746       -17.9798
   6   2.0000      -0.541715       -14.7408
   7   2.0000      -0.510391       -13.8884
   8   2.0000      -0.470597       -12.8056
   9   2.0000      -0.461850       -12.5676
  10   2.0000      -0.405901       -11.0451
  11   2.0000      -0.393498       -10.7076
  12   2.0000      -0.392252       -10.6737
  13   0.0000       0.056099         1.5265
  14   0.0000       0.083360         2.2683
  15   0.0000       0.090601         2.4654
  16   0.0000       0.117425         3.1953
  17   0.0000       0.138470         3.7680

MULLIKEN ATOMIC CHARGES
-----------------------
   0 C :   -0.386850
   1 C :    1.092425
   2 C :    0.829628
   3 H :   -0.265374
   4 H :   -0.260943
   5 H :   -0.315068
   6 H :   -0.188952
   7 H :   -0.131815
   8 H :   -0.123704
   9 H :   -0.152617
  10 H :   -0.096730
Sum of atomic charges:   -0.0000000

LOEWDIN ATOMIC CHARGES
----------------------
   0 C :   -0.113210
   1 C :    0.109365
   2 C :    0.116978
   3 H :   -0.036571
   4 H :   -0.027031
   5 H :   -0.035081
   6 H :    0.021376
   7 H :    0.019764
   8 H :   -0.015810
   9 H :   -0.022473
  10 H :   -0.017306

  Mayer bond orders larger than 0.100000
B(  0-C ,  1-C ) :   1.2917 B(  0-C ,  2-C ) :   1.2507 B(  0-C ,  3-H ) :   0.2284
B(  0-C ,  4-H ) :   0.2437 B(  0-C ,  5-H ) :   0.1973 B(  0-C ,  6-H ) :   0.9166
B(  0-C ,  7-H ) :   0.8899 B(  0-C ,  8-H ) :   0.1985 B(  0-C ,  9-H ) :   0.2117
B(  0-C , 10-H ) :   0.1677 B(  1-C ,  3-H ) :   0.5913 B(  1-C ,  4-H ) :   0.6479
B(  1-C ,  5-H ) :   0.6002 B(  1-C ,  6-H ) :   0.1229 B(  1-C ,  7-H ) :   0.1180
B(  2-C ,  8-H ) :   0.7904 B(  2-C ,  9-H ) :   0.7769 B(  2-C , 10-H ) :   0.8080
B(  3-H ,  5-H ) :   0.2282 B(  4-H ,  5-H ) :   0.1270

FINAL SINGLE POINT ENERGY      -118.961201353415

DIPOLE MOMENT
-------------
                                X             Y             Z
Electronic contribution:      0.31644      -0.13169       0.27515
Nuclear contribution   :     -0.34625       0.09603      -0.26933
                        -----------------------------------------
Total Dipole Moment    :     -0.02980      -0.03566       0.00582
                        -----------------------------------------
Magnitude (a.u.)       :      0.04683
Magnitude (Debye)      :      0.11904

Rotational constants in cm-1:     1.028617     0.291238     0.258956
Rotational constants in MHz : 30837.159054  8731.095379  7763.318586

                             ****ORCA TERMINATED NORMALLY****
TOTAL RUN TIME: 0 days 0 hours 0 minutes 15 seconds 434 msec
