                         Program Version 5.0.0 -  RELEASE  -
|  1> !CAM-B3LYP RIJCOSX def2-SVPD def2/J TightSCF
|  2> *xyz 0 1
|  3> C         -7.33044       -2.67899       -3.20681
|  4> S         -6.01966       -2.92697       -4.41913
|  5> O         -5.64583       -1.58838       -4.91931
|  6> F         -4.88196       -3.50370       -3.66724
|  7> O         -6.54927       -3.80515       -5.42507
|  8> C         -7.46900       -1.24615       -2.71383
|  9> H         -7.11825       -3.37982       -2.39805
| 10> H         -8.24184       -3.00474       -3.70651
| 11> H         -7.67580       -0.60214       -3.54292
| 12> H         -6.55749       -0.94096       -2.24382
| 13> H         -8.27114       -1.18777       -2.00810
| 14> *
| 15> %MaxCore 64000
| 16>
| 17> %pal nprocs 4
| 18> end
| 19>
| 20> %scf
| 21>   MaxIter 150
| 22> end
| 23>
| 24>
| 25>                          ****END OF INPUT****

CARTESIAN COORDINATES (ANGSTROEM)
---------------------------------
  C     -7.330440   -2.678990   -3.206810
  S     -6.019660   -2.926970   -4.419130
  O     -5.645830   -1.588380   -4.919310
  F     -4.881960   -3.503700   -3.667240
  O     -6.549270   -3.805150   -5.425070
  C     -7.469000   -1.246150   -2.713830
  H     -7.118250   -3.379820   -2.398050
  H     -8.241840   -3.004740   -3.706510
  H     -7.675800   -0.602140   -3.542920
  H     -6.557490   -0.940960   -2.243820
  H     -8.271140   -1.187770   -2.008100

 Total Charge           Charge          ....    0
 Multiplicity           Mult            ....    1
 Number of Electrons    NEL             ....   58
 Basis Dimension        Dim             ....  176

ORBITAL ENERGIES
----------------

  NO   OCC          E(Eh)            E(eV)
   0   2.0000     -89.220460     -2427.8121
   1   2.0000     -24.877604      -676.9540
   2   2.0000     -19.233426      -523.3681
   3   2.0000     -19.221592      -523.0461
   4   2.0000     -10.329256      -281.0733
   5   2.0000     -10.282067      -279.7893
   6   2.0000      -8.274526      -225.1613
   7   2.0000      -6.248513      -170.0307
   8   2.0000      -6.242210      -169.8592
   9   2.0000      -6.240912      -169.8238
  10   2.0000      -1.432114       -38.9698
  11   2.0000      -1.198488       -32.6125
  12   2.0000      -1.094643       -29.7867
  13   2.0000      -0.909694       -24.7540
  14   2.0000      -0.807608       -21.9761
  15   2.0000      -0.751723       -20.4554
  16   2.0000      -0.659232       -17.9386
  17   2.0000      -0.645795       -17.5730
  18   2.0000      -0.629451       -17.1282
  19   2.0000      -0.571232       -15.5440
  20   2.0000      -0.559287       -15.2190
  21   2.0000      -0.530565       -14.4374
  22   2.0000      -0.503757       -13.7079
  23   2.0000      -0.476950       -12.9785
  24   2.0000      -0.470639       -12.8067
  25   2.0000      -0.456415       -12.4197
  26   2.0000      -0.405737       -11.0407
  27   2.0000      -0.399167       -10.8619
  28   2.0000      -0.383643       -10.4395
  29   0.0000       0.024086         0.6554
  30   0.0000       0.050116         1.3637
  31   0.0000       0.061558         1.6751
  32   0.0000       0.062912         1.7119
  33   0.0000       0.078705         2.1417

MULLIKEN ATOMIC CHARGES
-----------------------
   0 C :   -0.238771
   1 S :    1.464899
   2 O :   -0.701710
   3 F :   -0.418921
   4 O :   -0.641625
   5 C :    0.996751
   6 H :   -0.063604
   7 H :   -0.043885
   8 H :   -0.055210
   9 H :   -0.102865
  10 H :   -0.195058
Sum of atomic charges:   -0.0000000

LOEWDIN ATOMIC CHARGES
----------------------
   0 C :   -0.079835
   1 S :    1.133461
   2 O :   -0.479401
   3 F :   -0.276523
   4 O :   -0.465227
   5 C :    0.131618
   6 H :    0.020175
   7 H :    0.025783
   8 H :   -0.003437
   9 H :   -0.001658
  10 H :   -0.004956

  Mayer bond orders larger than 0.100000
B(  0-C ,  1-S ) :   0.9422 B(  0-C ,  5-C ) :   1.2946 B(  0-C ,  6-H ) :   0.9352
B(  0-C ,  7-H ) :   0.9696 B(  0-C ,  8-H ) :   0.2116 B(  0-C ,  9-H ) :   0.2032
B(  0-C , 10-H ) :   0.2298 B(  1-S ,  2-O ) :   1.5003 B(  1-S ,  3-F ) :   0.6481
B(  1-S ,  4-O ) :   1.5602 B(  5-C ,  8-H ) :   0.7724 B(  5-C ,  9-H ) :   0.7638
B(  5-C , 10-H ) :   0.7299

FINAL SINGLE POINT ENERGY      -727.169495308058

DIPOLE MOMENT
-------------
                                X             Y             Z
Electronic contribution:      6.92147      -4.96361      -4.20443
Nuclear contribution   :     -7.60849       4.87515       5.84588
                        -----------------------------------------
Total Dipole Moment    :     -0.68702      -0.08845       1.64145
                        -----------------------------------------
Magnitude (a.u.)       :      1.78163
Magnitude (Debye)      :      4.52853

Rotational constants in cm-1:     0.153704     0.080342     0.079431
Rotational constants in MHz :  4607.928650  2408.599360  2381.267225

                             ****ORCA TERMINATED NORMALLY****
TOTAL RUN TIME: 0 days 0 hours 0 minutes 32 seconds 944 msec
