                         Program Version 5.0.0 -  RELEASE  -
|  1> !CAM-B3LYP RIJCOSX def2-SVPD def2/J TightSCF
|  2> *xyz 0 1
|  3> C         -7.33044       -2.67899       -3.20681
|  4> S         -6.01966       -2.92697       -4.41913
|  5> O         -5.64583       -1.58838       -4.91931
|  6> O         -4.88196       -3.50370       -3.66724
|  7> F         -6.54927       -3.80515       -5.42507
|  8> C         -7.46900       -1.24615       -2.71383
|  9> H         -7.11825       -3.37982       -2.39805
| 10> H         -8.24184       -3.00474       -3.70651
| 11> H         -7.67580       -0.60214       -3.54292
| 12> H         -6.55749       -0.94096       -2.24382
| 13> H         -8.27114       -1.18777       -2.00810
| 14> *
| 15> %MaxCore 64000
| 16>
| 17> %pal nprocs 4
| 18> end
| 19>
| 20> %scf
| 21>   MaxIter 150
| 22> end
| 23>
| 24>
| 25>                          ****END OF INPUT****

CARTESIAN COORDINATES (ANGSTROEM)
---------------------------------
  C     -7.330440   -2.678990   -3.206810
  S     -6.019660   -2.926970   -4.419130
  O     -5.645830   -1.588380   -4.919310
  O     -4.881960   -3.503700   -3.667240
  F     -6.549270   -3.805150   -5.425070
  C     -7.469000   -1.246150   -2.713830
  H     -7.118250   -3.379820   -2.398050
  H     -8.241840   -3.004740   -3.706510
  H     -7.675800   -0.602140   -3.542920
  H     -6.557490   -0.940960   -2.243820
  H     -8.271140   -1.187770   -2.008100

 Total Charge           Charge          ....    0
 Multiplicity           Mult            ....    1
 Number of Electrons    NEL             ....   58
 Basis Dimension        Dim             ....  176

ORBITAL ENERGIES
----------------

  NO   OCC          E(Eh)            E(eV)
   0   2.0000     -89.222444     -2427.8661
   1   2.0000     -24.899489      -677.5495
   2   2.0000     -19.222019      -523.0577
   3   2.0000     -19.219005      -522.9757
   4   2.0000     -10.330116      -281.0967
   5   2.0000     -10.282177      -279.7923
   6   2.0000      -8.276643      -225.2189
   7   2.0000      -6.250819      -170.0934
   8   2.0000      -6.244118      -169.9111
   9   2.0000      -6.242800      -169.8752
  10   2.0000      -1.469673       -39.9918
  11   2.0000      -1.182863       -32.1873
  12   2.0000      -1.077042       -29.3078
  13   2.0000      -0.910156       -24.7666
  14   2.0000      -0.822287       -22.3756
  15   2.0000      -0.759541       -20.6682
  16   2.0000      -0.674058       -18.3421
  17   2.0000      -0.671815       -18.2810
  18   2.0000      -0.634590       -17.2681
  19   2.0000      -0.572652       -15.5826
  20   2.0000      -0.558439       -15.1959
  21   2.0000      -0.519149       -14.1268
  22   2.0000      -0.500835       -13.6284
  23   2.0000      -0.479393       -13.0449
  24   2.0000      -0.461567       -12.5599
  25   2.0000      -0.452642       -12.3170
  26   2.0000      -0.397696       -10.8219
  27   2.0000      -0.391374       -10.6498
  28   2.0000      -0.370131       -10.0718
  29   0.0000       0.023667         0.6440
  30   0.0000       0.046577         1.2674
  31   0.0000       0.061682         1.6785
  32   0.0000       0.063109         1.7173
  33   0.0000       0.081642         2.2216

MULLIKEN ATOMIC CHARGES
-----------------------
   0 C :   -0.239538
   1 S :    1.467324
   2 O :   -0.691689
   3 O :   -0.679798
   4 F :   -0.391021
   5 C :    0.970647
   6 H :   -0.062982
   7 H :   -0.043571
   8 H :   -0.055162
   9 H :   -0.079217
  10 H :   -0.194994
Sum of atomic charges:    0.0000000

LOEWDIN ATOMIC CHARGES
----------------------
   0 C :   -0.085058
   1 S :    1.136916
   2 O :   -0.480156
   3 O :   -0.487803
   4 F :   -0.257202
   5 C :    0.138176
   6 H :    0.025476
   7 H :    0.013920
   8 H :   -0.005352
   9 H :    0.004699
  10 H :   -0.003616

  Mayer bond orders larger than 0.100000
B(  0-C ,  1-S ) :   0.9340 B(  0-C ,  5-C ) :   1.3062 B(  0-C ,  6-H ) :   0.9660
B(  0-C ,  7-H ) :   0.9301 B(  0-C ,  8-H ) :   0.2140 B(  0-C ,  9-H ) :   0.1963
B(  0-C , 10-H ) :   0.2296 B(  1-S ,  2-O ) :   1.4941 B(  1-S ,  3-O ) :   1.4960
B(  1-S ,  4-F ) :   0.7092 B(  5-C ,  8-H ) :   0.7668 B(  5-C ,  9-H ) :   0.7743
B(  5-C , 10-H ) :   0.7319

FINAL SINGLE POINT ENERGY      -727.150580166832

DIPOLE MOMENT
-------------
                                X             Y             Z
Electronic contribution:      4.06592      -5.45970      -7.21468
Nuclear contribution   :     -5.87110       5.18927       7.67759
                        -----------------------------------------
Total Dipole Moment    :     -1.80518      -0.27043       0.46291
                        -----------------------------------------
Magnitude (a.u.)       :      1.88311
Magnitude (Debye)      :      4.78649

Rotational constants in cm-1:     0.155988     0.080452     0.078187
Rotational constants in MHz :  4676.405251  2411.902056  2343.983816

                             ****ORCA TERMINATED NORMALLY****
TOTAL RUN TIME: 0 days 0 hours 0 minutes 33 seconds 260 msec
