                         Program Version 5.0.0 -  RELEASE  -
|  1> !CAM-B3LYP RIJCOSX def2-SVPD def2/J TightSCF xyzfile
|  2>
|  3> *xyzfile 0 1 D1.xyz
|  4>
|  5> %MaxCore 64000
|  6>
|  7> %pal nprocs 4
|  8> end
|  9>
| 10> %scf
| 11>   MaxIter 150
| 12> end
| 13>
| 14>
| 15>                          ****END OF INPUT****

CARTESIAN COORDINATES (ANGSTROEM)
---------------------------------
  C     -2.160376   -1.369486   -3.467104
  C     -3.030108   -1.910857   -4.541074
  C     -2.047717    0.146583   -3.511774
  C     -7.330440   -2.678991   -3.206811
  S     -6.019659   -2.926965   -4.419128
  H     -3.477443   -2.791513   -4.257096
  H     -2.538013   -2.017860   -5.438075
  H     -3.891589   -1.376039   -4.714365
  F     -5.645830   -1.588384   -4.919307
  O     -4.881961   -3.503697   -3.667235
  H     -1.184438   -1.843997   -3.566393
  H     -2.598195   -1.708376   -2.528477
  O     -6.549267   -3.805150   -5.425071
  C     -3.328755    0.875037   -3.103669
  H     -1.740034    0.452343   -4.517126
  H     -1.232611    0.434938   -2.842208
  C     -3.628487    0.771601   -1.609363
  H     -4.175106    0.490791   -3.682203
  H     -3.237812    1.928663   -3.381480
  C     -4.975718    1.361432   -1.190644
  H     -2.830700    1.276234   -1.054766
  H     -3.594312   -0.275838   -1.294603
  C     -6.184720    0.784347   -1.926464
  H     -4.956292    2.445725   -1.342200
  H     -5.097256    1.205252   -0.114136
  C     -6.286921   -0.735882   -1.893531
  H     -6.163994    1.100199   -2.974250
  H     -7.094530    1.223459   -1.504509
  C     -7.468999   -1.246153   -2.713833
  H     -6.360641   -1.090347   -0.859176
  H     -5.369848   -1.171853   -2.295982
  H     -7.601914   -0.601349   -3.585329
  H     -8.389791   -1.173436   -2.126922
  H     -7.118254   -3.379818   -2.398055
  H     -8.241838   -3.004745   -3.706513

 Total Charge           Charge          ....    0
 Multiplicity           Mult            ....    1
 Number of Electrons    NEL             ....  122
 Basis Dimension        Dim             ....  464

ORBITAL ENERGIES
----------------

  NO   OCC          E(Eh)            E(eV)
   0   2.0000     -89.226648     -2427.9805
   1   2.0000     -24.885213      -677.1611
   2   2.0000     -19.238105      -523.4954
   3   2.0000     -19.221486      -523.0432
   4   2.0000     -10.327148      -281.0160
   5   2.0000     -10.294579      -280.1297
   6   2.0000     -10.272291      -279.5232
   7   2.0000     -10.263844      -279.2934
   8   2.0000     -10.256487      -279.0932
   9   2.0000     -10.249438      -278.9014
  10   2.0000     -10.246892      -278.8321
  11   2.0000     -10.239016      -278.6178
  12   2.0000     -10.229169      -278.3498
  13   2.0000     -10.183002      -277.0936
  14   2.0000      -8.279400      -225.2939
  15   2.0000      -6.253559      -170.1680
  16   2.0000      -6.247257      -169.9965
  17   2.0000      -6.245649      -169.9528
  18   2.0000      -1.443045       -39.2673
  19   2.0000      -1.202967       -32.7344
  20   2.0000      -1.099699       -29.9243
  21   2.0000      -0.930125       -25.3100
  22   2.0000      -0.896196       -24.3867
  23   2.0000      -0.866727       -23.5848
  24   2.0000      -0.839879       -22.8543
  25   2.0000      -0.800675       -21.7875
  26   2.0000      -0.785209       -21.3666
  27   2.0000      -0.748998       -20.3813
  28   2.0000      -0.713520       -19.4159
  29   2.0000      -0.697437       -18.9782
  30   2.0000      -0.671461       -18.2714
  31   2.0000      -0.662395       -18.0247
  32   2.0000      -0.642654       -17.4875
  33   2.0000      -0.628773       -17.1098
  34   2.0000      -0.618215       -16.8225
  35   2.0000      -0.573072       -15.5941
  36   2.0000      -0.566071       -15.4036
  37   2.0000      -0.553602       -15.0643
  38   2.0000      -0.542568       -14.7640
  39   2.0000      -0.537180       -14.6174
  40   2.0000      -0.523901       -14.2561
  41   2.0000      -0.510492       -13.8912
  42   2.0000      -0.504161       -13.7189
  43   2.0000      -0.498130       -13.5548
  44   2.0000      -0.481686       -13.1073
  45   2.0000      -0.466943       -12.7062
  46   2.0000      -0.460496       -12.5307
  47   2.0000      -0.459197       -12.4954
  48   2.0000      -0.444590       -12.0979
  49   2.0000      -0.435001       -11.8370
  50   2.0000      -0.424037       -11.5386
  51   2.0000      -0.421185       -11.4610
  52   2.0000      -0.407840       -11.0979
  53   2.0000      -0.402988       -10.9659
  54   2.0000      -0.396471       -10.7885
  55   2.0000      -0.389893       -10.6095
  56   2.0000      -0.383953       -10.4479
  57   2.0000      -0.379876       -10.3369
  58   2.0000      -0.368875       -10.0376
  59   2.0000      -0.366106        -9.9622
  60   2.0000      -0.342205        -9.3119
  61   0.0000       0.022843         0.6216
  62   0.0000       0.048135         1.3098
  63   0.0000       0.051723         1.4075
  64   0.0000       0.058004         1.5784
  65   0.0000       0.066948         1.8217

MULLIKEN ATOMIC CHARGES
-----------------------
   0 C :    0.238734
   1 C :    2.307156
   2 C :    0.723066
   3 C :    0.597046
   4 S :    1.403256
   5 H :   -0.654112
   6 H :   -0.350540
   7 H :   -1.130484
   8 F :   -0.482775
   9 O :   -0.736119
  10 H :   -0.365080
  11 H :   -0.115513
  12 O :   -0.692619
  13 C :    0.615764
  14 H :   -0.173582
  15 H :   -0.184106
  16 C :    0.018808
  17 H :   -0.712163
  18 H :   -0.139220
  19 C :    0.850699
  20 H :   -0.429175
  21 H :    0.029371
  22 C :    0.044523
  23 H :   -0.105590
  24 H :   -0.071997
  25 C :    0.587587
  26 H :    0.137085
  27 H :   -0.515209
  28 C :    0.459668
  29 H :   -0.115195
  30 H :   -0.560082
  31 H :   -0.005618
  32 H :   -0.275628
  33 H :   -0.096523
  34 H :   -0.101436
Sum of atomic charges:    0.0000000

LOEWDIN ATOMIC CHARGES
----------------------
   0 C :   -0.036136
   1 C :    0.125113
   2 C :   -0.027614
   3 C :   -0.021418
   4 S :    1.165413
   5 H :   -0.122478
   6 H :   -0.012554
   7 H :   -0.096144
   8 F :   -0.267869
   9 O :   -0.458961
  10 H :    0.024502
  11 H :    0.012002
  12 O :   -0.444328
  13 C :   -0.022467
  14 H :    0.025507
  15 H :    0.017755
  16 C :   -0.034041
  17 H :   -0.007212
  18 H :    0.026646
  19 C :   -0.028512
  20 H :    0.025549
  21 H :    0.005276
  22 C :   -0.037273
  23 H :    0.023659
  24 H :    0.022746
  25 C :   -0.022134
  26 H :    0.016501
  27 H :    0.026274
  28 C :   -0.041235
  29 H :    0.041876
  30 H :   -0.002048
  31 H :    0.023632
  32 H :    0.037728
  33 H :    0.038041
  34 H :    0.024203

  Mayer bond orders larger than 0.100000
B(  0-C ,  1-C ) :   0.8580 B(  0-C ,  2-C ) :   1.1857 B(  0-C ,  5-H ) :   0.4768
B(  0-C ,  6-H ) :   0.1199 B(  0-C ,  7-H ) :   0.4673 B(  0-C , 10-H ) :   0.8131
B(  0-C , 11-H ) :   0.7210 B(  0-C , 13-C ) :   0.1292 B(  0-C , 14-H ) :   0.1404
B(  0-C , 15-H ) :   0.2052 B(  1-C ,  5-H ) :  -0.5333 B(  1-C ,  6-H ) :   0.4886
B(  1-C ,  7-H ) :  -1.1336 B(  1-C ,  9-O ) :  -0.1233 B(  1-C , 11-H ) :   0.2518
B(  2-C ,  7-H ) :  -0.1190 B(  2-C , 11-H ) :   0.1114 B(  2-C , 13-C ) :   1.1679
B(  2-C , 14-H ) :   0.6355 B(  2-C , 15-H ) :   0.6761 B(  2-C , 17-H ) :   0.1612
B(  3-C ,  4-S ) :   0.8882 B(  3-C , 12-O ) :   0.1030 B(  3-C , 25-C ) :   0.1113
B(  3-C , 28-C ) :   1.2004 B(  3-C , 33-H ) :   0.8618 B(  3-C , 34-H ) :   0.7062
B(  4-S ,  8-F ) :   0.6167 B(  4-S ,  9-O ) :   1.4574 B(  4-S , 12-O ) :   1.5256
B(  4-S , 33-H ) :   0.1084 B(  5-H ,  6-H ) :  -0.1519 B(  5-H ,  7-H ) :   1.0386
B(  5-H ,  9-O ) :   0.1843 B(  6-H ,  7-H ) :   0.1868 B(  7-H ,  8-F ) :   0.1262
B(  7-H ,  9-O ) :   0.1109 B(  7-H , 17-H ) :   0.1755 B( 10-H , 11-H ) :  -0.1143
B( 11-H , 21-H ) :   0.1095 B( 13-C , 14-H ) :   0.2384 B( 13-C , 15-H ) :   0.1595
B( 13-C , 16-C ) :   1.1322 B( 13-C , 17-H ) :   0.5931 B( 13-C , 18-H ) :   0.6887
B( 13-C , 20-H ) :   0.2010 B( 13-C , 21-H ) :   0.1059 B( 14-H , 15-H ) :  -0.1808
B( 16-C , 17-H ) :   0.2386 B( 16-C , 18-H ) :   0.2050 B( 16-C , 19-C ) :   1.1546
B( 16-C , 20-H ) :   0.9122 B( 16-C , 21-H ) :   0.8524 B( 16-C , 22-C ) :   0.1629
B( 16-C , 23-H ) :   0.1610 B( 16-C , 24-H ) :   0.3096 B( 17-H , 26-H ) :   0.1099
B( 19-C , 22-C ) :   1.1189 B( 19-C , 23-H ) :   0.6105 B( 19-C , 24-H ) :   0.6212
B( 22-C , 23-H ) :   0.2722 B( 22-C , 24-H ) :   0.1248 B( 22-C , 25-C ) :   1.2080
B( 22-C , 26-H ) :   0.7834 B( 22-C , 27-H ) :   0.9594 B( 22-C , 28-C ) :   0.1467
B( 22-C , 29-H ) :   0.1108 B( 22-C , 30-H ) :   0.1692 B( 23-H , 24-H ) :  -0.1354
B( 25-C , 26-H ) :   0.1169 B( 25-C , 27-H ) :   0.1800 B( 25-C , 28-C ) :   1.1233
B( 25-C , 29-H ) :   0.6534 B( 25-C , 30-H ) :   0.5984 B( 25-C , 32-H ) :   0.2028
B( 28-C , 29-H ) :   0.1431 B( 28-C , 31-H ) :   0.8246 B( 28-C , 32-H ) :   0.7387
B( 28-C , 34-H ) :   0.2518 B( 29-H , 30-H ) :   0.2530

FINAL SINGLE POINT ENERGY     -1041.216524128404

DIPOLE MOMENT
-------------
                                X             Y             Z
Electronic contribution:    -10.91121     -16.15307     -13.11892
Nuclear contribution   :      9.63012      17.20461      14.03552
                        -----------------------------------------
Total Dipole Moment    :     -1.28109       1.05153       0.91659
                        -----------------------------------------
Magnitude (a.u.)       :      1.89396
Magnitude (Debye)      :      4.81405

Rotational constants in cm-1:     0.025899     0.015189     0.010690
Rotational constants in MHz :   776.424978   455.369614   320.488876

                             ****ORCA TERMINATED NORMALLY****
TOTAL RUN TIME: 0 days 0 hours 5 minutes 43 seconds 685 msec
