                         Program Version 5.0.0 -  RELEASE  -
|  1> !CAM-B3LYP RIJCOSX def2-SVPD def2/J TightSCF xyzfile
|  2>
|  3> *xyzfile 0 1 D3.xyz
|  4>
|  5> %MaxCore 64000
|  6>
|  7> %pal nprocs 4
|  8> end
|  9>
| 10> %scf
| 11>   MaxIter 150
| 12> end
| 13>
| 14>
| 15>                          ****END OF INPUT****

CARTESIAN COORDINATES (ANGSTROEM)
---------------------------------
  C     -2.160376   -1.369486   -3.467104
  C     -3.030108   -1.910857   -4.541074
  C     -2.047717    0.146583   -3.511774
  C     -7.330440   -2.678991   -3.206811
  S     -6.019659   -2.926965   -4.419128
  H     -3.477443   -2.791513   -4.257096
  H     -2.538013   -2.017860   -5.438075
  H     -3.891589   -1.376039   -4.714365
  O     -5.645830   -1.588384   -4.919307
  O     -4.881961   -3.503697   -3.667235
  H     -1.184438   -1.843997   -3.566393
  H     -2.598195   -1.708376   -2.528477
  F     -6.549267   -3.805150   -5.425071
  C     -3.328755    0.875037   -3.103669
  H     -1.740034    0.452343   -4.517126
  H     -1.232611    0.434938   -2.842208
  C     -3.628487    0.771601   -1.609363
  H     -4.175106    0.490791   -3.682203
  H     -3.237812    1.928663   -3.381480
  C     -4.975718    1.361432   -1.190644
  H     -2.830700    1.276234   -1.054766
  H     -3.594312   -0.275838   -1.294603
  C     -6.184720    0.784347   -1.926464
  H     -4.956292    2.445725   -1.342200
  H     -5.097256    1.205252   -0.114136
  C     -6.286921   -0.735882   -1.893531
  H     -6.163994    1.100199   -2.974250
  H     -7.094530    1.223459   -1.504509
  C     -7.468999   -1.246153   -2.713833
  H     -6.360641   -1.090347   -0.859176
  H     -5.369848   -1.171853   -2.295982
  H     -7.601914   -0.601349   -3.585329
  H     -8.389791   -1.173436   -2.126922
  H     -7.118254   -3.379818   -2.398055
  H     -8.241838   -3.004745   -3.706513

 Total Charge           Charge          ....    0
 Multiplicity           Mult            ....    1
 Number of Electrons    NEL             ....  122
 Basis Dimension        Dim             ....  464

ORBITAL ENERGIES
----------------

  NO   OCC          E(Eh)            E(eV)
   0   2.0000     -89.232886     -2428.1503
   1   2.0000     -24.906722      -677.7463
   2   2.0000     -19.230529      -523.2893
   3   2.0000     -19.226962      -523.1922
   4   2.0000     -10.330045      -281.0948
   5   2.0000     -10.287880      -279.9474
   6   2.0000     -10.261021      -279.2166
   7   2.0000     -10.252597      -278.9873
   8   2.0000     -10.246484      -278.8210
   9   2.0000     -10.238285      -278.5979
  10   2.0000     -10.232195      -278.4322
  11   2.0000     -10.226111      -278.2666
  12   2.0000     -10.214989      -277.9640
  13   2.0000     -10.160533      -276.4822
  14   2.0000      -8.285538      -225.4609
  15   2.0000      -6.259845      -170.3391
  16   2.0000      -6.253205      -170.1584
  17   2.0000      -6.251726      -170.1181
  18   2.0000      -1.475783       -40.1581
  19   2.0000      -1.195921       -32.5427
  20   2.0000      -1.090050       -29.6618
  21   2.0000      -0.924487       -25.1566
  22   2.0000      -0.887089       -24.1389
  23   2.0000      -0.857188       -23.3253
  24   2.0000      -0.837853       -22.7991
  25   2.0000      -0.803766       -21.8716
  26   2.0000      -0.776410       -21.1272
  27   2.0000      -0.740998       -20.1636
  28   2.0000      -0.705580       -19.1998
  29   2.0000      -0.684152       -18.6167
  30   2.0000      -0.681123       -18.5343
  31   2.0000      -0.669995       -18.2315
  32   2.0000      -0.641532       -17.4570
  33   2.0000      -0.633867       -17.2484
  34   2.0000      -0.604596       -16.4519
  35   2.0000      -0.575975       -15.6731
  36   2.0000      -0.564310       -15.3557
  37   2.0000      -0.546941       -14.8830
  38   2.0000      -0.543106       -14.7787
  39   2.0000      -0.532060       -14.4781
  40   2.0000      -0.517972       -14.0947
  41   2.0000      -0.503468       -13.7001
  42   2.0000      -0.491487       -13.3740
  43   2.0000      -0.487040       -13.2530
  44   2.0000      -0.474806       -12.9201
  45   2.0000      -0.456370       -12.4185
  46   2.0000      -0.452375       -12.3097
  47   2.0000      -0.445791       -12.1306
  48   2.0000      -0.433060       -11.7842
  49   2.0000      -0.421798       -11.4777
  50   2.0000      -0.415685       -11.3114
  51   2.0000      -0.405083       -11.0229
  52   2.0000      -0.401599       -10.9281
  53   2.0000      -0.398095       -10.8327
  54   2.0000      -0.389684       -10.6039
  55   2.0000      -0.378916       -10.3108
  56   2.0000      -0.372929       -10.1479
  57   2.0000      -0.368202       -10.0193
  58   2.0000      -0.353008        -9.6058
  59   2.0000      -0.343910        -9.3583
  60   2.0000      -0.329538        -8.9672
  61   0.0000       0.021564         0.5868
  62   0.0000       0.043620         1.1870
  63   0.0000       0.051930         1.4131
  64   0.0000       0.060075         1.6347
  65   0.0000       0.067626         1.8402

MULLIKEN ATOMIC CHARGES
-----------------------
   0 C :    0.238720
   1 C :    2.312829
   2 C :    0.724070
   3 C :    0.560075
   4 S :    1.570763
   5 H :   -0.706870
   6 H :   -0.333860
   7 H :   -1.138010
   8 O :   -0.725470
   9 O :   -0.733246
  10 H :   -0.376878
  11 H :   -0.109624
  12 F :   -0.546041
  13 C :    0.650306
  14 H :   -0.166433
  15 H :   -0.190797
  16 C :    0.013807
  17 H :   -0.742863
  18 H :   -0.129659
  19 C :    0.849189
  20 H :   -0.432510
  21 H :    0.035795
  22 C :    0.032776
  23 H :   -0.107235
  24 H :   -0.076312
  25 C :    0.546579
  26 H :    0.145122
  27 H :   -0.509728
  28 C :    0.434898
  29 H :   -0.113622
  30 H :   -0.547367
  31 H :    0.054416
  32 H :   -0.292116
  33 H :   -0.082887
  34 H :   -0.107816
Sum of atomic charges:    0.0000000

LOEWDIN ATOMIC CHARGES
----------------------
   0 C :   -0.040626
   1 C :    0.123289
   2 C :   -0.028504
   3 C :   -0.032297
   4 S :    1.199525
   5 H :   -0.123843
   6 H :   -0.015885
   7 H :   -0.116058
   8 O :   -0.454677
   9 O :   -0.458411
  10 H :    0.020127
  11 H :    0.009755
  12 F :   -0.244046
  13 C :   -0.019119
  14 H :    0.024841
  15 H :    0.015121
  16 C :   -0.035263
  17 H :   -0.002188
  18 H :    0.025215
  19 C :   -0.029982
  20 H :    0.023650
  21 H :    0.004457
  22 C :   -0.034758
  23 H :    0.022619
  24 H :    0.020850
  25 C :   -0.019419
  26 H :    0.020342
  27 H :    0.024292
  28 C :   -0.031133
  29 H :    0.038634
  30 H :    0.001732
  31 H :    0.025548
  32 H :    0.038134
  33 H :    0.031203
  34 H :    0.016874

  Mayer bond orders larger than 0.100000
B(  0-C ,  1-C ) :   0.8689 B(  0-C ,  2-C ) :   1.1849 B(  0-C ,  5-H ) :   0.4708
B(  0-C ,  6-H ) :   0.1267 B(  0-C ,  7-H ) :   0.4569 B(  0-C , 10-H ) :   0.8186
B(  0-C , 11-H ) :   0.7148 B(  0-C , 13-C ) :   0.1243 B(  0-C , 14-H ) :   0.1476
B(  0-C , 15-H ) :   0.2063 B(  1-C ,  5-H ) :  -0.5465 B(  1-C ,  6-H ) :   0.4950
B(  1-C ,  7-H ) :  -1.0301 B(  1-C ,  9-O ) :  -0.1061 B(  1-C , 11-H ) :   0.2599
B(  2-C ,  7-H ) :  -0.1198 B(  2-C , 11-H ) :   0.1128 B(  2-C , 13-C ) :   1.1634
B(  2-C , 14-H ) :   0.6321 B(  2-C , 15-H ) :   0.6712 B(  2-C , 17-H ) :   0.1663
B(  3-C ,  4-S ) :   0.9084 B(  3-C , 12-F ) :   0.1079 B(  3-C , 25-C ) :   0.1201
B(  3-C , 28-C ) :   1.2173 B(  3-C , 33-H ) :   0.8779 B(  3-C , 34-H ) :   0.6696
B(  4-S ,  8-O ) :   1.3724 B(  4-S ,  9-O ) :   1.3788 B(  4-S , 12-F ) :   0.5435
B(  5-H ,  6-H ) :  -0.1907 B(  5-H ,  7-H ) :   1.0677 B(  5-H ,  9-O ) :   0.2104
B(  6-H ,  7-H ) :   0.1999 B(  7-H ,  9-O ) :   0.1469 B(  7-H , 10-H ) :   0.1031
B(  7-H , 17-H ) :   0.1835 B(  8-O ,  9-O ) :   0.1062 B( 10-H , 11-H ) :  -0.1215
B( 11-H , 21-H ) :   0.1139 B( 13-C , 14-H ) :   0.2357 B( 13-C , 15-H ) :   0.1595
B( 13-C , 16-C ) :   1.1206 B( 13-C , 17-H ) :   0.5565 B( 13-C , 18-H ) :   0.6780
B( 13-C , 20-H ) :   0.2008 B( 14-H , 15-H ) :  -0.1794 B( 16-C , 17-H ) :   0.2502
B( 16-C , 18-H ) :   0.2078 B( 16-C , 19-C ) :   1.1529 B( 16-C , 20-H ) :   0.9136
B( 16-C , 21-H ) :   0.8482 B( 16-C , 22-C ) :   0.1663 B( 16-C , 23-H ) :   0.1631
B( 16-C , 24-H ) :   0.3107 B( 17-H , 26-H ) :   0.1112 B( 19-C , 22-C ) :   1.1179
B( 19-C , 23-H ) :   0.6121 B( 19-C , 24-H ) :   0.6185 B( 22-C , 23-H ) :   0.2721
B( 22-C , 24-H ) :   0.1254 B( 22-C , 25-C ) :   1.2241 B( 22-C , 26-H ) :   0.7780
B( 22-C , 27-H ) :   0.9570 B( 22-C , 28-C ) :   0.1551 B( 22-C , 29-H ) :   0.1121
B( 22-C , 30-H ) :   0.1617 B( 23-H , 24-H ) :  -0.1350 B( 25-C , 26-H ) :   0.1204
B( 25-C , 27-H ) :   0.1786 B( 25-C , 28-C ) :   1.1360 B( 25-C , 29-H ) :   0.6503
B( 25-C , 30-H ) :   0.6183 B( 25-C , 32-H ) :   0.2065 B( 28-C , 29-H ) :   0.1410
B( 28-C , 31-H ) :   0.8179 B( 28-C , 32-H ) :   0.7416 B( 28-C , 34-H ) :   0.2623
B( 29-H , 30-H ) :   0.2754

FINAL SINGLE POINT ENERGY     -1041.200815859206

DIPOLE MOMENT
-------------
                                X             Y             Z
Electronic contribution:    -12.72142     -20.26444     -14.25759
Nuclear contribution   :     10.70731      19.84772      14.63855
                        -----------------------------------------
Total Dipole Moment    :     -2.01411      -0.41672       0.38096
                        -----------------------------------------
Magnitude (a.u.)       :      2.09176
Magnitude (Debye)      :      5.31682

Rotational constants in cm-1:     0.026014     0.014812     0.010477
Rotational constants in MHz :   779.874765   444.063394   314.081855

                             ****ORCA TERMINATED NORMALLY****
TOTAL RUN TIME: 0 days 0 hours 5 minutes 5 seconds 212 msec
