                         Program Version 5.0.0 -  RELEASE  -
|  1> !LC-BLYP RIJCOSX def2-TZVP def2/J TightSCF
|  2> *xyz -1 1
|  3> C         -0.10608        1.76991       -4.08984
|  4> C         -0.25875        1.00432       -5.40983
|  5> C          0.39596       -0.37070       -5.33994
|  6> H          0.23915        1.56939       -6.20125
|  7> H         -1.30936        0.88869       -5.68245
|  8> O         -0.32633       -1.39040       -5.49128
|  9> O          1.61941       -0.40073       -5.03683
| 10> H         -0.57627        2.72718       -4.17630
| 11> H          0.93321        1.90140       -3.87192
| 12> H         -0.56868        1.21534       -3.30031
| 13> *
| 14> %MaxCore 64000
| 15>
| 16> %pal nprocs 4
| 17> end
| 18>
| 19> %scf
| 20>   MaxIter 150
| 21> end
| 22>
| 23>
| 24>                          ****END OF INPUT****

CARTESIAN COORDINATES (ANGSTROEM)
---------------------------------
  C     -0.106080    1.769910   -4.089840
  C     -0.258750    1.004320   -5.409830
  C      0.395960   -0.370700   -5.339940
  H      0.239150    1.569390   -6.201250
  H     -1.309360    0.888690   -5.682450
  O     -0.326330   -1.390400   -5.491280
  O      1.619410   -0.400730   -5.036830
  H     -0.576270    2.727180   -4.176300
  H      0.933210    1.901400   -3.871920
  H     -0.568680    1.215340   -3.300310

 Total Charge           Charge          ....   -1
 Multiplicity           Mult            ....    1
 Number of Electrons    NEL             ....   40
 Basis Dimension        Dim             ....  185

ORBITAL ENERGIES
----------------

  NO   OCC          E(Eh)            E(eV)
   0   2.0000     -18.661498      -507.8052
   1   2.0000     -18.660282      -507.7721
   2   2.0000      -9.944859      -270.6134
   3   2.0000      -9.902158      -269.4514
   4   2.0000      -9.891314      -269.1563
   5   2.0000      -0.902689       -24.5634
   6   2.0000      -0.807271       -21.9670
   7   2.0000      -0.712701       -19.3936
   8   2.0000      -0.579926       -15.7806
   9   2.0000      -0.423197       -11.5158
  10   2.0000      -0.396595       -10.7919
  11   2.0000      -0.357955        -9.7405
  12   2.0000      -0.329658        -8.9704
  13   2.0000      -0.310984        -8.4623
  14   2.0000      -0.303382        -8.2554
  15   2.0000      -0.270845        -7.3701
  16   2.0000      -0.258294        -7.0285
  17   2.0000      -0.137609        -3.7445
  18   2.0000      -0.133033        -3.6200
  19   2.0000      -0.117031        -3.1846
  20   0.0000       0.247544         6.7360
  21   0.0000       0.288491         7.8502
  22   0.0000       0.311877         8.4866
  23   0.0000       0.313490         8.5305
  24   0.0000       0.333785         9.0828

MULLIKEN ATOMIC CHARGES
-----------------------
   0 C :   -0.378157
   1 C :   -0.172917
   2 C :    0.072945
   3 H :    0.055262
   4 H :    0.057843
   5 O :   -0.459688
   6 O :   -0.469563
   7 H :    0.070828
   8 H :    0.116158
   9 H :    0.107288
Sum of atomic charges:   -1.0000000

LOEWDIN ATOMIC CHARGES
----------------------
   0 C :   -0.337037
   1 C :   -0.300015
   2 C :   -0.721625
   3 H :    0.125590
   4 H :    0.121288
   5 O :   -0.105889
   6 O :   -0.109490
   7 H :    0.097328
   8 H :    0.116314
   9 H :    0.113537

  Mayer bond orders larger than 0.100000
B(  0-C ,  1-C ) :   0.9330 B(  0-C ,  7-H ) :   0.9782 B(  0-C ,  8-H ) :   0.9704
B(  0-C ,  9-H ) :   0.9832 B(  1-C ,  2-C ) :   0.9168 B(  1-C ,  3-H ) :   0.9637
B(  1-C ,  4-H ) :   0.9616 B(  2-C ,  5-O ) :   1.9781 B(  2-C ,  6-O ) :   1.9106

FINAL SINGLE POINT ENERGY      -267.346795300904

DIPOLE MOMENT
-------------
                                X             Y             Z
Electronic contribution:      1.74574      -5.34271      -1.70993
Nuclear contribution   :     -2.46071       7.20791       1.95694
                        -----------------------------------------
Total Dipole Moment    :     -0.71498       1.86520       0.24701
                        -----------------------------------------
Magnitude (a.u.)       :      2.01275
Magnitude (Debye)      :      5.11601

Rotational constants in cm-1:     0.309435     0.135317     0.107436
Rotational constants in MHz :  9276.637721  4056.700783  3220.846587

                             ****ORCA TERMINATED NORMALLY****
TOTAL RUN TIME: 0 days 0 hours 0 minutes 22 seconds 681 msec
