                         Program Version 5.0.0 -  RELEASE  -
|  1> !LC-BLYP RIJCOSX def2-TZVP def2/J TightSCF
|  2> *xyz 1 1
|  3> C          0.81607       -2.10149       -2.18655
|  4> H          1.69623       -2.36869       -1.60046
|  5> N          1.10055       -2.46749       -3.59927
|  6> C          0.51624       -0.61363       -2.03937
|  7> H         -0.02007       -2.71285       -1.84084
|  8> H          1.70061       -1.75723       -4.07838
|  9> H          0.29386       -2.35977       -4.25632
| 10> H          1.50132       -3.42848       -3.69491
| 11> H         -0.34841       -0.36504       -2.61858
| 12> H          1.35358       -0.04503       -2.38643
| 13> H          0.33317       -0.38682       -1.00984
| 14> *
| 15> %MaxCore 64000
| 16>
| 17> %pal nprocs 4
| 18> end
| 19>
| 20> %scf
| 21>   MaxIter 150
| 22> end
| 23>
| 24>
| 25>                          ****END OF INPUT****

CARTESIAN COORDINATES (ANGSTROEM)
---------------------------------
  C      0.816070   -2.101490   -2.186550
  H      1.696230   -2.368690   -1.600460
  N      1.100550   -2.467490   -3.599270
  C      0.516240   -0.613630   -2.039370
  H     -0.020070   -2.712850   -1.840840
  H      1.700610   -1.757230   -4.078380
  H      0.293860   -2.359770   -4.256320
  H      1.501320   -3.428480   -3.694910
  H     -0.348410   -0.365040   -2.618580
  H      1.353580   -0.045030   -2.386430
  H      0.333170   -0.386820   -1.009840

 Total Charge           Charge          ....    1
 Multiplicity           Mult            ....    1
 Number of Electrons    NEL             ....   26
 Basis Dimension        Dim             ....  141

ORBITAL ENERGIES
----------------

  NO   OCC          E(Eh)            E(eV)
   0   2.0000     -14.506098      -394.7310
   1   2.0000     -10.322394      -280.8866
   2   2.0000     -10.242575      -278.7146
   3   2.0000      -1.311847       -35.6972
   4   2.0000      -1.074931       -29.2503
   5   2.0000      -0.958995       -26.0956
   6   2.0000      -0.893296       -24.3078
   7   2.0000      -0.878073       -23.8936
   8   2.0000      -0.805234       -21.9115
   9   2.0000      -0.741100       -20.1664
  10   2.0000      -0.683702       -18.6045
  11   2.0000      -0.668867       -18.2008
  12   2.0000      -0.648667       -17.6511
  13   0.0000      -0.132155        -3.5961
  14   0.0000      -0.068621        -1.8673
  15   0.0000      -0.066213        -1.8017
  16   0.0000      -0.047362        -1.2888
  17   0.0000      -0.002940        -0.0800

MULLIKEN ATOMIC CHARGES
-----------------------
   0 C :   -0.231049
   1 H :    0.209458
   2 N :   -0.317715
   3 C :   -0.419781
   4 H :    0.212958
   5 H :    0.328851
   6 H :    0.333418
   7 H :    0.348659
   8 H :    0.168204
   9 H :    0.168791
  10 H :    0.198205
Sum of atomic charges:    1.0000000

LOEWDIN ATOMIC CHARGES
----------------------
   0 C :   -0.291612
   1 H :    0.158717
   2 N :    0.145607
   3 C :   -0.290984
   4 H :    0.158557
   5 H :    0.231814
   6 H :    0.231357
   7 H :    0.234945
   8 H :    0.134696
   9 H :    0.134213
  10 H :    0.152689

  Mayer bond orders larger than 0.100000
B(  0-C ,  1-H ) :   0.9504 B(  0-C ,  2-N ) :   0.8336 B(  0-C ,  3-C ) :   0.9522
B(  0-C ,  4-H ) :   0.9522 B(  2-N ,  5-H ) :   0.8741 B(  2-N ,  6-H ) :   0.8737
B(  2-N ,  7-H ) :   0.8672 B(  3-C ,  8-H ) :   0.9572 B(  3-C ,  9-H ) :   0.9550
B(  3-C , 10-H ) :   0.9570

FINAL SINGLE POINT ENERGY      -135.187281762358

DIPOLE MOMENT
-------------
                                X             Y             Z
Electronic contribution:      0.42317      -1.44511      -1.08739
Nuclear contribution   :     -0.07506       0.54337      -0.16191
                        -----------------------------------------
Total Dipole Moment    :      0.34811      -0.90174      -1.24930
                        -----------------------------------------
Magnitude (a.u.)       :      1.57958
Magnitude (Debye)      :      4.01497

Rotational constants in cm-1:     0.999557     0.280801     0.246932
Rotational constants in MHz : 29965.963633  8418.199581  7402.841054

                             ****ORCA TERMINATED NORMALLY****
TOTAL RUN TIME: 0 days 0 hours 0 minutes 13 seconds 894 msec
