                         Program Version 5.0.0 -  RELEASE  -
|  1> !LC-BLYP RIJCOSX def2-TZVP def2/J TightSCF xyzfile
|  2>
|  3> *xyzfile 0 1 B.xyz
|  4>
|  5> %MaxCore 64000
|  6>
|  7> %pal nprocs 18
|  8> end
|  9>
| 10> %scf
| 11>   MaxIter 150
| 12> end
| 13>
| 14>
| 15>                          ****END OF INPUT****

CARTESIAN COORDINATES (ANGSTROEM)
---------------------------------
  C      0.816067   -2.101491   -2.186546
  H      1.696232   -2.368691   -1.600457
  N      1.100552   -2.467492   -3.599269
  C      0.516243   -0.613634   -2.039373
  H     -0.020066   -2.712849   -1.840844
  C     -0.868621   -0.193925   -2.546303
  C     -0.984801    1.284739   -2.928686
  H     -0.764939    1.904116   -2.051568
  H     -2.032613    1.478953   -3.178952
  C     -0.106085    1.769914   -4.089836
  H     -0.347744    2.822196   -4.262942
  H      0.949683    1.745875   -3.808781
  C     -0.258747    1.004323   -5.409829
  C      0.395958   -0.370696   -5.339939
  H      0.239150    1.569393   -6.201253
  H     -1.309360    0.888694   -5.682455
  H      1.700606   -1.757225   -4.078378
  H      0.293855   -2.359766   -4.256324
  H      1.501324   -3.428479   -3.694915
  O     -0.326329   -1.390398   -5.491279
  O      1.619412   -0.400726   -5.036827
  H     -1.607271   -0.412651   -1.768955
  H     -1.157234   -0.796164   -3.409254
  H      1.299044   -0.056805   -2.558982
  H      0.612393   -0.365579   -0.979171

 Total Charge           Charge          ....    0
 Multiplicity           Mult            ....    1
 Number of Electrons    NEL             ....   80
 Basis Dimension        Dim             ....  400

ORBITAL ENERGIES
----------------

  NO   OCC          E(Eh)            E(eV)
   0   2.0000     -18.871949      -513.5318
   1   2.0000     -18.870446      -513.4910
   2   2.0000     -14.254203      -387.8766
   3   2.0000     -10.144698      -276.0513
   4   2.0000     -10.141357      -275.9604
   5   2.0000     -10.082356      -274.3549
   6   2.0000     -10.064158      -273.8597
   7   2.0000     -10.059921      -273.7444
   8   2.0000     -10.052973      -273.5553
   9   2.0000     -10.044375      -273.3213
  10   2.0000      -1.124333       -30.5946
  11   2.0000      -1.078835       -29.3566
  12   2.0000      -1.021229       -27.7890
  13   2.0000      -0.925727       -25.1903
  14   2.0000      -0.882017       -24.0009
  15   2.0000      -0.834963       -22.7205
  16   2.0000      -0.770138       -20.9565
  17   2.0000      -0.737546       -20.0696
  18   2.0000      -0.684426       -18.6242
  19   2.0000      -0.672577       -18.3017
  20   2.0000      -0.647335       -17.6149
  21   2.0000      -0.622642       -16.9429
  22   2.0000      -0.586176       -15.9507
  23   2.0000      -0.576366       -15.6837
  24   2.0000      -0.561439       -15.2775
  25   2.0000      -0.548932       -14.9372
  26   2.0000      -0.528302       -14.3758
  27   2.0000      -0.521514       -14.1911
  28   2.0000      -0.500837       -13.6285
  29   2.0000      -0.491911       -13.3856
  30   2.0000      -0.489966       -13.3327
  31   2.0000      -0.472011       -12.8441
  32   2.0000      -0.450684       -12.2637
  33   2.0000      -0.447110       -12.1665
  34   2.0000      -0.422451       -11.4955
  35   2.0000      -0.407420       -11.0865
  36   2.0000      -0.403794       -10.9878
  37   2.0000      -0.348036        -9.4705
  38   2.0000      -0.335266        -9.1231
  39   2.0000      -0.327248        -8.9049
  40   0.0000       0.061999         1.6871
  41   0.0000       0.099001         2.6940
  42   0.0000       0.112376         3.0579
  43   0.0000       0.122777         3.3409
  44   0.0000       0.126035         3.4296

MULLIKEN ATOMIC CHARGES
-----------------------
   0 C :   -0.191961
   1 H :    0.160903
   2 N :   -0.314739
   3 C :   -0.316842
   4 H :    0.162635
   5 C :   -0.309789
   6 C :   -0.239245
   7 H :    0.121208
   8 H :    0.132352
   9 C :   -0.294034
  10 H :    0.126613
  11 H :    0.152058
  12 C :   -0.179458
  13 C :    0.107066
  14 H :    0.128556
  15 H :    0.117474
  16 H :    0.297816
  17 H :    0.297408
  18 H :    0.270436
  19 O :   -0.421058
  20 O :   -0.437656
  21 H :    0.126179
  22 H :    0.174570
  23 H :    0.192591
  24 H :    0.136917
Sum of atomic charges:   -0.0000000

LOEWDIN ATOMIC CHARGES
----------------------
   0 C :   -0.290319
   1 H :    0.139572
   2 N :    0.110933
   3 C :   -0.276998
   4 H :    0.141169
   5 C :   -0.279609
   6 C :   -0.276100
   7 H :    0.139723
   8 H :    0.143245
   9 C :   -0.277479
  10 H :    0.140589
  11 H :    0.142113
  12 C :   -0.244510
  13 C :   -0.654986
  14 H :    0.150841
  15 H :    0.143281
  16 H :    0.181794
  17 H :    0.182513
  18 H :    0.197295
  19 O :   -0.053467
  20 O :   -0.047574
  21 H :    0.139271
  22 H :    0.148937
  23 H :    0.153123
  24 H :    0.146645

  Mayer bond orders larger than 0.100000
B(  0-C ,  1-H ) :   0.9861 B(  0-C ,  2-N ) :   0.8805 B(  0-C ,  3-C ) :   0.9308
B(  0-C ,  4-H ) :   0.9783 B(  2-N , 16-H ) :   0.7591 B(  2-N , 17-H ) :   0.7707
B(  2-N , 18-H ) :   0.9069 B(  3-C ,  5-C ) :   0.8543 B(  3-C , 23-H ) :   0.9795
B(  3-C , 24-H ) :   0.9646 B(  5-C ,  6-C ) :   0.9189 B(  5-C , 21-H ) :   0.9729
B(  5-C , 22-H ) :   0.9825 B(  6-C ,  7-H ) :   0.9830 B(  6-C ,  8-H ) :   0.9833
B(  6-C ,  9-C ) :   0.9312 B(  9-C , 10-H ) :   0.9846 B(  9-C , 11-H ) :   0.9792
B(  9-C , 12-C ) :   0.9097 B( 12-C , 13-C ) :   0.9212 B( 12-C , 14-H ) :   0.9584
B( 12-C , 15-H ) :   0.9737 B( 13-C , 19-O ) :   1.8047 B( 13-C , 20-O ) :   1.7563
B( 16-H , 20-O ) :   0.2078 B( 17-H , 19-O ) :   0.1975

FINAL SINGLE POINT ENERGY      -479.990890250188

DIPOLE MOMENT
-------------
                                X             Y             Z
Electronic contribution:      2.30183      -3.10568      -6.26194
Nuclear contribution   :     -2.02598       1.95876       8.24116
                        -----------------------------------------
Total Dipole Moment    :      0.27585      -1.14692       1.97922
                        -----------------------------------------
Magnitude (a.u.)       :      2.30409
Magnitude (Debye)      :      5.85652

Rotational constants in cm-1:     0.052900     0.041948     0.028766
Rotational constants in MHz :  1585.892512  1257.572595   862.390225

                             ****ORCA TERMINATED NORMALLY****
TOTAL RUN TIME: 0 days 0 hours 0 minutes 46 seconds 41 msec
