                         Program Version 5.0.0 -  RELEASE  -
|  1> !LC-BLYP RIJCOSX def2-TZVP def2/J TightSCF
|  2> *xyz 0 1
|  3> C         -0.10608        1.76991       -4.08984
|  4> C         -0.25875        1.00432       -5.40983
|  5> C          0.39596       -0.37070       -5.33994
|  6> H          0.23915        1.56939       -6.20125
|  7> H         -1.30936        0.88869       -5.68245
|  8> F         -0.32633       -1.39040       -5.49128
|  9> O          1.61941       -0.40073       -5.03683
| 10> H         -0.57627        2.72718       -4.17630
| 11> H          0.93321        1.90140       -3.87192
| 12> H         -0.56868        1.21534       -3.30031
| 13> *
| 14> %MaxCore 64000
| 15>
| 16> %pal nprocs 4
| 17> end
| 18>
| 19> %scf
| 20>   MaxIter 150
| 21> end
| 22>
| 23>
| 24>                          ****END OF INPUT****

CARTESIAN COORDINATES (ANGSTROEM)
---------------------------------
  C     -0.106080    1.769910   -4.089840
  C     -0.258750    1.004320   -5.409830
  C      0.395960   -0.370700   -5.339940
  H      0.239150    1.569390   -6.201250
  H     -1.309360    0.888690   -5.682450
  F     -0.326330   -1.390400   -5.491280
  O      1.619410   -0.400730   -5.036830
  H     -0.576270    2.727180   -4.176300
  H      0.933210    1.901400   -3.871920
  H     -0.568680    1.215340   -3.300310

 Total Charge           Charge          ....    0
 Multiplicity           Mult            ....    1
 Number of Electrons    NEL             ....   40
 Basis Dimension        Dim             ....  185

ORBITAL ENERGIES
----------------

  NO   OCC          E(Eh)            E(eV)
   0   2.0000     -24.523219      -667.3107
   1   2.0000     -18.943035      -515.4662
   2   2.0000     -10.249638      -278.9068
   3   2.0000     -10.102558      -274.9046
   4   2.0000     -10.073179      -274.1051
   5   2.0000      -1.396646       -38.0047
   6   2.0000      -1.123390       -30.5690
   7   2.0000      -0.912138       -24.8205
   8   2.0000      -0.796543       -21.6750
   9   2.0000      -0.743950       -20.2439
  10   2.0000      -0.656023       -17.8513
  11   2.0000      -0.639031       -17.3889
  12   2.0000      -0.612908       -16.6781
  13   2.0000      -0.571655       -15.5555
  14   2.0000      -0.537351       -14.6221
  15   2.0000      -0.501884       -13.6569
  16   2.0000      -0.478616       -13.0238
  17   2.0000      -0.474374       -12.9084
  18   2.0000      -0.447048       -12.1648
  19   2.0000      -0.393371       -10.7042
  20   0.0000       0.051365         1.3977
  21   0.0000       0.097369         2.6495
  22   0.0000       0.137387         3.7385
  23   0.0000       0.152315         4.1447
  24   0.0000       0.164036         4.4636

MULLIKEN ATOMIC CHARGES
-----------------------
   0 C :   -0.402006
   1 C :   -0.258067
   2 C :    0.290386
   3 H :    0.150099
   4 H :    0.131640
   5 F :   -0.065051
   6 O :   -0.281936
   7 H :    0.138743
   8 H :    0.159096
   9 H :    0.137096
Sum of atomic charges:    0.0000000

LOEWDIN ATOMIC CHARGES
----------------------
   0 C :   -0.299611
   1 C :   -0.269870
   2 C :   -0.518237
   3 H :    0.159925
   4 H :    0.143178
   5 F :    0.334974
   6 O :    0.070745
   7 H :    0.123836
   8 H :    0.130356
   9 H :    0.124704

  Mayer bond orders larger than 0.100000
B(  0-C ,  1-C ) :   0.9366 B(  0-C ,  7-H ) :   0.9744 B(  0-C ,  8-H ) :   0.9658
B(  0-C ,  9-H ) :   0.9728 B(  1-C ,  2-C ) :   0.9604 B(  1-C ,  3-H ) :   0.9472
B(  1-C ,  4-H ) :   0.9624 B(  2-C ,  5-F ) :   1.2128 B(  2-C ,  6-O ) :   2.0980

FINAL SINGLE POINT ENERGY      -291.902519666130

DIPOLE MOMENT
-------------
                                X             Y             Z
Electronic contribution:      0.84206      -8.17946      -2.57763
Nuclear contribution   :     -1.80992       8.85192       2.42184
                        -----------------------------------------
Total Dipole Moment    :     -0.96787       0.67246      -0.15578
                        -----------------------------------------
Magnitude (a.u.)       :      1.18880
Magnitude (Debye)      :      3.02169

Rotational constants in cm-1:     0.298360     0.128849     0.102271
Rotational constants in MHz :  8944.606599  3862.796179  3066.020510

                             ****ORCA TERMINATED NORMALLY****
TOTAL RUN TIME: 0 days 0 hours 0 minutes 23 seconds 246 msec
