                         Program Version 5.0.0 -  RELEASE  -
|  1> !LC-BLYP RIJCOSX def2-TZVP def2/J TightSCF
|  2> *xyz 0 1
|  3> C          0.81607       -2.10149       -2.18655
|  4> H          1.69623       -2.36869       -1.60046
|  5> C          1.10055       -2.46749       -3.59927
|  6> C          0.51624       -0.61363       -2.03937
|  7> H         -0.02007       -2.71285       -1.84084
|  8> H          1.70061       -1.75723       -4.07838
|  9> H          0.29386       -2.35977       -4.25632
| 10> H          1.50132       -3.42848       -3.69491
| 11> H         -0.34841       -0.36504       -2.61858
| 12> H          1.35358       -0.04503       -2.38643
| 13> H          0.33317       -0.38682       -1.00984
| 14> *
| 15> %MaxCore 64000
| 16>
| 17> %pal nprocs 4
| 18> end
| 19>
| 20> %scf
| 21>   MaxIter 150
| 22> end
| 23>
| 24>
| 25>                          ****END OF INPUT****

CARTESIAN COORDINATES (ANGSTROEM)
---------------------------------
  C      0.816070   -2.101490   -2.186550
  H      1.696230   -2.368690   -1.600460
  C      1.100550   -2.467490   -3.599270
  C      0.516240   -0.613630   -2.039370
  H     -0.020070   -2.712850   -1.840840
  H      1.700610   -1.757230   -4.078380
  H      0.293860   -2.359770   -4.256320
  H      1.501320   -3.428480   -3.694910
  H     -0.348410   -0.365040   -2.618580
  H      1.353580   -0.045030   -2.386430
  H      0.333170   -0.386820   -1.009840

 Total Charge           Charge          ....    0
 Multiplicity           Mult            ....    1
 Number of Electrons    NEL             ....   26
 Basis Dimension        Dim             ....  141

ORBITAL ENERGIES
----------------

  NO   OCC          E(Eh)            E(eV)
   0   2.0000     -10.056255      -273.6446
   1   2.0000     -10.045745      -273.3586
   2   2.0000     -10.033353      -273.0214
   3   2.0000      -0.900195       -24.4956
   4   2.0000      -0.797171       -21.6921
   5   2.0000      -0.697722       -18.9860
   6   2.0000      -0.568237       -15.4625
   7   2.0000      -0.552250       -15.0275
   8   2.0000      -0.515074       -14.0159
   9   2.0000      -0.476804       -12.9745
  10   2.0000      -0.440152       -11.9772
  11   2.0000      -0.435486       -11.8502
  12   2.0000      -0.417266       -11.3544
  13   0.0000       0.103420         2.8142
  14   0.0000       0.147780         4.0213
  15   0.0000       0.149561         4.0698
  16   0.0000       0.161775         4.4021
  17   0.0000       0.180715         4.9175

MULLIKEN ATOMIC CHARGES
-----------------------
   0 C :   -0.181437
   1 H :    0.107636
   2 C :   -0.410716
   3 C :   -0.391498
   4 H :    0.107669
   5 H :    0.126152
   6 H :    0.135631
   7 H :    0.129663
   8 H :    0.122882
   9 H :    0.125862
  10 H :    0.128156
Sum of atomic charges:    0.0000000

LOEWDIN ATOMIC CHARGES
----------------------
   0 C :   -0.331065
   1 H :    0.136692
   2 C :   -0.332392
   3 C :   -0.318884
   4 H :    0.135742
   5 H :    0.118570
   6 H :    0.116835
   7 H :    0.116017
   8 H :    0.119769
   9 H :    0.119519
  10 H :    0.119197

  Mayer bond orders larger than 0.100000
B(  0-C ,  1-H ) :   0.9772 B(  0-C ,  2-C ) :   0.9342 B(  0-C ,  3-C ) :   0.9469
B(  0-C ,  4-H ) :   0.9758 B(  2-C ,  5-H ) :   0.9781 B(  2-C ,  6-H ) :   0.9787
B(  2-C ,  7-H ) :   0.9817 B(  3-C ,  8-H ) :   0.9760 B(  3-C ,  9-H ) :   0.9761
B(  3-C , 10-H ) :   0.9842

FINAL SINGLE POINT ENERGY      -118.786149347569

DIPOLE MOMENT
-------------
                                X             Y             Z
Electronic contribution:     -0.01863      -0.31012       0.46289
Nuclear contribution   :      0.01737       0.30387      -0.47422
                        -----------------------------------------
Total Dipole Moment    :     -0.00125      -0.00624      -0.01133
                        -----------------------------------------
Magnitude (a.u.)       :      0.01299
Magnitude (Debye)      :      0.03303

Rotational constants in cm-1:     1.006891     0.295208     0.258491
Rotational constants in MHz : 30185.831813  8850.104914  7749.351732

                             ****ORCA TERMINATED NORMALLY****
TOTAL RUN TIME: 0 days 0 hours 0 minutes 14 seconds 316 msec
