                         Program Version 5.0.0 -  RELEASE  -
|  1> !LC-BLYP RIJCOSX def2-TZVP def2/J TightSCF
|  2> *xyz 0 1
|  3> C         -0.10608        1.76991       -4.08984
|  4> C         -0.25875        1.00432       -5.40983
|  5> C          0.39596       -0.37070       -5.33994
|  6> H          0.23915        1.56939       -6.20125
|  7> H         -1.30936        0.88869       -5.68245
|  8> O         -0.32633       -1.39040       -5.49128
|  9> F          1.61941       -0.40073       -5.03683
| 10> H         -0.57627        2.72718       -4.17630
| 11> H          0.93321        1.90140       -3.87192
| 12> H         -0.56868        1.21534       -3.30031
| 13> *
| 14> %MaxCore 64000
| 15>
| 16> %pal nprocs 4
| 17> end
| 18>
| 19> %scf
| 20>   MaxIter 150
| 21> end
| 22>
| 23>
| 24>                          ****END OF INPUT****

CARTESIAN COORDINATES (ANGSTROEM)
---------------------------------
  C     -0.106080    1.769910   -4.089840
  C     -0.258750    1.004320   -5.409830
  C      0.395960   -0.370700   -5.339940
  H      0.239150    1.569390   -6.201250
  H     -1.309360    0.888690   -5.682450
  O     -0.326330   -1.390400   -5.491280
  F      1.619410   -0.400730   -5.036830
  H     -0.576270    2.727180   -4.176300
  H      0.933210    1.901400   -3.871920
  H     -0.568680    1.215340   -3.300310

 Total Charge           Charge          ....    0
 Multiplicity           Mult            ....    1
 Number of Electrons    NEL             ....   40
 Basis Dimension        Dim             ....  185

ORBITAL ENERGIES
----------------

  NO   OCC          E(Eh)            E(eV)
   0   2.0000     -24.521921      -667.2754
   1   2.0000     -18.943748      -515.4856
   2   2.0000     -10.248788      -278.8837
   3   2.0000     -10.102271      -274.8968
   4   2.0000     -10.078346      -274.2457
   5   2.0000      -1.395312       -37.9684
   6   2.0000      -1.123176       -30.5632
   7   2.0000      -0.916847       -24.9487
   8   2.0000      -0.793826       -21.6011
   9   2.0000      -0.747644       -20.3444
  10   2.0000      -0.657415       -17.8892
  11   2.0000      -0.643257       -17.5039
  12   2.0000      -0.605594       -16.4790
  13   2.0000      -0.571526       -15.5520
  14   2.0000      -0.538090       -14.6422
  15   2.0000      -0.505596       -13.7580
  16   2.0000      -0.484714       -13.1897
  17   2.0000      -0.477992       -13.0068
  18   2.0000      -0.452253       -12.3064
  19   2.0000      -0.389703       -10.6043
  20   0.0000       0.055624         1.5136
  21   0.0000       0.093465         2.5433
  22   0.0000       0.135818         3.6958
  23   0.0000       0.153954         4.1893
  24   0.0000       0.168176         4.5763

MULLIKEN ATOMIC CHARGES
-----------------------
   0 C :   -0.407760
   1 C :   -0.254588
   2 C :    0.281108
   3 H :    0.138888
   4 H :    0.153374
   5 O :   -0.274114
   6 F :   -0.070983
   7 H :    0.143870
   8 H :    0.142195
   9 H :    0.148010
Sum of atomic charges:   -0.0000000

LOEWDIN ATOMIC CHARGES
----------------------
   0 C :   -0.305558
   1 C :   -0.264947
   2 C :   -0.521254
   3 H :    0.152631
   4 H :    0.155544
   5 O :    0.072257
   6 F :    0.333599
   7 H :    0.125967
   8 H :    0.124632
   9 H :    0.127130

  Mayer bond orders larger than 0.100000
B(  0-C ,  1-C ) :   0.9237 B(  0-C ,  7-H ) :   0.9745 B(  0-C ,  8-H ) :   0.9686
B(  0-C ,  9-H ) :   0.9698 B(  1-C ,  2-C ) :   0.9746 B(  1-C ,  3-H ) :   0.9458
B(  1-C ,  4-H ) :   0.9673 B(  2-C ,  5-O ) :   2.1336 B(  2-C ,  6-F ) :   1.1917

FINAL SINGLE POINT ENERGY      -291.903796116000

DIPOLE MOMENT
-------------
                                X             Y             Z
Electronic contribution:      4.06872      -6.50350      -1.81574
Nuclear contribution   :     -3.93139       7.77287       1.92635
                        -----------------------------------------
Total Dipole Moment    :      0.13734       1.26938       0.11062
                        -----------------------------------------
Magnitude (a.u.)       :      1.28157
Magnitude (Debye)      :      3.25749

Rotational constants in cm-1:     0.286068     0.133630     0.103472
Rotational constants in MHz :  8576.109806  4006.118234  3102.010802

                             ****ORCA TERMINATED NORMALLY****
TOTAL RUN TIME: 0 days 0 hours 0 minutes 23 seconds 669 msec
