                         Program Version 5.0.0 -  RELEASE  -
|  1> !LC-PBE RIJCOSX def2-SVPD def2/J TightSCF
|  2> *xyz -1 1
|  3> C          0.70466        1.44313       -4.50363
|  4> C          1.72854        1.42432       -5.63944
|  5> H          2.64672        1.95379       -5.38105
|  6> H          1.29992        1.93061       -6.50361
|  7> S          2.25263       -0.18811       -6.27184
|  8> O          3.56261       -0.44446       -5.63155
|  9> O          2.34494       -0.03374       -7.69650
| 10> C          1.05255        0.69566       -3.21491
| 11> H         -0.23248        1.03293       -4.88445
| 12> H          0.51170        2.49579       -4.26797
| 13> O          1.26606       -1.15918       -5.80536
| 14> H          1.24200       -0.33323       -3.43942
| 15> H          0.23391        0.76629       -2.52954
| 16> H          1.92506        1.13113       -2.77446
| 17> *
| 18>
| 19> %MaxCore 64000
| 20>
| 21> %pal nprocs 8
| 22> end
| 23>
| 24> %scf
| 25>   MaxIter 150
| 26> end
| 27>
| 28>
| 29>                          ****END OF INPUT****

CARTESIAN COORDINATES (ANGSTROEM)
---------------------------------
  C      0.704660    1.443130   -4.503630
  C      1.728540    1.424320   -5.639440
  H      2.646720    1.953790   -5.381050
  H      1.299920    1.930610   -6.503610
  S      2.252630   -0.188110   -6.271840
  O      3.562610   -0.444460   -5.631550
  O      2.344940   -0.033740   -7.696500
  C      1.052550    0.695660   -3.214910
  H     -0.232480    1.032930   -4.884450
  H      0.511700    2.495790   -4.267970
  O      1.266060   -1.159180   -5.805360
  H      1.242000   -0.333230   -3.439420
  H      0.233910    0.766290   -2.529540
  H      1.925060    1.131130   -2.774460

 Total Charge           Charge          ....   -1
 Multiplicity           Mult            ....    1
 Number of Electrons    NEL             ....   66
 Basis Dimension        Dim             ....  212

ORBITAL ENERGIES
----------------

  NO   OCC          E(Eh)            E(eV)
   0   2.0000     -88.317216     -2403.2336
   1   2.0000     -18.779520      -511.0167
   2   2.0000     -18.772916      -510.8370
   3   2.0000     -18.763240      -510.5737
   4   2.0000     -10.003827      -272.2180
   5   2.0000      -9.995691      -271.9966
   6   2.0000      -9.981267      -271.6041
   7   2.0000      -7.938869      -216.0276
   8   2.0000      -5.961220      -162.2130
   9   2.0000      -5.961075      -162.2091
  10   2.0000      -5.960834      -162.2025
  11   2.0000      -1.111666       -30.2500
  12   2.0000      -0.956823       -26.0365
  13   2.0000      -0.932701       -25.3801
  14   2.0000      -0.834168       -22.6989
  15   2.0000      -0.737958       -20.0809
  16   2.0000      -0.633036       -17.2258
  17   2.0000      -0.534663       -14.5489
  18   2.0000      -0.485355       -13.2072
  19   2.0000      -0.467742       -12.7279
  20   2.0000      -0.445052       -12.1105
  21   2.0000      -0.429331       -11.6827
  22   2.0000      -0.412642       -11.2286
  23   2.0000      -0.399251       -10.8642
  24   2.0000      -0.358256        -9.7486
  25   2.0000      -0.354260        -9.6399
  26   2.0000      -0.335982        -9.1425
  27   2.0000      -0.295890        -8.0516
  28   2.0000      -0.293135        -7.9766
  29   2.0000      -0.254705        -6.9309
  30   2.0000      -0.242603        -6.6016
  31   2.0000      -0.234486        -6.3807
  32   2.0000      -0.200495        -5.4557
  33   0.0000       0.200363         5.4521
  34   0.0000       0.220000         5.9865
  35   0.0000       0.223027         6.0689
  36   0.0000       0.229978         6.2580
  37   0.0000       0.250008         6.8031

MULLIKEN ATOMIC CHARGES
-----------------------
   0 C :   -0.421053
   1 C :   -0.130153
   2 H :    0.069198
   3 H :    0.090786
   4 S :    1.202290
   5 O :   -0.782485
   6 O :   -0.761538
   7 C :    0.536704
   8 H :    0.060183
   9 H :   -0.055487
  10 O :   -0.790826
  11 H :   -0.066247
  12 H :    0.025927
  13 H :    0.022703
Sum of atomic charges:   -1.0000000

LOEWDIN ATOMIC CHARGES
----------------------
   0 C :   -0.120473
   1 C :   -0.104806
   2 H :    0.017360
   3 H :    0.008775
   4 S :    0.847749
   5 O :   -0.598218
   6 O :   -0.568591
   7 C :    0.091851
   8 H :    0.028371
   9 H :    0.019183
  10 O :   -0.573863
  11 H :   -0.019204
  12 H :   -0.018920
  13 H :   -0.009213

  Mayer bond orders larger than 0.100000
B(  0-C ,  1-C ) :   1.2738 B(  0-C ,  2-H ) :   0.1085 B(  0-C ,  3-H ) :   0.1185
B(  0-C ,  7-C ) :   1.2752 B(  0-C ,  8-H ) :   0.9248 B(  0-C ,  9-H ) :   0.9301
B(  0-C , 11-H ) :   0.1827 B(  0-C , 12-H ) :   0.1759 B(  0-C , 13-H ) :   0.1794
B(  1-C ,  2-H ) :   0.9411 B(  1-C ,  3-H ) :   0.9045 B(  1-C ,  4-S ) :   0.9090
B(  1-C ,  8-H ) :   0.1191 B(  1-C ,  9-H ) :   0.1208 B(  4-S ,  5-O ) :   1.2933
B(  4-S ,  6-O ) :   1.3956 B(  4-S , 10-O ) :   1.3063 B(  7-C , 11-H ) :   0.8751
B(  7-C , 12-H ) :   0.7824 B(  7-C , 13-H ) :   0.8112

FINAL SINGLE POINT ENERGY      -740.723551988542

DIPOLE MOMENT
-------------
                                X             Y             Z
Electronic contribution:      4.35176      -5.54460      -7.98765
Nuclear contribution   :     -5.44810       7.35485       9.25157
                        -----------------------------------------
Total Dipole Moment    :     -1.09635       1.81024       1.26392
                        -----------------------------------------
Magnitude (a.u.)       :      2.46505
Magnitude (Debye)      :      6.26565

Rotational constants in cm-1:     0.135801     0.054229     0.051056
Rotational constants in MHz :  4071.225075  1625.746654  1530.611411

                             ****ORCA TERMINATED NORMALLY****
TOTAL RUN TIME: 0 days 0 hours 0 minutes 14 seconds 556 msec
