                         Program Version 5.0.0 -  RELEASE  -
|  1> !LC-PBE RIJCOSX def2-SVPD def2/J TightSCF
|  2> *xyz 1 1
|  3> C          2.91632       -1.24259       -1.54313
|  4> C          3.46659       -1.59097       -2.88908
|  5> N          4.65227       -1.14316       -3.25969
|  6> N          2.75226       -2.29204       -3.72803
|  7> H          1.77836       -2.48960       -3.51274
|  8> H          2.94861       -2.20854       -4.71681
|  9> H          5.14672       -0.51251       -2.63385
| 10> H          4.78303       -1.00720       -4.25350
| 11> C          2.80408        0.29070       -1.35924
| 12> C          2.38838        1.09367       -2.59711
| 13> H          3.76342        0.67472       -0.99989
| 14> H          2.09479        0.46122       -0.54576
| 15> H          1.94047       -1.71653       -1.44116
| 16> H          3.55857       -1.66343       -0.76637
| 17> H          3.08894        0.91965       -3.38694
| 18> H          2.37301        2.13633       -2.35728
| 19> H          1.41303        0.78551       -2.91115
| 20> *
| 21>
| 22> %MaxCore 64000
| 23>
| 24> %pal nprocs 8
| 25> end
| 26>
| 27> %scf
| 28>   MaxIter 150
| 29> end
| 30>
| 31>
| 32>                          ****END OF INPUT****

CARTESIAN COORDINATES (ANGSTROEM)
---------------------------------
  C      2.916320   -1.242590   -1.543130
  C      3.466590   -1.590970   -2.889080
  N      4.652270   -1.143160   -3.259690
  N      2.752260   -2.292040   -3.728030
  H      1.778360   -2.489600   -3.512740
  H      2.948610   -2.208540   -4.716810
  H      5.146720   -0.512510   -2.633850
  H      4.783030   -1.007200   -4.253500
  C      2.804080    0.290700   -1.359240
  C      2.388380    1.093670   -2.597110
  H      3.763420    0.674720   -0.999890
  H      2.094790    0.461220   -0.545760
  H      1.940470   -1.716530   -1.441160
  H      3.558570   -1.663430   -0.766370
  H      3.088940    0.919650   -3.386940
  H      2.373010    2.136330   -2.357280
  H      1.413030    0.785510   -2.911150

 Total Charge           Charge          ....    1
 Multiplicity           Mult            ....    1
 Number of Electrons    NEL             ....   48
 Basis Dimension        Dim             ....  208

ORBITAL ENERGIES
----------------

  NO   OCC          E(Eh)            E(eV)
   0   2.0000     -14.477487      -393.9524
   1   2.0000     -14.471346      -393.7853
   2   2.0000     -10.460091      -284.6336
   3   2.0000     -10.326204      -280.9903
   4   2.0000     -10.296431      -280.1801
   5   2.0000     -10.262425      -279.2548
   6   2.0000      -1.380933       -37.5771
   7   2.0000      -1.271031       -34.5865
   8   2.0000      -1.150117       -31.2963
   9   2.0000      -1.058406       -28.8007
  10   2.0000      -0.991695       -26.9854
  11   2.0000      -0.941749       -25.6263
  12   2.0000      -0.918248       -24.9868
  13   2.0000      -0.883223       -24.0337
  14   2.0000      -0.837188       -22.7810
  15   2.0000      -0.817934       -22.2571
  16   2.0000      -0.776548       -21.1309
  17   2.0000      -0.734137       -19.9769
  18   2.0000      -0.718336       -19.5469
  19   2.0000      -0.703144       -19.1335
  20   2.0000      -0.644149       -17.5282
  21   2.0000      -0.638460       -17.3734
  22   2.0000      -0.629952       -17.1419
  23   2.0000      -0.619523       -16.8581
  24   0.0000      -0.128106        -3.4859
  25   0.0000      -0.076008        -2.0683
  26   0.0000      -0.038431        -1.0458
  27   0.0000      -0.036787        -1.0010
  28   0.0000      -0.013040        -0.3548

MULLIKEN ATOMIC CHARGES
-----------------------
   0 C :    0.112438
   1 C :    0.298425
   2 N :    0.037700
   3 N :   -0.004440
   4 H :    0.109656
   5 H :   -0.025900
   6 H :    0.113172
   7 H :    0.019974
   8 C :   -0.505896
   9 C :    0.539648
  10 H :    0.066717
  11 H :   -0.055271
  12 H :    0.168120
  13 H :    0.103737
  14 H :   -0.033644
  15 H :    0.014759
  16 H :    0.040805
Sum of atomic charges:    1.0000000

LOEWDIN ATOMIC CHARGES
----------------------
   0 C :    0.032367
   1 C :   -0.066287
   2 N :    0.273675
   3 N :    0.275685
   4 H :    0.064749
   5 H :    0.058770
   6 H :    0.062319
   7 H :    0.056076
   8 C :   -0.059493
   9 C :    0.111676
  10 H :    0.036693
  11 H :    0.049099
  12 H :    0.047293
  13 H :    0.065454
  14 H :   -0.026414
  15 H :    0.013437
  16 H :    0.004900

  Mayer bond orders larger than 0.100000
B(  0-C ,  1-C ) :   1.2300 B(  0-C ,  8-C ) :   1.1976 B(  0-C , 12-H ) :   0.8026
B(  0-C , 13-H ) :   0.7924 B(  1-C ,  2-N ) :   1.1804 B(  1-C ,  3-N ) :   1.1208
B(  1-C , 12-H ) :   0.1122 B(  1-C , 13-H ) :   0.1692 B(  2-N ,  3-N ) :   0.1509
B(  2-N ,  6-H ) :   0.9578 B(  2-N ,  7-H ) :   1.1037 B(  3-N ,  4-H ) :   1.0143
B(  3-N ,  5-H ) :   1.1503 B(  4-H ,  5-H ) :  -0.1267 B(  6-H ,  7-H ) :  -0.1131
B(  8-C ,  9-C ) :   1.3274 B(  8-C , 10-H ) :   0.9356 B(  8-C , 11-H ) :   1.0198
B(  8-C , 12-H ) :   0.1264 B(  8-C , 14-H ) :   0.1836 B(  8-C , 15-H ) :   0.1776
B(  8-C , 16-H ) :   0.1590 B(  9-C , 14-H ) :   0.8550 B(  9-C , 15-H ) :   0.8084
B(  9-C , 16-H ) :   0.8170

FINAL SINGLE POINT ENERGY      -267.277149280791

DIPOLE MOMENT
-------------
                                X             Y             Z
Electronic contribution:      2.02606      -4.55786      -1.88691
Nuclear contribution   :     -1.81078       3.96608       0.97433
                        -----------------------------------------
Total Dipole Moment    :      0.21528      -0.59178      -0.91258
                        -----------------------------------------
Magnitude (a.u.)       :      1.10876
Magnitude (Debye)      :      2.81825

Rotational constants in cm-1:     0.170042     0.080945     0.078209
Rotational constants in MHz :  5097.737821  2426.678005  2344.636232

                             ****ORCA TERMINATED NORMALLY****
TOTAL RUN TIME: 0 days 0 hours 0 minutes 14 seconds 589 msec
