                         Program Version 5.0.0 -  RELEASE  -
|  1> !LC-PBE RIJCOSX def2-SVPD def2/J TightSCF
|  2> *xyz 0 1
|  3> C          0.70466        1.44313       -4.50363
|  4> C          1.72854        1.42432       -5.63944
|  5> H          2.64672        1.95379       -5.38105
|  6> H          1.29992        1.93061       -6.50361
|  7> S          2.25263       -0.18811       -6.27184
|  8> F          3.56261       -0.44446       -5.63155
|  9> O          2.34494       -0.03374       -7.69650
| 10> C          1.05255        0.69566       -3.21491
| 11> H         -0.23248        1.03293       -4.88445
| 12> H          0.51170        2.49579       -4.26797
| 13> O          1.26606       -1.15918       -5.80536
| 14> H          1.24200       -0.33323       -3.43942
| 15> H          0.23391        0.76629       -2.52954
| 16> H          1.92506        1.13113       -2.77446
| 17> *
| 18>
| 19> %MaxCore 64000
| 20>
| 21> %pal nprocs 8
| 22> end
| 23>
| 24> %scf
| 25>   MaxIter 150
| 26> end
| 27>
| 28>
| 29>                          ****END OF INPUT****

CARTESIAN COORDINATES (ANGSTROEM)
---------------------------------
  C      0.704660    1.443130   -4.503630
  C      1.728540    1.424320   -5.639440
  H      2.646720    1.953790   -5.381050
  H      1.299920    1.930610   -6.503610
  S      2.252630   -0.188110   -6.271840
  F      3.562610   -0.444460   -5.631550
  O      2.344940   -0.033740   -7.696500
  C      1.052550    0.695660   -3.214910
  H     -0.232480    1.032930   -4.884450
  H      0.511700    2.495790   -4.267970
  O      1.266060   -1.159180   -5.805360
  H      1.242000   -0.333230   -3.439420
  H      0.233910    0.766290   -2.529540
  H      1.925060    1.131130   -2.774460

 Total Charge           Charge          ....    0
 Multiplicity           Mult            ....    1
 Number of Electrons    NEL             ....   66
 Basis Dimension        Dim             ....  212

ORBITAL ENERGIES
----------------

  NO   OCC          E(Eh)            E(eV)
   0   2.0000     -88.574893     -2410.2454
   1   2.0000     -24.612556      -669.7417
   2   2.0000     -19.012879      -517.3667
   3   2.0000     -19.005050      -517.1537
   4   2.0000     -10.195256      -277.4270
   5   2.0000     -10.159922      -276.4655
   6   2.0000     -10.125853      -275.5385
   7   2.0000      -8.197271      -223.0591
   8   2.0000      -6.224262      -169.3708
   9   2.0000      -6.217212      -169.1789
  10   2.0000      -6.216042      -169.1471
  11   2.0000      -1.511425       -41.1280
  12   2.0000      -1.289836       -35.0982
  13   2.0000      -1.185068       -32.2474
  14   2.0000      -1.009531       -27.4707
  15   2.0000      -0.922164       -25.0934
  16   2.0000      -0.862911       -23.4810
  17   2.0000      -0.797275       -21.6950
  18   2.0000      -0.728755       -19.8304
  19   2.0000      -0.723571       -19.6894
  20   2.0000      -0.706031       -19.2121
  21   2.0000      -0.650456       -17.6998
  22   2.0000      -0.630531       -17.1576
  23   2.0000      -0.602450       -16.3935
  24   2.0000      -0.594283       -16.1713
  25   2.0000      -0.579955       -15.7814
  26   2.0000      -0.541068       -14.7232
  27   2.0000      -0.518667       -14.1136
  28   2.0000      -0.509427       -13.8622
  29   2.0000      -0.492244       -13.3946
  30   2.0000      -0.475584       -12.9413
  31   2.0000      -0.461074       -12.5464
  32   2.0000      -0.454228       -12.3602
  33   0.0000       0.067027         1.8239
  34   0.0000       0.085789         2.3345
  35   0.0000       0.092947         2.5292
  36   0.0000       0.094030         2.5587
  37   0.0000       0.119848         3.2612

MULLIKEN ATOMIC CHARGES
-----------------------
   0 C :   -0.398974
   1 C :   -0.173699
   2 H :    0.121223
   3 H :    0.142927
   4 S :    1.359627
   5 F :   -0.367278
   6 O :   -0.625528
   7 C :    0.533728
   8 H :    0.083551
   9 H :   -0.014574
  10 O :   -0.664265
  11 H :   -0.091374
  12 H :    0.056517
  13 H :    0.038116
Sum of atomic charges:    0.0000000

LOEWDIN ATOMIC CHARGES
----------------------
   0 C :   -0.097839
   1 C :   -0.063064
   2 H :    0.033496
   3 H :    0.036527
   4 S :    1.105109
   5 F :   -0.262306
   6 O :   -0.457008
   7 C :    0.107023
   8 H :    0.041966
   9 H :    0.042631
  10 O :   -0.466387
  11 H :   -0.019959
  12 H :    0.001498
  13 H :   -0.001685

  Mayer bond orders larger than 0.100000
B(  0-C ,  1-C ) :   1.3110 B(  0-C ,  2-H ) :   0.1097 B(  0-C ,  3-H ) :   0.1097
B(  0-C ,  7-C ) :   1.2905 B(  0-C ,  8-H ) :   0.9235 B(  0-C ,  9-H ) :   0.9229
B(  0-C , 11-H ) :   0.1670 B(  0-C , 12-H ) :   0.1689 B(  0-C , 13-H ) :   0.1711
B(  1-C ,  2-H ) :   0.9156 B(  1-C ,  3-H ) :   0.8987 B(  1-C ,  4-S ) :   0.9711
B(  1-C ,  8-H ) :   0.1178 B(  1-C ,  9-H ) :   0.1161 B(  4-S ,  5-F ) :   0.6703
B(  4-S ,  6-O ) :   1.6114 B(  4-S , 10-O ) :   1.5316 B(  7-C , 11-H ) :   0.8792
B(  7-C , 12-H ) :   0.7907 B(  7-C , 13-H ) :   0.8155

FINAL SINGLE POINT ENERGY      -765.194389559397

DIPOLE MOMENT
-------------
                                X             Y             Z
Electronic contribution:      7.37139      -6.63055      -8.17638
Nuclear contribution   :     -7.21372       8.00417       9.21533
                        -----------------------------------------
Total Dipole Moment    :      0.15767       1.37362       1.03895
                        -----------------------------------------
Magnitude (a.u.)       :      1.72948
Magnitude (Debye)      :      4.39599

Rotational constants in cm-1:     0.129205     0.053290     0.050128
Rotational constants in MHz :  3873.458819  1597.595736  1502.810344

                             ****ORCA TERMINATED NORMALLY****
TOTAL RUN TIME: 0 days 0 hours 0 minutes 14 seconds 328 msec
