                         Program Version 5.0.0 -  RELEASE  -
|  1> !LC-PBE RIJCOSX def2-SVPD def2/J TightSCF
|  2> *xyz 0 1
|  3> C          2.91632       -1.24259       -1.54313
|  4> C          3.46659       -1.59097       -2.88908
|  5> C          4.65227       -1.14316       -3.25969
|  6> N          2.75226       -2.29204       -3.72803
|  7> H          1.77836       -2.48960       -3.51274
|  8> H          2.94861       -2.20854       -4.71681
|  9> H          5.14672       -0.51251       -2.63385
| 10> H          4.78303       -1.00720       -4.25350
| 11> C          2.80408        0.29070       -1.35924
| 12> C          2.38838        1.09367       -2.59711
| 13> H          3.76342        0.67472       -0.99989
| 14> H          2.09479        0.46122       -0.54576
| 15> H          1.94047       -1.71653       -1.44116
| 16> H          3.55857       -1.66343       -0.76637
| 17> H          3.08894        0.91965       -3.38694
| 18> H          2.37301        2.13633       -2.35728
| 19> H          1.41303        0.78551       -2.91115
| 20> *
| 21>
| 22> %MaxCore 64000
| 23>
| 24> %pal nprocs 8
| 25> end
| 26>
| 27> %scf
| 28>   MaxIter 150
| 29> end
| 30>
| 31>
| 32>                          ****END OF INPUT****

CARTESIAN COORDINATES (ANGSTROEM)
---------------------------------
  C      2.916320   -1.242590   -1.543130
  C      3.466590   -1.590970   -2.889080
  C      4.652270   -1.143160   -3.259690
  N      2.752260   -2.292040   -3.728030
  H      1.778360   -2.489600   -3.512740
  H      2.948610   -2.208540   -4.716810
  H      5.146720   -0.512510   -2.633850
  H      4.783030   -1.007200   -4.253500
  C      2.804080    0.290700   -1.359240
  C      2.388380    1.093670   -2.597110
  H      3.763420    0.674720   -0.999890
  H      2.094790    0.461220   -0.545760
  H      1.940470   -1.716530   -1.441160
  H      3.558570   -1.663430   -0.766370
  H      3.088940    0.919650   -3.386940
  H      2.373010    2.136330   -2.357280
  H      1.413030    0.785510   -2.911150

 Total Charge           Charge          ....    0
 Multiplicity           Mult            ....    1
 Number of Electrons    NEL             ....   48
 Basis Dimension        Dim             ....  208

ORBITAL ENERGIES
----------------

  NO   OCC          E(Eh)            E(eV)
   0   2.0000     -14.232755      -387.2930
   1   2.0000     -10.154701      -276.3235
   2   2.0000     -10.129834      -275.6468
   3   2.0000     -10.127051      -275.5711
   4   2.0000     -10.104617      -274.9606
   5   2.0000     -10.055421      -273.6219
   6   2.0000      -1.106439       -30.1077
   7   2.0000      -0.968800       -26.3624
   8   2.0000      -0.893720       -24.3194
   9   2.0000      -0.853794       -23.2329
  10   2.0000      -0.764809       -20.8115
  11   2.0000      -0.710339       -19.3293
  12   2.0000      -0.666102       -18.1256
  13   2.0000      -0.631417       -17.1817
  14   2.0000      -0.603642       -16.4259
  15   2.0000      -0.578932       -15.7535
  16   2.0000      -0.539841       -14.6898
  17   2.0000      -0.524721       -14.2784
  18   2.0000      -0.504130       -13.7181
  19   2.0000      -0.498818       -13.5735
  20   2.0000      -0.467441       -12.7197
  21   2.0000      -0.455793       -12.4027
  22   2.0000      -0.452297       -12.3076
  23   2.0000      -0.309834        -8.4310
  24   0.0000       0.088656         2.4125
  25   0.0000       0.103726         2.8225
  26   0.0000       0.116127         3.1600
  27   0.0000       0.125290         3.4093
  28   0.0000       0.136677         3.7192

MULLIKEN ATOMIC CHARGES
-----------------------
   0 C :    0.299938
   1 C :   -0.407278
   2 C :    0.346945
   3 N :    0.045315
   4 H :   -0.003681
   5 H :   -0.042338
   6 H :   -0.054579
   7 H :   -0.259870
   8 C :   -0.530865
   9 C :    0.565090
  10 H :    0.056155
  11 H :   -0.098504
  12 H :    0.068554
  13 H :    0.044536
  14 H :   -0.015679
  15 H :   -0.041391
  16 H :    0.027651
Sum of atomic charges:   -0.0000000

LOEWDIN ATOMIC CHARGES
----------------------
   0 C :   -0.006239
   1 C :   -0.279784
   2 C :    0.135375
   3 N :    0.159706
   4 H :    0.011980
   5 H :    0.019041
   6 H :   -0.063240
   7 H :   -0.069558
   8 C :   -0.081305
   9 C :    0.096423
  10 H :    0.027321
  11 H :    0.024904
  12 H :    0.021919
  13 H :    0.041707
  14 H :   -0.023398
  15 H :   -0.008034
  16 H :   -0.006817

  Mayer bond orders larger than 0.100000
B(  0-C ,  1-C ) :   1.2111 B(  0-C ,  8-C ) :   1.1980 B(  0-C , 11-H ) :   0.1458
B(  0-C , 12-H ) :   0.7170 B(  0-C , 13-H ) :   0.8162 B(  1-C ,  2-C ) :   2.2151
B(  1-C ,  3-N ) :   1.0432 B(  1-C ,  6-H ) :   0.1734 B(  1-C ,  7-H ) :   0.2451
B(  1-C , 12-H ) :   0.1912 B(  1-C , 13-H ) :   0.1524 B(  2-C ,  3-N ) :   0.2162
B(  2-C ,  6-H ) :   0.7070 B(  2-C ,  7-H ) :   0.7789 B(  3-N ,  4-H ) :   1.0274
B(  3-N ,  5-H ) :   1.0550 B(  4-H ,  5-H ) :  -0.1174 B(  8-C ,  9-C ) :   1.3007
B(  8-C , 10-H ) :   0.9266 B(  8-C , 11-H ) :   0.9934 B(  8-C , 12-H ) :   0.1270
B(  8-C , 14-H ) :   0.2179 B(  8-C , 15-H ) :   0.1923 B(  8-C , 16-H ) :   0.1731
B(  9-C , 14-H ) :   0.8537 B(  9-C , 15-H ) :   0.8019 B(  9-C , 16-H ) :   0.8048

FINAL SINGLE POINT ENERGY      -250.832414249124

DIPOLE MOMENT
-------------
                                X             Y             Z
Electronic contribution:      0.57544      -3.80415      -0.92982
Nuclear contribution   :     -1.45921       3.88617       0.81775
                        -----------------------------------------
Total Dipole Moment    :     -0.88377       0.08201      -0.11207
                        -----------------------------------------
Magnitude (a.u.)       :      0.89462
Magnitude (Debye)      :      2.27393

Rotational constants in cm-1:     0.176264     0.082132     0.079980
Rotational constants in MHz :  5284.261828  2462.256672  2397.741351

                             ****ORCA TERMINATED NORMALLY****
TOTAL RUN TIME: 0 days 0 hours 0 minutes 16 seconds 679 msec
