                         Program Version 5.0.0 -  RELEASE  -
|  1> !LC-PBE RIJCOSX def2-SVPD def2/J TightSCF
|  2> *xyz 0 1
|  3> C          0.70466        1.44313       -4.50363
|  4> C          1.72854        1.42432       -5.63944
|  5> H          2.64672        1.95379       -5.38105
|  6> H          1.29992        1.93061       -6.50361
|  7> S          2.25263       -0.18811       -6.27184
|  8> O          3.56261       -0.44446       -5.63155
|  9> F          2.34494       -0.03374       -7.69650
| 10> C          1.05255        0.69566       -3.21491
| 11> H         -0.23248        1.03293       -4.88445
| 12> H          0.51170        2.49579       -4.26797
| 13> O          1.26606       -1.15918       -5.80536
| 14> H          1.24200       -0.33323       -3.43942
| 15> H          0.23391        0.76629       -2.52954
| 16> H          1.92506        1.13113       -2.77446
| 17> *
| 18>
| 19> %MaxCore 64000
| 20>
| 21> %pal nprocs 8
| 22> end
| 23>
| 24> %scf
| 25>   MaxIter 150
| 26> end
| 27>
| 28>
| 29>                          ****END OF INPUT****

CARTESIAN COORDINATES (ANGSTROEM)
---------------------------------
  C      0.704660    1.443130   -4.503630
  C      1.728540    1.424320   -5.639440
  H      2.646720    1.953790   -5.381050
  H      1.299920    1.930610   -6.503610
  S      2.252630   -0.188110   -6.271840
  O      3.562610   -0.444460   -5.631550
  F      2.344940   -0.033740   -7.696500
  C      1.052550    0.695660   -3.214910
  H     -0.232480    1.032930   -4.884450
  H      0.511700    2.495790   -4.267970
  O      1.266060   -1.159180   -5.805360
  H      1.242000   -0.333230   -3.439420
  H      0.233910    0.766290   -2.529540
  H      1.925060    1.131130   -2.774460

 Total Charge           Charge          ....    0
 Multiplicity           Mult            ....    1
 Number of Electrons    NEL             ....   66
 Basis Dimension        Dim             ....  212

ORBITAL ENERGIES
----------------

  NO   OCC          E(Eh)            E(eV)
   0   2.0000     -88.576818     -2410.2978
   1   2.0000     -24.636253      -670.3865
   2   2.0000     -19.005733      -517.1723
   3   2.0000     -18.996796      -516.9291
   4   2.0000     -10.196300      -277.4554
   5   2.0000     -10.160160      -276.4720
   6   2.0000     -10.118852      -275.3480
   7   2.0000      -8.199405      -223.1172
   8   2.0000      -6.226500      -169.4317
   9   2.0000      -6.219185      -169.2326
  10   2.0000      -6.217950      -169.1990
  11   2.0000      -1.549495       -42.1639
  12   2.0000      -1.277351       -34.7585
  13   2.0000      -1.164611       -31.6907
  14   2.0000      -1.008728       -27.4489
  15   2.0000      -0.927698       -25.2440
  16   2.0000      -0.874463       -23.7954
  17   2.0000      -0.801810       -21.8184
  18   2.0000      -0.753236       -20.4966
  19   2.0000      -0.741409       -20.1748
  20   2.0000      -0.706260       -19.2183
  21   2.0000      -0.643681       -17.5154
  22   2.0000      -0.633594       -17.2410
  23   2.0000      -0.605153       -16.4671
  24   2.0000      -0.591194       -16.0872
  25   2.0000      -0.564459       -15.3597
  26   2.0000      -0.533450       -14.5159
  27   2.0000      -0.512599       -13.9485
  28   2.0000      -0.505447       -13.7539
  29   2.0000      -0.487831       -13.2745
  30   2.0000      -0.466238       -12.6870
  31   2.0000      -0.453105       -12.3296
  32   2.0000      -0.440838       -11.9958
  33   0.0000       0.062227         1.6933
  34   0.0000       0.084123         2.2891
  35   0.0000       0.089723         2.4415
  36   0.0000       0.097353         2.6491
  37   0.0000       0.116340         3.1658

MULLIKEN ATOMIC CHARGES
-----------------------
   0 C :   -0.430042
   1 C :   -0.164266
   2 H :    0.120497
   3 H :    0.141480
   4 S :    1.396746
   5 O :   -0.644465
   6 F :   -0.381255
   7 C :    0.535597
   8 H :    0.082476
   9 H :   -0.014692
  10 O :   -0.658135
  11 H :   -0.082197
  12 H :    0.056173
  13 H :    0.042083
Sum of atomic charges:    0.0000000

LOEWDIN ATOMIC CHARGES
----------------------
   0 C :   -0.093563
   1 C :   -0.068513
   2 H :    0.037973
   3 H :    0.024805
   4 S :    1.110073
   5 O :   -0.484360
   6 F :   -0.241415
   7 C :    0.112501
   8 H :    0.039780
   9 H :    0.043441
  10 O :   -0.468796
  11 H :   -0.014512
  12 H :    0.000542
  13 H :    0.002047

  Mayer bond orders larger than 0.100000
B(  0-C ,  1-C ) :   1.3176 B(  0-C ,  2-H ) :   0.1038 B(  0-C ,  3-H ) :   0.1279
B(  0-C ,  7-C ) :   1.2954 B(  0-C ,  8-H ) :   0.9193 B(  0-C ,  9-H ) :   0.9269
B(  0-C , 11-H ) :   0.1685 B(  0-C , 12-H ) :   0.1698 B(  0-C , 13-H ) :   0.1749
B(  1-C ,  2-H ) :   0.9456 B(  1-C ,  3-H ) :   0.8534 B(  1-C ,  4-S ) :   0.9527
B(  1-C ,  8-H ) :   0.1145 B(  1-C ,  9-H ) :   0.1129 B(  4-S ,  5-O ) :   1.5078
B(  4-S ,  6-F ) :   0.7393 B(  4-S , 10-O ) :   1.5055 B(  7-C , 11-H ) :   0.8812
B(  7-C , 12-H ) :   0.7850 B(  7-C , 13-H ) :   0.8124

FINAL SINGLE POINT ENERGY      -765.173782319057

DIPOLE MOMENT
-------------
                                X             Y             Z
Electronic contribution:      5.23256      -5.92074     -11.80784
Nuclear contribution   :     -5.90419       7.56246      11.43606
                        -----------------------------------------
Total Dipole Moment    :     -0.67162       1.64172      -0.37178
                        -----------------------------------------
Magnitude (a.u.)       :      1.81233
Magnitude (Debye)      :      4.60658

Rotational constants in cm-1:     0.133686     0.052402     0.049175
Rotational constants in MHz :  4007.807944  1570.986792  1474.216272

                             ****ORCA TERMINATED NORMALLY****
TOTAL RUN TIME: 0 days 0 hours 0 minutes 15 seconds 16 msec
