                         Program Version 5.0.0 -  RELEASE  -
|  1> !LC-PBE RIJCOSX def2-SVPD def2/J TightSCF
|  2> *xyz 0 1
|  3> C          2.91632       -1.24259       -1.54313
|  4> C          3.46659       -1.59097       -2.88908
|  5> N          4.65227       -1.14316       -3.25969
|  6> C          2.75226       -2.29204       -3.72803
|  7> H          1.77836       -2.48960       -3.51274
|  8> H          2.94861       -2.20854       -4.71681
|  9> H          5.14672       -0.51251       -2.63385
| 10> H          4.78303       -1.00720       -4.25350
| 11> C          2.80408        0.29070       -1.35924
| 12> C          2.38838        1.09367       -2.59711
| 13> H          3.76342        0.67472       -0.99989
| 14> H          2.09479        0.46122       -0.54576
| 15> H          1.94047       -1.71653       -1.44116
| 16> H          3.55857       -1.66343       -0.76637
| 17> H          3.08894        0.91965       -3.38694
| 18> H          2.37301        2.13633       -2.35728
| 19> H          1.41303        0.78551       -2.91115
| 20> *
| 21>
| 22> %MaxCore 64000
| 23>
| 24> %pal nprocs 8
| 25> end
| 26>
| 27> %scf
| 28>   MaxIter 150
| 29> end
| 30>
| 31>
| 32>                          ****END OF INPUT****

CARTESIAN COORDINATES (ANGSTROEM)
---------------------------------
  C      2.916320   -1.242590   -1.543130
  C      3.466590   -1.590970   -2.889080
  N      4.652270   -1.143160   -3.259690
  C      2.752260   -2.292040   -3.728030
  H      1.778360   -2.489600   -3.512740
  H      2.948610   -2.208540   -4.716810
  H      5.146720   -0.512510   -2.633850
  H      4.783030   -1.007200   -4.253500
  C      2.804080    0.290700   -1.359240
  C      2.388380    1.093670   -2.597110
  H      3.763420    0.674720   -0.999890
  H      2.094790    0.461220   -0.545760
  H      1.940470   -1.716530   -1.441160
  H      3.558570   -1.663430   -0.766370
  H      3.088940    0.919650   -3.386940
  H      2.373010    2.136330   -2.357280
  H      1.413030    0.785510   -2.911150

 Total Charge           Charge          ....    0
 Multiplicity           Mult            ....    1
 Number of Electrons    NEL             ....   48
 Basis Dimension        Dim             ....  208

ORBITAL ENERGIES
----------------

  NO   OCC          E(Eh)            E(eV)
   0   2.0000     -14.228731      -387.1834
   1   2.0000     -10.152734      -276.2699
   2   2.0000     -10.131399      -275.6894
   3   2.0000     -10.127854      -275.5929
   4   2.0000     -10.109345      -275.0893
   5   2.0000     -10.059911      -273.7441
   6   2.0000      -1.101912       -29.9846
   7   2.0000      -0.966021       -26.2868
   8   2.0000      -0.904888       -24.6233
   9   2.0000      -0.851525       -23.1712
  10   2.0000      -0.758571       -20.6418
  11   2.0000      -0.713026       -19.4024
  12   2.0000      -0.673082       -18.3155
  13   2.0000      -0.615326       -16.7439
  14   2.0000      -0.605855       -16.4862
  15   2.0000      -0.597720       -16.2648
  16   2.0000      -0.532313       -14.4850
  17   2.0000      -0.527506       -14.3542
  18   2.0000      -0.510433       -13.8896
  19   2.0000      -0.501816       -13.6551
  20   2.0000      -0.465680       -12.6718
  21   2.0000      -0.459173       -12.4947
  22   2.0000      -0.447756       -12.1841
  23   2.0000      -0.318139        -8.6570
  24   0.0000       0.085282         2.3207
  25   0.0000       0.104251         2.8368
  26   0.0000       0.120915         3.2903
  27   0.0000       0.123985         3.3738
  28   0.0000       0.136520         3.7149

MULLIKEN ATOMIC CHARGES
-----------------------
   0 C :    0.172085
   1 C :   -0.436362
   2 N :    0.123747
   3 C :    0.164450
   4 H :    0.006470
   5 H :   -0.299865
   6 H :    0.026906
   7 H :   -0.006446
   8 C :   -0.502644
   9 C :    0.575597
  10 H :    0.046100
  11 H :   -0.085997
  12 H :    0.238092
  13 H :    0.025392
  14 H :   -0.058794
  15 H :    0.021323
  16 H :   -0.010053
Sum of atomic charges:   -0.0000000

LOEWDIN ATOMIC CHARGES
----------------------
   0 C :   -0.008444
   1 C :   -0.289535
   2 N :    0.160720
   3 C :    0.147020
   4 H :   -0.065063
   5 H :   -0.068052
   6 H :    0.013606
   7 H :    0.017899
   8 C :   -0.084870
   9 C :    0.095618
  10 H :    0.020678
  11 H :    0.026675
  12 H :    0.033136
  13 H :    0.036120
  14 H :   -0.025450
  15 H :   -0.007904
  16 H :   -0.002154

  Mayer bond orders larger than 0.100000
B(  0-C ,  1-C ) :   1.3594 B(  0-C ,  8-C ) :   1.1918 B(  0-C , 11-H ) :   0.1332
B(  0-C , 12-H ) :   0.8022 B(  0-C , 13-H ) :   0.7635 B(  1-C ,  2-N ) :   1.0438
B(  1-C ,  3-C ) :   2.1609 B(  1-C ,  5-H ) :   0.3075 B(  1-C , 13-H ) :   0.2318
B(  2-N ,  3-C ) :   0.3096 B(  2-N ,  6-H ) :   0.9434 B(  2-N ,  7-H ) :   0.9756
B(  3-C ,  4-H ) :   0.8718 B(  3-C ,  5-H ) :   0.7331 B(  6-H ,  7-H ) :  -0.1078
B(  8-C ,  9-C ) :   1.3015 B(  8-C , 10-H ) :   0.9167 B(  8-C , 11-H ) :   1.0017
B(  8-C , 12-H ) :   0.1292 B(  8-C , 14-H ) :   0.1972 B(  8-C , 15-H ) :   0.1802
B(  8-C , 16-H ) :   0.1670 B(  9-C , 14-H ) :   0.8647 B(  9-C , 15-H ) :   0.7709
B(  9-C , 16-H ) :   0.8266 B( 14-H , 16-H ) :   0.1096

FINAL SINGLE POINT ENERGY      -250.836955173224

DIPOLE MOMENT
-------------
                                X             Y             Z
Electronic contribution:      2.17610      -2.81953      -0.53318
Nuclear contribution   :     -1.90863       3.61442       0.70697
                        -----------------------------------------
Total Dipole Moment    :      0.26747       0.79489       0.17379
                        -----------------------------------------
Magnitude (a.u.)       :      0.85650
Magnitude (Debye)      :      2.17705

Rotational constants in cm-1:     0.173428     0.083686     0.080523
Rotational constants in MHz :  5199.232598  2508.829970  2414.016775

                             ****ORCA TERMINATED NORMALLY****
TOTAL RUN TIME: 0 days 0 hours 0 minutes 15 seconds 567 msec
