                         Program Version 5.0.0 -  RELEASE  -
|  1> !LC-PBE RIJCOSX def2-SVPD def2/J TightSCF
|  2> *xyz 0 1
|  3> C          0.70466        1.44313       -4.50363
|  4> C          1.72854        1.42432       -5.63944
|  5> H          2.64672        1.95379       -5.38105
|  6> H          1.29992        1.93061       -6.50361
|  7> S          2.25263       -0.18811       -6.27184
|  8> O          3.56261       -0.44446       -5.63155
|  9> O          2.34494       -0.03374       -7.69650
| 10> C          1.05255        0.69566       -3.21491
| 11> H         -0.23248        1.03293       -4.88445
| 12> H          0.51170        2.49579       -4.26797
| 13> F          1.26606       -1.15918       -5.80536
| 14> H          1.24200       -0.33323       -3.43942
| 15> H          0.23391        0.76629       -2.52954
| 16> H          1.92506        1.13113       -2.77446
| 17> *
| 18>
| 19> %MaxCore 64000
| 20>
| 21> %pal nprocs 8
| 22> end
| 23>
| 24> %scf
| 25>   MaxIter 150
| 26> end
| 27>
| 28>
| 29>                          ****END OF INPUT****

CARTESIAN COORDINATES (ANGSTROEM)
---------------------------------
  C      0.704660    1.443130   -4.503630
  C      1.728540    1.424320   -5.639440
  H      2.646720    1.953790   -5.381050
  H      1.299920    1.930610   -6.503610
  S      2.252630   -0.188110   -6.271840
  O      3.562610   -0.444460   -5.631550
  O      2.344940   -0.033740   -7.696500
  C      1.052550    0.695660   -3.214910
  H     -0.232480    1.032930   -4.884450
  H      0.511700    2.495790   -4.267970
  F      1.266060   -1.159180   -5.805360
  H      1.242000   -0.333230   -3.439420
  H      0.233910    0.766290   -2.529540
  H      1.925060    1.131130   -2.774460

 Total Charge           Charge          ....    0
 Multiplicity           Mult            ....    1
 Number of Electrons    NEL             ....   66
 Basis Dimension        Dim             ....  212

ORBITAL ENERGIES
----------------

  NO   OCC          E(Eh)            E(eV)
   0   2.0000     -88.574819     -2410.2433
   1   2.0000     -24.623390      -670.0365
   2   2.0000     -19.012408      -517.3539
   3   2.0000     -18.995373      -516.8904
   4   2.0000     -10.194812      -277.4149
   5   2.0000     -10.167558      -276.6733
   6   2.0000     -10.134250      -275.7670
   7   2.0000      -8.197297      -223.0598
   8   2.0000      -6.224463      -169.3763
   9   2.0000      -6.217135      -169.1768
  10   2.0000      -6.215881      -169.1427
  11   2.0000      -1.527792       -41.5733
  12   2.0000      -1.285625       -34.9836
  13   2.0000      -1.172280       -31.8994
  14   2.0000      -1.014801       -27.6141
  15   2.0000      -0.924643       -25.1608
  16   2.0000      -0.871186       -23.7062
  17   2.0000      -0.805030       -21.9060
  18   2.0000      -0.747488       -20.3402
  19   2.0000      -0.737635       -20.0721
  20   2.0000      -0.694436       -18.8966
  21   2.0000      -0.645841       -17.5742
  22   2.0000      -0.628179       -17.0936
  23   2.0000      -0.617563       -16.8047
  24   2.0000      -0.594507       -16.1774
  25   2.0000      -0.577264       -15.7081
  26   2.0000      -0.539816       -14.6891
  27   2.0000      -0.524361       -14.2686
  28   2.0000      -0.517531       -14.0827
  29   2.0000      -0.498624       -13.5683
  30   2.0000      -0.469031       -12.7630
  31   2.0000      -0.454892       -12.3782
  32   2.0000      -0.446091       -12.1388
  33   0.0000       0.062687         1.7058
  34   0.0000       0.086274         2.3476
  35   0.0000       0.092970         2.5298
  36   0.0000       0.094397         2.5687
  37   0.0000       0.116380         3.1669

MULLIKEN ATOMIC CHARGES
-----------------------
   0 C :   -0.411325
   1 C :   -0.147989
   2 H :    0.119978
   3 H :    0.145453
   4 S :    1.340272
   5 O :   -0.648067
   6 O :   -0.619822
   7 C :    0.544637
   8 H :    0.055251
   9 H :   -0.007270
  10 F :   -0.379954
  11 H :   -0.097720
  12 H :    0.061218
  13 H :    0.045339
Sum of atomic charges:   -0.0000000

LOEWDIN ATOMIC CHARGES
----------------------
   0 C :   -0.105323
   1 C :   -0.057641
   2 H :    0.045695
   3 H :    0.031540
   4 S :    1.101047
   5 O :   -0.485887
   6 O :   -0.456881
   7 C :    0.108578
   8 H :    0.036383
   9 H :    0.043383
  10 F :   -0.251258
  11 H :   -0.016657
  12 H :    0.001528
  13 H :    0.005495

  Mayer bond orders larger than 0.100000
B(  0-C ,  1-C ) :   1.2679 B(  0-C ,  2-H ) :   0.1094 B(  0-C ,  3-H ) :   0.1175
B(  0-C ,  7-C ) :   1.2918 B(  0-C ,  8-H ) :   0.9379 B(  0-C ,  9-H ) :   0.9223
B(  0-C , 11-H ) :   0.1648 B(  0-C , 12-H ) :   0.1702 B(  0-C , 13-H ) :   0.1780
B(  1-C ,  2-H ) :   0.9295 B(  1-C ,  3-H ) :   0.8982 B(  1-C ,  4-S ) :   0.9830
B(  1-C ,  8-H ) :   0.1068 B(  1-C ,  9-H ) :   0.1145 B(  4-S ,  5-O ) :   1.5203
B(  4-S ,  6-O ) :   1.6027 B(  4-S , 10-F ) :   0.6908 B(  7-C , 11-H ) :   0.8740
B(  7-C , 12-H ) :   0.7854 B(  7-C , 13-H ) :   0.8163

FINAL SINGLE POINT ENERGY      -765.183797517889

DIPOLE MOMENT
-------------
                                X             Y             Z
Electronic contribution:      3.33772      -7.81831      -8.44435
Nuclear contribution   :     -4.74391       8.77281       9.40225
                        -----------------------------------------
Total Dipole Moment    :     -1.40619       0.95449       0.95790
                        -----------------------------------------
Magnitude (a.u.)       :      1.95090
Magnitude (Debye)      :      4.95879

Rotational constants in cm-1:     0.129476     0.053470     0.050698
Rotational constants in MHz :  3881.594668  1602.990831  1519.898630

                             ****ORCA TERMINATED NORMALLY****
TOTAL RUN TIME: 0 days 0 hours 0 minutes 14 seconds 605 msec
