                         Program Version 5.0.0 -  RELEASE  -
|  1> !LC-PBE RIJCOSX def2-SVPD def2/J TightSCF xyzfile
|  2>
|  3> *xyzfile 0 1 D2.xyz
|  4>
|  5> %MaxCore 64000
|  6>
|  7> %pal nprocs 4
|  8> end
|  9>
| 10> %scf
| 11>   MaxIter 150
| 12> end
| 13>
| 14>
| 15>                          ****END OF INPUT****

CARTESIAN COORDINATES (ANGSTROEM)
---------------------------------
  C      2.916324   -1.242589   -1.543125
  C      0.704661    1.443129   -4.503630
  C      1.728539    1.424320   -5.639443
  H      2.646718    1.953794   -5.381054
  H      1.299916    1.930613   -6.503614
  S      2.252625   -0.188115   -6.271840
  C      3.466585   -1.590971   -2.889082
  N      4.652275   -1.143164   -3.259692
  C      2.752264   -2.292043   -3.728029
  H      1.778364   -2.489604   -3.512738
  H      2.948612   -2.208544   -4.716813
  H      5.146723   -0.512508   -2.633852
  H      4.783030   -1.007203   -4.253498
  F      3.562607   -0.444464   -5.631552
  O      2.344944   -0.033742   -7.696501
  C      2.804084    0.290698   -1.359243
  C      1.052550    0.695659   -3.214915
  H     -0.232483    1.032925   -4.884449
  H      0.511700    2.495794   -4.267966
  C      2.388380    1.093669   -2.597108
  H      3.763425    0.674718   -0.999889
  H      2.094788    0.461222   -0.545756
  O      1.266058   -1.159177   -5.805365
  H      3.167316    1.013242   -3.359430
  H      2.357690    2.149375   -2.310997
  H      1.039284   -0.368429   -3.449329
  H      0.250787    0.865605   -2.488283
  H      1.940472   -1.716529   -1.441161
  H      3.558569   -1.663433   -0.766371

 Total Charge           Charge          ....    0
 Multiplicity           Mult            ....    1
 Number of Electrons    NEL             ....  112
 Basis Dimension        Dim             ....  404

ORBITAL ENERGIES
----------------

  NO   OCC          E(Eh)            E(eV)
   0   2.0000     -88.578964     -2410.3561
   1   2.0000     -24.620766      -669.9651
   2   2.0000     -19.015692      -517.4433
   3   2.0000     -19.005001      -517.1524
   4   2.0000     -14.226920      -387.1342
   5   2.0000     -10.195906      -277.4447
   6   2.0000     -10.157379      -276.3963
   7   2.0000     -10.149390      -276.1789
   8   2.0000     -10.138492      -275.8824
   9   2.0000     -10.136499      -275.8281
  10   2.0000     -10.131344      -275.6879
  11   2.0000     -10.130475      -275.6642
  12   2.0000     -10.056611      -273.6543
  13   2.0000      -8.199944      -223.1318
  14   2.0000      -6.227251      -169.4521
  15   2.0000      -6.219841      -169.2505
  16   2.0000      -6.218623      -169.2173
  17   2.0000      -1.520198       -41.3667
  18   2.0000      -1.292463       -35.1697
  19   2.0000      -1.186566       -32.2881
  20   2.0000      -1.102436       -29.9988
  21   2.0000      -1.018437       -27.7131
  22   2.0000      -0.978161       -26.6171
  23   2.0000      -0.932630       -25.3782
  24   2.0000      -0.902180       -24.5496
  25   2.0000      -0.875280       -23.8176
  26   2.0000      -0.847539       -23.0627
  27   2.0000      -0.792745       -21.5717
  28   2.0000      -0.756463       -20.5844
  29   2.0000      -0.735837       -20.0232
  30   2.0000      -0.728817       -19.8321
  31   2.0000      -0.713400       -19.4126
  32   2.0000      -0.701274       -19.0826
  33   2.0000      -0.673429       -18.3249
  34   2.0000      -0.647299       -17.6139
  35   2.0000      -0.643692       -17.5158
  36   2.0000      -0.631660       -17.1883
  37   2.0000      -0.615585       -16.7509
  38   2.0000      -0.598831       -16.2950
  39   2.0000      -0.590305       -16.0630
  40   2.0000      -0.581934       -15.8352
  41   2.0000      -0.560841       -15.2613
  42   2.0000      -0.546166       -14.8619
  43   2.0000      -0.533579       -14.5194
  44   2.0000      -0.524257       -14.2658
  45   2.0000      -0.521081       -14.1793
  46   2.0000      -0.502558       -13.6753
  47   2.0000      -0.494529       -13.4568
  48   2.0000      -0.483535       -13.1577
  49   2.0000      -0.470664       -12.8074
  50   2.0000      -0.467751       -12.7282
  51   2.0000      -0.458437       -12.4747
  52   2.0000      -0.455310       -12.3896
  53   2.0000      -0.445459       -12.1216
  54   2.0000      -0.444909       -12.1066
  55   2.0000      -0.314235        -8.5508
  56   0.0000       0.064751         1.7620
  57   0.0000       0.081540         2.2188
  58   0.0000       0.085060         2.3146
  59   0.0000       0.089093         2.4243
  60   0.0000       0.109580         2.9818

MULLIKEN ATOMIC CHARGES
-----------------------
   0 C :    0.266291
   1 C :    0.276849
   2 C :   -0.079623
   3 H :    0.241302
   4 H :   -0.079238
   5 S :    1.343483
   6 C :   -0.679255
   7 N :    0.305330
   8 C :    0.633440
   9 H :   -0.031781
  10 H :   -0.429697
  11 H :    0.040965
  12 H :   -0.190074
  13 F :   -0.484918
  14 O :   -0.595303
  15 C :    0.296108
  16 C :    0.146305
  17 H :    0.103255
  18 H :    0.044242
  19 C :   -0.208699
  20 H :    0.048957
  21 H :   -0.027523
  22 O :   -0.710836
  23 H :    0.032601
  24 H :   -0.130017
  25 H :   -0.364862
  26 H :    0.032118
  27 H :    0.343654
  28 H :   -0.143076
Sum of atomic charges:   -0.0000000

LOEWDIN ATOMIC CHARGES
----------------------
   0 C :    0.005065
   1 C :   -0.046809
   2 C :   -0.051094
   3 H :    0.027704
   4 H :    0.035956
   5 S :    1.122001
   6 C :   -0.268179
   7 N :    0.173621
   8 C :    0.148260
   9 H :   -0.049576
  10 H :   -0.105262
  11 H :    0.016564
  12 H :   -0.029477
  13 F :   -0.274646
  14 O :   -0.444656
  15 C :   -0.034970
  16 C :   -0.035174
  17 H :    0.045252
  18 H :    0.046230
  19 C :   -0.048939
  20 H :    0.025498
  21 H :    0.032098
  22 O :   -0.444664
  23 H :    0.001928
  24 H :    0.038218
  25 H :   -0.002618
  26 H :    0.045971
  27 H :    0.035566
  28 H :    0.036130

  Mayer bond orders larger than 0.100000
B(  0-C ,  6-C ) :   1.3857 B(  0-C , 15-C ) :   1.1569 B(  0-C , 20-H ) :   0.1034
B(  0-C , 21-H ) :   0.1650 B(  0-C , 27-H ) :   0.7903 B(  0-C , 28-H ) :   0.6858
B(  1-C ,  2-C ) :   1.2588 B(  1-C ,  4-H ) :   0.1768 B(  1-C , 16-C ) :   1.2667
B(  1-C , 17-H ) :   0.7226 B(  1-C , 18-H ) :   0.8062 B(  2-C ,  3-H ) :   0.8419
B(  2-C ,  4-H ) :   0.9397 B(  2-C ,  5-S ) :   0.9623 B(  2-C , 17-H ) :   0.1037
B(  2-C , 18-H ) :   0.1237 B(  5-S , 13-F ) :   0.6642 B(  5-S , 14-O ) :   1.6268
B(  5-S , 22-O ) :   1.5629 B(  6-C ,  7-N ) :   0.9703 B(  6-C ,  8-C ) :   2.1831
B(  6-C , 10-H ) :   0.4639 B(  6-C , 15-C ) :   0.1592 B(  6-C , 28-H ) :   0.3483
B(  7-N ,  8-C ) :   0.3906 B(  7-N ,  9-H ) :   0.1300 B(  7-N , 11-H ) :   0.9631
B(  7-N , 12-H ) :   0.9258 B(  8-C ,  9-H ) :   0.6619 B(  8-C , 10-H ) :   0.2135
B(  8-C , 27-H ) :  -0.1028 B( 10-H , 12-H ) :   0.1458 B( 11-H , 12-H ) :  -0.1511
B( 12-H , 13-F ) :   0.1301 B( 15-C , 19-C ) :   1.2376 B( 15-C , 20-H ) :   0.7292
B( 15-C , 21-H ) :   0.8495 B( 16-C , 17-H ) :   0.2317 B( 16-C , 19-C ) :   1.2650
B( 16-C , 23-H ) :   0.1138 B( 16-C , 24-H ) :   0.1520 B( 16-C , 25-H ) :   0.9959
B( 16-C , 26-H ) :   0.7294 B( 19-C , 20-H ) :   0.2403 B( 19-C , 21-H ) :   0.1528
B( 19-C , 23-H ) :   0.8932 B( 19-C , 24-H ) :   0.9266 B( 19-C , 25-H ) :   0.1367
B( 19-C , 26-H ) :   0.1827 B( 20-H , 21-H ) :  -0.1108

FINAL SINGLE POINT ENERGY     -1014.841353063225

DIPOLE MOMENT
-------------
                                X             Y             Z
Electronic contribution:      3.43808      -4.14517     -18.16212
Nuclear contribution   :     -3.13969       6.14743      19.30799
                        -----------------------------------------
Total Dipole Moment    :      0.29840       2.00226       1.14588
                        -----------------------------------------
Magnitude (a.u.)       :      2.32618
Magnitude (Debye)      :      5.91269

Rotational constants in cm-1:     0.036460     0.018762     0.015014
Rotational constants in MHz :  1093.039020   562.475626   450.105862

                             ****ORCA TERMINATED NORMALLY****
TOTAL RUN TIME: 0 days 0 hours 2 minutes 48 seconds 356 msec
