                         Program Version 5.0.0 -  RELEASE  -
|  1> !LC-PBE RIJCOSX def2-SVPD def2/J TightSCF xyzfile
|  2>
|  3> *xyzfile 0 1 D3.xyz
|  4>
|  5> %MaxCore 64000
|  6>
|  7> %pal nprocs 4
|  8> end
|  9>
| 10> %scf
| 11>   MaxIter 150
| 12> end
| 13>
| 14>
| 15>                          ****END OF INPUT****

CARTESIAN COORDINATES (ANGSTROEM)
---------------------------------
  C      2.916324   -1.242589   -1.543125
  C      0.704661    1.443129   -4.503630
  C      1.728539    1.424320   -5.639443
  H      2.646718    1.953794   -5.381054
  H      1.299916    1.930613   -6.503614
  S      2.252625   -0.188115   -6.271840
  C      3.466585   -1.590971   -2.889082
  C      4.652275   -1.143164   -3.259692
  N      2.752264   -2.292043   -3.728029
  H      1.778364   -2.489604   -3.512738
  H      2.948612   -2.208544   -4.716813
  H      5.146723   -0.512508   -2.633852
  H      4.783030   -1.007203   -4.253498
  O      3.562607   -0.444464   -5.631552
  F      2.344944   -0.033742   -7.696501
  C      2.804084    0.290698   -1.359243
  C      1.052550    0.695659   -3.214915
  H     -0.232483    1.032925   -4.884449
  H      0.511700    2.495794   -4.267966
  C      2.388380    1.093669   -2.597108
  H      3.763425    0.674718   -0.999889
  H      2.094788    0.461222   -0.545756
  O      1.266058   -1.159177   -5.805365
  H      3.167316    1.013242   -3.359430
  H      2.357690    2.149375   -2.310997
  H      1.039284   -0.368429   -3.449329
  H      0.250787    0.865605   -2.488283
  H      1.940472   -1.716529   -1.441161
  H      3.558569   -1.663433   -0.766371

 Total Charge           Charge          ....    0
 Multiplicity           Mult            ....    1
 Number of Electrons    NEL             ....  112
 Basis Dimension        Dim             ....  404

ORBITAL ENERGIES
----------------

  NO   OCC          E(Eh)            E(eV)
   0   2.0000     -88.591102     -2410.6864
   1   2.0000     -24.646824      -670.6742
   2   2.0000     -19.020683      -517.5791
   3   2.0000     -19.011929      -517.3409
   4   2.0000     -14.199332      -386.3835
   5   2.0000     -10.203397      -277.6485
   6   2.0000     -10.162897      -276.5465
   7   2.0000     -10.130917      -275.6763
   8   2.0000     -10.129663      -275.6421
   9   2.0000     -10.122132      -275.4372
  10   2.0000     -10.120271      -275.3866
  11   2.0000     -10.116625      -275.2874
  12   2.0000     -10.026373      -272.8315
  13   2.0000      -8.212510      -223.4737
  14   2.0000      -6.239626      -169.7889
  15   2.0000      -6.232557      -169.5965
  16   2.0000      -6.230981      -169.5536
  17   2.0000      -1.559601       -42.4389
  18   2.0000      -1.293499       -35.1979
  19   2.0000      -1.181047       -32.1379
  20   2.0000      -1.078759       -29.3545
  21   2.0000      -1.021082       -27.7851
  22   2.0000      -0.971196       -26.4276
  23   2.0000      -0.934426       -25.4270
  24   2.0000      -0.893491       -24.3131
  25   2.0000      -0.863587       -23.4994
  26   2.0000      -0.839077       -22.8325
  27   2.0000      -0.798824       -21.7371
  28   2.0000      -0.765230       -20.8230
  29   2.0000      -0.758490       -20.6396
  30   2.0000      -0.727897       -19.8071
  31   2.0000      -0.717868       -19.5342
  32   2.0000      -0.686084       -18.6693
  33   2.0000      -0.658333       -17.9141
  34   2.0000      -0.647357       -17.6155
  35   2.0000      -0.643910       -17.5217
  36   2.0000      -0.629271       -17.1233
  37   2.0000      -0.616640       -16.7796
  38   2.0000      -0.595710       -16.2101
  39   2.0000      -0.582326       -15.8459
  40   2.0000      -0.569852       -15.5065
  41   2.0000      -0.557078       -15.1589
  42   2.0000      -0.543985       -14.8026
  43   2.0000      -0.523240       -14.2381
  44   2.0000      -0.515623       -14.0308
  45   2.0000      -0.498661       -13.5692
  46   2.0000      -0.491895       -13.3851
  47   2.0000      -0.485522       -13.2117
  48   2.0000      -0.480579       -13.0772
  49   2.0000      -0.468331       -12.7439
  50   2.0000      -0.459552       -12.5050
  51   2.0000      -0.458243       -12.4694
  52   2.0000      -0.442481       -12.0405
  53   2.0000      -0.434341       -11.8190
  54   2.0000      -0.430117       -11.7041
  55   2.0000      -0.281795        -7.6680
  56   0.0000       0.054587         1.4854
  57   0.0000       0.076665         2.0862
  58   0.0000       0.080681         2.1955
  59   0.0000       0.093231         2.5369
  60   0.0000       0.101865         2.7719

MULLIKEN ATOMIC CHARGES
-----------------------
   0 C :    0.375195
   1 C :    0.270836
   2 C :   -0.082741
   3 H :    0.213124
   4 H :   -0.039469
   5 S :    1.469242
   6 C :   -0.574327
   7 C :    0.487269
   8 N :    0.286944
   9 H :    0.064820
  10 H :   -0.160269
  11 H :    0.025857
  12 H :   -0.473417
  13 O :   -0.727694
  14 F :   -0.417093
  15 C :    0.182516
  16 C :    0.108610
  17 H :    0.114051
  18 H :    0.048501
  19 C :   -0.136567
  20 H :    0.064900
  21 H :   -0.043558
  22 O :   -0.714946
  23 H :   -0.002069
  24 H :   -0.075779
  25 H :   -0.294983
  26 H :   -0.018223
  27 H :    0.152463
  28 H :   -0.103194
Sum of atomic charges:   -0.0000000

LOEWDIN ATOMIC CHARGES
----------------------
   0 C :    0.002808
   1 C :   -0.042834
   2 C :   -0.052616
   3 H :    0.035390
   4 H :    0.025499
   5 S :    1.156264
   6 C :   -0.258849
   7 C :    0.147544
   8 N :    0.178209
   9 H :    0.011865
  10 H :   -0.041616
  11 H :   -0.062912
  12 H :   -0.123625
  13 O :   -0.469360
  14 F :   -0.231550
  15 C :   -0.032709
  16 C :   -0.035446
  17 H :    0.042470
  18 H :    0.049060
  19 C :   -0.043903
  20 H :    0.031299
  21 H :    0.027681
  22 O :   -0.460942
  23 H :    0.008142
  24 H :    0.036654
  25 H :   -0.002798
  26 H :    0.044969
  27 H :    0.022010
  28 H :    0.039297

  Mayer bond orders larger than 0.100000
B(  0-C ,  6-C ) :   1.3044 B(  0-C , 15-C ) :   1.1429 B(  0-C , 21-H ) :   0.1645
B(  0-C , 27-H ) :   0.6572 B(  0-C , 28-H ) :   0.7991 B(  1-C ,  2-C ) :   1.2915
B(  1-C ,  4-H ) :   0.1981 B(  1-C , 16-C ) :   1.2556 B(  1-C , 17-H ) :   0.7175
B(  1-C , 18-H ) :   0.7928 B(  2-C ,  3-H ) :   0.8807 B(  2-C ,  4-H ) :   0.8754
B(  2-C ,  5-S ) :   1.0029 B(  2-C , 18-H ) :   0.1285 B(  5-S , 13-O ) :   1.4092
B(  5-S , 14-F ) :   0.6658 B(  5-S , 22-O ) :   1.4744 B(  6-C ,  7-C ) :   2.2993
B(  6-C ,  8-N ) :   1.0194 B(  6-C , 11-H ) :   0.1083 B(  6-C , 12-H ) :   0.3314
B(  6-C , 27-H ) :   0.2275 B(  6-C , 28-H ) :   0.2091 B(  7-C ,  8-N ) :   0.3212
B(  7-C , 11-H ) :   0.6073 B(  7-C , 12-H ) :   0.5447 B(  8-N ,  9-H ) :   0.8919
B(  8-N , 10-H ) :   0.9680 B(  8-N , 11-H ) :   0.1538 B(  9-H , 10-H ) :  -0.1393
B( 10-H , 13-O ) :   0.1025 B( 12-H , 13-O ) :   0.2269 B( 13-O , 22-O ) :   0.1107
B( 15-C , 19-C ) :   1.2503 B( 15-C , 20-H ) :   0.7447 B( 15-C , 21-H ) :   0.8741
B( 15-C , 23-H ) :   0.1496 B( 15-C , 27-H ) :   0.1093 B( 16-C , 17-H ) :   0.2422
B( 16-C , 19-C ) :   1.2553 B( 16-C , 23-H ) :   0.1283 B( 16-C , 24-H ) :   0.1684
B( 16-C , 25-H ) :   0.9525 B( 16-C , 26-H ) :   0.7707 B( 19-C , 20-H ) :   0.2341
B( 19-C , 21-H ) :   0.1586 B( 19-C , 23-H ) :   0.8922 B( 19-C , 24-H ) :   0.8650
B( 19-C , 25-H ) :   0.1307 B( 19-C , 26-H ) :   0.1990 B( 20-H , 21-H ) :  -0.1074

FINAL SINGLE POINT ENERGY     -1014.822663889829

DIPOLE MOMENT
-------------
                                X             Y             Z
Electronic contribution:     -0.01078      -4.02590     -22.51236
Nuclear contribution   :     -1.50273       5.82595      21.72909
                        -----------------------------------------
Total Dipole Moment    :     -1.51351       1.80005      -0.78327
                        -----------------------------------------
Magnitude (a.u.)       :      2.47879
Magnitude (Debye)      :      6.30058

Rotational constants in cm-1:     0.036883     0.018294     0.014745
Rotational constants in MHz :  1105.724679   548.429785   442.050481

                             ****ORCA TERMINATED NORMALLY****
TOTAL RUN TIME: 0 days 0 hours 2 minutes 59 seconds 872 msec
