                         Program Version 5.0.0 -  RELEASE  -
|  1> !M062X D3Zero RIJCOSX def2-SVP def2/J TightSCF
|  2> *xyz -1 1
|  3> C          0.70466        1.44313       -4.50363
|  4> C          1.72854        1.42432       -5.63944
|  5> H          2.64672        1.95379       -5.38105
|  6> H          1.29992        1.93061       -6.50361
|  7> S          2.25263       -0.18811       -6.27184
|  8> O          3.56261       -0.44446       -5.63155
|  9> O          2.34494       -0.03374       -7.69650
| 10> O          1.26606       -1.15918       -5.80536
| 11> H         -0.17385        0.91270       -4.80656
| 12> H          0.44778        2.45562       -4.27173
| 13> H          1.12367        0.97423       -3.63791
| 14> *
| 15>
| 16> %MaxCore 64000
| 17>
| 18> %pal nprocs 4
| 19> end
| 20>
| 21> %scf
| 22>   MaxIter 150
| 23> end
| 24>
| 25>
| 26>                          ****END OF INPUT****

CARTESIAN COORDINATES (ANGSTROEM)
---------------------------------
  C      0.704660    1.443130   -4.503630
  C      1.728540    1.424320   -5.639440
  H      2.646720    1.953790   -5.381050
  H      1.299920    1.930610   -6.503610
  S      2.252630   -0.188110   -6.271840
  O      3.562610   -0.444460   -5.631550
  O      2.344940   -0.033740   -7.696500
  O      1.266060   -1.159180   -5.805360
  H     -0.173850    0.912700   -4.806560
  H      0.447780    2.455620   -4.271730
  H      1.123670    0.974230   -3.637910

 Total Charge           Charge          ....   -1
 Multiplicity           Mult            ....    1
 Number of Electrons    NEL             ....   58
 Basis Dimension        Dim             ....  113

ORBITAL ENERGIES
----------------

  NO   OCC          E(Eh)            E(eV)
   0   2.0000     -89.899749     -2446.2965
   1   2.0000     -19.385055      -527.4942
   2   2.0000     -19.378794      -527.3238
   3   2.0000     -19.366642      -526.9931
   4   2.0000     -10.405841      -283.1573
   5   2.0000     -10.397369      -282.9268
   6   2.0000      -8.230101      -223.9524
   7   2.0000      -6.154724      -167.4786
   8   2.0000      -6.154619      -167.4757
   9   2.0000      -6.154384      -167.4693
  10   2.0000      -1.021803       -27.8047
  11   2.0000      -0.876443       -23.8492
  12   2.0000      -0.850559       -23.1449
  13   2.0000      -0.713799       -19.4235
  14   2.0000      -0.580854       -15.8058
  15   2.0000      -0.443862       -12.0781
  16   2.0000      -0.381405       -10.3786
  17   2.0000      -0.375683       -10.2229
  18   2.0000      -0.335163        -9.1202
  19   2.0000      -0.317495        -8.6395
  20   2.0000      -0.315207        -8.5772
  21   2.0000      -0.282095        -7.6762
  22   2.0000      -0.274072        -7.4579
  23   2.0000      -0.196202        -5.3389
  24   2.0000      -0.194525        -5.2933
  25   2.0000      -0.159580        -4.3424
  26   2.0000      -0.149116        -4.0576
  27   2.0000      -0.140467        -3.8223
  28   2.0000      -0.106950        -2.9103
  29   0.0000       0.237051         6.4505
  30   0.0000       0.294170         8.0048
  31   0.0000       0.297463         8.0944
  32   0.0000       0.304657         8.2901
  33   0.0000       0.323453         8.8016

MULLIKEN ATOMIC CHARGES
-----------------------
   0 C :   -0.025039
   1 C :   -0.171313
   2 H :    0.031758
   3 H :    0.023309
   4 S :    0.964040
   5 O :   -0.651838
   6 O :   -0.603264
   7 O :   -0.621413
   8 H :    0.032677
   9 H :   -0.009028
  10 H :    0.030111
Sum of atomic charges:   -1.0000000

LOEWDIN ATOMIC CHARGES
----------------------
   0 C :   -0.075029
   1 C :   -0.200854
   2 H :    0.013990
   3 H :    0.009566
   4 S :    1.135428
   5 O :   -0.670629
   6 O :   -0.617436
   7 O :   -0.640963
   8 H :    0.020561
   9 H :    0.005115
  10 H :    0.020252

  Mayer bond orders larger than 0.100000
B(  0-C ,  1-C ) :   1.0704 B(  0-C ,  8-H ) :   0.9685 B(  0-C ,  9-H ) :   0.9643
B(  0-C , 10-H ) :   0.9719 B(  1-C ,  2-H ) :   0.9478 B(  1-C ,  3-H ) :   0.9483
B(  1-C ,  4-S ) :   0.8781 B(  4-S ,  5-O ) :   1.5780 B(  4-S ,  6-O ) :   1.6299
B(  4-S ,  7-O ) :   1.6103

Dispersion correction           -0.000153212
FINAL SINGLE POINT ENERGY      -702.566203599923

DIPOLE MOMENT
-------------
                                X             Y             Z
Electronic contribution:      3.66837      -5.67726      -4.33245
Nuclear contribution   :     -4.50297       7.24642       5.01775
                        -----------------------------------------
Total Dipole Moment    :     -0.83461       1.56915       0.68530
                        -----------------------------------------
Magnitude (a.u.)       :      1.90485
Magnitude (Debye)      :      4.84174

Rotational constants in cm-1:     0.162459     0.081286     0.079601
Rotational constants in MHz :  4870.394399  2436.893583  2386.374948

                             ****ORCA TERMINATED NORMALLY****
TOTAL RUN TIME: 0 days 0 hours 0 minutes 15 seconds 197 msec
