                         Program Version 5.0.0 -  RELEASE  -
|  1> !M062X D3Zero RIJCOSX def2-SVP def2/J TightSCF
|  2> *xyz 1 1
|  3> C          2.91632       -1.24259       -1.54313
|  4> C          3.46659       -1.59097       -2.88908
|  5> N          4.65227       -1.14316       -3.25969
|  6> N          2.75226       -2.29204       -3.72803
|  7> H          1.77836       -2.48960       -3.51274
|  8> H          2.94861       -2.20854       -4.71681
|  9> H          5.14672       -0.51251       -2.63385
| 10> H          4.78303       -1.00720       -4.25350
| 11> C          2.80408        0.29070       -1.35924
| 12> H          1.94047       -1.71653       -1.44116
| 13> H          3.55857       -1.66343       -0.76637
| 14> H          2.17393        0.69633       -2.12297
| 15> H          3.77707        0.73043       -1.42880
| 16> H          2.38369        0.50492       -0.39889
| 17> *
| 18>
| 19> %MaxCore 64000
| 20>
| 21> %pal nprocs 4
| 22> end
| 23>
| 24> %scf
| 25>   MaxIter 150
| 26> end
| 27>
| 28>
| 29>                          ****END OF INPUT****

CARTESIAN COORDINATES (ANGSTROEM)
---------------------------------
  C      2.916320   -1.242590   -1.543130
  C      3.466590   -1.590970   -2.889080
  N      4.652270   -1.143160   -3.259690
  N      2.752260   -2.292040   -3.728030
  H      1.778360   -2.489600   -3.512740
  H      2.948610   -2.208540   -4.716810
  H      5.146720   -0.512510   -2.633850
  H      4.783030   -1.007200   -4.253500
  C      2.804080    0.290700   -1.359240
  H      1.940470   -1.716530   -1.441160
  H      3.558570   -1.663430   -0.766370
  H      2.173930    0.696330   -2.122970
  H      3.777070    0.730430   -1.428800
  H      2.383690    0.504920   -0.398890

 Total Charge           Charge          ....    1
 Multiplicity           Mult            ....    1
 Number of Electrons    NEL             ....   40
 Basis Dimension        Dim             ....  115

ORBITAL ENERGIES
----------------

  NO   OCC          E(Eh)            E(eV)
   0   2.0000     -15.011648      -408.4877
   1   2.0000     -15.006061      -408.3357
   2   2.0000     -10.878490      -296.0188
   3   2.0000     -10.752133      -292.5804
   4   2.0000     -10.714677      -291.5612
   5   2.0000      -1.312885       -35.7254
   6   2.0000      -1.204767       -32.7834
   7   2.0000      -1.061232       -28.8776
   8   2.0000      -0.945995       -25.7418
   9   2.0000      -0.897182       -24.4136
  10   2.0000      -0.845087       -22.9960
  11   2.0000      -0.828047       -22.5323
  12   2.0000      -0.769543       -20.9403
  13   2.0000      -0.738524       -20.0963
  14   2.0000      -0.694470       -18.8975
  15   2.0000      -0.669192       -18.2096
  16   2.0000      -0.615585       -16.7509
  17   2.0000      -0.605881       -16.4869
  18   2.0000      -0.593210       -16.1421
  19   2.0000      -0.560084       -15.2407
  20   0.0000      -0.174605        -4.7512
  21   0.0000      -0.109599        -2.9824
  22   0.0000      -0.066358        -1.8057
  23   0.0000      -0.064000        -1.7415
  24   0.0000      -0.026937        -0.7330

MULLIKEN ATOMIC CHARGES
-----------------------
   0 C :   -0.041153
   1 C :   -0.052929
   2 N :   -0.035819
   3 N :   -0.020679
   4 H :    0.200303
   5 H :    0.185186
   6 H :    0.195879
   7 H :    0.189347
   8 C :   -0.056071
   9 H :    0.075187
  10 H :    0.124696
  11 H :    0.072285
  12 H :    0.059155
  13 H :    0.104614
Sum of atomic charges:    1.0000000

LOEWDIN ATOMIC CHARGES
----------------------
   0 C :   -0.039328
   1 C :    0.158371
   2 N :    0.079360
   3 N :    0.094618
   4 H :    0.126063
   5 H :    0.115564
   6 H :    0.121537
   7 H :    0.115064
   8 C :   -0.025347
   9 H :    0.054001
  10 H :    0.072712
  11 H :    0.039723
  12 H :    0.029984
  13 H :    0.057681

  Mayer bond orders larger than 0.100000
B(  0-C ,  1-C ) :   1.0187 B(  0-C ,  8-C ) :   1.0570 B(  0-C ,  9-H ) :   0.9240
B(  0-C , 10-H ) :   0.9169 B(  1-C ,  2-N ) :   1.4894 B(  1-C ,  3-N ) :   1.5271
B(  2-N ,  6-H ) :   0.9192 B(  2-N ,  7-H ) :   0.9243 B(  3-N ,  4-H ) :   0.9134
B(  3-N ,  5-H ) :   0.9255 B(  8-C , 11-H ) :   0.9714 B(  8-C , 12-H ) :   0.9726
B(  8-C , 13-H ) :   0.9614

Dispersion correction           -0.000192261
FINAL SINGLE POINT ENERGY      -228.734607940852

DIPOLE MOMENT
-------------
                                X             Y             Z
Electronic contribution:      1.30736      -2.83661      -2.81688
Nuclear contribution   :     -1.30215       2.77761       1.84194
                        -----------------------------------------
Total Dipole Moment    :      0.00521      -0.05901      -0.97495
                        -----------------------------------------
Magnitude (a.u.)       :      0.97675
Magnitude (Debye)      :      2.48269

Rotational constants in cm-1:     0.267442     0.127541     0.099068
Rotational constants in MHz :  8017.703171  3823.592522  2969.992494

                             ****ORCA TERMINATED NORMALLY****
TOTAL RUN TIME: 0 days 0 hours 0 minutes 14 seconds 141 msec
