                         Program Version 5.0.0 -  RELEASE  -
|  1> !M062X D3Zero RIJCOSX def2-SVP def2/J TightSCF
|  2> *xyz 0 1
|  3> C          0.70466        1.44313       -4.50363
|  4> C          1.72854        1.42432       -5.63944
|  5> H          2.64672        1.95379       -5.38105
|  6> H          1.29992        1.93061       -6.50361
|  7> S          2.25263       -0.18811       -6.27184
|  8> F          3.56261       -0.44446       -5.63155
|  9> O          2.34494       -0.03374       -7.69650
| 10> O          1.26606       -1.15918       -5.80536
| 11> H         -0.17385        0.91270       -4.80656
| 12> H          0.44778        2.45562       -4.27173
| 13> H          1.12367        0.97423       -3.63791
| 14> *
| 15>
| 16> %MaxCore 64000
| 17>
| 18> %pal nprocs 4
| 19> end
| 20>
| 21> %scf
| 22>   MaxIter 150
| 23> end
| 24>
| 25>
| 26>                          ****END OF INPUT****

CARTESIAN COORDINATES (ANGSTROEM)
---------------------------------
  C      0.704660    1.443130   -4.503630
  C      1.728540    1.424320   -5.639440
  H      2.646720    1.953790   -5.381050
  H      1.299920    1.930610   -6.503610
  S      2.252630   -0.188110   -6.271840
  F      3.562610   -0.444460   -5.631550
  O      2.344940   -0.033740   -7.696500
  O      1.266060   -1.159180   -5.805360
  H     -0.173850    0.912700   -4.806560
  H      0.447780    2.455620   -4.271730
  H      1.123670    0.974230   -3.637910

 Total Charge           Charge          ....    0
 Multiplicity           Mult            ....    1
 Number of Electrons    NEL             ....   58
 Basis Dimension        Dim             ....  113

ORBITAL ENERGIES
----------------

  NO   OCC          E(Eh)            E(eV)
   0   2.0000     -90.174286     -2453.7671
   1   2.0000     -25.343883      -689.6421
   2   2.0000     -19.638235      -534.3835
   3   2.0000     -19.631410      -534.1978
   4   2.0000     -10.610008      -288.7130
   5   2.0000     -10.572519      -287.6929
   6   2.0000      -8.506913      -231.4849
   7   2.0000      -6.434410      -175.0892
   8   2.0000      -6.429297      -174.9501
   9   2.0000      -6.428498      -174.9283
  10   2.0000      -1.476687       -40.1827
  11   2.0000      -1.225631       -33.3511
  12   2.0000      -1.123121       -30.5617
  13   2.0000      -0.912617       -24.8336
  14   2.0000      -0.813780       -22.1441
  15   2.0000      -0.755628       -20.5617
  16   2.0000      -0.664743       -18.0886
  17   2.0000      -0.656599       -17.8670
  18   2.0000      -0.629185       -17.1210
  19   2.0000      -0.564330       -15.3562
  20   2.0000      -0.555213       -15.1081
  21   2.0000      -0.526329       -14.3221
  22   2.0000      -0.498845       -13.5743
  23   2.0000      -0.468348       -12.7444
  24   2.0000      -0.465900       -12.6778
  25   2.0000      -0.448613       -12.2074
  26   2.0000      -0.400411       -10.8957
  27   2.0000      -0.389651       -10.6029
  28   2.0000      -0.381082       -10.3698
  29   0.0000       0.075373         2.0510
  30   0.0000       0.087509         2.3812
  31   0.0000       0.116859         3.1799
  32   0.0000       0.127029         3.4566
  33   0.0000       0.141612         3.8535

MULLIKEN ATOMIC CHARGES
-----------------------
   0 C :   -0.028874
   1 C :   -0.218054
   2 H :    0.089131
   3 H :    0.111403
   4 S :    1.043671
   5 F :   -0.235901
   6 O :   -0.465580
   7 O :   -0.487849
   8 H :    0.074944
   9 H :    0.059435
  10 H :    0.057674
Sum of atomic charges:    0.0000000

LOEWDIN ATOMIC CHARGES
----------------------
   0 C :   -0.055025
   1 C :   -0.164515
   2 H :    0.036984
   3 H :    0.051635
   4 S :    1.200129
   5 F :   -0.168910
   6 O :   -0.492469
   7 O :   -0.517886
   8 H :    0.038834
   9 H :    0.038534
  10 H :    0.032689

  Mayer bond orders larger than 0.100000
B(  0-C ,  1-C ) :   1.0621 B(  0-C ,  8-H ) :   0.9686 B(  0-C ,  9-H ) :   0.9619
B(  0-C , 10-H ) :   0.9741 B(  1-C ,  2-H ) :   0.9352 B(  1-C ,  3-H ) :   0.9393
B(  1-C ,  4-S ) :   0.9073 B(  4-S ,  5-F ) :   0.9549 B(  4-S ,  6-O ) :   1.7877
B(  4-S ,  7-O ) :   1.7670

Dispersion correction           -0.000155906
FINAL SINGLE POINT ENERGY      -727.081625490073

DIPOLE MOMENT
-------------
                                X             Y             Z
Electronic contribution:      6.31260      -6.46994      -3.70413
Nuclear contribution   :     -6.09914       7.80989       4.64238
                        -----------------------------------------
Total Dipole Moment    :      0.21346       1.33995       0.93825
                        -----------------------------------------
Magnitude (a.u.)       :      1.64965
Magnitude (Debye)      :      4.19309

Rotational constants in cm-1:     0.154372     0.078826     0.078033
Rotational constants in MHz :  4627.943144  2363.154585  2339.382767

                             ****ORCA TERMINATED NORMALLY****
TOTAL RUN TIME: 0 days 0 hours 0 minutes 13 seconds 436 msec
