                         Program Version 5.0.0 -  RELEASE  -
|  1> !M062X D3Zero RIJCOSX def2-SVP def2/J TightSCF
|  2> *xyz 0 1
|  3> C          2.91632       -1.24259       -1.54313
|  4> C          3.46659       -1.59097       -2.88908
|  5> C          4.65227       -1.14316       -3.25969
|  6> N          2.75226       -2.29204       -3.72803
|  7> H          1.77836       -2.48960       -3.51274
|  8> H          2.94861       -2.20854       -4.71681
|  9> H          5.14672       -0.51251       -2.63385
| 10> H          4.78303       -1.00720       -4.25350
| 11> C          2.80408        0.29070       -1.35924
| 12> H          1.94047       -1.71653       -1.44116
| 13> H          3.55857       -1.66343       -0.76637
| 14> H          2.17393        0.69633       -2.12297
| 15> H          3.77707        0.73043       -1.42880
| 16> H          2.38369        0.50492       -0.39889
| 17> *
| 18>
| 19> %MaxCore 64000
| 20>
| 21> %pal nprocs 4
| 22> end
| 23>
| 24> %scf
| 25>   MaxIter 150
| 26> end
| 27>
| 28>
| 29>                          ****END OF INPUT****

CARTESIAN COORDINATES (ANGSTROEM)
---------------------------------
  C      2.916320   -1.242590   -1.543130
  C      3.466590   -1.590970   -2.889080
  C      4.652270   -1.143160   -3.259690
  N      2.752260   -2.292040   -3.728030
  H      1.778360   -2.489600   -3.512740
  H      2.948610   -2.208540   -4.716810
  H      5.146720   -0.512510   -2.633850
  H      4.783030   -1.007200   -4.253500
  C      2.804080    0.290700   -1.359240
  H      1.940470   -1.716530   -1.441160
  H      3.558570   -1.663430   -0.766370
  H      2.173930    0.696330   -2.122970
  H      3.777070    0.730430   -1.428800
  H      2.383690    0.504920   -0.398890

 Total Charge           Charge          ....    0
 Multiplicity           Mult            ....    1
 Number of Electrons    NEL             ....   40
 Basis Dimension        Dim             ....  115

ORBITAL ENERGIES
----------------

  NO   OCC          E(Eh)            E(eV)
   0   2.0000     -14.757062      -401.5601
   1   2.0000     -10.566059      -287.5171
   2   2.0000     -10.550423      -287.0916
   3   2.0000     -10.537388      -286.7369
   4   2.0000     -10.475827      -285.0618
   5   2.0000      -1.028429       -27.9850
   6   2.0000      -0.867444       -23.6044
   7   2.0000      -0.792630       -21.5686
   8   2.0000      -0.721424       -19.6309
   9   2.0000      -0.634829       -17.2746
  10   2.0000      -0.590238       -16.0612
  11   2.0000      -0.546309       -14.8658
  12   2.0000      -0.515787       -14.0353
  13   2.0000      -0.472660       -12.8617
  14   2.0000      -0.452078       -12.3017
  15   2.0000      -0.438741       -11.9387
  16   2.0000      -0.415551       -11.3077
  17   2.0000      -0.402249       -10.9457
  18   2.0000      -0.385949       -10.5022
  19   2.0000      -0.235523        -6.4089
  20   0.0000       0.085380         2.3233
  21   0.0000       0.090105         2.4519
  22   0.0000       0.132890         3.6161
  23   0.0000       0.137582         3.7438
  24   0.0000       0.161529         4.3954

MULLIKEN ATOMIC CHARGES
-----------------------
   0 C :   -0.007925
   1 C :   -0.153513
   2 C :   -0.065540
   3 N :   -0.114210
   4 H :    0.120336
   5 H :    0.128043
   6 H :   -0.020633
   7 H :   -0.026280
   8 C :   -0.036955
   9 H :    0.007715
  10 H :    0.057966
  11 H :    0.034303
  12 H :    0.043705
  13 H :    0.032987
Sum of atomic charges:   -0.0000000

LOEWDIN ATOMIC CHARGES
----------------------
   0 C :   -0.037098
   1 C :    0.003464
   2 C :   -0.186460
   3 N :   -0.010710
   4 H :    0.071435
   5 H :    0.079543
   6 H :   -0.001922
   7 H :   -0.004055
   8 C :   -0.044393
   9 H :    0.018135
  10 H :    0.040913
  11 H :    0.023782
  12 H :    0.025562
  13 H :    0.021804

  Mayer bond orders larger than 0.100000
B(  0-C ,  1-C ) :   0.9983 B(  0-C ,  8-C ) :   1.0892 B(  0-C ,  9-H ) :   0.9402
B(  0-C , 10-H ) :   0.9386 B(  1-C ,  2-C ) :   1.8567 B(  1-C ,  3-N ) :   1.2666
B(  2-C ,  6-H ) :   0.9572 B(  2-C ,  7-H ) :   0.9570 B(  3-N ,  4-H ) :   0.9460
B(  3-N ,  5-H ) :   0.9460 B(  8-C , 11-H ) :   0.9740 B(  8-C , 12-H ) :   0.9754
B(  8-C , 13-H ) :   0.9693

Dispersion correction           -0.000189315
FINAL SINGLE POINT ENERGY      -212.276480826277

DIPOLE MOMENT
-------------
                                X             Y             Z
Electronic contribution:      0.06256      -2.75450      -1.83859
Nuclear contribution   :     -0.99366       2.78648       1.68526
                        -----------------------------------------
Total Dipole Moment    :     -0.93110       0.03198      -0.15333
                        -----------------------------------------
Magnitude (a.u.)       :      0.94418
Magnitude (Debye)      :      2.39991

Rotational constants in cm-1:     0.282898     0.128664     0.101801
Rotational constants in MHz :  8481.061354  3857.240210  3051.924245

                             ****ORCA TERMINATED NORMALLY****
TOTAL RUN TIME: 0 days 0 hours 0 minutes 15 seconds 467 msec
