                         Program Version 5.0.0 -  RELEASE  -
|  1> !M062X D3Zero RIJCOSX def2-SVP def2/J TightSCF
|  2> *xyz 0 1
|  3> C          0.70466        1.44313       -4.50363
|  4> C          1.72854        1.42432       -5.63944
|  5> H          2.64672        1.95379       -5.38105
|  6> H          1.29992        1.93061       -6.50361
|  7> S          2.25263       -0.18811       -6.27184
|  8> O          3.56261       -0.44446       -5.63155
|  9> F          2.34494       -0.03374       -7.69650
| 10> O          1.26606       -1.15918       -5.80536
| 11> H         -0.17385        0.91270       -4.80656
| 12> H          0.44778        2.45562       -4.27173
| 13> H          1.12367        0.97423       -3.63791
| 14> *
| 15>
| 16> %MaxCore 64000
| 17>
| 18> %pal nprocs 4
| 19> end
| 20>
| 21> %scf
| 22>   MaxIter 150
| 23> end
| 24>
| 25>
| 26>                          ****END OF INPUT****

CARTESIAN COORDINATES (ANGSTROEM)
---------------------------------
  C      0.704660    1.443130   -4.503630
  C      1.728540    1.424320   -5.639440
  H      2.646720    1.953790   -5.381050
  H      1.299920    1.930610   -6.503610
  S      2.252630   -0.188110   -6.271840
  O      3.562610   -0.444460   -5.631550
  F      2.344940   -0.033740   -7.696500
  O      1.266060   -1.159180   -5.805360
  H     -0.173850    0.912700   -4.806560
  H      0.447780    2.455620   -4.271730
  H      1.123670    0.974230   -3.637910

 Total Charge           Charge          ....    0
 Multiplicity           Mult            ....    1
 Number of Electrons    NEL             ....   58
 Basis Dimension        Dim             ....  113

ORBITAL ENERGIES
----------------

  NO   OCC          E(Eh)            E(eV)
   0   2.0000     -90.174943     -2453.7850
   1   2.0000     -25.368220      -690.3043
   2   2.0000     -19.630912      -534.1843
   3   2.0000     -19.620666      -533.9055
   4   2.0000     -10.611005      -288.7401
   5   2.0000     -10.573059      -287.7076
   6   2.0000      -8.507950      -231.5131
   7   2.0000      -6.435610      -175.1218
   8   2.0000      -6.430080      -174.9714
   9   2.0000      -6.429252      -174.9488
  10   2.0000      -1.516946       -41.2782
  11   2.0000      -1.209798       -32.9203
  12   2.0000      -1.100743       -29.9527
  13   2.0000      -0.913613       -24.8607
  14   2.0000      -0.831180       -22.6176
  15   2.0000      -0.764528       -20.8039
  16   2.0000      -0.686394       -18.6777
  17   2.0000      -0.681033       -18.5318
  18   2.0000      -0.632005       -17.1977
  19   2.0000      -0.564585       -15.3631
  20   2.0000      -0.554990       -15.1021
  21   2.0000      -0.511201       -13.9105
  22   2.0000      -0.495718       -13.4892
  23   2.0000      -0.471590       -12.8326
  24   2.0000      -0.454331       -12.3630
  25   2.0000      -0.446997       -12.1634
  26   2.0000      -0.390968       -10.6388
  27   2.0000      -0.378825       -10.3084
  28   2.0000      -0.364274        -9.9124
  29   0.0000       0.076532         2.0826
  30   0.0000       0.083137         2.2623
  31   0.0000       0.117010         3.1840
  32   0.0000       0.128211         3.4888
  33   0.0000       0.136920         3.7258

MULLIKEN ATOMIC CHARGES
-----------------------
   0 C :   -0.025210
   1 C :   -0.211165
   2 H :    0.106798
   3 H :    0.078375
   4 S :    1.030710
   5 O :   -0.507229
   6 F :   -0.191692
   7 O :   -0.481730
   8 H :    0.067079
   9 H :    0.060636
  10 H :    0.073429
Sum of atomic charges:    0.0000000

LOEWDIN ATOMIC CHARGES
----------------------
   0 C :   -0.048607
   1 C :   -0.163028
   2 H :    0.047040
   3 H :    0.031863
   4 S :    1.193192
   5 O :   -0.539833
   6 F :   -0.121859
   7 O :   -0.513832
   8 H :    0.036650
   9 H :    0.039241
  10 H :    0.039172

  Mayer bond orders larger than 0.100000
B(  0-C ,  1-C ) :   1.0725 B(  0-C ,  8-H ) :   0.9678 B(  0-C ,  9-H ) :   0.9626
B(  0-C , 10-H ) :   0.9730 B(  1-C ,  2-H ) :   0.9347 B(  1-C ,  3-H ) :   0.9352
B(  1-C ,  4-S ) :   0.9082 B(  4-S ,  5-O ) :   1.7314 B(  4-S ,  6-F ) :   1.0066
B(  4-S ,  7-O ) :   1.7615

Dispersion correction           -0.000150511
FINAL SINGLE POINT ENERGY      -727.059890518844

DIPOLE MOMENT
-------------
                                X             Y             Z
Electronic contribution:      4.19850      -5.76837      -7.24053
Nuclear contribution   :     -4.83029       7.38191       6.79413
                        -----------------------------------------
Total Dipole Moment    :     -0.63179       1.61354      -0.44640
                        -----------------------------------------
Magnitude (a.u.)       :      1.78940
Magnitude (Debye)      :      4.54829

Rotational constants in cm-1:     0.156575     0.079070     0.076729
Rotational constants in MHz :  4694.010604  2370.444114  2300.280155

                             ****ORCA TERMINATED NORMALLY****
TOTAL RUN TIME: 0 days 0 hours 0 minutes 13 seconds 910 msec
