                         Program Version 5.0.0 -  RELEASE  -
|  1> !M062X D3Zero RIJCOSX def2-SVP def2/J TightSCF
|  2> *xyz 0 1
|  3> C          2.91632       -1.24259       -1.54313
|  4> C          3.46659       -1.59097       -2.88908
|  5> N          4.65227       -1.14316       -3.25969
|  6> C          2.75226       -2.29204       -3.72803
|  7> H          1.77836       -2.48960       -3.51274
|  8> H          2.94861       -2.20854       -4.71681
|  9> H          5.14672       -0.51251       -2.63385
| 10> H          4.78303       -1.00720       -4.25350
| 11> C          2.80408        0.29070       -1.35924
| 12> H          1.94047       -1.71653       -1.44116
| 13> H          3.55857       -1.66343       -0.76637
| 14> H          2.17393        0.69633       -2.12297
| 15> H          3.77707        0.73043       -1.42880
| 16> H          2.38369        0.50492       -0.39889
| 17> *
| 18>
| 19> %MaxCore 64000
| 20>
| 21> %pal nprocs 4
| 22> end
| 23>
| 24> %scf
| 25>   MaxIter 150
| 26> end
| 27>
| 28>
| 29>                          ****END OF INPUT****

CARTESIAN COORDINATES (ANGSTROEM)
---------------------------------
  C      2.916320   -1.242590   -1.543130
  C      3.466590   -1.590970   -2.889080
  N      4.652270   -1.143160   -3.259690
  C      2.752260   -2.292040   -3.728030
  H      1.778360   -2.489600   -3.512740
  H      2.948610   -2.208540   -4.716810
  H      5.146720   -0.512510   -2.633850
  H      4.783030   -1.007200   -4.253500
  C      2.804080    0.290700   -1.359240
  H      1.940470   -1.716530   -1.441160
  H      3.558570   -1.663430   -0.766370
  H      2.173930    0.696330   -2.122970
  H      3.777070    0.730430   -1.428800
  H      2.383690    0.504920   -0.398890

 Total Charge           Charge          ....    0
 Multiplicity           Mult            ....    1
 Number of Electrons    NEL             ....   40
 Basis Dimension        Dim             ....  115

ORBITAL ENERGIES
----------------

  NO   OCC          E(Eh)            E(eV)
   0   2.0000     -14.753794      -401.4711
   1   2.0000     -10.564631      -287.4782
   2   2.0000     -10.548951      -287.0515
   3   2.0000     -10.542902      -286.8869
   4   2.0000     -10.480359      -285.1851
   5   2.0000      -1.023621       -27.8541
   6   2.0000      -0.865033       -23.5387
   7   2.0000      -0.805069       -21.9070
   8   2.0000      -0.713798       -19.4234
   9   2.0000      -0.634975       -17.2786
  10   2.0000      -0.594895       -16.1879
  11   2.0000      -0.543279       -14.7834
  12   2.0000      -0.502637       -13.6774
  13   2.0000      -0.498869       -13.5749
  14   2.0000      -0.448812       -12.2128
  15   2.0000      -0.443597       -12.0709
  16   2.0000      -0.417106       -11.3500
  17   2.0000      -0.401257       -10.9188
  18   2.0000      -0.380831       -10.3629
  19   2.0000      -0.243531        -6.6268
  20   0.0000       0.082544         2.2461
  21   0.0000       0.092036         2.5044
  22   0.0000       0.135498         3.6871
  23   0.0000       0.142998         3.8912
  24   0.0000       0.157214         4.2780

MULLIKEN ATOMIC CHARGES
-----------------------
   0 C :   -0.001540
   1 C :   -0.142812
   2 N :   -0.125044
   3 C :   -0.057443
   4 H :   -0.019200
   5 H :   -0.031202
   6 H :    0.119643
   7 H :    0.134421
   8 C :   -0.050037
   9 H :    0.030690
  10 H :    0.040156
  11 H :    0.040260
  12 H :    0.020291
  13 H :    0.041818
Sum of atomic charges:    0.0000000

LOEWDIN ATOMIC CHARGES
----------------------
   0 C :   -0.035097
   1 C :    0.002332
   2 N :   -0.023831
   3 C :   -0.171105
   4 H :    0.001656
   5 H :   -0.004232
   6 H :    0.070258
   7 H :    0.080600
   8 C :   -0.052741
   9 H :    0.035554
  10 H :    0.027925
  11 H :    0.027114
  12 H :    0.014532
  13 H :    0.027035

  Mayer bond orders larger than 0.100000
B(  0-C ,  1-C ) :   1.0275 B(  0-C ,  8-C ) :   1.0741 B(  0-C ,  9-H ) :   0.9363
B(  0-C , 10-H ) :   0.9358 B(  1-C ,  2-N ) :   1.2407 B(  1-C ,  3-C ) :   1.8897
B(  2-N ,  6-H ) :   0.9524 B(  2-N ,  7-H ) :   0.9452 B(  3-C ,  4-H ) :   0.9436
B(  3-C ,  5-H ) :   0.9561 B(  8-C , 11-H ) :   0.9722 B(  8-C , 12-H ) :   0.9742
B(  8-C , 13-H ) :   0.9710

Dispersion correction           -0.000188799
FINAL SINGLE POINT ENERGY      -212.280661829486

DIPOLE MOMENT
-------------
                                X             Y             Z
Electronic contribution:      1.77500      -1.70816      -1.41926
Nuclear contribution   :     -1.43372       2.52039       1.57679
                        -----------------------------------------
Total Dipole Moment    :      0.34129       0.81223       0.15753
                        -----------------------------------------
Magnitude (a.u.)       :      0.89499
Magnitude (Debye)      :      2.27488

Rotational constants in cm-1:     0.274962     0.131786     0.102554
Rotational constants in MHz :  8243.150005  3950.846092  3074.493018

                             ****ORCA TERMINATED NORMALLY****
TOTAL RUN TIME: 0 days 0 hours 0 minutes 15 seconds 857 msec
