                         Program Version 5.0.0 -  RELEASE  -
|  1> !M062X D3Zero RIJCOSX def2-SVP def2/J TightSCF
|  2> *xyz 0 1
|  3> C          0.70466        1.44313       -4.50363
|  4> C          1.72854        1.42432       -5.63944
|  5> H          2.64672        1.95379       -5.38105
|  6> H          1.29992        1.93061       -6.50361
|  7> S          2.25263       -0.18811       -6.27184
|  8> O          3.56261       -0.44446       -5.63155
|  9> O          2.34494       -0.03374       -7.69650
| 10> F          1.26606       -1.15918       -5.80536
| 11> H         -0.17385        0.91270       -4.80656
| 12> H          0.44778        2.45562       -4.27173
| 13> H          1.12367        0.97423       -3.63791
| 14> *
| 15>
| 16> %MaxCore 64000
| 17>
| 18> %pal nprocs 4
| 19> end
| 20>
| 21> %scf
| 22>   MaxIter 150
| 23> end
| 24>
| 25>
| 26>                          ****END OF INPUT****

CARTESIAN COORDINATES (ANGSTROEM)
---------------------------------
  C      0.704660    1.443130   -4.503630
  C      1.728540    1.424320   -5.639440
  H      2.646720    1.953790   -5.381050
  H      1.299920    1.930610   -6.503610
  S      2.252630   -0.188110   -6.271840
  O      3.562610   -0.444460   -5.631550
  O      2.344940   -0.033740   -7.696500
  F      1.266060   -1.159180   -5.805360
  H     -0.173850    0.912700   -4.806560
  H      0.447780    2.455620   -4.271730
  H      1.123670    0.974230   -3.637910

 Total Charge           Charge          ....    0
 Multiplicity           Mult            ....    1
 Number of Electrons    NEL             ....   58
 Basis Dimension        Dim             ....  113

ORBITAL ENERGIES
----------------

  NO   OCC          E(Eh)            E(eV)
   0   2.0000     -90.173766     -2453.7529
   1   2.0000     -25.355951      -689.9705
   2   2.0000     -19.637871      -534.3736
   3   2.0000     -19.620046      -533.8886
   4   2.0000     -10.609858      -288.7089
   5   2.0000     -10.580538      -287.9111
   6   2.0000      -8.506635      -231.4773
   7   2.0000      -6.434307      -175.0864
   8   2.0000      -6.428875      -174.9386
   9   2.0000      -6.427992      -174.9146
  10   2.0000      -1.494686       -40.6725
  11   2.0000      -1.220466       -33.2106
  12   2.0000      -1.109266       -30.1847
  13   2.0000      -0.916989       -24.9525
  14   2.0000      -0.818772       -22.2799
  15   2.0000      -0.764668       -20.8077
  16   2.0000      -0.681820       -18.5533
  17   2.0000      -0.670498       -18.2452
  18   2.0000      -0.621052       -16.8997
  19   2.0000      -0.568803       -15.4779
  20   2.0000      -0.550325       -14.9751
  21   2.0000      -0.519521       -14.1369
  22   2.0000      -0.510792       -13.8994
  23   2.0000      -0.478659       -13.0250
  24   2.0000      -0.460580       -12.5330
  25   2.0000      -0.450621       -12.2620
  26   2.0000      -0.395836       -10.7713
  27   2.0000      -0.380732       -10.3602
  28   2.0000      -0.370367       -10.0782
  29   0.0000       0.060737         1.6527
  30   0.0000       0.101194         2.7536
  31   0.0000       0.121776         3.3137
  32   0.0000       0.128587         3.4990
  33   0.0000       0.137684         3.7466

MULLIKEN ATOMIC CHARGES
-----------------------
   0 C :   -0.059330
   1 C :   -0.198573
   2 H :    0.118245
   3 H :    0.099577
   4 S :    1.034711
   5 O :   -0.511250
   6 O :   -0.461711
   7 F :   -0.214506
   8 H :    0.056764
   9 H :    0.068156
  10 H :    0.067917
Sum of atomic charges:   -0.0000000

LOEWDIN ATOMIC CHARGES
----------------------
   0 C :   -0.063810
   1 C :   -0.157018
   2 H :    0.055095
   3 H :    0.042956
   4 S :    1.197141
   5 O :   -0.543734
   6 O :   -0.489898
   7 F :   -0.146274
   8 H :    0.029684
   9 H :    0.041870
  10 H :    0.033989

  Mayer bond orders larger than 0.100000
B(  0-C ,  1-C ) :   1.0559 B(  0-C ,  8-H ) :   0.9737 B(  0-C ,  9-H ) :   0.9634
B(  0-C , 10-H ) :   0.9730 B(  1-C ,  2-H ) :   0.9362 B(  1-C ,  3-H ) :   0.9393
B(  1-C ,  4-S ) :   0.9201 B(  4-S ,  5-O ) :   1.7345 B(  4-S ,  6-O ) :   1.7843
B(  4-S ,  7-F ) :   0.9794

Dispersion correction           -0.000160022
FINAL SINGLE POINT ENERGY      -727.070212796599

DIPOLE MOMENT
-------------
                                X             Y             Z
Electronic contribution:      2.35330      -7.66033      -3.99183
Nuclear contribution   :     -3.70606       8.55465       4.82350
                        -----------------------------------------
Total Dipole Moment    :     -1.35276       0.89432       0.83167
                        -----------------------------------------
Magnitude (a.u.)       :      1.82248
Magnitude (Debye)      :      4.63238

Rotational constants in cm-1:     0.153201     0.080978     0.077494
Rotational constants in MHz :  4592.852844  2427.650814  2323.207507

                             ****ORCA TERMINATED NORMALLY****
TOTAL RUN TIME: 0 days 0 hours 0 minutes 14 seconds 627 msec
