                         Program Version 5.0.0 -  RELEASE  -
|  1> !wB97X-D3 RIJCOSX def2-SVPD def2/J TightSCF CPCM(Water)
|  2> *xyz -1 1
|  3> C          1.87218        0.42790       -2.07750
|  4> S          0.57902        0.14047       -3.29794
|  5> O          0.22886       -1.24687       -3.12787
|  6> O         -0.43927        1.11897       -3.01455
|  7> O          1.24788        0.40347       -4.59565
|  8> H          2.66832       -0.27048       -2.23022
|  9> H          1.46951        0.30034       -1.09440
| 10> H          2.24690        1.42458       -2.18288
| 11> *
| 12>
| 13> %MaxCore 64000
| 14>
| 15> %pal nprocs 8
| 16> end
| 17>
| 18> %scf
| 19>   MaxIter 150
| 20> end
| 21>
| 22>
| 23>                          ****END OF INPUT****

CARTESIAN COORDINATES (ANGSTROEM)
---------------------------------
  C      1.872180    0.427900   -2.077500
  S      0.579020    0.140470   -3.297940
  O      0.228860   -1.246870   -3.127870
  O     -0.439270    1.118970   -3.014550
  O      1.247880    0.403470   -4.595650
  H      2.668320   -0.270480   -2.230220
  H      1.469510    0.300340   -1.094400
  H      2.246900    1.424580   -2.182880

 Total Charge           Charge          ....   -1
 Multiplicity           Mult            ....    1
 Number of Electrons    NEL             ....   50
 Basis Dimension        Dim             ....  140

ORBITAL ENERGIES
----------------

  NO   OCC          E(Eh)            E(eV)
   0   2.0000     -89.155839     -2426.0537
   1   2.0000     -19.209835      -522.7262
   2   2.0000     -19.209794      -522.7251
   3   2.0000     -19.198416      -522.4154
   4   2.0000     -10.286374      -279.9065
   5   2.0000      -8.230040      -223.9508
   6   2.0000      -6.189816      -168.4335
   7   2.0000      -6.189781      -168.4325
   8   2.0000      -6.188404      -168.3950
   9   2.0000      -1.233376       -33.5619
  10   2.0000      -1.093992       -29.7690
  11   2.0000      -1.068851       -29.0849
  12   2.0000      -0.844124       -22.9698
  13   2.0000      -0.664697       -18.0873
  14   2.0000      -0.585830       -15.9412
  15   2.0000      -0.563493       -15.3334
  16   2.0000      -0.562315       -15.3014
  17   2.0000      -0.509708       -13.8699
  18   2.0000      -0.507426       -13.8078
  19   2.0000      -0.440776       -11.9941
  20   2.0000      -0.438121       -11.9219
  21   2.0000      -0.396630       -10.7928
  22   2.0000      -0.385451       -10.4887
  23   2.0000      -0.375734       -10.2242
  24   2.0000      -0.348774        -9.4906
  25   0.0000       0.079584         2.1656
  26   0.0000       0.103207         2.8084
  27   0.0000       0.104015         2.8304
  28   0.0000       0.104389         2.8406
  29   0.0000       0.154086         4.1929

MULLIKEN ATOMIC CHARGES
-----------------------
   0 C :    0.373791
   1 S :    1.077826
   2 O :   -0.784898
   3 O :   -0.782687
   4 O :   -0.836090
   5 H :   -0.014415
   6 H :   -0.016048
   7 H :   -0.017480
Sum of atomic charges:   -1.0000000

LOEWDIN ATOMIC CHARGES
----------------------
   0 C :    0.077005
   1 S :    0.830329
   2 O :   -0.606090
   3 O :   -0.605463
   4 O :   -0.638216
   5 H :   -0.019025
   6 H :   -0.019076
   7 H :   -0.019464

  Mayer bond orders larger than 0.100000
B(  0-C ,  1-S ) :   0.9711 B(  0-C ,  5-H ) :   0.9341 B(  0-C ,  6-H ) :   0.9349
B(  0-C ,  7-H ) :   0.9355 B(  1-S ,  2-O ) :   1.3447 B(  1-S ,  3-O ) :   1.3443
B(  1-S ,  4-O ) :   1.2918 B(  1-S ,  5-H ) :   0.1043 B(  1-S ,  7-H ) :   0.1046

Dispersion correction           -0.001525153
FINAL SINGLE POINT ENERGY      -663.517250555248

DIPOLE MOMENT
-------------
                                X             Y             Z
Electronic contribution:     -2.77570      -0.63367      -2.33318
Nuclear contribution   :      4.08143       0.90272       3.93680
                        -----------------------------------------
Total Dipole Moment    :      1.30573       0.26905       1.60362
                        -----------------------------------------
Magnitude (a.u.)       :      2.08540
Magnitude (Debye)      :      5.30067

Rotational constants in cm-1:     0.171796     0.158241     0.155560
Rotational constants in MHz :  5150.307583  4743.954688  4663.569252

                             ****ORCA TERMINATED NORMALLY****
TOTAL RUN TIME: 0 days 0 hours 0 minutes 10 seconds 356 msec
