                         Program Version 5.0.0 -  RELEASE  -
|  1> !wB97X-D3 RIJCOSX def2-SVPD def2/J TightSCF CPCM(Water)
|  2> *xyz 1 1
|  3> C          3.38093        2.08304       -3.35013
|  4> N          4.53592        1.18245       -3.42852
|  5> C          4.67196        0.12227       -4.22060
|  6> N          5.86602       -0.50785       -4.22428
|  7> N          3.69888       -0.31284       -4.98699
|  8> H          2.73141       -0.05009       -4.84900
|  9> H          3.89005       -1.05517       -5.64373
| 10> H          5.25193        1.30346       -2.72101
| 11> H          6.69516       -0.06232       -3.85160
| 12> H          5.97538       -1.39688       -4.69141
| 13> H          2.69962        1.85926       -4.14426
| 14> H          3.71221        3.09654       -3.43937
| 15> H          2.88835        1.95032       -2.40957
| 16> *
| 17>
| 18> %MaxCore 64000
| 19>
| 20> %pal nprocs 8
| 21> end
| 22>
| 23> %scf
| 24>   MaxIter 150
| 25> end
| 26>
| 27>
| 28>                          ****END OF INPUT****

CARTESIAN COORDINATES (ANGSTROEM)
---------------------------------
  C      3.380930    2.083040   -3.350130
  N      4.535920    1.182450   -3.428520
  C      4.671960    0.122270   -4.220600
  N      5.866020   -0.507850   -4.224280
  N      3.698880   -0.312840   -4.986990
  H      2.731410   -0.050090   -4.849000
  H      3.890050   -1.055170   -5.643730
  H      5.251930    1.303460   -2.721010
  H      6.695160   -0.062320   -3.851600
  H      5.975380   -1.396880   -4.691410
  H      2.699620    1.859260   -4.144260
  H      3.712210    3.096540   -3.439370
  H      2.888350    1.950320   -2.409570

 Total Charge           Charge          ....    1
 Multiplicity           Mult            ....    1
 Number of Electrons    NEL             ....   40
 Basis Dimension        Dim             ....  164

ORBITAL ENERGIES
----------------

  NO   OCC          E(Eh)            E(eV)
   0   2.0000     -14.490791      -394.3145
   1   2.0000     -14.486872      -394.2078
   2   2.0000     -14.479588      -394.0096
   3   2.0000     -10.456882      -284.5462
   4   2.0000     -10.330222      -281.0996
   5   2.0000      -1.151152       -31.3244
   6   2.0000      -1.039127       -28.2761
   7   2.0000      -1.021070       -27.7847
   8   2.0000      -0.845375       -23.0038
   9   2.0000      -0.758904       -20.6508
  10   2.0000      -0.716345       -19.4927
  11   2.0000      -0.680411       -18.5149
  12   2.0000      -0.621415       -16.9096
  13   2.0000      -0.617262       -16.7966
  14   2.0000      -0.579906       -15.7800
  15   2.0000      -0.564824       -15.3696
  16   2.0000      -0.523301       -14.2397
  17   2.0000      -0.512354       -13.9419
  18   2.0000      -0.399425       -10.8689
  19   2.0000      -0.374819       -10.1994
  20   0.0000       0.085301         2.3212
  21   0.0000       0.086450         2.3524
  22   0.0000       0.116036         3.1575
  23   0.0000       0.131088         3.5671
  24   0.0000       0.157299         4.2803

MULLIKEN ATOMIC CHARGES
-----------------------
   0 C :    1.028139
   1 N :   -0.661025
   2 C :    1.305139
   3 N :   -0.179402
   4 N :   -0.108114
   5 H :   -0.007139
   6 H :    0.012633
   7 H :   -0.162639
   8 H :   -0.003344
   9 H :    0.039242
  10 H :   -0.112613
  11 H :   -0.068321
  12 H :   -0.082556
Sum of atomic charges:    1.0000000

LOEWDIN ATOMIC CHARGES
----------------------
   0 C :    0.258533
   1 N :    0.012402
   2 C :   -0.033137
   3 N :    0.254434
   4 N :    0.273541
   5 H :    0.038084
   6 H :    0.050657
   7 H :    0.067737
   8 H :    0.041897
   9 H :    0.039544
  10 H :   -0.010976
  11 H :    0.003320
  12 H :    0.003965

  Mayer bond orders larger than 0.100000
B(  0-C ,  1-N ) :   0.8558 B(  0-C ,  7-H ) :  -0.1515 B(  0-C , 10-H ) :   0.8751
B(  0-C , 11-H ) :   0.8289 B(  0-C , 12-H ) :   0.8482 B(  1-N ,  2-C ) :   1.0154
B(  1-N ,  3-N ) :   0.2399 B(  1-N ,  4-N ) :   0.2293 B(  1-N ,  7-H ) :   1.3433
B(  1-N , 10-H ) :   0.1736 B(  1-N , 11-H ) :   0.1696 B(  1-N , 12-H ) :   0.1513
B(  2-C ,  3-N ) :   0.8462 B(  2-C ,  4-N ) :   1.0020 B(  2-C ,  5-H ) :  -0.1301
B(  2-C ,  6-H ) :  -0.1077 B(  2-C ,  7-H ) :  -0.1919 B(  2-C ,  8-H ) :  -0.1387
B(  3-N ,  4-N ) :   0.1674 B(  3-N ,  8-H ) :   1.1841 B(  3-N ,  9-H ) :   1.1465
B(  4-N ,  5-H ) :   1.1536 B(  4-N ,  6-H ) :   1.1663 B(  5-H ,  6-H ) :  -0.1739
B(  8-H ,  9-H ) :  -0.1574

Dispersion correction           -0.002351678
FINAL SINGLE POINT ENERGY      -244.954634014912

DIPOLE MOMENT
-------------
                                X             Y             Z
Electronic contribution:      1.77187      -2.15989      -0.77417
Nuclear contribution   :     -1.49827       1.51766       0.59175
                        -----------------------------------------
Total Dipole Moment    :      0.27359      -0.64223      -0.18241
                        -----------------------------------------
Magnitude (a.u.)       :      0.72152
Magnitude (Debye)      :      1.83395

Rotational constants in cm-1:     0.316446     0.130424     0.094259
Rotational constants in MHz :  9486.821695  3910.013387  2825.801764

                             ****ORCA TERMINATED NORMALLY****
TOTAL RUN TIME: 0 days 0 hours 0 minutes 14 seconds 839 msec
