                         Program Version 5.0.0 -  RELEASE  -
|  1> !wB97X-D3 RIJCOSX def2-SVPD def2/J TightSCF CPCM(Water) xyzfile
|  2>
|  3> *xyzfile 0 1 B.xyz
|  4>
|  5> %MaxCore 64000
|  6>
|  7> %pal nprocs 18
|  8> end
|  9>
| 10> %scf
| 11>   MaxIter 150
| 12> end
| 13>
| 14>
| 15>                          ****END OF INPUT****

CARTESIAN COORDINATES (ANGSTROEM)
---------------------------------
  C      3.380928    2.083045   -3.350127
  N      4.535924    1.182447   -3.428518
  C      2.495557    1.816150   -2.136364
  C      1.872181    0.427903   -2.077497
  H      2.614270   -0.365825   -2.198894
  H      1.389953    0.273087   -1.112360
  S      0.579024    0.140472   -3.297943
  C      4.671956    0.122273   -4.220598
  N      5.866023   -0.507849   -4.224284
  N      3.698881   -0.312844   -4.986988
  H      2.731405   -0.050091   -4.849000
  H      3.890046   -1.055172   -5.643730
  H      5.251933    1.303459   -2.721014
  H      6.695165   -0.062322   -3.851596
  H      5.975383   -1.396884   -4.691414
  O      0.228860   -1.246868   -3.127871
  O     -0.439269    1.118966   -3.014550
  O      1.247881    0.403474   -4.595647
  H      1.697003    2.561969   -2.141109
  H      3.080787    1.987436   -1.225838
  H      2.806463    1.986511   -4.268484
  H      3.778714    3.098282   -3.307383

 Total Charge           Charge          ....    0
 Multiplicity           Mult            ....    1
 Number of Electrons    NEL             ....   96
 Basis Dimension        Dim             ....  324

ORBITAL ENERGIES
----------------

  NO   OCC          E(Eh)            E(eV)
   0   2.0000     -89.166983     -2426.3569
   1   2.0000     -19.218927      -522.9736
   2   2.0000     -19.218771      -522.9693
   3   2.0000     -19.216719      -522.9135
   4   2.0000     -14.482578      -394.0910
   5   2.0000     -14.472887      -393.8273
   6   2.0000     -14.459057      -393.4509
   7   2.0000     -10.445904      -284.2475
   8   2.0000     -10.331969      -281.1472
   9   2.0000     -10.306430      -280.4522
  10   2.0000     -10.298982      -280.2496
  11   2.0000      -8.240642      -224.2393
  12   2.0000      -6.200817      -168.7328
  13   2.0000      -6.200255      -168.7175
  14   2.0000      -6.198777      -168.6773
  15   2.0000      -1.245807       -33.9001
  16   2.0000      -1.141588       -31.0642
  17   2.0000      -1.102358       -29.9967
  18   2.0000      -1.091251       -29.6944
  19   2.0000      -1.031949       -28.0808
  20   2.0000      -1.009856       -27.4796
  21   2.0000      -0.912600       -24.8331
  22   2.0000      -0.837418       -22.7873
  23   2.0000      -0.759951       -20.6793
  24   2.0000      -0.736125       -20.0310
  25   2.0000      -0.712345       -19.3839
  26   2.0000      -0.671968       -18.2852
  27   2.0000      -0.664298       -18.0765
  28   2.0000      -0.620728       -16.8909
  29   2.0000      -0.609009       -16.5720
  30   2.0000      -0.600054       -16.3283
  31   2.0000      -0.591395       -16.0927
  32   2.0000      -0.569571       -15.4988
  33   2.0000      -0.561291       -15.2735
  34   2.0000      -0.551003       -14.9936
  35   2.0000      -0.540136       -14.6978
  36   2.0000      -0.527927       -14.3656
  37   2.0000      -0.471436       -12.8284
  38   2.0000      -0.470514       -12.8033
  39   2.0000      -0.464220       -12.6321
  40   2.0000      -0.448854       -12.2139
  41   2.0000      -0.447698       -12.1825
  42   2.0000      -0.405622       -11.0375
  43   2.0000      -0.399982       -10.8841
  44   2.0000      -0.387448       -10.5430
  45   2.0000      -0.377147       -10.2627
  46   2.0000      -0.367004        -9.9867
  47   2.0000      -0.362378        -9.8608
  48   0.0000       0.078384         2.1329
  49   0.0000       0.090479         2.4621
  50   0.0000       0.093189         2.5358
  51   0.0000       0.098009         2.6670
  52   0.0000       0.100092         2.7236

MULLIKEN ATOMIC CHARGES
-----------------------
   0 C :    0.871345
   1 N :   -0.608274
   2 C :    0.086608
   3 C :    0.034678
   4 H :    0.139273
   5 H :   -0.097521
   6 S :    1.402150
   7 C :    1.337386
   8 N :   -0.174585
   9 N :    0.265264
  10 H :   -0.320843
  11 H :   -0.061889
  12 H :   -0.131197
  13 H :   -0.016096
  14 H :    0.039757
  15 O :   -0.814011
  16 O :   -0.850775
  17 O :   -0.938447
  18 H :    0.037145
  19 H :    0.008777
  20 H :    0.013973
  21 H :   -0.222717
Sum of atomic charges:    0.0000000

LOEWDIN ATOMIC CHARGES
----------------------
   0 C :    0.093828
   1 N :    0.047090
   2 C :   -0.012394
   3 C :   -0.062245
   4 H :    0.017523
   5 H :    0.023570
   6 S :    0.912469
   7 C :   -0.031391
   8 N :    0.250503
   9 N :    0.295864
  10 H :   -0.138698
  11 H :    0.050915
  12 H :    0.069579
  13 H :    0.037948
  14 H :    0.036570
  15 O :   -0.575742
  16 O :   -0.571651
  17 O :   -0.556265
  18 H :    0.030743
  19 H :    0.038084
  20 H :    0.004132
  21 H :    0.039569

  Mayer bond orders larger than 0.100000
B(  0-C ,  1-N ) :   0.8287 B(  0-C ,  2-C ) :   1.1223 B(  0-C , 12-H ) :  -0.1787
B(  0-C , 18-H ) :   0.1409 B(  0-C , 19-H ) :   0.1304 B(  0-C , 20-H ) :   0.7519
B(  0-C , 21-H ) :   0.9077 B(  1-N ,  7-C ) :   0.9173 B(  1-N ,  8-N ) :   0.2523
B(  1-N ,  9-N ) :   0.1662 B(  1-N , 12-H ) :   1.3491 B(  1-N , 20-H ) :   0.1929
B(  1-N , 21-H ) :   0.1352 B(  2-C ,  3-C ) :   1.2410 B(  2-C ,  4-H ) :   0.1326
B(  2-C ,  5-H ) :   0.1496 B(  2-C , 18-H ) :   0.8457 B(  2-C , 19-H ) :   0.8246
B(  2-C , 20-H ) :   0.1381 B(  3-C ,  4-H ) :   0.9154 B(  3-C ,  5-H ) :   0.8647
B(  3-C ,  6-S ) :   0.9329 B(  3-C , 17-O ) :   0.1455 B(  3-C , 18-H ) :   0.1433
B(  3-C , 19-H ) :   0.1124 B(  5-H ,  6-S ) :   0.1046 B(  6-S , 15-O ) :   1.3247
B(  6-S , 16-O ) :   1.3305 B(  6-S , 17-O ) :   1.1537 B(  7-C ,  8-N ) :   0.8446
B(  7-C ,  9-N ) :   1.0687 B(  7-C , 10-H ) :  -0.2338 B(  7-C , 11-H ) :  -0.1638
B(  7-C , 12-H ) :  -0.2123 B(  7-C , 13-H ) :  -0.1414 B(  8-N ,  9-N ) :   0.1534
B(  8-N , 13-H ) :   1.1962 B(  8-N , 14-H ) :   1.1530 B(  9-N , 10-H ) :   1.1195
B(  9-N , 11-H ) :   1.2451 B( 10-H , 11-H ) :  -0.2505 B( 10-H , 17-O ) :   0.1899
B( 13-H , 14-H ) :  -0.1653 B( 20-H , 21-H ) :  -0.1211

Dispersion correction           -0.009899726
FINAL SINGLE POINT ENERGY      -946.569912010881

DIPOLE MOMENT
-------------
                                X             Y             Z
Electronic contribution:     -5.33993      -3.10829      -2.16811
Nuclear contribution   :     13.40759       3.44219       2.21042
                        -----------------------------------------
Total Dipole Moment    :      8.06766       0.33391       0.04232
                        -----------------------------------------
Magnitude (a.u.)       :      8.07468
Magnitude (Debye)      :     20.52421

Rotational constants in cm-1:     0.059860     0.020817     0.017914
Rotational constants in MHz :  1794.564877   624.092098   537.039275

                             ****ORCA TERMINATED NORMALLY****
TOTAL RUN TIME: 0 days 0 hours 0 minutes 35 seconds 80 msec
