                         Program Version 5.0.0 -  RELEASE  -
|  1> !wB97X-D3 RIJCOSX def2-SVPD def2/J TightSCF CPCM(Water)
|  2> *xyz 0 1
|  3> C          1.87218        0.42790       -2.07750
|  4> S          0.57902        0.14047       -3.29794
|  5> F          0.22886       -1.24687       -3.12787
|  6> O         -0.43927        1.11897       -3.01455
|  7> O          1.24788        0.40347       -4.59565
|  8> H          2.66832       -0.27048       -2.23022
|  9> H          1.46951        0.30034       -1.09440
| 10> H          2.24690        1.42458       -2.18288
| 11> *
| 12>
| 13> %MaxCore 64000
| 14>
| 15> %pal nprocs 8
| 16> end
| 17>
| 18> %scf
| 19>   MaxIter 150
| 20> end
| 21>
| 22>
| 23>                          ****END OF INPUT****

CARTESIAN COORDINATES (ANGSTROEM)
---------------------------------
  C      1.872180    0.427900   -2.077500
  S      0.579020    0.140470   -3.297940
  F      0.228860   -1.246870   -3.127870
  O     -0.439270    1.118970   -3.014550
  O      1.247880    0.403470   -4.595650
  H      2.668320   -0.270480   -2.230220
  H      1.469510    0.300340   -1.094400
  H      2.246900    1.424580   -2.182880

 Total Charge           Charge          ....    0
 Multiplicity           Mult            ....    1
 Number of Electrons    NEL             ....   50
 Basis Dimension        Dim             ....  140

ORBITAL ENERGIES
----------------

  NO   OCC          E(Eh)            E(eV)
   0   2.0000     -89.245015     -2428.4803
   1   2.0000     -24.920403      -678.1186
   2   2.0000     -19.271326      -524.3994
   3   2.0000     -19.259014      -524.0644
   4   2.0000     -10.328075      -281.0412
   5   2.0000      -8.319101      -226.3743
   6   2.0000      -6.282770      -170.9629
   7   2.0000      -6.276754      -170.7992
   8   2.0000      -6.274817      -170.7465
   9   2.0000      -1.494199       -40.6592
  10   2.0000      -1.236918       -33.6583
  11   2.0000      -1.130741       -30.7690
  12   2.0000      -0.901934       -24.5429
  13   2.0000      -0.823357       -22.4047
  14   2.0000      -0.705270       -19.1914
  15   2.0000      -0.696309       -18.9475
  16   2.0000      -0.666973       -18.1492
  17   2.0000      -0.582161       -15.8414
  18   2.0000      -0.573147       -15.5961
  19   2.0000      -0.548784       -14.9332
  20   2.0000      -0.537007       -14.6127
  21   2.0000      -0.497633       -13.5413
  22   2.0000      -0.444830       -12.1044
  23   2.0000      -0.431473       -11.7410
  24   2.0000      -0.417949       -11.3730
  25   0.0000       0.066579         1.8117
  26   0.0000       0.099369         2.7040
  27   0.0000       0.099527         2.7083
  28   0.0000       0.102539         2.7902
  29   0.0000       0.129707         3.5295

MULLIKEN ATOMIC CHARGES
-----------------------
   0 C :    0.275153
   1 S :    1.300771
   2 F :   -0.365150
   3 O :   -0.667557
   4 O :   -0.721443
   5 H :    0.062375
   6 H :    0.061551
   7 H :    0.054301
Sum of atomic charges:    0.0000000

LOEWDIN ATOMIC CHARGES
----------------------
   0 C :    0.138611
   1 S :    1.118698
   2 F :   -0.239724
   3 O :   -0.498084
   4 O :   -0.529061
   5 H :    0.000653
   6 H :    0.000477
   7 H :    0.008430

  Mayer bond orders larger than 0.100000
B(  0-C ,  1-S ) :   1.0202 B(  0-C ,  5-H ) :   0.9305 B(  0-C ,  6-H ) :   0.9323
B(  0-C ,  7-H ) :   0.9301 B(  1-S ,  2-F ) :   0.7257 B(  1-S ,  3-O ) :   1.5211
B(  1-S ,  4-O ) :   1.4723 B(  1-S ,  7-H ) :   0.1034

Dispersion correction           -0.001537553
FINAL SINGLE POINT ENERGY      -687.909709562888

DIPOLE MOMENT
-------------
                                X             Y             Z
Electronic contribution:     -3.58362      -3.26778      -2.11491
Nuclear contribution   :      4.52607       2.31146       3.82544
                        -----------------------------------------
Total Dipole Moment    :      0.94245      -0.95632       1.71054
                        -----------------------------------------
Magnitude (a.u.)       :      2.17456
Magnitude (Debye)      :      5.52729

Rotational constants in cm-1:     0.162724     0.156586     0.147157
Rotational constants in MHz :  4878.333818  4694.318771  4411.658495

                             ****ORCA TERMINATED NORMALLY****
TOTAL RUN TIME: 0 days 0 hours 0 minutes 11 seconds 262 msec
