                         Program Version 5.0.0 -  RELEASE  -
|  1> !wB97X-D3 RIJCOSX def2-SVPD def2/J TightSCF CPCM(Water)
|  2> *xyz 0 1
|  3> C          3.38093        2.08304       -3.35013
|  4> C          4.53592        1.18245       -3.42852
|  5> C          4.67196        0.12227       -4.22060
|  6> N          5.86602       -0.50785       -4.22428
|  7> N          3.69888       -0.31284       -4.98699
|  8> H          2.73141       -0.05009       -4.84900
|  9> H          3.89005       -1.05517       -5.64373
| 10> H          5.25193        1.30346       -2.72101
| 11> H          6.69516       -0.06232       -3.85160
| 12> H          5.97538       -1.39688       -4.69141
| 13> H          2.69962        1.85926       -4.14426
| 14> H          3.71221        3.09654       -3.43937
| 15> H          2.88835        1.95032       -2.40957
| 16> *
| 17>
| 18> %MaxCore 64000
| 19>
| 20> %pal nprocs 8
| 21> end
| 22>
| 23> %scf
| 24>   MaxIter 150
| 25> end
| 26>
| 27>
| 28>                          ****END OF INPUT****

CARTESIAN COORDINATES (ANGSTROEM)
---------------------------------
  C      3.380930    2.083040   -3.350130
  C      4.535920    1.182450   -3.428520
  C      4.671960    0.122270   -4.220600
  N      5.866020   -0.507850   -4.224280
  N      3.698880   -0.312840   -4.986990
  H      2.731410   -0.050090   -4.849000
  H      3.890050   -1.055170   -5.643730
  H      5.251930    1.303460   -2.721010
  H      6.695160   -0.062320   -3.851600
  H      5.975380   -1.396880   -4.691410
  H      2.699620    1.859260   -4.144260
  H      3.712210    3.096540   -3.439370
  H      2.888350    1.950320   -2.409570

 Total Charge           Charge          ....    0
 Multiplicity           Mult            ....    1
 Number of Electrons    NEL             ....   40
 Basis Dimension        Dim             ....  164

ORBITAL ENERGIES
----------------

  NO   OCC          E(Eh)            E(eV)
   0   2.0000     -14.431998      -392.7146
   1   2.0000     -14.426244      -392.5580
   2   2.0000     -10.336389      -281.2674
   3   2.0000     -10.258437      -279.1463
   4   2.0000     -10.215264      -277.9715
   5   2.0000      -1.066644       -29.0249
   6   2.0000      -0.969259       -26.3749
   7   2.0000      -0.862346       -23.4656
   8   2.0000      -0.764447       -20.8017
   9   2.0000      -0.685840       -18.6626
  10   2.0000      -0.640866       -17.4389
  11   2.0000      -0.604399       -16.4465
  12   2.0000      -0.571711       -15.5571
  13   2.0000      -0.528366       -14.3776
  14   2.0000      -0.508509       -13.8372
  15   2.0000      -0.474725       -12.9179
  16   2.0000      -0.460542       -12.5320
  17   2.0000      -0.438264       -11.9258
  18   2.0000      -0.356380        -9.6976
  19   2.0000      -0.247847        -6.7443
  20   0.0000       0.097765         2.6603
  21   0.0000       0.123757         3.3676
  22   0.0000       0.134598         3.6626
  23   0.0000       0.153456         4.1757
  24   0.0000       0.166788         4.5385

MULLIKEN ATOMIC CHARGES
-----------------------
   0 C :    0.834284
   1 C :   -0.731242
   2 C :    0.852729
   3 N :   -0.063910
   4 N :   -0.019538
   5 H :   -0.037557
   6 H :   -0.132042
   7 H :   -0.350289
   8 H :   -0.037153
   9 H :   -0.052852
  10 H :   -0.175441
  11 H :   -0.020931
  12 H :   -0.066059
Sum of atomic charges:    0.0000000

LOEWDIN ATOMIC CHARGES
----------------------
   0 C :    0.086718
   1 C :   -0.093020
   2 C :   -0.246741
   3 N :    0.172753
   4 N :    0.191870
   5 H :    0.010576
   6 H :    0.011724
   7 H :   -0.059593
   8 H :    0.010242
   9 H :    0.000216
  10 H :   -0.036522
  11 H :   -0.025114
  12 H :   -0.023109

  Mayer bond orders larger than 0.100000
B(  0-C ,  1-C ) :   1.1430 B(  0-C ,  7-H ) :   0.1653 B(  0-C , 10-H ) :   0.8107
B(  0-C , 11-H ) :   0.7262 B(  0-C , 12-H ) :   0.7401 B(  1-C ,  2-C ) :   1.6506
B(  1-C ,  3-N ) :   0.4251 B(  1-C ,  4-N ) :   0.2777 B(  1-C ,  7-H ) :   0.9386
B(  1-C , 10-H ) :   0.3548 B(  1-C , 11-H ) :   0.1962 B(  1-C , 12-H ) :   0.1785
B(  2-C ,  3-N ) :   0.8237 B(  2-C ,  4-N ) :   1.0551 B(  2-C ,  6-H ) :  -0.1213
B(  2-C ,  7-H ) :   0.1683 B(  2-C ,  8-H ) :  -0.1102 B(  2-C , 10-H ) :  -0.1037
B(  3-N ,  4-N ) :   0.1034 B(  3-N ,  8-H ) :   1.1853 B(  3-N ,  9-H ) :   1.1165
B(  4-N ,  5-H ) :   1.1361 B(  4-N ,  6-H ) :   1.2504 B(  5-H ,  6-H ) :  -0.1698
B(  8-H ,  9-H ) :  -0.1525 B( 10-H , 11-H ) :   0.1345

Dispersion correction           -0.002353165
FINAL SINGLE POINT ENERGY      -228.403216746656

DIPOLE MOMENT
-------------
                                X             Y             Z
Electronic contribution:      1.53971      -2.76344      -1.42210
Nuclear contribution   :     -1.47697       1.65537       0.71722
                        -----------------------------------------
Total Dipole Moment    :      0.06274      -1.10807      -0.70488
                        -----------------------------------------
Magnitude (a.u.)       :      1.31477
Magnitude (Debye)      :      3.34187

Rotational constants in cm-1:     0.321284     0.131400     0.095192
Rotational constants in MHz :  9631.850868  3939.260061  2853.789421

                             ****ORCA TERMINATED NORMALLY****
TOTAL RUN TIME: 0 days 0 hours 0 minutes 16 seconds 52 msec
