                         Program Version 5.0.0 -  RELEASE  -
|  1> !wB97X-D3 RIJCOSX def2-SVPD def2/J TightSCF CPCM(Water)
|  2> *xyz 0 1
|  3> C          1.87218        0.42790       -2.07750
|  4> S          0.57902        0.14047       -3.29794
|  5> O          0.22886       -1.24687       -3.12787
|  6> F         -0.43927        1.11897       -3.01455
|  7> O          1.24788        0.40347       -4.59565
|  8> H          2.66832       -0.27048       -2.23022
|  9> H          1.46951        0.30034       -1.09440
| 10> H          2.24690        1.42458       -2.18288
| 11> *
| 12>
| 13> %MaxCore 64000
| 14>
| 15> %pal nprocs 8
| 16> end
| 17>
| 18> %scf
| 19>   MaxIter 150
| 20> end
| 21>
| 22>
| 23>                          ****END OF INPUT****

CARTESIAN COORDINATES (ANGSTROEM)
---------------------------------
  C      1.872180    0.427900   -2.077500
  S      0.579020    0.140470   -3.297940
  O      0.228860   -1.246870   -3.127870
  F     -0.439270    1.118970   -3.014550
  O      1.247880    0.403470   -4.595650
  H      2.668320   -0.270480   -2.230220
  H      1.469510    0.300340   -1.094400
  H      2.246900    1.424580   -2.182880

 Total Charge           Charge          ....    0
 Multiplicity           Mult            ....    1
 Number of Electrons    NEL             ....   50
 Basis Dimension        Dim             ....  140

ORBITAL ENERGIES
----------------

  NO   OCC          E(Eh)            E(eV)
   0   2.0000     -89.244974     -2428.4792
   1   2.0000     -24.920430      -678.1194
   2   2.0000     -19.271230      -524.3968
   3   2.0000     -19.259050      -524.0654
   4   2.0000     -10.327898      -281.0364
   5   2.0000      -8.319034      -226.3724
   6   2.0000      -6.282707      -170.9611
   7   2.0000      -6.276661      -170.7966
   8   2.0000      -6.274777      -170.7454
   9   2.0000      -1.494335       -40.6629
  10   2.0000      -1.236258       -33.6403
  11   2.0000      -1.131425       -30.7876
  12   2.0000      -0.901015       -24.5179
  13   2.0000      -0.823465       -22.4076
  14   2.0000      -0.705388       -19.1946
  15   2.0000      -0.696128       -18.9426
  16   2.0000      -0.667089       -18.1524
  17   2.0000      -0.581503       -15.8235
  18   2.0000      -0.573285       -15.5999
  19   2.0000      -0.549356       -14.9487
  20   2.0000      -0.536885       -14.6094
  21   2.0000      -0.496780       -13.5181
  22   2.0000      -0.444295       -12.0899
  23   2.0000      -0.430911       -11.7257
  24   2.0000      -0.418802       -11.3962
  25   0.0000       0.066756         1.8165
  26   0.0000       0.099434         2.7057
  27   0.0000       0.099549         2.7089
  28   0.0000       0.102524         2.7898
  29   0.0000       0.128639         3.5004

MULLIKEN ATOMIC CHARGES
-----------------------
   0 C :    0.276849
   1 S :    1.303371
   2 O :   -0.670231
   3 F :   -0.363785
   4 O :   -0.723147
   5 H :    0.057360
   6 H :    0.060832
   7 H :    0.058750
Sum of atomic charges:    0.0000000

LOEWDIN ATOMIC CHARGES
----------------------
   0 C :    0.138480
   1 S :    1.119132
   2 O :   -0.498982
   3 F :   -0.238664
   4 O :   -0.529106
   5 H :    0.008660
   6 H :    0.000379
   7 H :    0.000101

  Mayer bond orders larger than 0.100000
B(  0-C ,  1-S ) :   1.0204 B(  0-C ,  5-H ) :   0.9276 B(  0-C ,  6-H ) :   0.9318
B(  0-C ,  7-H ) :   0.9332 B(  1-S ,  2-O ) :   1.5215 B(  1-S ,  3-F ) :   0.7235
B(  1-S ,  4-O ) :   1.4712 B(  1-S ,  5-H ) :   0.1028

Dispersion correction           -0.001534974
FINAL SINGLE POINT ENERGY      -687.909686282415

DIPOLE MOMENT
-------------
                                X             Y             Z
Electronic contribution:     -4.83721       1.16468      -1.89776
Nuclear contribution   :      5.19357      -0.05217       3.71223
                        -----------------------------------------
Total Dipole Moment    :      0.35636       1.11250       1.81447
                        -----------------------------------------
Magnitude (a.u.)       :      2.15800
Magnitude (Debye)      :      5.48521

Rotational constants in cm-1:     0.163837     0.155047     0.147593
Rotational constants in MHz :  4911.724022  4648.196128  4424.713532

                             ****ORCA TERMINATED NORMALLY****
TOTAL RUN TIME: 0 days 0 hours 0 minutes 11 seconds 365 msec
