                         Program Version 5.0.0 -  RELEASE  -
|  1> !wB97X-D3 RIJCOSX def2-SVPD def2/J TightSCF CPCM(Water)
|  2> *xyz 0 1
|  3> C          3.38093        2.08304       -3.35013
|  4> N          4.53592        1.18245       -3.42852
|  5> C          4.67196        0.12227       -4.22060
|  6> C          5.86602       -0.50785       -4.22428
|  7> N          3.69888       -0.31284       -4.98699
|  8> H          2.73141       -0.05009       -4.84900
|  9> H          3.89005       -1.05517       -5.64373
| 10> H          5.25193        1.30346       -2.72101
| 11> H          6.69516       -0.06232       -3.85160
| 12> H          5.97538       -1.39688       -4.69141
| 13> H          2.69962        1.85926       -4.14426
| 14> H          3.71221        3.09654       -3.43937
| 15> H          2.88835        1.95032       -2.40957
| 16> *
| 17>
| 18> %MaxCore 64000
| 19>
| 20> %pal nprocs 8
| 21> end
| 22>
| 23> %scf
| 24>   MaxIter 150
| 25> end
| 26>
| 27>
| 28>                          ****END OF INPUT****

CARTESIAN COORDINATES (ANGSTROEM)
---------------------------------
  C      3.380930    2.083040   -3.350130
  N      4.535920    1.182450   -3.428520
  C      4.671960    0.122270   -4.220600
  C      5.866020   -0.507850   -4.224280
  N      3.698880   -0.312840   -4.986990
  H      2.731410   -0.050090   -4.849000
  H      3.890050   -1.055170   -5.643730
  H      5.251930    1.303460   -2.721010
  H      6.695160   -0.062320   -3.851600
  H      5.975380   -1.396880   -4.691410
  H      2.699620    1.859260   -4.144260
  H      3.712210    3.096540   -3.439370
  H      2.888350    1.950320   -2.409570

 Total Charge           Charge          ....    0
 Multiplicity           Mult            ....    1
 Number of Electrons    NEL             ....   40
 Basis Dimension        Dim             ....  164

ORBITAL ENERGIES
----------------

  NO   OCC          E(Eh)            E(eV)
   0   2.0000     -14.437518      -392.8648
   1   2.0000     -14.436847      -392.8466
   2   2.0000     -10.348458      -281.5959
   3   2.0000     -10.309207      -280.5278
   4   2.0000     -10.205872      -277.7159
   5   2.0000      -1.078613       -29.3506
   6   2.0000      -0.990674       -26.9576
   7   2.0000      -0.847718       -23.0676
   8   2.0000      -0.770945       -20.9785
   9   2.0000      -0.705012       -19.1844
  10   2.0000      -0.644613       -17.5408
  11   2.0000      -0.593638       -16.1537
  12   2.0000      -0.573752       -15.6126
  13   2.0000      -0.544691       -14.8218
  14   2.0000      -0.499262       -13.5856
  15   2.0000      -0.490420       -13.3450
  16   2.0000      -0.483258       -13.1501
  17   2.0000      -0.459891       -12.5143
  18   2.0000      -0.347071        -9.4443
  19   2.0000      -0.256005        -6.9663
  20   0.0000       0.093183         2.5357
  21   0.0000       0.120064         3.2671
  22   0.0000       0.135538         3.6882
  23   0.0000       0.144428         3.9301
  24   0.0000       0.157056         4.2737

MULLIKEN ATOMIC CHARGES
-----------------------
   0 C :    1.079910
   1 N :   -0.601837
   2 C :    0.577513
   3 C :    0.408324
   4 N :    0.023883
   5 H :   -0.093912
   6 H :   -0.014017
   7 H :   -0.206412
   8 H :   -0.401169
   9 H :   -0.375814
  10 H :   -0.155788
  11 H :   -0.114249
  12 H :   -0.126431
Sum of atomic charges:   -0.0000000

LOEWDIN ATOMIC CHARGES
----------------------
   0 C :    0.225515
   1 N :   -0.045322
   2 C :   -0.254667
   3 C :    0.097207
   4 N :    0.197160
   5 H :    0.005763
   6 H :    0.023348
   7 H :    0.042982
   8 H :   -0.120256
   9 H :   -0.123671
  10 H :   -0.022749
  11 H :   -0.012831
  12 H :   -0.012479

  Mayer bond orders larger than 0.100000
B(  0-C ,  1-N ) :   0.8707 B(  0-C ,  7-H ) :  -0.1495 B(  0-C , 10-H ) :   0.8675
B(  0-C , 11-H ) :   0.8194 B(  0-C , 12-H ) :   0.8376 B(  1-N ,  2-C ) :   1.0709
B(  1-N ,  3-C ) :   0.2326 B(  1-N ,  4-N ) :   0.1713 B(  1-N ,  7-H ) :   1.2955
B(  1-N , 10-H ) :   0.1969 B(  1-N , 11-H ) :   0.1679 B(  1-N , 12-H ) :   0.1644
B(  2-C ,  3-C ) :   1.5366 B(  2-C ,  4-N ) :   1.1199 B(  2-C ,  7-H ) :  -0.1797
B(  2-C ,  9-H ) :   0.1739 B(  3-C ,  4-N ) :   0.1842 B(  3-C ,  8-H ) :   0.8865
B(  3-C ,  9-H ) :   0.8097 B(  4-N ,  5-H ) :   1.1627 B(  4-N ,  6-H ) :   1.1381
B(  5-H ,  6-H ) :  -0.1704

Dispersion correction           -0.002365903
FINAL SINGLE POINT ENERGY      -228.389793340624

DIPOLE MOMENT
-------------
                                X             Y             Z
Electronic contribution:     -0.29809      -0.60748      -0.43452
Nuclear contribution   :     -1.20756       1.31300       0.55604
                        -----------------------------------------
Total Dipole Moment    :     -1.50565       0.70553       0.12152
                        -----------------------------------------
Magnitude (a.u.)       :      1.66719
Magnitude (Debye)      :      4.23766

Rotational constants in cm-1:     0.323683     0.135884     0.097747
Rotational constants in MHz :  9703.770798  4073.695357  2930.389562

                             ****ORCA TERMINATED NORMALLY****
TOTAL RUN TIME: 0 days 0 hours 0 minutes 15 seconds 368 msec
