                         Program Version 5.0.0 -  RELEASE  -
|  1> !wB97X-D3 RIJCOSX def2-SVPD def2/J TightSCF CPCM(Water)
|  2> *xyz 0 1
|  3> C          1.87218        0.42790       -2.07750
|  4> S          0.57902        0.14047       -3.29794
|  5> O          0.22886       -1.24687       -3.12787
|  6> O         -0.43927        1.11897       -3.01455
|  7> F          1.24788        0.40347       -4.59565
|  8> H          2.66832       -0.27048       -2.23022
|  9> H          1.46951        0.30034       -1.09440
| 10> H          2.24690        1.42458       -2.18288
| 11> *
| 12>
| 13> %MaxCore 64000
| 14>
| 15> %pal nprocs 8
| 16> end
| 17>
| 18> %scf
| 19>   MaxIter 150
| 20> end
| 21>
| 22>
| 23>                          ****END OF INPUT****

CARTESIAN COORDINATES (ANGSTROEM)
---------------------------------
  C      1.872180    0.427900   -2.077500
  S      0.579020    0.140470   -3.297940
  O      0.228860   -1.246870   -3.127870
  O     -0.439270    1.118970   -3.014550
  F      1.247880    0.403470   -4.595650
  H      2.668320   -0.270480   -2.230220
  H      1.469510    0.300340   -1.094400
  H      2.246900    1.424580   -2.182880

 Total Charge           Charge          ....    0
 Multiplicity           Mult            ....    1
 Number of Electrons    NEL             ....   50
 Basis Dimension        Dim             ....  140

ORBITAL ENERGIES
----------------

  NO   OCC          E(Eh)            E(eV)
   0   2.0000     -89.241982     -2428.3978
   1   2.0000     -24.900995      -677.5905
   2   2.0000     -19.270680      -524.3819
   3   2.0000     -19.270599      -524.3797
   4   2.0000     -10.326899      -281.0092
   5   2.0000      -8.316040      -226.2909
   6   2.0000      -6.279534      -170.8748
   7   2.0000      -6.273806      -170.7189
   8   2.0000      -6.271982      -170.6693
   9   2.0000      -1.460185       -39.7337
  10   2.0000      -1.245496       -33.8917
  11   2.0000      -1.151266       -31.3275
  12   2.0000      -0.898070       -24.4377
  13   2.0000      -0.808015       -21.9872
  14   2.0000      -0.689530       -18.7631
  15   2.0000      -0.673788       -18.3347
  16   2.0000      -0.664839       -18.0912
  17   2.0000      -0.582916       -15.8620
  18   2.0000      -0.575612       -15.6632
  19   2.0000      -0.547802       -14.9064
  20   2.0000      -0.540463       -14.7068
  21   2.0000      -0.501249       -13.6397
  22   2.0000      -0.451825       -12.2948
  23   2.0000      -0.437766       -11.9122
  24   2.0000      -0.431726       -11.7479
  25   0.0000       0.067785         1.8445
  26   0.0000       0.099676         2.7123
  27   0.0000       0.100094         2.7237
  28   0.0000       0.102449         2.7878
  29   0.0000       0.125773         3.4224

MULLIKEN ATOMIC CHARGES
-----------------------
   0 C :    0.275403
   1 S :    1.301347
   2 O :   -0.681176
   3 O :   -0.680015
   4 F :   -0.388882
   5 H :    0.060773
   6 H :    0.054860
   7 H :    0.057689
Sum of atomic charges:   -0.0000000

LOEWDIN ATOMIC CHARGES
----------------------
   0 C :    0.138165
   1 S :    1.113580
   2 O :   -0.498916
   3 O :   -0.498128
   4 F :   -0.263233
   5 H :    0.000266
   6 H :    0.008433
   7 H :   -0.000166

  Mayer bond orders larger than 0.100000
B(  0-C ,  1-S ) :   1.0199 B(  0-C ,  5-H ) :   0.9329 B(  0-C ,  6-H ) :   0.9271
B(  0-C ,  7-H ) :   0.9340 B(  1-S ,  2-O ) :   1.5188 B(  1-S ,  3-O ) :   1.5180
B(  1-S ,  4-F ) :   0.6741

Dispersion correction           -0.001534362
FINAL SINGLE POINT ENERGY      -687.925794180384

DIPOLE MOMENT
-------------
                                X             Y             Z
Electronic contribution:     -1.65426      -0.17042      -4.90596
Nuclear contribution   :      3.50800       0.66266       5.29185
                        -----------------------------------------
Total Dipole Moment    :      1.85374       0.49224       0.38589
                        -----------------------------------------
Magnitude (a.u.)       :      1.95642
Magnitude (Debye)      :      4.97282

Rotational constants in cm-1:     0.163942     0.153101     0.149133
Rotational constants in MHz :  4914.860621  4589.839477  4470.901507

                             ****ORCA TERMINATED NORMALLY****
TOTAL RUN TIME: 0 days 0 hours 0 minutes 10 seconds 728 msec
