                         Program Version 5.0.0 -  RELEASE  -
|  1> !wB97X-D3 RIJCOSX def2-SVPD def2/J TightSCF CPCM(Water)
|  2> *xyz 0 1
|  3> C          3.38093        2.08304       -3.35013
|  4> N          4.53592        1.18245       -3.42852
|  5> C          4.67196        0.12227       -4.22060
|  6> N          5.86602       -0.50785       -4.22428
|  7> C          3.69888       -0.31284       -4.98699
|  8> H          2.73141       -0.05009       -4.84900
|  9> H          3.89005       -1.05517       -5.64373
| 10> H          5.25193        1.30346       -2.72101
| 11> H          6.69516       -0.06232       -3.85160
| 12> H          5.97538       -1.39688       -4.69141
| 13> H          2.69962        1.85926       -4.14426
| 14> H          3.71221        3.09654       -3.43937
| 15> H          2.88835        1.95032       -2.40957
| 16> *
| 17>
| 18> %MaxCore 64000
| 19>
| 20> %pal nprocs 8
| 21> end
| 22>
| 23> %scf
| 24>   MaxIter 150
| 25> end
| 26>
| 27>
| 28>                          ****END OF INPUT****

CARTESIAN COORDINATES (ANGSTROEM)
---------------------------------
  C      3.380930    2.083040   -3.350130
  N      4.535920    1.182450   -3.428520
  C      4.671960    0.122270   -4.220600
  N      5.866020   -0.507850   -4.224280
  C      3.698880   -0.312840   -4.986990
  H      2.731410   -0.050090   -4.849000
  H      3.890050   -1.055170   -5.643730
  H      5.251930    1.303460   -2.721010
  H      6.695160   -0.062320   -3.851600
  H      5.975380   -1.396880   -4.691410
  H      2.699620    1.859260   -4.144260
  H      3.712210    3.096540   -3.439370
  H      2.888350    1.950320   -2.409570

 Total Charge           Charge          ....    0
 Multiplicity           Mult            ....    1
 Number of Electrons    NEL             ....   40
 Basis Dimension        Dim             ....  164

ORBITAL ENERGIES
----------------

  NO   OCC          E(Eh)            E(eV)
   0   2.0000     -14.436688      -392.8423
   1   2.0000     -14.430456      -392.6727
   2   2.0000     -10.344313      -281.4831
   3   2.0000     -10.307566      -280.4831
   4   2.0000     -10.208599      -277.7901
   5   2.0000      -1.071802       -29.1652
   6   2.0000      -0.981656       -26.7122
   7   2.0000      -0.833819       -22.6894
   8   2.0000      -0.802965       -21.8498
   9   2.0000      -0.669858       -18.2278
  10   2.0000      -0.646679       -17.5970
  11   2.0000      -0.614572       -16.7233
  12   2.0000      -0.552757       -15.0413
  13   2.0000      -0.535092       -14.5606
  14   2.0000      -0.516973       -14.0675
  15   2.0000      -0.488465       -13.2918
  16   2.0000      -0.478440       -13.0190
  17   2.0000      -0.457854       -12.4589
  18   2.0000      -0.339954        -9.2506
  19   2.0000      -0.266578        -7.2540
  20   0.0000       0.097416         2.6508
  21   0.0000       0.122244         3.3264
  22   0.0000       0.127249         3.4626
  23   0.0000       0.146338         3.9820
  24   0.0000       0.164835         4.4854

MULLIKEN ATOMIC CHARGES
-----------------------
   0 C :    1.065509
   1 N :   -0.566903
   2 C :    0.770675
   3 N :   -0.049182
   4 C :    0.105071
   5 H :   -0.225375
   6 H :   -0.381506
   7 H :   -0.271125
   8 H :   -0.114885
   9 H :    0.023983
  10 H :   -0.124641
  11 H :   -0.098906
  12 H :   -0.132716
Sum of atomic charges:   -0.0000000

LOEWDIN ATOMIC CHARGES
----------------------
   0 C :    0.228365
   1 N :   -0.052249
   2 C :   -0.255663
   3 N :    0.180843
   4 C :    0.112566
   5 H :   -0.113013
   6 H :   -0.106488
   7 H :    0.036614
   8 H :    0.006021
   9 H :    0.011430
  10 H :   -0.026998
  11 H :   -0.011235
  12 H :   -0.010192

  Mayer bond orders larger than 0.100000
B(  0-C ,  1-N ) :   0.8598 B(  0-C ,  7-H ) :  -0.1410 B(  0-C , 10-H ) :   0.8801
B(  0-C , 11-H ) :   0.8070 B(  0-C , 12-H ) :   0.8212 B(  1-N ,  2-C ) :   0.9857
B(  1-N ,  3-N ) :   0.1560 B(  1-N ,  4-C ) :   0.3236 B(  1-N ,  7-H ) :   1.3600
B(  1-N , 10-H ) :   0.1528 B(  1-N , 11-H ) :   0.1742 B(  1-N , 12-H ) :   0.1764
B(  2-C ,  3-N ) :   0.9658 B(  2-C ,  4-C ) :   1.6048 B(  2-C ,  5-H ) :   0.1196
B(  2-C ,  6-H ) :   0.1397 B(  2-C ,  7-H ) :  -0.2004 B(  3-N ,  4-C ) :   0.2404
B(  3-N ,  8-H ) :   1.2074 B(  3-N ,  9-H ) :   1.1191 B(  4-C ,  5-H ) :   0.7660
B(  4-C ,  6-H ) :   0.9686 B(  8-H ,  9-H ) :  -0.1582

Dispersion correction           -0.002350795
FINAL SINGLE POINT ENERGY      -228.393009768201

DIPOLE MOMENT
-------------
                                X             Y             Z
Electronic contribution:      2.59996      -0.87997       0.52585
Nuclear contribution   :     -1.64651       1.35250       0.40156
                        -----------------------------------------
Total Dipole Moment    :      0.95345       0.47253       0.92741
                        -----------------------------------------
Magnitude (a.u.)       :      1.41154
Magnitude (Debye)      :      3.58785

Rotational constants in cm-1:     0.339624     0.131069     0.096565
Rotational constants in MHz : 10181.679558  3929.342810  2894.941560

                             ****ORCA TERMINATED NORMALLY****
TOTAL RUN TIME: 0 days 0 hours 0 minutes 15 seconds 948 msec
