                         Program Version 5.0.0 -  RELEASE  -
|  1> !wB97X-D3 RIJCOSX def2-SVPD def2/J TightSCF CPCM(Water) xyzfile
|  2>
|  3> *xyzfile 0 1 D5.xyz
|  4>
|  5> %MaxCore 64000
|  6>
|  7> %pal nprocs 18
|  8> end
|  9>
| 10> %scf
| 11>   MaxIter 150
| 12> end
| 13>
| 14>
| 15>                          ****END OF INPUT****

CARTESIAN COORDINATES (ANGSTROEM)
---------------------------------
  C      3.380928    2.083045   -3.350127
  N      4.535924    1.182447   -3.428518
  C      2.495557    1.816150   -2.136364
  C      1.872181    0.427903   -2.077497
  H      2.614270   -0.365825   -2.198894
  H      1.389953    0.273087   -1.112360
  S      0.579024    0.140472   -3.297943
  C      4.671956    0.122273   -4.220598
  C      5.866023   -0.507849   -4.224284
  N      3.698881   -0.312844   -4.986988
  H      2.731405   -0.050091   -4.849000
  H      3.890046   -1.055172   -5.643730
  H      5.251933    1.303459   -2.721014
  H      6.695165   -0.062322   -3.851596
  H      5.975383   -1.396884   -4.691414
  O      0.228860   -1.246868   -3.127871
  F     -0.439269    1.118966   -3.014550
  O      1.247881    0.403474   -4.595647
  H      1.697003    2.561969   -2.141109
  H      3.080787    1.987436   -1.225838
  H      2.806463    1.986511   -4.268484
  H      3.778714    3.098282   -3.307383

 Total Charge           Charge          ....    0
 Multiplicity           Mult            ....    1
 Number of Electrons    NEL             ....   96
 Basis Dimension        Dim             ....  324

ORBITAL ENERGIES
----------------

  NO   OCC          E(Eh)            E(eV)
   0   2.0000     -89.252051     -2428.6718
   1   2.0000     -24.926728      -678.2908
   2   2.0000     -19.277898      -524.5783
   3   2.0000     -19.270840      -524.3862
   4   2.0000     -14.437713      -392.8702
   5   2.0000     -14.418038      -392.3348
   6   2.0000     -10.344990      -281.5015
   7   2.0000     -10.342809      -281.4421
   8   2.0000     -10.321721      -280.8683
   9   2.0000     -10.306214      -280.4463
  10   2.0000     -10.203527      -277.6521
  11   2.0000      -8.325670      -226.5530
  12   2.0000      -6.289297      -171.1405
  13   2.0000      -6.283603      -170.9855
  14   2.0000      -6.281156      -170.9190
  15   2.0000      -1.499769       -40.8108
  16   2.0000      -1.246061       -33.9070
  17   2.0000      -1.146350       -31.1938
  18   2.0000      -1.076381       -29.2898
  19   2.0000      -0.990675       -26.9576
  20   2.0000      -0.935451       -25.4549
  21   2.0000      -0.870340       -23.6832
  22   2.0000      -0.828488       -22.5443
  23   2.0000      -0.797688       -21.7062
  24   2.0000      -0.736161       -20.0320
  25   2.0000      -0.709628       -19.3100
  26   2.0000      -0.702743       -19.1226
  27   2.0000      -0.700026       -19.0487
  28   2.0000      -0.673366       -18.3232
  29   2.0000      -0.643977       -17.5235
  30   2.0000      -0.601632       -16.3712
  31   2.0000      -0.593200       -16.1418
  32   2.0000      -0.586437       -15.9578
  33   2.0000      -0.574179       -15.6242
  34   2.0000      -0.560226       -15.2445
  35   2.0000      -0.543576       -14.7914
  36   2.0000      -0.516591       -14.0572
  37   2.0000      -0.507274       -13.8036
  38   2.0000      -0.501542       -13.6477
  39   2.0000      -0.482291       -13.1238
  40   2.0000      -0.475750       -12.9458
  41   2.0000      -0.457143       -12.4395
  42   2.0000      -0.452736       -12.3196
  43   2.0000      -0.443020       -12.0552
  44   2.0000      -0.430619       -11.7178
  45   2.0000      -0.418895       -11.3987
  46   2.0000      -0.343730        -9.3534
  47   2.0000      -0.254371        -6.9218
  48   0.0000       0.066937         1.8215
  49   0.0000       0.092050         2.5048
  50   0.0000       0.096290         2.6202
  51   0.0000       0.098062         2.6684
  52   0.0000       0.114042         3.1032

MULLIKEN ATOMIC CHARGES
-----------------------
   0 C :    0.885042
   1 N :   -0.457465
   2 C :    0.071657
   3 C :   -0.033573
   4 H :    0.201951
   5 H :   -0.028577
   6 S :    1.676713
   7 C :    0.384362
   8 C :    0.409793
   9 N :    0.559247
  10 H :   -0.471068
  11 H :   -0.106232
  12 H :   -0.168057
  13 H :   -0.366721
  14 H :   -0.268850
  15 O :   -0.696453
  16 F :   -0.466934
  17 O :   -0.894717
  18 H :    0.058064
  19 H :    0.018373
  20 H :   -0.039180
  21 H :   -0.267374
Sum of atomic charges:   -0.0000000

LOEWDIN ATOMIC CHARGES
----------------------
   0 C :    0.078436
   1 N :   -0.004255
   2 C :   -0.010839
   3 C :   -0.018872
   4 H :    0.039200
   5 H :    0.037010
   6 S :    1.186408
   7 C :   -0.250096
   8 C :    0.099583
   9 N :    0.228746
  10 H :   -0.146649
  11 H :    0.027097
  12 H :    0.048420
  13 H :   -0.121759
  14 H :   -0.122961
  15 O :   -0.474416
  16 F :   -0.222956
  17 O :   -0.483462
  18 H :    0.036376
  19 H :    0.044619
  20 H :   -0.001115
  21 H :    0.031485

  Mayer bond orders larger than 0.100000
B(  0-C ,  1-N ) :   0.8875 B(  0-C ,  2-C ) :   1.1283 B(  0-C , 12-H ) :  -0.1787
B(  0-C , 18-H ) :   0.1421 B(  0-C , 19-H ) :   0.1337 B(  0-C , 20-H ) :   0.7545
B(  0-C , 21-H ) :   0.8948 B(  1-N ,  7-C ) :   1.0281 B(  1-N ,  8-C ) :   0.2118
B(  1-N ,  9-N ) :   0.1183 B(  1-N , 12-H ) :   1.2586 B(  1-N , 20-H ) :   0.2331
B(  1-N , 21-H ) :   0.1371 B(  2-C ,  3-C ) :   1.2453 B(  2-C ,  4-H ) :   0.1269
B(  2-C ,  5-H ) :   0.1440 B(  2-C , 18-H ) :   0.8342 B(  2-C , 19-H ) :   0.8339
B(  2-C , 20-H ) :   0.1423 B(  3-C ,  4-H ) :   0.9093 B(  3-C ,  5-H ) :   0.8604
B(  3-C ,  6-S ) :   0.9914 B(  3-C , 17-O ) :   0.1177 B(  3-C , 18-H ) :   0.1185
B(  6-S , 15-O ) :   1.5088 B(  6-S , 16-F ) :   0.6212 B(  6-S , 17-O ) :   1.3386
B(  7-C ,  8-C ) :   1.6134 B(  7-C ,  9-N ) :   1.1481 B(  7-C , 12-H ) :  -0.1786
B(  7-C , 13-H ) :   0.1351 B(  7-C , 14-H ) :   0.2044 B(  8-C ,  9-N ) :   0.1302
B(  8-C , 13-H ) :   0.7471 B(  8-C , 14-H ) :   0.7774 B(  9-N , 10-H ) :   0.9514
B(  9-N , 11-H ) :   1.1632 B(  9-N , 17-O ) :  -0.1020 B(  9-N , 20-H ) :   0.1066
B( 10-H , 11-H ) :  -0.2188 B( 10-H , 17-O ) :   0.1802 B( 13-H , 14-H ) :   0.1920
B( 20-H , 21-H ) :  -0.1229

Dispersion correction           -0.009879548
FINAL SINGLE POINT ENERGY      -954.385796986136

DIPOLE MOMENT
-------------
                                X             Y             Z
Electronic contribution:    -18.24878      -0.62839       0.42782
Nuclear contribution   :     16.78714       2.58368       1.61768
                        -----------------------------------------
Total Dipole Moment    :     -1.46164       1.95529       2.04551
                        -----------------------------------------
Magnitude (a.u.)       :      3.18491
Magnitude (Debye)      :      8.09540

Rotational constants in cm-1:     0.059928     0.020911     0.017993
Rotational constants in MHz :  1796.610847   626.896941   539.414615

                             ****ORCA TERMINATED NORMALLY****
TOTAL RUN TIME: 0 days 0 hours 0 minutes 37 seconds 27 msec
