                         Program Version 5.0.0 -  RELEASE  -
|  1> !wB97X-D3 RIJCOSX def2-SVPD def2/J TightSCF CPCM(Water) xyzfile
|  2>
|  3> *xyzfile 0 1 D6.xyz
|  4>
|  5> %MaxCore 64000
|  6>
|  7> %pal nprocs 18
|  8> end
|  9>
| 10> %scf
| 11>   MaxIter 150
| 12> end
| 13>
| 14>
| 15>                          ****END OF INPUT****

CARTESIAN COORDINATES (ANGSTROEM)
---------------------------------
  C      3.380928    2.083045   -3.350127
  N      4.535924    1.182447   -3.428518
  C      2.495557    1.816150   -2.136364
  C      1.872181    0.427903   -2.077497
  H      2.614270   -0.365825   -2.198894
  H      1.389953    0.273087   -1.112360
  S      0.579024    0.140472   -3.297943
  C      4.671956    0.122273   -4.220598
  N      5.866023   -0.507849   -4.224284
  C      3.698881   -0.312844   -4.986988
  H      2.731405   -0.050091   -4.849000
  H      3.890046   -1.055172   -5.643730
  H      5.251933    1.303459   -2.721014
  H      6.695165   -0.062322   -3.851596
  H      5.975383   -1.396884   -4.691414
  O      0.228860   -1.246868   -3.127871
  F     -0.439269    1.118966   -3.014550
  O      1.247881    0.403474   -4.595647
  H      1.697003    2.561969   -2.141109
  H      3.080787    1.987436   -1.225838
  H      2.806463    1.986511   -4.268484
  H      3.778714    3.098282   -3.307383

 Total Charge           Charge          ....    0
 Multiplicity           Mult            ....    1
 Number of Electrons    NEL             ....   96
 Basis Dimension        Dim             ....  324

ORBITAL ENERGIES
----------------

  NO   OCC          E(Eh)            E(eV)
   0   2.0000     -89.242360     -2428.4081
   1   2.0000     -24.919517      -678.0945
   2   2.0000     -19.271667      -524.4087
   3   2.0000     -19.256762      -524.0031
   4   2.0000     -14.434978      -392.7957
   5   2.0000     -14.426915      -392.5763
   6   2.0000     -10.338029      -281.3121
   7   2.0000     -10.337376      -281.2943
   8   2.0000     -10.319180      -280.7991
   9   2.0000     -10.304198      -280.3915
  10   2.0000     -10.188655      -277.2474
  11   2.0000      -8.316083      -226.2921
  12   2.0000      -6.279817      -170.8825
  13   2.0000      -6.273895      -170.7213
  14   2.0000      -6.271579      -170.6584
  15   2.0000      -1.492875       -40.6232
  16   2.0000      -1.237288       -33.6683
  17   2.0000      -1.135410       -30.8961
  18   2.0000      -1.070457       -29.1286
  19   2.0000      -0.984901       -26.8005
  20   2.0000      -0.929349       -25.2889
  21   2.0000      -0.856030       -23.2938
  22   2.0000      -0.829048       -22.5596
  23   2.0000      -0.805012       -21.9055
  24   2.0000      -0.744873       -20.2690
  25   2.0000      -0.701675       -19.0935
  26   2.0000      -0.695084       -18.9142
  27   2.0000      -0.674667       -18.3586
  28   2.0000      -0.659490       -17.9456
  29   2.0000      -0.637326       -17.3425
  30   2.0000      -0.617318       -16.7981
  31   2.0000      -0.590547       -16.0696
  32   2.0000      -0.582682       -15.8556
  33   2.0000      -0.571159       -15.5420
  34   2.0000      -0.550622       -14.9832
  35   2.0000      -0.541117       -14.7245
  36   2.0000      -0.520417       -14.1613
  37   2.0000      -0.497623       -13.5410
  38   2.0000      -0.493766       -13.4361
  39   2.0000      -0.484292       -13.1783
  40   2.0000      -0.468443       -12.7470
  41   2.0000      -0.460092       -12.5197
  42   2.0000      -0.451316       -12.2809
  43   2.0000      -0.424673       -11.5559
  44   2.0000      -0.411543       -11.1986
  45   2.0000      -0.401771       -10.9328
  46   2.0000      -0.339327        -9.2336
  47   2.0000      -0.259648        -7.0654
  48   0.0000       0.070390         1.9154
  49   0.0000       0.093751         2.5511
  50   0.0000       0.097742         2.6597
  51   0.0000       0.099771         2.7149
  52   0.0000       0.116309         3.1649

MULLIKEN ATOMIC CHARGES
-----------------------
   0 C :    0.890673
   1 N :   -0.616062
   2 C :    0.052704
   3 C :    0.040405
   4 H :    0.147036
   5 H :   -0.032108
   6 S :    1.648587
   7 C :    0.819469
   8 N :   -0.042817
   9 C :    0.764218
  10 H :   -0.796953
  11 H :   -0.369077
  12 H :   -0.213908
  13 H :   -0.084310
  14 H :    0.031708
  15 O :   -0.700143
  16 F :   -0.474656
  17 O :   -0.905733
  18 H :    0.032343
  19 H :    0.016603
  20 H :    0.043017
  21 H :   -0.250998
Sum of atomic charges:    0.0000000

LOEWDIN ATOMIC CHARGES
----------------------
   0 C :    0.082563
   1 N :   -0.011827
   2 C :   -0.009801
   3 C :   -0.018691
   4 H :    0.034677
   5 H :    0.034449
   6 S :    1.174161
   7 C :   -0.240739
   8 N :    0.178707
   9 C :    0.150510
  10 H :   -0.221665
  11 H :   -0.096573
  12 H :    0.041591
  13 H :    0.003454
  14 H :    0.009673
  15 O :   -0.484621
  16 F :   -0.232030
  17 O :   -0.502644
  18 H :    0.035082
  19 H :    0.042488
  20 H :   -0.000180
  21 H :    0.031417

  Mayer bond orders larger than 0.100000
B(  0-C ,  1-N ) :   0.8312 B(  0-C ,  2-C ) :   1.1086 B(  0-C , 12-H ) :  -0.1670
B(  0-C , 18-H ) :   0.1374 B(  0-C , 19-H ) :   0.1169 B(  0-C , 20-H ) :   0.7194
B(  0-C , 21-H ) :   0.9211 B(  1-N ,  7-C ) :   0.8408 B(  1-N ,  8-N ) :   0.1869
B(  1-N ,  9-C ) :   0.2990 B(  1-N , 12-H ) :   1.4291 B(  1-N , 20-H ) :   0.1773
B(  1-N , 21-H ) :   0.1339 B(  2-C ,  3-C ) :   1.2369 B(  2-C ,  4-H ) :   0.1297
B(  2-C ,  5-H ) :   0.1538 B(  2-C , 18-H ) :   0.8496 B(  2-C , 19-H ) :   0.8455
B(  2-C , 20-H ) :   0.1373 B(  3-C ,  4-H ) :   0.9507 B(  3-C ,  5-H ) :   0.8256
B(  3-C ,  6-S ) :   0.9983 B(  3-C , 17-O ) :   0.1161 B(  3-C , 18-H ) :   0.1224
B(  6-S , 15-O ) :   1.4876 B(  6-S , 16-F ) :   0.6067 B(  6-S , 17-O ) :   1.3744
B(  7-C ,  8-N ) :   0.9373 B(  7-C ,  9-C ) :   1.8376 B(  7-C , 11-H ) :   0.3517
B(  7-C , 12-H ) :  -0.2803 B(  8-N ,  9-C ) :   0.3246 B(  8-N , 11-H ) :   0.1042
B(  8-N , 13-H ) :   1.1591 B(  8-N , 14-H ) :   1.1160 B(  9-C , 11-H ) :   0.7333
B( 10-H , 17-O ) :   0.2104 B( 10-H , 20-H ) :   0.1021 B( 13-H , 14-H ) :  -0.1653
B( 20-H , 21-H ) :  -0.1525

Dispersion correction           -0.009822600
FINAL SINGLE POINT ENERGY      -954.371444150161

DIPOLE MOMENT
-------------
                                X             Y             Z
Electronic contribution:    -15.48111      -0.90649       1.17537
Nuclear contribution   :     16.57580       2.60270       1.54331
                        -----------------------------------------
Total Dipole Moment    :      1.09469       1.69621       2.71867
                        -----------------------------------------
Magnitude (a.u.)       :      3.38625
Magnitude (Debye)      :      8.60715

Rotational constants in cm-1:     0.060402     0.020377     0.017632
Rotational constants in MHz :  1810.792194   610.900365   528.582827

                             ****ORCA TERMINATED NORMALLY****
TOTAL RUN TIME: 0 days 0 hours 0 minutes 39 seconds 469 msec
