                         Program Version 5.0.0 -  RELEASE  -
|  1> !M062X D3Zero RIJCOSX def2-SVPD def2/J TightSCF
|  2> *xyz -1 1
|  3> C          3.51177       -2.80621       -6.49228
|  4> S          3.00462       -1.09621       -6.38926
|  5> O          4.12886       -0.32965       -6.95372
|  6> O          1.78128       -1.00078       -7.13640
|  7> O          2.85155       -0.78368       -4.95679
|  8> H          3.63615       -3.08010       -7.51913
|  9> H          2.76397       -3.42755       -6.04548
| 10> H          4.43892       -2.93511       -5.97393
| 11> *
| 12>
| 13> %MaxCore 64000
| 14>
| 15> %pal nprocs 8
| 16> end
| 17>
| 18> %scf
| 19>   MaxIter 150
| 20> end
| 21>
| 22>
| 23>                          ****END OF INPUT****

CARTESIAN COORDINATES (ANGSTROEM)
---------------------------------
  C      3.511770   -2.806210   -6.492280
  S      3.004620   -1.096210   -6.389260
  O      4.128860   -0.329650   -6.953720
  O      1.781280   -1.000780   -7.136400
  O      2.851550   -0.783680   -4.956790
  H      3.636150   -3.080100   -7.519130
  H      2.763970   -3.427550   -6.045480
  H      4.438920   -2.935110   -5.973930

 Total Charge           Charge          ....   -1
 Multiplicity           Mult            ....    1
 Number of Electrons    NEL             ....   50
 Basis Dimension        Dim             ....  140

ORBITAL ENERGIES
----------------

  NO   OCC          E(Eh)            E(eV)
   0   2.0000     -89.936911     -2447.3078
   1   2.0000     -19.417839      -528.3863
   2   2.0000     -19.407096      -528.0939
   3   2.0000     -19.406661      -528.0821
   4   2.0000     -10.405622      -283.1514
   5   2.0000      -8.260152      -224.7702
   6   2.0000      -6.185453      -168.3147
   7   2.0000      -6.185281      -168.3101
   8   2.0000      -6.185097      -168.3050
   9   2.0000      -1.045527       -28.4502
  10   2.0000      -0.899545       -24.4779
  11   2.0000      -0.878299       -23.8997
  12   2.0000      -0.675684       -18.3863
  13   2.0000      -0.471141       -12.8204
  14   2.0000      -0.381707       -10.3868
  15   2.0000      -0.366215        -9.9652
  16   2.0000      -0.365017        -9.9326
  17   2.0000      -0.321937        -8.7604
  18   2.0000      -0.319974        -8.7069
  19   2.0000      -0.223943        -6.0938
  20   2.0000      -0.222230        -6.0472
  21   2.0000      -0.183611        -4.9963
  22   2.0000      -0.173731        -4.7275
  23   2.0000      -0.171547        -4.6680
  24   2.0000      -0.133690        -3.6379
  25   0.0000       0.162959         4.4343
  26   0.0000       0.185967         5.0604
  27   0.0000       0.186757         5.0819
  28   0.0000       0.193344         5.2612
  29   0.0000       0.225335         6.1317

MULLIKEN ATOMIC CHARGES
-----------------------
   0 C :    0.451352
   1 S :    1.202153
   2 O :   -0.828486
   3 O :   -0.795750
   4 O :   -0.826895
   5 H :   -0.063408
   6 H :   -0.071294
   7 H :   -0.067671
Sum of atomic charges:   -1.0000000

LOEWDIN ATOMIC CHARGES
----------------------
   0 C :    0.054775
   1 S :    0.872251
   2 O :   -0.613659
   3 O :   -0.594060
   4 O :   -0.611901
   5 H :   -0.035716
   6 H :   -0.036642
   7 H :   -0.035048

  Mayer bond orders larger than 0.100000
B(  0-C ,  1-S ) :   0.9304 B(  0-C ,  5-H ) :   0.9248 B(  0-C ,  6-H ) :   0.9275
B(  0-C ,  7-H ) :   0.9303 B(  1-S ,  2-O ) :   1.2779 B(  1-S ,  3-O ) :   1.3041
B(  1-S ,  4-O ) :   1.2771 B(  1-S ,  5-H ) :   0.1148 B(  1-S ,  6-H ) :   0.1147
B(  1-S ,  7-H ) :   0.1223

Dispersion correction           -0.000043132
FINAL SINGLE POINT ENERGY      -663.360210750149

DIPOLE MOMENT
-------------
                                X             Y             Z
Electronic contribution:     -1.27971       3.97891       0.17839
Nuclear contribution   :      1.59265      -5.51967      -0.35565
                        -----------------------------------------
Total Dipole Moment    :      0.31293      -1.54076      -0.17727
                        -----------------------------------------
Magnitude (a.u.)       :      1.58217
Magnitude (Debye)      :      4.02157

Rotational constants in cm-1:     0.172598     0.157065     0.154689
Rotational constants in MHz :  5174.362736  4708.699947  4637.458896

                             ****ORCA TERMINATED NORMALLY****
TOTAL RUN TIME: 0 days 0 hours 0 minutes 7 seconds 818 msec
