                         Program Version 5.0.0 -  RELEASE  -
|  1> !M062X D3Zero RIJCOSX def2-SVPD def2/J TightSCF
|  2> *xyz 1 1
|  3> C          4.49059        1.15590       -2.46929
|  4> N          4.30539        1.22276       -3.90832
|  5> C          4.63192        2.24637       -4.67096
|  6> N          4.54169        2.14399       -5.98714
|  7> N          5.08409        3.39358       -4.11855
|  8> H          4.92067        3.57050       -3.13587
|  9> H          5.25465        4.19739       -4.70696
| 10> H          3.82453        0.44911       -4.35093
| 11> H          4.34337        1.24932       -6.41665
| 12> H          4.67671        2.95662       -6.57411
| 13> H          5.00867        2.03053       -2.13534
| 14> H          5.06354        0.28631       -2.22344
| 15> H          3.53600        1.10160       -1.98897
| 16> *
| 17>
| 18> %MaxCore 64000
| 19>
| 20> %pal nprocs 8
| 21> end
| 22>
| 23> %scf
| 24>   MaxIter 150
| 25> end
| 26>
| 27>
| 28>                          ****END OF INPUT****

CARTESIAN COORDINATES (ANGSTROEM)
---------------------------------
  C      4.490590    1.155900   -2.469290
  N      4.305390    1.222760   -3.908320
  C      4.631920    2.246370   -4.670960
  N      4.541690    2.143990   -5.987140
  N      5.084090    3.393580   -4.118550
  H      4.920670    3.570500   -3.135870
  H      5.254650    4.197390   -4.706960
  H      3.824530    0.449110   -4.350930
  H      4.343370    1.249320   -6.416650
  H      4.676710    2.956620   -6.574110
  H      5.008670    2.030530   -2.135340
  H      5.063540    0.286310   -2.223440
  H      3.536000    1.101600   -1.988970

 Total Charge           Charge          ....    1
 Multiplicity           Mult            ....    1
 Number of Electrons    NEL             ....   40
 Basis Dimension        Dim             ....  164

ORBITAL ENERGIES
----------------

  NO   OCC          E(Eh)            E(eV)
   0   2.0000     -14.994415      -408.0188
   1   2.0000     -14.990018      -407.8991
   2   2.0000     -14.986683      -407.8084
   3   2.0000     -10.896953      -296.5212
   4   2.0000     -10.758554      -292.7551
   5   2.0000      -1.323920       -36.0257
   6   2.0000      -1.205336       -32.7989
   7   2.0000      -1.187801       -32.3217
   8   2.0000      -0.997215       -27.1356
   9   2.0000      -0.911125       -24.7930
  10   2.0000      -0.871372       -23.7112
  11   2.0000      -0.834940       -22.7199
  12   2.0000      -0.767721       -20.8908
  13   2.0000      -0.763383       -20.7727
  14   2.0000      -0.733064       -19.9477
  15   2.0000      -0.712574       -19.3901
  16   2.0000      -0.665059       -18.0972
  17   2.0000      -0.650015       -17.6878
  18   2.0000      -0.545236       -14.8366
  19   2.0000      -0.518768       -14.1164
  20   0.0000      -0.135482        -3.6867
  21   0.0000      -0.129403        -3.5212
  22   0.0000      -0.099292        -2.7019
  23   0.0000      -0.095166        -2.5896
  24   0.0000      -0.065328        -1.7777

MULLIKEN ATOMIC CHARGES
-----------------------
   0 C :    1.149307
   1 N :   -0.679053
   2 C :    1.557386
   3 N :   -0.134528
   4 N :   -0.105525
   5 H :   -0.032967
   6 H :   -0.117785
   7 H :   -0.273784
   8 H :   -0.049767
   9 H :   -0.018499
  10 H :   -0.159659
  11 H :   -0.052821
  12 H :   -0.082305
Sum of atomic charges:    1.0000000

LOEWDIN ATOMIC CHARGES
----------------------
   0 C :    0.275294
   1 N :    0.002332
   2 C :   -0.020625
   3 N :    0.254855
   4 N :    0.267211
   5 H :    0.013554
   6 H :    0.038372
   7 H :    0.065749
   8 H :    0.044460
   9 H :    0.044028
  10 H :   -0.016128
  11 H :    0.016093
  12 H :    0.014804

  Mayer bond orders larger than 0.100000
B(  0-C ,  1-N ) :   0.8976 B(  0-C ,  7-H ) :  -0.1983 B(  0-C , 10-H ) :   0.8391
B(  0-C , 11-H ) :   0.7862 B(  0-C , 12-H ) :   0.8070 B(  1-N ,  2-C ) :   0.9951
B(  1-N ,  3-N ) :   0.2393 B(  1-N ,  4-N ) :   0.2409 B(  1-N ,  7-H ) :   1.3941
B(  1-N , 10-H ) :   0.1830 B(  1-N , 11-H ) :   0.1817 B(  1-N , 12-H ) :   0.1635
B(  2-C ,  3-N ) :   0.8026 B(  2-C ,  4-N ) :   0.8826 B(  2-C ,  5-H ) :  -0.1167
B(  2-C ,  6-H ) :  -0.1632 B(  2-C ,  7-H ) :  -0.2597 B(  2-C ,  8-H ) :  -0.1782
B(  2-C ,  9-H ) :  -0.1280 B(  3-N ,  4-N ) :   0.1609 B(  3-N ,  8-H ) :   1.2051
B(  3-N ,  9-H ) :   1.1943 B(  4-N ,  5-H ) :   1.0879 B(  4-N ,  6-H ) :   1.2319
B(  5-H ,  6-H ) :  -0.1601 B(  8-H ,  9-H ) :  -0.1819

Dispersion correction           -0.000170402
FINAL SINGLE POINT ENERGY      -244.797274389439

DIPOLE MOMENT
-------------
                                X             Y             Z
Electronic contribution:      0.02574       0.68687      -2.67351
Nuclear contribution   :     -0.23495      -0.48067       2.19509
                        -----------------------------------------
Total Dipole Moment    :     -0.20921       0.20620      -0.47842
                        -----------------------------------------
Magnitude (a.u.)       :      0.56141
Magnitude (Debye)      :      1.42698

Rotational constants in cm-1:     0.315679     0.134071     0.096006
Rotational constants in MHz :  9463.824527  4019.347586  2878.182223

                             ****ORCA TERMINATED NORMALLY****
TOTAL RUN TIME: 0 days 0 hours 0 minutes 10 seconds 126 msec
