                         Program Version 5.0.0 -  RELEASE  -
|  1> !M062X D3Zero RIJCOSX def2-SVPD def2/J TightSCF
|  2> *xyz 0 1
|  3> C          3.51177       -2.80621       -6.49228
|  4> S          3.00462       -1.09621       -6.38926
|  5> F          4.12886       -0.32965       -6.95372
|  6> O          1.78128       -1.00078       -7.13640
|  7> O          2.85155       -0.78368       -4.95679
|  8> H          3.63615       -3.08010       -7.51913
|  9> H          2.76397       -3.42755       -6.04548
| 10> H          4.43892       -2.93511       -5.97393
| 11> *
| 12>
| 13> %MaxCore 64000
| 14>
| 15> %pal nprocs 8
| 16> end
| 17>
| 18> %scf
| 19>   MaxIter 150
| 20> end
| 21>
| 22>
| 23>                          ****END OF INPUT****

CARTESIAN COORDINATES (ANGSTROEM)
---------------------------------
  C      3.511770   -2.806210   -6.492280
  S      3.004620   -1.096210   -6.389260
  F      4.128860   -0.329650   -6.953720
  O      1.781280   -1.000780   -7.136400
  O      2.851550   -0.783680   -4.956790
  H      3.636150   -3.080100   -7.519130
  H      2.763970   -3.427550   -6.045480
  H      4.438920   -2.935110   -5.973930

 Total Charge           Charge          ....    0
 Multiplicity           Mult            ....    1
 Number of Electrons    NEL             ....   50
 Basis Dimension        Dim             ....  140

ORBITAL ENERGIES
----------------

  NO   OCC          E(Eh)            E(eV)
   0   2.0000     -90.204683     -2454.5942
   1   2.0000     -25.369936      -690.3510
   2   2.0000     -19.659138      -534.9523
   3   2.0000     -19.648078      -534.6514
   4   2.0000     -10.617012      -288.9036
   5   2.0000      -8.528592      -232.0748
   6   2.0000      -6.456899      -175.7012
   7   2.0000      -6.451776      -175.5617
   8   2.0000      -6.450983      -175.5402
   9   2.0000      -1.496881       -40.7322
  10   2.0000      -1.236483       -33.6464
  11   2.0000      -1.129616       -30.7384
  12   2.0000      -0.902230       -24.5509
  13   2.0000      -0.807997       -21.9867
  14   2.0000      -0.690666       -18.7940
  15   2.0000      -0.676969       -18.4213
  16   2.0000      -0.646216       -17.5844
  17   2.0000      -0.563069       -15.3219
  18   2.0000      -0.558982       -15.2107
  19   2.0000      -0.542670       -14.7668
  20   2.0000      -0.519651       -14.1404
  21   2.0000      -0.469210       -12.7679
  22   2.0000      -0.417994       -11.3742
  23   2.0000      -0.407174       -11.0798
  24   2.0000      -0.391058       -10.6412
  25   0.0000       0.006473         0.1761
  26   0.0000       0.039908         1.0859
  27   0.0000       0.045036         1.2255
  28   0.0000       0.047312         1.2874
  29   0.0000       0.066591         1.8120

MULLIKEN ATOMIC CHARGES
-----------------------
   0 C :    0.362429
   1 S :    1.356005
   2 F :   -0.412861
   3 O :   -0.663191
   4 O :   -0.695114
   5 H :    0.025217
   6 H :    0.010311
   7 H :    0.017204
Sum of atomic charges:    0.0000000

LOEWDIN ATOMIC CHARGES
----------------------
   0 C :    0.125472
   1 S :    1.140147
   2 F :   -0.281407
   3 O :   -0.476407
   4 O :   -0.493080
   5 H :   -0.009174
   6 H :    0.003653
   7 H :   -0.009203

  Mayer bond orders larger than 0.100000
B(  0-C ,  1-S ) :   0.9979 B(  0-C ,  5-H ) :   0.9272 B(  0-C ,  6-H ) :   0.9290
B(  0-C ,  7-H ) :   0.9324 B(  1-S ,  2-F ) :   0.6258 B(  1-S ,  3-O ) :   1.5245
B(  1-S ,  4-O ) :   1.4943 B(  1-S ,  6-H ) :   0.1129

Dispersion correction           -0.000048109
FINAL SINGLE POINT ENERGY      -687.853073333726

DIPOLE MOMENT
-------------
                                X             Y             Z
Electronic contribution:      0.61462       5.19141      -0.79337
Nuclear contribution   :      0.51040      -6.36905       0.21167
                        -----------------------------------------
Total Dipole Moment    :      1.12502      -1.17764      -0.58170
                        -----------------------------------------
Magnitude (a.u.)       :      1.72941
Magnitude (Debye)      :      4.39581

Rotational constants in cm-1:     0.163860     0.154073     0.147119
Rotational constants in MHz :  4912.396151  4618.979177  4410.507958

                             ****ORCA TERMINATED NORMALLY****
TOTAL RUN TIME: 0 days 0 hours 0 minutes 7 seconds 865 msec
