                         Program Version 5.0.0 -  RELEASE  -
|  1> !M062X D3Zero RIJCOSX def2-SVPD def2/J TightSCF
|  2> *xyz 0 1
|  3> C          4.49059        1.15590       -2.46929
|  4> C          4.30539        1.22276       -3.90832
|  5> C          4.63192        2.24637       -4.67096
|  6> N          4.54169        2.14399       -5.98714
|  7> N          5.08409        3.39358       -4.11855
|  8> H          4.92067        3.57050       -3.13587
|  9> H          5.25465        4.19739       -4.70696
| 10> H          3.82453        0.44911       -4.35093
| 11> H          4.34337        1.24932       -6.41665
| 12> H          4.67671        2.95662       -6.57411
| 13> H          5.00867        2.03053       -2.13534
| 14> H          5.06354        0.28631       -2.22344
| 15> H          3.53600        1.10160       -1.98897
| 16> *
| 17>
| 18> %MaxCore 64000
| 19>
| 20> %pal nprocs 8
| 21> end
| 22>
| 23> %scf
| 24>   MaxIter 150
| 25> end
| 26>
| 27>
| 28>                          ****END OF INPUT****

CARTESIAN COORDINATES (ANGSTROEM)
---------------------------------
  C      4.490590    1.155900   -2.469290
  C      4.305390    1.222760   -3.908320
  C      4.631920    2.246370   -4.670960
  N      4.541690    2.143990   -5.987140
  N      5.084090    3.393580   -4.118550
  H      4.920670    3.570500   -3.135870
  H      5.254650    4.197390   -4.706960
  H      3.824530    0.449110   -4.350930
  H      4.343370    1.249320   -6.416650
  H      4.676710    2.956620   -6.574110
  H      5.008670    2.030530   -2.135340
  H      5.063540    0.286310   -2.223440
  H      3.536000    1.101600   -1.988970

 Total Charge           Charge          ....    0
 Multiplicity           Mult            ....    1
 Number of Electrons    NEL             ....   40
 Basis Dimension        Dim             ....  164

ORBITAL ENERGIES
----------------

  NO   OCC          E(Eh)            E(eV)
   0   2.0000     -14.758624      -401.6026
   1   2.0000     -14.758083      -401.5879
   2   2.0000     -10.591878      -288.2196
   3   2.0000     -10.514057      -286.1020
   4   2.0000     -10.472694      -284.9765
   5   2.0000      -1.056911       -28.7600
   6   2.0000      -0.959231       -26.1020
   7   2.0000      -0.841975       -22.9113
   8   2.0000      -0.739300       -20.1174
   9   2.0000      -0.658917       -17.9301
  10   2.0000      -0.614200       -16.7132
  11   2.0000      -0.584312       -15.8999
  12   2.0000      -0.541405       -14.7324
  13   2.0000      -0.490844       -13.3565
  14   2.0000      -0.478601       -13.0234
  15   2.0000      -0.443046       -12.0559
  16   2.0000      -0.424689       -11.5564
  17   2.0000      -0.405776       -11.0417
  18   2.0000      -0.328060        -8.9270
  19   2.0000      -0.208620        -5.6768
  20   0.0000       0.037283         1.0145
  21   0.0000       0.063840         1.7372
  22   0.0000       0.072022         1.9598
  23   0.0000       0.102612         2.7922
  24   0.0000       0.107325         2.9205

MULLIKEN ATOMIC CHARGES
-----------------------
   0 C :    0.936372
   1 C :   -0.775451
   2 C :    1.160058
   3 N :   -0.039390
   4 N :   -0.064859
   5 H :   -0.047073
   6 H :   -0.250670
   7 H :   -0.414417
   8 H :   -0.065598
   9 H :   -0.136390
  10 H :   -0.249780
  11 H :    0.004892
  12 H :   -0.057693
Sum of atomic charges:   -0.0000000

LOEWDIN ATOMIC CHARGES
----------------------
   0 C :    0.100769
   1 C :   -0.068910
   2 C :   -0.224440
   3 N :    0.164082
   4 N :    0.183203
   5 H :   -0.017966
   6 H :   -0.011217
   7 H :   -0.048898
   8 H :    0.009813
   9 H :   -0.006969
  10 H :   -0.044693
  11 H :   -0.017074
  12 H :   -0.017701

  Mayer bond orders larger than 0.100000
B(  0-C ,  1-C ) :   1.0892 B(  0-C ,  7-H ) :   0.1349 B(  0-C , 10-H ) :   0.7737
B(  0-C , 11-H ) :   0.7055 B(  0-C , 12-H ) :   0.7153 B(  1-C ,  2-C ) :   1.5582
B(  1-C ,  3-N ) :   0.3916 B(  1-C ,  4-N ) :   0.2569 B(  1-C ,  7-H ) :   1.0021
B(  1-C , 10-H ) :   0.4039 B(  1-C , 11-H ) :   0.1879 B(  1-C , 12-H ) :   0.1739
B(  2-C ,  3-N ) :   0.8022 B(  2-C ,  4-N ) :   0.8910 B(  2-C ,  6-H ) :  -0.1722
B(  2-C ,  7-H ) :   0.1041 B(  2-C ,  8-H ) :  -0.1229 B(  2-C , 10-H ) :  -0.1114
B(  3-N ,  4-N ) :   0.1171 B(  3-N ,  8-H ) :   1.1888 B(  3-N ,  9-H ) :   1.1884
B(  4-N ,  5-H ) :   1.0675 B(  4-N ,  6-H ) :   1.2816 B(  5-H ,  6-H ) :  -0.1517
B(  8-H ,  9-H ) :  -0.1728 B( 10-H , 11-H ) :   0.1386

Dispersion correction           -0.000169428
FINAL SINGLE POINT ENERGY      -228.334936778064

DIPOLE MOMENT
-------------
                                X             Y             Z
Electronic contribution:      0.29409       1.33033      -2.85764
Nuclear contribution   :     -0.29662      -0.64714       2.26125
                        -----------------------------------------
Total Dipole Moment    :     -0.00253       0.68319      -0.59639
                        -----------------------------------------
Magnitude (a.u.)       :      0.90688
Magnitude (Debye)      :      2.30511

Rotational constants in cm-1:     0.320965     0.135060     0.096994
Rotational constants in MHz :  9622.302637  4048.999301  2907.812202

                             ****ORCA TERMINATED NORMALLY****
TOTAL RUN TIME: 0 days 0 hours 0 minutes 11 seconds 203 msec
