                         Program Version 5.0.0 -  RELEASE  -
|  1> !M062X D3Zero RIJCOSX def2-SVPD def2/J TightSCF
|  2> *xyz 0 1
|  3> C          3.51177       -2.80621       -6.49228
|  4> S          3.00462       -1.09621       -6.38926
|  5> O          4.12886       -0.32965       -6.95372
|  6> F          1.78128       -1.00078       -7.13640
|  7> O          2.85155       -0.78368       -4.95679
|  8> H          3.63615       -3.08010       -7.51913
|  9> H          2.76397       -3.42755       -6.04548
| 10> H          4.43892       -2.93511       -5.97393
| 11> *
| 12>
| 13> %MaxCore 64000
| 14>
| 15> %pal nprocs 8
| 16> end
| 17>
| 18> %scf
| 19>   MaxIter 150
| 20> end
| 21>
| 22>
| 23>                          ****END OF INPUT****

CARTESIAN COORDINATES (ANGSTROEM)
---------------------------------
  C      3.511770   -2.806210   -6.492280
  S      3.004620   -1.096210   -6.389260
  O      4.128860   -0.329650   -6.953720
  F      1.781280   -1.000780   -7.136400
  O      2.851550   -0.783680   -4.956790
  H      3.636150   -3.080100   -7.519130
  H      2.763970   -3.427550   -6.045480
  H      4.438920   -2.935110   -5.973930

 Total Charge           Charge          ....    0
 Multiplicity           Mult            ....    1
 Number of Electrons    NEL             ....   50
 Basis Dimension        Dim             ....  140

ORBITAL ENERGIES
----------------

  NO   OCC          E(Eh)            E(eV)
   0   2.0000     -90.206276     -2454.6376
   1   2.0000     -25.387967      -690.8417
   2   2.0000     -19.648612      -534.6659
   3   2.0000     -19.648084      -534.6516
   4   2.0000     -10.617641      -288.9207
   5   2.0000      -8.530336      -232.1222
   6   2.0000      -6.458847      -175.7542
   7   2.0000      -6.453263      -175.6022
   8   2.0000      -6.452563      -175.5832
   9   2.0000      -1.528789       -41.6005
  10   2.0000      -1.222461       -33.2649
  11   2.0000      -1.115529       -30.3551
  12   2.0000      -0.905047       -24.6276
  13   2.0000      -0.824153       -22.4264
  14   2.0000      -0.708455       -19.2780
  15   2.0000      -0.699175       -19.0255
  16   2.0000      -0.647521       -17.6199
  17   2.0000      -0.558152       -15.1881
  18   2.0000      -0.557654       -15.1745
  19   2.0000      -0.543777       -14.7969
  20   2.0000      -0.513333       -13.9685
  21   2.0000      -0.462117       -12.5749
  22   2.0000      -0.406176       -11.0526
  23   2.0000      -0.405166       -11.0251
  24   2.0000      -0.380566       -10.3557
  25   0.0000       0.004481         0.1219
  26   0.0000       0.038797         1.0557
  27   0.0000       0.044328         1.2062
  28   0.0000       0.047648         1.2966
  29   0.0000       0.067615         1.8399

MULLIKEN ATOMIC CHARGES
-----------------------
   0 C :    0.364727
   1 S :    1.346941
   2 O :   -0.685458
   3 F :   -0.394391
   4 O :   -0.685219
   5 H :    0.024929
   6 H :    0.017266
   7 H :    0.011206
Sum of atomic charges:   -0.0000000

LOEWDIN ATOMIC CHARGES
----------------------
   0 C :    0.124909
   1 S :    1.142494
   2 O :   -0.494394
   3 F :   -0.265560
   4 O :   -0.492632
   5 H :   -0.009434
   6 H :   -0.010086
   7 H :    0.004704

  Mayer bond orders larger than 0.100000
B(  0-C ,  1-S ) :   0.9971 B(  0-C ,  5-H ) :   0.9249 B(  0-C ,  6-H ) :   0.9296
B(  0-C ,  7-H ) :   0.9326 B(  1-S ,  2-O ) :   1.4996 B(  1-S ,  3-F ) :   0.6614
B(  1-S ,  4-O ) :   1.4971 B(  1-S ,  7-H ) :   0.1184

Dispersion correction           -0.000048113
FINAL SINGLE POINT ENERGY      -687.837936778319

DIPOLE MOMENT
-------------
                                X             Y             Z
Electronic contribution:     -3.32593       4.06434      -1.08810
Nuclear contribution   :      2.85578      -5.69854       0.39418
                        -----------------------------------------
Total Dipole Moment    :     -0.47014      -1.63420      -0.69392
                        -----------------------------------------
Magnitude (a.u.)       :      1.83662
Magnitude (Debye)      :      4.66832

Rotational constants in cm-1:     0.163257     0.155833     0.146211
Rotational constants in MHz :  4894.333085  4671.750883  4383.281537

                             ****ORCA TERMINATED NORMALLY****
TOTAL RUN TIME: 0 days 0 hours 0 minutes 7 seconds 923 msec
