                         Program Version 5.0.0 -  RELEASE  -
|  1> !M062X D3Zero RIJCOSX def2-SVPD def2/J TightSCF
|  2> *xyz 0 1
|  3> C          4.49059        1.15590       -2.46929
|  4> N          4.30539        1.22276       -3.90832
|  5> C          4.63192        2.24637       -4.67096
|  6> C          4.54169        2.14399       -5.98714
|  7> N          5.08409        3.39358       -4.11855
|  8> H          4.92067        3.57050       -3.13587
|  9> H          5.25465        4.19739       -4.70696
| 10> H          3.82453        0.44911       -4.35093
| 11> H          4.34337        1.24932       -6.41665
| 12> H          4.67671        2.95662       -6.57411
| 13> H          5.00867        2.03053       -2.13534
| 14> H          5.06354        0.28631       -2.22344
| 15> H          3.53600        1.10160       -1.98897
| 16> *
| 17>
| 18> %MaxCore 64000
| 19>
| 20> %pal nprocs 8
| 21> end
| 22>
| 23> %scf
| 24>   MaxIter 150
| 25> end
| 26>
| 27>
| 28>                          ****END OF INPUT****

CARTESIAN COORDINATES (ANGSTROEM)
---------------------------------
  C      4.490590    1.155900   -2.469290
  N      4.305390    1.222760   -3.908320
  C      4.631920    2.246370   -4.670960
  C      4.541690    2.143990   -5.987140
  N      5.084090    3.393580   -4.118550
  H      4.920670    3.570500   -3.135870
  H      5.254650    4.197390   -4.706960
  H      3.824530    0.449110   -4.350930
  H      4.343370    1.249320   -6.416650
  H      4.676710    2.956620   -6.574110
  H      5.008670    2.030530   -2.135340
  H      5.063540    0.286310   -2.223440
  H      3.536000    1.101600   -1.988970

 Total Charge           Charge          ....    0
 Multiplicity           Mult            ....    1
 Number of Electrons    NEL             ....   40
 Basis Dimension        Dim             ....  164

ORBITAL ENERGIES
----------------

  NO   OCC          E(Eh)            E(eV)
   0   2.0000     -14.762556      -401.7096
   1   2.0000     -14.759855      -401.6361
   2   2.0000     -10.596959      -288.3579
   3   2.0000     -10.583439      -287.9900
   4   2.0000     -10.460225      -284.6372
   5   2.0000      -1.067758       -29.0552
   6   2.0000      -0.972803       -26.4713
   7   2.0000      -0.833293       -22.6751
   8   2.0000      -0.749268       -20.3886
   9   2.0000      -0.680366       -18.5137
  10   2.0000      -0.611448       -16.6384
  11   2.0000      -0.563478       -15.3330
  12   2.0000      -0.544299       -14.8111
  13   2.0000      -0.526051       -14.3146
  14   2.0000      -0.474274       -12.9056
  15   2.0000      -0.456249       -12.4152
  16   2.0000      -0.451216       -12.2782
  17   2.0000      -0.428182       -11.6514
  18   2.0000      -0.316674        -8.6171
  19   2.0000      -0.213525        -5.8103
  20   0.0000       0.032110         0.8737
  21   0.0000       0.065129         1.7723
  22   0.0000       0.067926         1.8484
  23   0.0000       0.100780         2.7424
  24   0.0000       0.110088         2.9957

MULLIKEN ATOMIC CHARGES
-----------------------
   0 C :    1.198816
   1 N :   -0.610885
   2 C :    0.962920
   3 C :    0.253604
   4 N :   -0.022909
   5 H :   -0.117703
   6 H :   -0.135441
   7 H :   -0.336842
   8 H :   -0.343030
   9 H :   -0.361480
  10 H :   -0.210304
  11 H :   -0.123256
  12 H :   -0.153492
Sum of atomic charges:   -0.0000000

LOEWDIN ATOMIC CHARGES
----------------------
   0 C :    0.221705
   1 N :   -0.059265
   2 C :   -0.235418
   3 C :    0.139728
   4 N :    0.184530
   5 H :   -0.031353
   6 H :    0.006707
   7 H :    0.039685
   8 H :   -0.100150
   9 H :   -0.102022
  10 H :   -0.034329
  11 H :   -0.014346
  12 H :   -0.015472

  Mayer bond orders larger than 0.100000
B(  0-C ,  1-N ) :   0.8845 B(  0-C ,  7-H ) :  -0.2069 B(  0-C , 10-H ) :   0.8331
B(  0-C , 11-H ) :   0.7817 B(  0-C , 12-H ) :   0.8000 B(  1-N ,  2-C ) :   0.9961
B(  1-N ,  3-C ) :   0.2400 B(  1-N ,  4-N ) :   0.1887 B(  1-N ,  7-H ) :   1.3627
B(  1-N , 10-H ) :   0.2085 B(  1-N , 11-H ) :   0.1839 B(  1-N , 12-H ) :   0.1790
B(  2-C ,  3-C ) :   1.3639 B(  2-C ,  4-N ) :   0.8880 B(  2-C ,  6-H ) :  -0.1183
B(  2-C ,  7-H ) :  -0.2619 B(  2-C ,  9-H ) :   0.1569 B(  3-C ,  4-N ) :   0.2050
B(  3-C ,  8-H ) :   0.9010 B(  3-C ,  9-H ) :   0.8180 B(  4-N ,  5-H ) :   1.0843
B(  4-N ,  6-H ) :   1.1908 B(  5-H ,  6-H ) :  -0.1525

Dispersion correction           -0.000166508
FINAL SINGLE POINT ENERGY      -228.323806409178

DIPOLE MOMENT
-------------
                                X             Y             Z
Electronic contribution:      0.09073       0.50141      -0.77094
Nuclear contribution   :     -0.24876      -0.46055       1.84019
                        -----------------------------------------
Total Dipole Moment    :     -0.15803       0.04086       1.06926
                        -----------------------------------------
Magnitude (a.u.)       :      1.08164
Magnitude (Debye)      :      2.74932

Rotational constants in cm-1:     0.322158     0.139919     0.099594
Rotational constants in MHz :  9658.057362  4194.660927  2985.745059

                             ****ORCA TERMINATED NORMALLY****
TOTAL RUN TIME: 0 days 0 hours 0 minutes 10 seconds 853 msec
