                         Program Version 5.0.0 -  RELEASE  -
|  1> !M062X D3Zero RIJCOSX def2-SVPD def2/J TightSCF
|  2> *xyz 0 1
|  3> C          3.51177       -2.80621       -6.49228
|  4> S          3.00462       -1.09621       -6.38926
|  5> O          4.12886       -0.32965       -6.95372
|  6> O          1.78128       -1.00078       -7.13640
|  7> F          2.85155       -0.78368       -4.95679
|  8> H          3.63615       -3.08010       -7.51913
|  9> H          2.76397       -3.42755       -6.04548
| 10> H          4.43892       -2.93511       -5.97393
| 11> *
| 12>
| 13> %MaxCore 64000
| 14>
| 15> %pal nprocs 8
| 16> end
| 17>
| 18> %scf
| 19>   MaxIter 150
| 20> end
| 21>
| 22>
| 23>                          ****END OF INPUT****

CARTESIAN COORDINATES (ANGSTROEM)
---------------------------------
  C      3.511770   -2.806210   -6.492280
  S      3.004620   -1.096210   -6.389260
  O      4.128860   -0.329650   -6.953720
  O      1.781280   -1.000780   -7.136400
  F      2.851550   -0.783680   -4.956790
  H      3.636150   -3.080100   -7.519130
  H      2.763970   -3.427550   -6.045480
  H      4.438920   -2.935110   -5.973930

 Total Charge           Charge          ....    0
 Multiplicity           Mult            ....    1
 Number of Electrons    NEL             ....   50
 Basis Dimension        Dim             ....  140

ORBITAL ENERGIES
----------------

  NO   OCC          E(Eh)            E(eV)
   0   2.0000     -90.204724     -2454.5953
   1   2.0000     -25.370207      -690.3584
   2   2.0000     -19.659370      -534.9586
   3   2.0000     -19.647709      -534.6414
   4   2.0000     -10.616804      -288.8979
   5   2.0000      -8.528617      -232.0755
   6   2.0000      -6.456913      -175.7015
   7   2.0000      -6.451756      -175.5612
   8   2.0000      -6.451060      -175.5423
   9   2.0000      -1.496445       -40.7203
  10   2.0000      -1.236402       -33.6442
  11   2.0000      -1.130872       -30.7726
  12   2.0000      -0.900878       -24.5141
  13   2.0000      -0.808104       -21.9896
  14   2.0000      -0.690655       -18.7937
  15   2.0000      -0.676484       -18.4081
  16   2.0000      -0.646307       -17.5869
  17   2.0000      -0.562107       -15.2957
  18   2.0000      -0.559233       -15.2175
  19   2.0000      -0.543610       -14.7924
  20   2.0000      -0.519804       -14.1446
  21   2.0000      -0.468597       -12.7512
  22   2.0000      -0.418357       -11.3841
  23   2.0000      -0.405905       -11.0452
  24   2.0000      -0.391919       -10.6647
  25   0.0000       0.006226         0.1694
  26   0.0000       0.039937         1.0867
  27   0.0000       0.045078         1.2266
  28   0.0000       0.047150         1.2830
  29   0.0000       0.064047         1.7428

MULLIKEN ATOMIC CHARGES
-----------------------
   0 C :    0.363804
   1 S :    1.358287
   2 O :   -0.696728
   3 O :   -0.664487
   4 F :   -0.413526
   5 H :    0.016981
   6 H :    0.016800
   7 H :    0.018869
Sum of atomic charges:   -0.0000000

LOEWDIN ATOMIC CHARGES
----------------------
   0 C :    0.125340
   1 S :    1.140798
   2 O :   -0.494815
   3 O :   -0.476392
   4 F :   -0.279931
   5 H :    0.004291
   6 H :   -0.010401
   7 H :   -0.008891

  Mayer bond orders larger than 0.100000
B(  0-C ,  1-S ) :   0.9997 B(  0-C ,  5-H ) :   0.9251 B(  0-C ,  6-H ) :   0.9295
B(  0-C ,  7-H ) :   0.9328 B(  1-S ,  2-O ) :   1.4966 B(  1-S ,  3-O ) :   1.5246
B(  1-S ,  4-F ) :   0.6201 B(  1-S ,  5-H ) :   0.1124

Dispersion correction           -0.000048263
FINAL SINGLE POINT ENERGY      -687.852869705836

DIPOLE MOMENT
-------------
                                X             Y             Z
Electronic contribution:     -1.53975       4.42321       2.57862
Nuclear contribution   :      1.78651      -5.91544      -1.78339
                        -----------------------------------------
Total Dipole Moment    :      0.24676      -1.49223       0.79522
                        -----------------------------------------
Magnitude (a.u.)       :      1.70880
Magnitude (Debye)      :      4.34343

Rotational constants in cm-1:     0.165193     0.152051     0.147788
Rotational constants in MHz :  4952.361749  4558.380225  4430.570551

                             ****ORCA TERMINATED NORMALLY****
TOTAL RUN TIME: 0 days 0 hours 0 minutes 7 seconds 598 msec
