                         Program Version 5.0.0 -  RELEASE  -
|  1> !M062X D3Zero RIJCOSX def2-SVPD def2/J TightSCF
|  2> *xyz 0 1
|  3> C          4.49059        1.15590       -2.46929
|  4> N          4.30539        1.22276       -3.90832
|  5> C          4.63192        2.24637       -4.67096
|  6> N          4.54169        2.14399       -5.98714
|  7> C          5.08409        3.39358       -4.11855
|  8> H          4.92067        3.57050       -3.13587
|  9> H          5.25465        4.19739       -4.70696
| 10> H          3.82453        0.44911       -4.35093
| 11> H          4.34337        1.24932       -6.41665
| 12> H          4.67671        2.95662       -6.57411
| 13> H          5.00867        2.03053       -2.13534
| 14> H          5.06354        0.28631       -2.22344
| 15> H          3.53600        1.10160       -1.98897
| 16> *
| 17>
| 18> %MaxCore 64000
| 19>
| 20> %pal nprocs 8
| 21> end
| 22>
| 23> %scf
| 24>   MaxIter 150
| 25> end
| 26>
| 27>
| 28>                          ****END OF INPUT****

CARTESIAN COORDINATES (ANGSTROEM)
---------------------------------
  C      4.490590    1.155900   -2.469290
  N      4.305390    1.222760   -3.908320
  C      4.631920    2.246370   -4.670960
  N      4.541690    2.143990   -5.987140
  C      5.084090    3.393580   -4.118550
  H      4.920670    3.570500   -3.135870
  H      5.254650    4.197390   -4.706960
  H      3.824530    0.449110   -4.350930
  H      4.343370    1.249320   -6.416650
  H      4.676710    2.956620   -6.574110
  H      5.008670    2.030530   -2.135340
  H      5.063540    0.286310   -2.223440
  H      3.536000    1.101600   -1.988970

 Total Charge           Charge          ....    0
 Multiplicity           Mult            ....    1
 Number of Electrons    NEL             ....   40
 Basis Dimension        Dim             ....  164

ORBITAL ENERGIES
----------------

  NO   OCC          E(Eh)            E(eV)
   0   2.0000     -14.765643      -401.7936
   1   2.0000     -14.763000      -401.7217
   2   2.0000     -10.600414      -288.4519
   3   2.0000     -10.573624      -287.7229
   4   2.0000     -10.460666      -284.6492
   5   2.0000      -1.071801       -29.1652
   6   2.0000      -0.979957       -26.6660
   7   2.0000      -0.804336       -21.8871
   8   2.0000      -0.780399       -21.2357
   9   2.0000      -0.647470       -17.6186
  10   2.0000      -0.627299       -17.0697
  11   2.0000      -0.594222       -16.1696
  12   2.0000      -0.526719       -14.3328
  13   2.0000      -0.512073       -13.9342
  14   2.0000      -0.481285       -13.0964
  15   2.0000      -0.447995       -12.1906
  16   2.0000      -0.446729       -12.1561
  17   2.0000      -0.424646       -11.5552
  18   2.0000      -0.313588        -8.5332
  19   2.0000      -0.213094        -5.7986
  20   0.0000       0.035453         0.9647
  21   0.0000       0.057065         1.5528
  22   0.0000       0.070380         1.9151
  23   0.0000       0.101558         2.7635
  24   0.0000       0.106831         2.9070

MULLIKEN ATOMIC CHARGES
-----------------------
   0 C :    1.172737
   1 N :   -0.618105
   2 C :    0.858290
   3 N :   -0.007982
   4 C :    0.238699
   5 H :   -0.151335
   6 H :   -0.473815
   7 H :   -0.391461
   8 H :   -0.176825
   9 H :   -0.035308
  10 H :   -0.161137
  11 H :   -0.105246
  12 H :   -0.148513
Sum of atomic charges:   -0.0000000

LOEWDIN ATOMIC CHARGES
----------------------
   0 C :    0.229894
   1 N :   -0.067589
   2 C :   -0.236416
   3 N :    0.171821
   4 C :    0.156316
   5 H :   -0.123346
   6 H :   -0.107864
   7 H :    0.025160
   8 H :   -0.004078
   9 H :    0.012276
  10 H :   -0.032094
  11 H :   -0.012557
  12 H :   -0.011522

  Mayer bond orders larger than 0.100000
B(  0-C ,  1-N ) :   0.8843 B(  0-C ,  7-H ) :  -0.1844 B(  0-C , 10-H ) :   0.8500
B(  0-C , 11-H ) :   0.7490 B(  0-C , 12-H ) :   0.7701 B(  1-N ,  2-C ) :   0.9386
B(  1-N ,  3-N ) :   0.1579 B(  1-N ,  4-C ) :   0.2829 B(  1-N ,  7-H ) :   1.4253
B(  1-N , 10-H ) :   0.1711 B(  1-N , 11-H ) :   0.2135 B(  1-N , 12-H ) :   0.2012
B(  2-C ,  3-N ) :   0.9021 B(  2-C ,  4-C ) :   1.6993 B(  2-C ,  5-H ) :   0.2007
B(  2-C ,  6-H ) :   0.1144 B(  2-C ,  7-H ) :  -0.2809 B(  2-C ,  8-H ) :  -0.1137
B(  3-N ,  4-C ) :   0.2094 B(  3-N ,  8-H ) :   1.2243 B(  3-N ,  9-H ) :   1.1707
B(  4-C ,  5-H ) :   0.7060 B(  4-C ,  6-H ) :   0.9752 B(  5-H , 10-H ) :   0.1501
B(  8-H ,  9-H ) :  -0.1813

Dispersion correction           -0.000167786
FINAL SINGLE POINT ENERGY      -228.322543016023

DIPOLE MOMENT
-------------
                                X             Y             Z
Electronic contribution:     -0.38535      -0.72394      -2.63071
Nuclear contribution   :     -0.13890      -0.20745       2.21867
                        -----------------------------------------
Total Dipole Moment    :     -0.52425      -0.93140      -0.41204
                        -----------------------------------------
Magnitude (a.u.)       :      1.14548
Magnitude (Debye)      :      2.91157

Rotational constants in cm-1:     0.339212     0.134625     0.098371
Rotational constants in MHz : 10169.318272  4035.946597  2949.073953

                             ****ORCA TERMINATED NORMALLY****
TOTAL RUN TIME: 0 days 0 hours 0 minutes 10 seconds 497 msec
