                         Program Version 5.0.0 -  RELEASE  -
|  1> !M062X D3Zero RIJCOSX def2-SVPD def2/J TightSCF xyzfile
|  2>
|  3> *xyzfile 0 1 D3.xyz
|  4>
|  5> %MaxCore 64000
|  6>
|  7> %pal nprocs 4
|  8> end
|  9>
| 10> %scf
| 11>   MaxIter 150
| 12> end
| 13>
| 14>
| 15>                          ****END OF INPUT****

CARTESIAN COORDINATES (ANGSTROEM)
---------------------------------
  C      4.490588    1.155899   -2.469290
  N      4.305394    1.222762   -3.908317
  C      4.906458   -3.102816   -5.954844
  C      3.511771   -2.806215   -6.492283
  H      2.736044   -3.373445   -5.973736
  H      3.444904   -3.040831   -7.555281
  S      3.004618   -1.096206   -6.389259
  C      4.631918    2.246365   -4.670958
  N      4.541686    2.143990   -5.987139
  C      5.084086    3.393584   -4.118545
  H      4.920675    3.570501   -3.135870
  H      5.254652    4.197390   -4.706956
  H      3.824530    0.449113   -4.350926
  H      4.343373    1.249318   -6.416646
  H      4.676712    2.956624   -6.574113
  F      4.128856   -0.329647   -6.953717
  O      1.781285   -1.000779   -7.136399
  C      5.942129    0.939500   -2.036893
  H      3.864305    0.328532   -2.136611
  H      4.076233    2.049994   -1.989010
  C      6.462677   -3.117775   -3.944671
  C      5.024977   -3.025679   -4.437625
  H      4.423321   -3.818693   -3.977648
  H      4.579350   -2.087131   -4.108727
  H      5.201533   -4.100207   -6.296905
  H      5.605922   -2.397822   -6.413368
  C      6.559957   -0.356290   -2.559086
  H      5.967976    0.952567   -0.942444
  H      6.547184    1.788331   -2.368849
  C      6.006283   -1.615917   -1.899301
  H      7.642360   -0.318000   -2.402059
  H      6.414855   -0.403433   -3.642587
  C      6.608718   -2.917014   -2.435655
  H      6.190324   -1.561115   -0.820948
  H      4.919250   -1.651245   -2.016586
  H      7.066975   -2.374258   -4.475514
  H      6.887808   -4.089747   -4.215332
  H      6.135197   -3.755573   -1.915159
  H      7.671142   -2.955503   -2.172291
  O      2.851546   -0.783683   -4.956789

 Total Charge           Charge          ....    0
 Multiplicity           Mult            ....    1
 Number of Electrons    NEL             ....  144
 Basis Dimension        Dim             ....  540

ORBITAL ENERGIES
----------------

  NO   OCC          E(Eh)            E(eV)
   0   2.0000     -90.224947     -2455.1456
   1   2.0000     -25.399392      -691.1526
   2   2.0000     -19.679473      -535.5057
   3   2.0000     -19.675684      -535.4026
   4   2.0000     -14.747495      -401.2997
   5   2.0000     -14.734504      -400.9462
   6   2.0000     -10.633732      -289.3586
   7   2.0000     -10.594982      -288.3041
   8   2.0000     -10.583274      -287.9855
   9   2.0000     -10.567037      -287.5437
  10   2.0000     -10.564227      -287.4672
  11   2.0000     -10.556727      -287.2632
  12   2.0000     -10.549611      -287.0695
  13   2.0000     -10.542263      -286.8696
  14   2.0000     -10.536208      -286.7048
  15   2.0000     -10.530019      -286.5364
  16   2.0000     -10.447982      -284.3041
  17   2.0000      -8.548399      -232.6138
  18   2.0000      -6.476913      -176.2458
  19   2.0000      -6.471734      -176.1048
  20   2.0000      -6.470271      -176.0650
  21   2.0000      -1.527920       -41.5768
  22   2.0000      -1.260163       -34.2908
  23   2.0000      -1.157451       -31.4958
  24   2.0000      -1.054886       -28.7049
  25   2.0000      -0.966977       -26.3128
  26   2.0000      -0.953886       -25.9566
  27   2.0000      -0.910213       -24.7682
  28   2.0000      -0.875687       -23.8286
  29   2.0000      -0.851739       -23.1770
  30   2.0000      -0.820385       -22.3238
  31   2.0000      -0.786668       -21.4063
  32   2.0000      -0.776647       -21.1337
  33   2.0000      -0.742548       -20.2058
  34   2.0000      -0.720108       -19.5951
  35   2.0000      -0.710024       -19.3207
  36   2.0000      -0.706892       -19.2355
  37   2.0000      -0.674282       -18.3481
  38   2.0000      -0.665620       -18.1124
  39   2.0000      -0.638756       -17.3814
  40   2.0000      -0.616985       -16.7890
  41   2.0000      -0.605527       -16.4772
  42   2.0000      -0.596953       -16.2439
  43   2.0000      -0.580666       -15.8007
  44   2.0000      -0.571300       -15.5459
  45   2.0000      -0.561995       -15.2927
  46   2.0000      -0.551499       -15.0071
  47   2.0000      -0.541183       -14.7263
  48   2.0000      -0.528194       -14.3729
  49   2.0000      -0.517493       -14.0817
  50   2.0000      -0.507763       -13.8169
  51   2.0000      -0.502613       -13.6768
  52   2.0000      -0.494242       -13.4490
  53   2.0000      -0.479419       -13.0456
  54   2.0000      -0.463175       -12.6036
  55   2.0000      -0.456862       -12.4319
  56   2.0000      -0.454818       -12.3762
  57   2.0000      -0.447435       -12.1753
  58   2.0000      -0.437331       -11.9004
  59   2.0000      -0.434722       -11.8294
  60   2.0000      -0.428214       -11.6523
  61   2.0000      -0.419177       -11.4064
  62   2.0000      -0.415956       -11.3187
  63   2.0000      -0.408491       -11.1156
  64   2.0000      -0.403258       -10.9732
  65   2.0000      -0.397758       -10.8235
  66   2.0000      -0.391718       -10.6592
  67   2.0000      -0.373761       -10.1706
  68   2.0000      -0.372470       -10.1354
  69   2.0000      -0.363090        -9.8802
  70   2.0000      -0.294745        -8.0204
  71   2.0000      -0.200256        -5.4492
  72   0.0000      -0.000666        -0.0181
  73   0.0000       0.023835         0.6486
  74   0.0000       0.030434         0.8281
  75   0.0000       0.035642         0.9699
  76   0.0000       0.046119         1.2550

MULLIKEN ATOMIC CHARGES
-----------------------
   0 C :    1.017794
   1 N :    0.294368
   2 C :    0.274347
   3 C :    0.283175
   4 H :    0.048301
   5 H :    0.005181
   6 S :    1.494444
   7 C :    0.777103
   8 N :    0.539041
   9 C :    0.465030
  10 H :    0.177550
  11 H :   -0.701834
  12 H :   -1.378628
  13 H :   -0.473944
  14 H :   -0.199919
  15 F :   -0.450435
  16 O :   -0.748075
  17 C :    0.392205
  18 H :   -0.326217
  19 H :   -0.101559
  20 C :    0.042901
  21 C :    0.332623
  22 H :    0.035389
  23 H :   -0.592843
  24 H :   -0.128118
  25 H :    0.034145
  26 C :    0.143384
  27 H :   -0.151204
  28 H :   -0.083351
  29 C :   -0.126007
  30 H :   -0.210238
  31 H :   -0.107928
  32 C :    0.708737
  33 H :   -0.393326
  34 H :    0.167431
  35 H :    0.131784
  36 H :   -0.381194
  37 H :   -0.046785
  38 H :    0.000088
  39 O :   -0.763416
Sum of atomic charges:    0.0000000

LOEWDIN ATOMIC CHARGES
----------------------
   0 C :    0.072875
   1 N :    0.001049
   2 C :   -0.032273
   3 C :   -0.031819
   4 H :    0.046715
   5 H :    0.028830
   6 S :    1.194860
   7 C :   -0.212135
   8 N :    0.203230
   9 C :    0.162144
  10 H :   -0.116728
  11 H :   -0.110492
  12 H :   -0.103411
  13 H :   -0.088387
  14 H :    0.016267
  15 F :   -0.272752
  16 O :   -0.445264
  17 C :   -0.013235
  18 H :    0.017459
  19 H :    0.019025
  20 C :   -0.035527
  21 C :   -0.027119
  22 H :    0.044549
  23 H :   -0.019274
  24 H :    0.039685
  25 H :    0.028924
  26 C :   -0.032714
  27 H :    0.023119
  28 H :    0.011994
  29 C :   -0.038342
  30 H :    0.026985
  31 H :    0.004086
  32 C :   -0.029575
  33 H :    0.025553
  34 H :    0.005498
  35 H :    0.018552
  36 H :    0.024552
  37 H :    0.022771
  38 H :    0.024673
  39 O :   -0.454349

  Mayer bond orders larger than 0.100000
B(  0-C ,  1-N ) :   1.0046 B(  0-C , 10-H ) :   0.1236 B(  0-C , 12-H ) :  -0.6273
B(  0-C , 17-C ) :   1.0669 B(  0-C , 18-H ) :   0.6963 B(  0-C , 19-H ) :   0.8465
B(  0-C , 26-C ) :   0.1557 B(  1-N ,  7-C ) :   0.9771 B(  1-N ,  9-C ) :   0.2803
B(  1-N , 11-H ) :   0.1475 B(  1-N , 12-H ) :   0.8025 B(  1-N , 13-H ) :   0.1617
B(  1-N , 14-H ) :  -0.1192 B(  1-N , 18-H ) :   0.2966 B(  1-N , 28-H ) :   0.1156
B(  2-C ,  3-C ) :   1.2000 B(  2-C ,  5-H ) :   0.2343 B(  2-C , 20-C ) :   0.1098
B(  2-C , 21-C ) :   1.1005 B(  2-C , 22-H ) :   0.1025 B(  2-C , 24-H ) :   0.8773
B(  2-C , 25-H ) :   0.8370 B(  3-C ,  4-H ) :   0.9189 B(  3-C ,  5-H ) :   0.7671
B(  3-C ,  6-S ) :   1.0145 B(  6-S , 15-F ) :   0.5415 B(  6-S , 16-O ) :   1.4380
B(  6-S , 39-O ) :   1.4056 B(  7-C ,  8-N ) :   0.8921 B(  7-C ,  9-C ) :   1.6944
B(  7-C , 10-H ) :   0.3797 B(  7-C , 11-H ) :   0.3742 B(  7-C , 12-H ) :  -0.8883
B(  7-C , 13-H ) :  -0.2249 B(  7-C , 14-H ) :  -0.1240 B(  7-C , 18-H ) :   0.1318
B(  8-N ,  9-C ) :   0.1900 B(  8-N , 13-H ) :   0.9605 B(  8-N , 14-H ) :   1.2537
B(  9-C , 10-H ) :   0.4948 B(  9-C , 11-H ) :   0.6955 B( 10-H , 13-H ) :   0.1639
B( 10-H , 18-H ) :  -0.1375 B( 10-H , 19-H ) :   0.1432 B( 11-H , 12-H ) :  -0.1341
B( 12-H , 13-H ) :   0.1147 B( 12-H , 39-O ) :   0.1879 B( 13-H , 14-H ) :  -0.2396
B( 13-H , 15-F ) :   0.1396 B( 16-O , 39-O ) :   0.1271 B( 17-C , 18-H ) :   0.1045
B( 17-C , 26-C ) :   1.1832 B( 17-C , 27-H ) :   0.9287 B( 17-C , 28-H ) :   0.7606
B( 18-H , 19-H ) :  -0.2557 B( 20-C , 21-C ) :   1.2201 B( 20-C , 22-H ) :   0.1091
B( 20-C , 29-C ) :   0.1377 B( 20-C , 32-C ) :   1.1300 B( 20-C , 35-H ) :   0.8479
B( 20-C , 36-H ) :   1.0130 B( 20-C , 38-H ) :   0.2243 B( 21-C , 22-H ) :   0.6996
B( 21-C , 23-H ) :   0.8355 B( 21-C , 24-H ) :   0.1861 B( 21-C , 36-H ) :   0.1976
B( 22-H , 23-H ) :   0.1988 B( 23-H , 34-H ) :   0.1386 B( 24-H , 25-H ) :  -0.1032
B( 26-C , 28-H ) :   0.2235 B( 26-C , 29-C ) :   1.2009 B( 26-C , 30-H ) :   0.9056
B( 26-C , 31-H ) :   0.9390 B( 26-C , 33-H ) :   0.1286 B( 26-C , 34-H ) :   0.1006
B( 27-H , 28-H ) :  -0.1822 B( 29-C , 30-H ) :   0.1365 B( 29-C , 31-H ) :   0.1242
B( 29-C , 32-C ) :   1.1282 B( 29-C , 33-H ) :   1.0846 B( 29-C , 34-H ) :   0.8419
B( 29-C , 37-H ) :   0.2971 B( 29-C , 38-H ) :   0.1180 B( 31-H , 35-H ) :   0.1085
B( 32-C , 37-H ) :   0.6786 B( 32-C , 38-H ) :   0.7076 B( 37-H , 38-H ) :  -0.1451

Dispersion correction           -0.003074355
FINAL SINGLE POINT ENERGY     -1189.856120500536

DIPOLE MOMENT
-------------
                                X             Y             Z
Electronic contribution:    -16.81333       2.66162     -21.28460
Nuclear contribution   :     17.35766      -5.13497      20.30937
                        -----------------------------------------
Total Dipole Moment    :      0.54433      -2.47334      -0.97524
                        -----------------------------------------
Magnitude (a.u.)       :      2.71382
Magnitude (Debye)      :      6.89798

Rotational constants in cm-1:     0.014431     0.012329     0.007535
Rotational constants in MHz :   432.628327   369.619539   225.898827

                             ****ORCA TERMINATED NORMALLY****
TOTAL RUN TIME: 0 days 0 hours 4 minutes 59 seconds 961 msec
