                         Program Version 5.0.0 -  RELEASE  -
|  1> !M062X D3Zero RIJCOSX def2-SVPD def2/J TightSCF xyzfile
|  2>
|  3> *xyzfile 0 1 D9.xyz
|  4>
|  5> %MaxCore 64000
|  6>
|  7> %pal nprocs 4
|  8> end
|  9>
| 10> %scf
| 11>   MaxIter 150
| 12> end
| 13>
| 14>
| 15>                          ****END OF INPUT****

CARTESIAN COORDINATES (ANGSTROEM)
---------------------------------
  C      4.490588    1.155899   -2.469290
  N      4.305394    1.222762   -3.908317
  C      4.906458   -3.102816   -5.954844
  C      3.511771   -2.806215   -6.492283
  H      2.736044   -3.373445   -5.973736
  H      3.444904   -3.040831   -7.555281
  S      3.004618   -1.096206   -6.389259
  C      4.631918    2.246365   -4.670958
  N      4.541686    2.143990   -5.987139
  C      5.084086    3.393584   -4.118545
  H      4.920675    3.570501   -3.135870
  H      5.254652    4.197390   -4.706956
  H      3.824530    0.449113   -4.350926
  H      4.343373    1.249318   -6.416646
  H      4.676712    2.956624   -6.574113
  O      4.128856   -0.329647   -6.953717
  O      1.781285   -1.000779   -7.136399
  C      5.942129    0.939500   -2.036893
  H      3.864305    0.328532   -2.136611
  H      4.076233    2.049994   -1.989010
  C      6.462677   -3.117775   -3.944671
  C      5.024977   -3.025679   -4.437625
  H      4.423321   -3.818693   -3.977648
  H      4.579350   -2.087131   -4.108727
  H      5.201533   -4.100207   -6.296905
  H      5.605922   -2.397822   -6.413368
  C      6.559957   -0.356290   -2.559086
  H      5.967976    0.952567   -0.942444
  H      6.547184    1.788331   -2.368849
  C      6.006283   -1.615917   -1.899301
  H      7.642360   -0.318000   -2.402059
  H      6.414855   -0.403433   -3.642587
  C      6.608718   -2.917014   -2.435655
  H      6.190324   -1.561115   -0.820948
  H      4.919250   -1.651245   -2.016586
  H      7.066975   -2.374258   -4.475514
  H      6.887808   -4.089747   -4.215332
  H      6.135197   -3.755573   -1.915159
  H      7.671142   -2.955503   -2.172291
  F      2.851546   -0.783683   -4.956789

 Total Charge           Charge          ....    0
 Multiplicity           Mult            ....    1
 Number of Electrons    NEL             ....  144
 Basis Dimension        Dim             ....  540

ORBITAL ENERGIES
----------------

  NO   OCC          E(Eh)            E(eV)
   0   2.0000     -90.224005     -2455.1200
   1   2.0000     -25.397037      -691.0885
   2   2.0000     -19.678609      -535.4822
   3   2.0000     -19.675260      -535.3911
   4   2.0000     -14.749693      -401.3595
   5   2.0000     -14.727861      -400.7655
   6   2.0000     -10.633091      -289.3411
   7   2.0000     -10.591423      -288.2073
   8   2.0000     -10.582031      -287.9517
   9   2.0000     -10.576569      -287.8031
  10   2.0000     -10.573943      -287.7316
  11   2.0000     -10.561007      -287.3796
  12   2.0000     -10.554229      -287.1952
  13   2.0000     -10.548401      -287.0366
  14   2.0000     -10.540583      -286.8238
  15   2.0000     -10.535386      -286.6824
  16   2.0000     -10.446928      -284.2753
  17   2.0000      -8.547406      -232.5867
  18   2.0000      -6.475873      -176.2175
  19   2.0000      -6.470733      -176.0776
  20   2.0000      -6.469356      -176.0401
  21   2.0000      -1.525136       -41.5011
  22   2.0000      -1.259370       -34.2692
  23   2.0000      -1.157674       -31.5019
  24   2.0000      -1.055954       -28.7340
  25   2.0000      -0.963144       -26.2085
  26   2.0000      -0.953317       -25.9411
  27   2.0000      -0.913479       -24.8570
  28   2.0000      -0.880084       -23.9483
  29   2.0000      -0.850371       -23.1398
  30   2.0000      -0.826046       -22.4779
  31   2.0000      -0.787691       -21.4342
  32   2.0000      -0.776743       -21.1363
  33   2.0000      -0.747982       -20.3536
  34   2.0000      -0.725661       -19.7462
  35   2.0000      -0.713692       -19.4205
  36   2.0000      -0.695344       -18.9213
  37   2.0000      -0.676929       -18.4202
  38   2.0000      -0.666314       -18.1313
  39   2.0000      -0.642413       -17.4810
  40   2.0000      -0.614048       -16.7091
  41   2.0000      -0.604429       -16.4474
  42   2.0000      -0.595366       -16.2007
  43   2.0000      -0.585336       -15.9278
  44   2.0000      -0.568646       -15.4736
  45   2.0000      -0.567561       -15.4441
  46   2.0000      -0.553920       -15.0729
  47   2.0000      -0.544988       -14.8299
  48   2.0000      -0.526866       -14.3367
  49   2.0000      -0.521581       -14.1929
  50   2.0000      -0.509013       -13.8510
  51   2.0000      -0.506575       -13.7846
  52   2.0000      -0.493317       -13.4238
  53   2.0000      -0.481208       -13.0943
  54   2.0000      -0.466355       -12.6902
  55   2.0000      -0.458563       -12.4781
  56   2.0000      -0.453396       -12.3375
  57   2.0000      -0.445043       -12.1102
  58   2.0000      -0.438312       -11.9271
  59   2.0000      -0.433127       -11.7860
  60   2.0000      -0.427305       -11.6276
  61   2.0000      -0.422585       -11.4991
  62   2.0000      -0.418802       -11.3962
  63   2.0000      -0.411955       -11.2099
  64   2.0000      -0.408069       -11.1041
  65   2.0000      -0.403135       -10.9698
  66   2.0000      -0.398524       -10.8444
  67   2.0000      -0.379401       -10.3240
  68   2.0000      -0.378220       -10.2919
  69   2.0000      -0.368819       -10.0361
  70   2.0000      -0.293769        -7.9939
  71   2.0000      -0.199455        -5.4274
  72   0.0000       0.002525         0.0687
  73   0.0000       0.021750         0.5919
  74   0.0000       0.031366         0.8535
  75   0.0000       0.036373         0.9898
  76   0.0000       0.046765         1.2725

MULLIKEN ATOMIC CHARGES
-----------------------
   0 C :    1.029719
   1 N :    0.349000
   2 C :    0.254883
   3 C :    0.274672
   4 H :    0.027119
   5 H :    0.046307
   6 S :    1.553991
   7 C :    0.758586
   8 N :    0.503330
   9 C :    0.477550
  10 H :    0.170546
  11 H :   -0.703598
  12 H :   -1.404240
  13 H :   -0.440009
  14 H :   -0.199982
  15 O :   -0.736464
  16 O :   -0.746211
  17 C :    0.381903
  18 H :   -0.343862
  19 H :   -0.102854
  20 C :    0.024750
  21 C :    0.311404
  22 H :    0.032913
  23 H :   -0.647465
  24 H :   -0.101858
  25 H :    0.079502
  26 C :    0.155394
  27 H :   -0.146839
  28 H :   -0.077052
  29 C :   -0.117288
  30 H :   -0.206377
  31 H :   -0.111840
  32 C :    0.705112
  33 H :   -0.394215
  34 H :    0.145817
  35 H :    0.141466
  36 H :   -0.378721
  37 H :   -0.046856
  38 H :    0.006366
  39 F :   -0.524600
Sum of atomic charges:    0.0000000

LOEWDIN ATOMIC CHARGES
----------------------
   0 C :    0.068460
   1 N :   -0.003492
   2 C :   -0.030276
   3 C :   -0.033118
   4 H :    0.033744
   5 H :    0.040695
   6 S :    1.193716
   7 C :   -0.213161
   8 N :    0.208200
   9 C :    0.161169
  10 H :   -0.119167
  11 H :   -0.108301
  12 H :   -0.066448
  13 H :   -0.124740
  14 H :    0.015517
  15 O :   -0.453946
  16 O :   -0.446267
  17 C :   -0.011791
  18 H :    0.013150
  19 H :    0.019683
  20 C :   -0.031655
  21 C :   -0.031129
  22 H :    0.042400
  23 H :   -0.017370
  24 H :    0.041043
  25 H :    0.032424
  26 C :   -0.031226
  27 H :    0.023760
  28 H :    0.013838
  29 C :   -0.040706
  30 H :    0.028594
  31 H :    0.006519
  32 C :   -0.029272
  33 H :    0.025920
  34 H :    0.001288
  35 H :    0.021994
  36 H :    0.027070
  37 H :    0.022677
  38 H :    0.025839
  39 F :   -0.275635

  Mayer bond orders larger than 0.100000
B(  0-C ,  1-N ) :   1.0030 B(  0-C , 10-H ) :   0.1226 B(  0-C , 12-H ) :  -0.6112
B(  0-C , 17-C ) :   1.0723 B(  0-C , 18-H ) :   0.6805 B(  0-C , 19-H ) :   0.8541
B(  0-C , 26-C ) :   0.1555 B(  1-N ,  7-C ) :   0.9826 B(  1-N ,  9-C ) :   0.2959
B(  1-N , 11-H ) :   0.1487 B(  1-N , 12-H ) :   0.6418 B(  1-N , 13-H ) :   0.1694
B(  1-N , 14-H ) :  -0.1251 B(  1-N , 18-H ) :   0.2929 B(  1-N , 28-H ) :   0.1101
B(  1-N , 39-F ) :  -0.1194 B(  2-C ,  3-C ) :   1.2380 B(  2-C ,  5-H ) :   0.2465
B(  2-C , 20-C ) :   0.1124 B(  2-C , 21-C ) :   1.1377 B(  2-C , 22-H ) :   0.1005
B(  2-C , 24-H ) :   0.8516 B(  2-C , 25-H ) :   0.8657 B(  3-C ,  4-H ) :   0.9403
B(  3-C ,  5-H ) :   0.7216 B(  3-C ,  6-S ) :   0.9830 B(  3-C , 21-C ) :   0.1071
B(  6-S , 15-O ) :   1.3672 B(  6-S , 16-O ) :   1.4283 B(  6-S , 39-F ) :   0.5486
B(  7-C ,  8-N ) :   0.8963 B(  7-C ,  9-C ) :   1.6994 B(  7-C , 10-H ) :   0.3772
B(  7-C , 11-H ) :   0.3609 B(  7-C , 12-H ) :  -0.8388 B(  7-C , 13-H ) :  -0.2280
B(  7-C , 14-H ) :  -0.1280 B(  7-C , 18-H ) :   0.1271 B(  8-N ,  9-C ) :   0.1967
B(  8-N , 13-H ) :   0.9741 B(  8-N , 14-H ) :   1.2594 B(  8-N , 15-O ) :  -0.1106
B(  9-C , 10-H ) :   0.4925 B(  9-C , 11-H ) :   0.6959 B( 10-H , 13-H ) :   0.1808
B( 10-H , 18-H ) :  -0.1391 B( 10-H , 19-H ) :   0.1469 B( 11-H , 12-H ) :  -0.1238
B( 12-H , 13-H ) :   0.1115 B( 12-H , 39-F ) :   0.2386 B( 13-H , 14-H ) :  -0.2788
B( 17-C , 18-H ) :   0.1089 B( 17-C , 26-C ) :   1.1851 B( 17-C , 27-H ) :   0.9335
B( 17-C , 28-H ) :   0.7648 B( 18-H , 19-H ) :  -0.2548 B( 20-C , 21-C ) :   1.2335
B( 20-C , 22-H ) :   0.1077 B( 20-C , 23-H ) :   0.1121 B( 20-C , 29-C ) :   0.1439
B( 20-C , 32-C ) :   1.1260 B( 20-C , 35-H ) :   0.8473 B( 20-C , 36-H ) :   1.0138
B( 20-C , 38-H ) :   0.2245 B( 21-C , 22-H ) :   0.6995 B( 21-C , 23-H ) :   0.7809
B( 21-C , 24-H ) :   0.1881 B( 21-C , 36-H ) :   0.1967 B( 22-H , 23-H ) :   0.2172
B( 23-H , 34-H ) :   0.1527 B( 26-C , 28-H ) :   0.2208 B( 26-C , 29-C ) :   1.1940
B( 26-C , 30-H ) :   0.9067 B( 26-C , 31-H ) :   0.9374 B( 26-C , 33-H ) :   0.1279
B( 27-H , 28-H ) :  -0.1795 B( 29-C , 30-H ) :   0.1375 B( 29-C , 31-H ) :   0.1209
B( 29-C , 32-C ) :   1.1283 B( 29-C , 33-H ) :   1.0867 B( 29-C , 34-H ) :   0.8427
B( 29-C , 37-H ) :   0.2981 B( 29-C , 38-H ) :   0.1177 B( 31-H , 35-H ) :   0.1138
B( 32-C , 37-H ) :   0.6785 B( 32-C , 38-H ) :   0.7100 B( 37-H , 38-H ) :  -0.1444

Dispersion correction           -0.003087225
FINAL SINGLE POINT ENERGY     -1189.857747152330

DIPOLE MOMENT
-------------
                                X             Y             Z
Electronic contribution:    -18.90602       1.82942     -17.79079
Nuclear contribution   :     18.85717      -4.60195      17.96505
                        -----------------------------------------
Total Dipole Moment    :     -0.04884      -2.77252       0.17426
                        -----------------------------------------
Magnitude (a.u.)       :      2.77843
Magnitude (Debye)      :      7.06220

Rotational constants in cm-1:     0.014436     0.012382     0.007563
Rotational constants in MHz :   432.785702   371.214592   226.743759

                             ****ORCA TERMINATED NORMALLY****
TOTAL RUN TIME: 0 days 0 hours 4 minutes 55 seconds 907 msec
