                         Program Version 5.0.0 -  RELEASE  -
|  1> !PBE0 D3BJ RIJCOSX def2-TZVP def2/J TightSCF
|  2> *xyz -1 1
|  3> C         -0.05517        1.61942       -3.78858
|  4> C          1.22302        2.46987       -3.75691
|  5> H          1.11470        3.25807       -4.53300
|  6> H          1.23773        3.01124       -2.79216
|  7> O          2.35381        1.71203       -3.93448
|  8> H         -0.10198        1.08015       -4.71156
|  9> H         -0.91014        2.25726       -3.70441
| 10> H         -0.04403        0.92826       -2.97183
| 11> *
| 12>
| 13> %MaxCore 64000
| 14>
| 15> %pal nprocs 4
| 16> end
| 17>
| 18> %scf
| 19>   MaxIter 150
| 20> end
| 21>
| 22>
| 23>                          ****END OF INPUT****

CARTESIAN COORDINATES (ANGSTROEM)
---------------------------------
  C     -0.055170    1.619420   -3.788580
  C      1.223020    2.469870   -3.756910
  H      1.114700    3.258070   -4.533000
  H      1.237730    3.011240   -2.792160
  O      2.353810    1.712030   -3.934480
  H     -0.101980    1.080150   -4.711560
  H     -0.910140    2.257260   -3.704410
  H     -0.044030    0.928260   -2.971830

 Total Charge           Charge          ....   -1
 Multiplicity           Mult            ....    1
 Number of Electrons    NEL             ....   26
 Basis Dimension        Dim             ....  123

ORBITAL ENERGIES
----------------

  NO   OCC          E(Eh)            E(eV)
   0   2.0000     -18.848646      -512.8977
   1   2.0000     -10.022009      -272.7127
   2   2.0000     -10.001769      -272.1620
   3   2.0000      -0.689640       -18.7660
   4   2.0000      -0.538976       -14.6663
   5   2.0000      -0.381369       -10.3776
   6   2.0000      -0.255662        -6.9569
   7   2.0000      -0.232654        -6.3308
   8   2.0000      -0.176670        -4.8074
   9   2.0000      -0.159396        -4.3374
  10   2.0000      -0.110480        -3.0063
  11   2.0000       0.035175         0.9572
  12   2.0000       0.037085         1.0091
  13   0.0000       0.226728         6.1696
  14   0.0000       0.263037         7.1576
  15   0.0000       0.287067         7.8115
  16   0.0000       0.291649         7.9362
  17   0.0000       0.324176         8.8213

MULLIKEN ATOMIC CHARGES
-----------------------
   0 C :   -0.163556
   1 C :    0.030365
   2 H :   -0.064478
   3 H :   -0.062275
   4 O :   -0.775040
   5 H :    0.031520
   6 H :   -0.028400
   7 H :    0.031864
Sum of atomic charges:   -1.0000000

LOEWDIN ATOMIC CHARGES
----------------------
   0 C :   -0.368850
   1 C :   -0.556179
   2 H :    0.053331
   3 H :    0.054851
   4 O :   -0.431794
   5 H :    0.088114
   6 H :    0.072764
   7 H :    0.087763

  Mayer bond orders larger than 0.100000
B(  0-C ,  1-C ) :   0.9086 B(  0-C ,  4-O ) :  -0.2519 B(  0-C ,  5-H ) :   0.9618
B(  0-C ,  6-H ) :   0.9191 B(  0-C ,  7-H ) :   0.9652 B(  1-C ,  2-H ) :   0.9200
B(  1-C ,  3-H ) :   0.9204 B(  1-C ,  4-O ) :   1.6111

Dispersion correction           -0.003051143
FINAL SINGLE POINT ENERGY      -154.296789164865

DIPOLE MOMENT
-------------
                                X             Y             Z
Electronic contribution:      2.94687      -0.63455      -0.27408
Nuclear contribution   :     -4.28298       0.81046       0.39340
                        -----------------------------------------
Total Dipole Moment    :     -1.33611       0.17592       0.11932
                        -----------------------------------------
Magnitude (a.u.)       :      1.35291
Magnitude (Debye)      :      3.43883

Rotational constants in cm-1:     1.266793     0.328147     0.288309
Rotational constants in MHz : 37977.512300  9837.594308  8643.275638

                             ****ORCA TERMINATED NORMALLY****
TOTAL RUN TIME: 0 days 0 hours 0 minutes 11 seconds 869 msec
