                         Program Version 5.0.0 -  RELEASE  -
|  1> !PBE0 D3BJ RIJCOSX def2-TZVP def2/J TightSCF
|  2> *xyz 1 1
|  3> C          1.63556       -1.67040       -5.29211
|  4> C          0.33848       -1.50091       -4.50540
|  5> N          2.48451       -0.50741       -5.14039
|  6> H          1.39834       -1.82924       -6.35259
|  7> H          2.15586       -2.56540       -4.93209
|  8> C          3.45115       -0.14953       -5.95259
|  9> N          3.92267        1.08956       -5.85071
| 10> N          3.96616       -1.00618       -6.86788
| 11> H          3.52139       -1.90647       -6.99527
| 12> H          4.44482       -0.62347       -7.67035
| 13> H          2.25200        0.24080       -4.49879
| 14> H          3.46428        1.64078       -5.13639
| 15> H          4.83447        1.31375       -6.22465
| 16> H         -0.17658       -0.62881       -4.85045
| 17> H          0.56384       -1.39374       -3.46490
| 18> H         -0.28102       -2.36136       -4.64938
| 19> *
| 20>
| 21> %MaxCore 64000
| 22>
| 23> %pal nprocs 4
| 24> end
| 25>
| 26> %scf
| 27>   MaxIter 150
| 28> end
| 29>
| 30>
| 31>                          ****END OF INPUT****

CARTESIAN COORDINATES (ANGSTROEM)
---------------------------------
  C      1.635560   -1.670400   -5.292110
  C      0.338480   -1.500910   -4.505400
  N      2.484510   -0.507410   -5.140390
  H      1.398340   -1.829240   -6.352590
  H      2.155860   -2.565400   -4.932090
  C      3.451150   -0.149530   -5.952590
  N      3.922670    1.089560   -5.850710
  N      3.966160   -1.006180   -6.867880
  H      3.521390   -1.906470   -6.995270
  H      4.444820   -0.623470   -7.670350
  H      2.252000    0.240800   -4.498790
  H      3.464280    1.640780   -5.136390
  H      4.834470    1.313750   -6.224650
  H     -0.176580   -0.628810   -4.850450
  H      0.563840   -1.393740   -3.464900
  H     -0.281020   -2.361360   -4.649380

 Total Charge           Charge          ....    1
 Multiplicity           Mult            ....    1
 Number of Electrons    NEL             ....   48
 Basis Dimension        Dim             ....  246

ORBITAL ENERGIES
----------------

  NO   OCC          E(Eh)            E(eV)
   0   2.0000     -14.612007      -397.6129
   1   2.0000     -14.605674      -397.4406
   2   2.0000     -14.603673      -397.3862
   3   2.0000     -10.551928      -287.1326
   4   2.0000     -10.431121      -283.8452
   5   2.0000     -10.358434      -281.8673
   6   2.0000      -1.247005       -33.9327
   7   2.0000      -1.132525       -30.8176
   8   2.0000      -1.118319       -30.4310
   9   2.0000      -0.958962       -26.0947
  10   2.0000      -0.851443       -23.1689
  11   2.0000      -0.832926       -22.6651
  12   2.0000      -0.792649       -21.5691
  13   2.0000      -0.762038       -20.7361
  14   2.0000      -0.703958       -19.1557
  15   2.0000      -0.698750       -19.0140
  16   2.0000      -0.676520       -18.4091
  17   2.0000      -0.656309       -17.8591
  18   2.0000      -0.616080       -16.7644
  19   2.0000      -0.560342       -15.2477
  20   2.0000      -0.543481       -14.7889
  21   2.0000      -0.533501       -14.5173
  22   2.0000      -0.490353       -13.3432
  23   2.0000      -0.465461       -12.6658
  24   0.0000      -0.161250        -4.3878
  25   0.0000      -0.145413        -3.9569
  26   0.0000      -0.111944        -3.0462
  27   0.0000      -0.094920        -2.5829
  28   0.0000      -0.074833        -2.0363

MULLIKEN ATOMIC CHARGES
-----------------------
   0 C :   -0.166958
   1 C :   -0.400114
   2 N :   -0.216071
   3 H :    0.149181
   4 H :    0.172808
   5 C :    0.406667
   6 N :   -0.394067
   7 N :   -0.422716
   8 H :    0.294710
   9 H :    0.289917
  10 H :    0.245400
  11 H :    0.272944
  12 H :    0.297291
  13 H :    0.149147
  14 H :    0.154373
  15 H :    0.167489
Sum of atomic charges:    1.0000000

LOEWDIN ATOMIC CHARGES
----------------------
   0 C :   -0.292988
   1 C :   -0.280753
   2 N :    0.176003
   3 H :    0.143490
   4 H :    0.146877
   5 C :   -0.410568
   6 N :    0.064142
   7 N :    0.053333
   8 H :    0.195074
   9 H :    0.196725
  10 H :    0.211943
  11 H :    0.198349
  12 H :    0.201128
  13 H :    0.127629
  14 H :    0.129464
  15 H :    0.140151

  Mayer bond orders larger than 0.100000
B(  0-C ,  1-C ) :   1.0177 B(  0-C ,  2-N ) :   0.8765 B(  0-C ,  3-H ) :   0.9553
B(  0-C ,  4-H ) :   0.9393 B(  1-C , 13-H ) :   0.9687 B(  1-C , 14-H ) :   0.9659
B(  1-C , 15-H ) :   0.9562 B(  2-N ,  5-C ) :   1.4116 B(  2-N , 10-H ) :   0.8973
B(  5-C ,  6-N ) :   1.3489 B(  5-C ,  7-N ) :   1.3329 B(  6-N , 11-H ) :   0.8946
B(  6-N , 12-H ) :   0.8835 B(  7-N ,  8-H ) :   0.8892 B(  7-N ,  9-H ) :   0.8892

Dispersion correction           -0.010111558
FINAL SINGLE POINT ENERGY      -284.179503386215

DIPOLE MOMENT
-------------
                                X             Y             Z
Electronic contribution:      4.71067       2.49244      -1.70452
Nuclear contribution   :     -3.96322      -1.85512       1.24891
                        -----------------------------------------
Total Dipole Moment    :      0.74746       0.63733      -0.45562
                        -----------------------------------------
Magnitude (a.u.)       :      1.08280
Magnitude (Debye)      :      2.75227

Rotational constants in cm-1:     0.261404     0.067000     0.054949
Rotational constants in MHz :  7836.702504  2008.609425  1647.329138

                             ****ORCA TERMINATED NORMALLY****
TOTAL RUN TIME: 0 days 0 hours 0 minutes 35 seconds 250 msec
