                         Program Version 5.0.0 -  RELEASE  -
|  1> !PBE0 D3BJ RIJCOSX def2-TZVP def2/J TightSCF xyzfile
|  2>
|  3> *xyzfile 0 1 B.xyz
|  4>
|  5> %MaxCore 64000
|  6>
|  7> %pal nprocs 18
|  8> end
|  9>
| 10> %scf
| 11>   MaxIter 150
| 12> end
| 13>
| 14>
| 15>                          ****END OF INPUT****

CARTESIAN COORDINATES (ANGSTROEM)
---------------------------------
  C      1.635557   -1.670396   -5.292109
  C      0.338484   -1.500907   -4.505398
  N      2.484511   -0.507410   -5.140392
  C     -0.684873   -0.528026   -5.099889
  C     -0.290406    0.951335   -5.153423
  H      0.607991    1.070692   -5.764412
  C     -0.055168    1.619420   -3.788577
  H     -1.080912    1.483775   -5.689436
  H      0.045006    0.862302   -3.003015
  H     -0.922936    2.230329   -3.517028
  C      1.223022    2.469865   -3.756911
  H      1.114701    3.258074   -4.532999
  H      1.237732    3.011242   -2.792157
  O      2.353815    1.712032   -3.934477
  H      1.398337   -1.829239   -6.352591
  H      2.155864   -2.565398   -4.932091
  C      3.451149   -0.149530   -5.952589
  N      3.922667    1.089559   -5.850711
  N      3.966162   -1.006183   -6.867880
  H      3.521391   -1.906467   -6.995270
  H      4.444824   -0.623472   -7.670348
  H      2.251995    0.240804   -4.498792
  H      3.464277    1.640782   -5.136392
  H      4.834470    1.313745   -6.224653
  H     -0.937999   -0.869056   -6.110838
  H     -1.604638   -0.622496   -4.513132
  H      0.594887   -1.211578   -3.482312
  H     -0.126530   -2.487656   -4.434176

 Total Charge           Charge          ....    0
 Multiplicity           Mult            ....    1
 Number of Electrons    NEL             ....   88
 Basis Dimension        Dim             ....  443

ORBITAL ENERGIES
----------------

  NO   OCC          E(Eh)            E(eV)
   0   2.0000     -19.069888      -518.9180
   1   2.0000     -14.439891      -392.9294
   2   2.0000     -14.400022      -391.8445
   3   2.0000     -14.396145      -391.7390
   4   2.0000     -10.363350      -282.0011
   5   2.0000     -10.272425      -279.5269
   6   2.0000     -10.223998      -278.2091
   7   2.0000     -10.210754      -277.8488
   8   2.0000     -10.195417      -277.4314
   9   2.0000     -10.192004      -277.3385
  10   2.0000     -10.173516      -276.8354
  11   2.0000      -1.058259       -28.7967
  12   2.0000      -0.952347       -25.9147
  13   2.0000      -0.931938       -25.3593
  14   2.0000      -0.907301       -24.6889
  15   2.0000      -0.822739       -22.3879
  16   2.0000      -0.768076       -20.9004
  17   2.0000      -0.711039       -19.3484
  18   2.0000      -0.671554       -18.2739
  19   2.0000      -0.644364       -17.5340
  20   2.0000      -0.613615       -16.6973
  21   2.0000      -0.595321       -16.1995
  22   2.0000      -0.577686       -15.7196
  23   2.0000      -0.542911       -14.7734
  24   2.0000      -0.522810       -14.2264
  25   2.0000      -0.509912       -13.8754
  26   2.0000      -0.501873       -13.6566
  27   2.0000      -0.490575       -13.3492
  28   2.0000      -0.452378       -12.3098
  29   2.0000      -0.438520       -11.9327
  30   2.0000      -0.427963       -11.6455
  31   2.0000      -0.422995       -11.5103
  32   2.0000      -0.395693       -10.7673
  33   2.0000      -0.377730       -10.2786
  34   2.0000      -0.369514       -10.0550
  35   2.0000      -0.348004        -9.4697
  36   2.0000      -0.331163        -9.0114
  37   2.0000      -0.321919        -8.7598
  38   2.0000      -0.314325        -8.5532
  39   2.0000      -0.306319        -8.3354
  40   2.0000      -0.300341        -8.1727
  41   2.0000      -0.273477        -7.4417
  42   2.0000      -0.187555        -5.1036
  43   2.0000      -0.180017        -4.8985
  44   0.0000       0.005618         0.1529
  45   0.0000       0.019701         0.5361
  46   0.0000       0.039408         1.0724
  47   0.0000       0.056605         1.5403
  48   0.0000       0.075345         2.0502

MULLIKEN ATOMIC CHARGES
-----------------------
   0 C :   -0.166368
   1 C :   -0.217352
   2 N :   -0.196311
   3 C :   -0.191390
   4 C :   -0.226533
   5 H :    0.109132
   6 C :   -0.154540
   7 H :    0.093950
   8 H :    0.068023
   9 H :    0.074345
  10 C :    0.028297
  11 H :    0.023722
  12 H :    0.045165
  13 O :   -0.734722
  14 H :    0.097195
  15 H :    0.127694
  16 C :    0.373740
  17 N :   -0.419002
  18 N :   -0.470733
  19 H :    0.264288
  20 H :    0.255732
  21 H :    0.257429
  22 H :    0.286875
  23 H :    0.231662
  24 H :    0.086814
  25 H :    0.106243
  26 H :    0.133532
  27 H :    0.113115
Sum of atomic charges:   -0.0000000

LOEWDIN ATOMIC CHARGES
----------------------
   0 C :   -0.289284
   1 C :   -0.269102
   2 N :    0.177417
   3 C :   -0.276247
   4 C :   -0.278283
   5 H :    0.138318
   6 C :   -0.288442
   7 H :    0.133165
   8 H :    0.129063
   9 H :    0.126967
  10 C :   -0.472827
  11 H :    0.094642
  12 H :    0.101161
  13 O :   -0.302126
  14 H :    0.129858
  15 H :    0.132108
  16 C :   -0.432913
  17 N :    0.041267
  18 N :    0.002377
  19 H :    0.178046
  20 H :    0.176771
  21 H :    0.161514
  22 H :    0.155207
  23 H :    0.169583
  24 H :    0.133385
  25 H :    0.140844
  26 H :    0.145039
  27 H :    0.142492

  Mayer bond orders larger than 0.100000
B(  0-C ,  1-C ) :   1.0186 B(  0-C ,  2-N ) :   0.9435 B(  0-C , 14-H ) :   0.9486
B(  0-C , 15-H ) :   0.9406 B(  1-C ,  3-C ) :   1.0172 B(  1-C , 26-H ) :   0.9635
B(  1-C , 27-H ) :   0.9540 B(  2-N , 16-C ) :   1.4615 B(  2-N , 21-H ) :   0.7286
B(  3-C ,  4-C ) :   1.0031 B(  3-C , 24-H ) :   0.9565 B(  3-C , 25-H ) :   0.9556
B(  4-C ,  5-H ) :   0.9658 B(  4-C ,  6-C ) :   0.9914 B(  4-C ,  7-H ) :   0.9570
B(  6-C ,  8-H ) :   0.9613 B(  6-C ,  9-H ) :   0.9407 B(  6-C , 10-C ) :   0.9790
B( 10-C , 11-H ) :   0.9580 B( 10-C , 12-H ) :   0.9434 B( 10-C , 13-O ) :   1.1935
B( 13-O , 21-H ) :   0.2781 B( 13-O , 22-H ) :   0.2329 B( 16-C , 17-N ) :   1.4148
B( 16-C , 18-N ) :   1.2360 B( 17-N , 22-H ) :   0.7432 B( 17-N , 23-H ) :   0.9086
B( 18-N , 19-H ) :   0.9049 B( 18-N , 20-H ) :   0.9047

Dispersion correction           -0.025132640
FINAL SINGLE POINT ENERGY      -516.060669314366

DIPOLE MOMENT
-------------
                                X             Y             Z
Electronic contribution:      8.41739      -0.91876      -2.25687
Nuclear contribution   :     -7.46499      -1.05836       0.01518
                        -----------------------------------------
Total Dipole Moment    :      0.95240      -1.97712      -2.24169
                        -----------------------------------------
Magnitude (a.u.)       :      3.13708
Magnitude (Debye)      :      7.97382

Rotational constants in cm-1:     0.044680     0.028958     0.019773
Rotational constants in MHz :  1339.486245   868.136755   592.791310

                             ****ORCA TERMINATED NORMALLY****
TOTAL RUN TIME: 0 days 0 hours 0 minutes 48 seconds 135 msec
