                         Program Version 5.0.0 -  RELEASE  -
|  1> !PBE0 D3BJ RIJCOSX def2-TZVP def2/J TightSCF
|  2> *xyz 0 1
|  3> C         -0.05517        1.61942       -3.78858
|  4> C          1.22302        2.46987       -3.75691
|  5> H          1.11470        3.25807       -4.53300
|  6> H          1.23773        3.01124       -2.79216
|  7> F          2.35381        1.71203       -3.93448
|  8> H         -0.10198        1.08015       -4.71156
|  9> H         -0.91014        2.25726       -3.70441
| 10> H         -0.04403        0.92826       -2.97183
| 11> *
| 12>
| 13> %MaxCore 64000
| 14>
| 15> %pal nprocs 4
| 16> end
| 17>
| 18> %scf
| 19>   MaxIter 150
| 20> end
| 21>
| 22>
| 23>                          ****END OF INPUT****

CARTESIAN COORDINATES (ANGSTROEM)
---------------------------------
  C     -0.055170    1.619420   -3.788580
  C      1.223020    2.469870   -3.756910
  H      1.114700    3.258070   -4.533000
  H      1.237730    3.011240   -2.792160
  F      2.353810    1.712030   -3.934480
  H     -0.101980    1.080150   -4.711560
  H     -0.910140    2.257260   -3.704410
  H     -0.044030    0.928260   -2.971830

 Total Charge           Charge          ....    0
 Multiplicity           Mult            ....    1
 Number of Electrons    NEL             ....   26
 Basis Dimension        Dim             ....  123

ORBITAL ENERGIES
----------------

  NO   OCC          E(Eh)            E(eV)
   0   2.0000     -24.754729      -673.6104
   1   2.0000     -10.297684      -280.2142
   2   2.0000     -10.213447      -277.9220
   3   2.0000      -1.227562       -33.4036
   4   2.0000      -0.787412       -21.4266
   5   2.0000      -0.650588       -17.7034
   6   2.0000      -0.522465       -14.2170
   7   2.0000      -0.509964       -13.8768
   8   2.0000      -0.472107       -12.8467
   9   2.0000      -0.418145       -11.3783
  10   2.0000      -0.413039       -11.2394
  11   2.0000      -0.348302        -9.4778
  12   2.0000      -0.342851        -9.3295
  13   0.0000       0.051927         1.4130
  14   0.0000       0.090364         2.4589
  15   0.0000       0.105716         2.8767
  16   0.0000       0.108931         2.9642
  17   0.0000       0.123047         3.3483

MULLIKEN ATOMIC CHARGES
-----------------------
   0 C :   -0.339671
   1 C :    0.017491
   2 H :    0.095191
   3 H :    0.094992
   4 F :   -0.228843
   5 H :    0.123577
   6 H :    0.114563
   7 H :    0.122701
Sum of atomic charges:   -0.0000000

LOEWDIN ATOMIC CHARGES
----------------------
   0 C :   -0.314107
   1 C :   -0.370089
   2 H :    0.117913
   3 H :    0.117120
   4 F :    0.090951
   5 H :    0.118349
   6 H :    0.122355
   7 H :    0.117508

  Mayer bond orders larger than 0.100000
B(  0-C ,  1-C ) :   1.0139 B(  0-C ,  5-H ) :   0.9672 B(  0-C ,  6-H ) :   0.9561
B(  0-C ,  7-H ) :   0.9684 B(  1-C ,  2-H ) :   0.9664 B(  1-C ,  3-H ) :   0.9667
B(  1-C ,  4-F ) :   1.0041

Dispersion correction           -0.002811665
FINAL SINGLE POINT ENERGY      -178.938300532675

DIPOLE MOMENT
-------------
                                X             Y             Z
Electronic contribution:      5.04298      -0.74712      -0.43463
Nuclear contribution   :     -5.66833       1.07099       0.52006
                        -----------------------------------------
Total Dipole Moment    :     -0.62535       0.32387       0.08543
                        -----------------------------------------
Magnitude (a.u.)       :      0.70941
Magnitude (Debye)      :      1.80317

Rotational constants in cm-1:     1.245689     0.305293     0.269541
Rotational constants in MHz : 37344.801915  9152.442838  8080.640229

                             ****ORCA TERMINATED NORMALLY****
TOTAL RUN TIME: 0 days 0 hours 0 minutes 10 seconds 846 msec
