                         Program Version 5.0.0 -  RELEASE  -
|  1> !PBE0 D3BJ RIJCOSX def2-TZVP def2/J TightSCF
|  2> *xyz 0 1
|  3> C          1.63556       -1.67040       -5.29211
|  4> C          0.33848       -1.50091       -4.50540
|  5> C          2.48451       -0.50741       -5.14039
|  6> H          1.39834       -1.82924       -6.35259
|  7> H          2.15586       -2.56540       -4.93209
|  8> C          3.45115       -0.14953       -5.95259
|  9> N          3.92267        1.08956       -5.85071
| 10> N          3.96616       -1.00618       -6.86788
| 11> H          3.52139       -1.90647       -6.99527
| 12> H          4.44482       -0.62347       -7.67035
| 13> H          2.25200        0.24080       -4.49879
| 14> H          3.46428        1.64078       -5.13639
| 15> H          4.83447        1.31375       -6.22465
| 16> H         -0.17658       -0.62881       -4.85045
| 17> H          0.56384       -1.39374       -3.46490
| 18> H         -0.28102       -2.36136       -4.64938
| 19> *
| 20>
| 21> %MaxCore 64000
| 22>
| 23> %pal nprocs 4
| 24> end
| 25>
| 26> %scf
| 27>   MaxIter 150
| 28> end
| 29>
| 30>
| 31>                          ****END OF INPUT****

CARTESIAN COORDINATES (ANGSTROEM)
---------------------------------
  C      1.635560   -1.670400   -5.292110
  C      0.338480   -1.500910   -4.505400
  C      2.484510   -0.507410   -5.140390
  H      1.398340   -1.829240   -6.352590
  H      2.155860   -2.565400   -4.932090
  C      3.451150   -0.149530   -5.952590
  N      3.922670    1.089560   -5.850710
  N      3.966160   -1.006180   -6.867880
  H      3.521390   -1.906470   -6.995270
  H      4.444820   -0.623470   -7.670350
  H      2.252000    0.240800   -4.498790
  H      3.464280    1.640780   -5.136390
  H      4.834470    1.313750   -6.224650
  H     -0.176580   -0.628810   -4.850450
  H      0.563840   -1.393740   -3.464900
  H     -0.281020   -2.361360   -4.649380

 Total Charge           Charge          ....    0
 Multiplicity           Mult            ....    1
 Number of Electrons    NEL             ....   48
 Basis Dimension        Dim             ....  246

ORBITAL ENERGIES
----------------

  NO   OCC          E(Eh)            E(eV)
   0   2.0000     -14.381381      -391.3373
   1   2.0000     -14.376423      -391.2024
   2   2.0000     -10.256790      -279.1014
   3   2.0000     -10.196636      -277.4646
   4   2.0000     -10.185698      -277.1669
   5   2.0000     -10.140657      -275.9413
   6   2.0000      -0.982954       -26.7475
   7   2.0000      -0.893830       -24.3224
   8   2.0000      -0.798339       -21.7239
   9   2.0000      -0.718125       -19.5412
  10   2.0000      -0.629018       -17.1165
  11   2.0000      -0.595500       -16.2044
  12   2.0000      -0.547753       -14.9051
  13   2.0000      -0.527005       -14.3405
  14   2.0000      -0.479019       -13.0348
  15   2.0000      -0.452726       -12.3193
  16   2.0000      -0.440177       -11.9778
  17   2.0000      -0.406990       -11.0747
  18   2.0000      -0.389602       -10.6016
  19   2.0000      -0.351889        -9.5754
  20   2.0000      -0.341051        -9.2805
  21   2.0000      -0.340050        -9.2532
  22   2.0000      -0.274518        -7.4700
  23   2.0000      -0.171120        -4.6564
  24   0.0000       0.033609         0.9145
  25   0.0000       0.061554         1.6750
  26   0.0000       0.073468         1.9992
  27   0.0000       0.083871         2.2822
  28   0.0000       0.090803         2.4709

MULLIKEN ATOMIC CHARGES
-----------------------
   0 C :   -0.184093
   1 C :   -0.370076
   2 C :   -0.287687
   3 H :    0.077838
   4 H :    0.094696
   5 C :    0.293194
   6 N :   -0.473882
   7 N :   -0.494811
   8 H :    0.249187
   9 H :    0.223636
  10 H :    0.065368
  11 H :    0.240314
  12 H :    0.225728
  13 H :    0.112258
  14 H :    0.115255
  15 H :    0.113076
Sum of atomic charges:    0.0000000

LOEWDIN ATOMIC CHARGES
----------------------
   0 C :   -0.310757
   1 C :   -0.302280
   2 C :   -0.288739
   3 H :    0.129985
   4 H :    0.131879
   5 C :   -0.463094
   6 N :   -0.019138
   7 N :   -0.025537
   8 H :    0.174172
   9 H :    0.159577
  10 H :    0.125426
  11 H :    0.181499
  12 H :    0.161474
  13 H :    0.115899
  14 H :    0.117081
  15 H :    0.112553

  Mayer bond orders larger than 0.100000
B(  0-C ,  1-C ) :   0.9988 B(  0-C ,  2-C ) :   1.0064 B(  0-C ,  3-H ) :   0.9605
B(  0-C ,  4-H ) :   0.9588 B(  1-C , 13-H ) :   0.9768 B(  1-C , 14-H ) :   0.9782
B(  1-C , 15-H ) :   0.9766 B(  2-C ,  5-C ) :   1.6668 B(  2-C , 10-H ) :   0.9947
B(  5-C ,  6-N ) :   1.1867 B(  5-C ,  7-N ) :   1.1653 B(  6-N , 11-H ) :   0.9135
B(  6-N , 12-H ) :   0.9128 B(  7-N ,  8-H ) :   0.9151 B(  7-N ,  9-H ) :   0.9154

Dispersion correction           -0.010530562
FINAL SINGLE POINT ENERGY      -267.705833972010

DIPOLE MOMENT
-------------
                                X             Y             Z
Electronic contribution:      4.57418       2.18931      -1.94424
Nuclear contribution   :     -3.99655      -1.83277       1.34879
                        -----------------------------------------
Total Dipole Moment    :      0.57764       0.35654      -0.59545
                        -----------------------------------------
Magnitude (a.u.)       :      0.90297
Magnitude (Debye)      :      2.29516

Rotational constants in cm-1:     0.262971     0.067064     0.055026
Rotational constants in MHz :  7883.664566  2010.513309  1649.636654

                             ****ORCA TERMINATED NORMALLY****
TOTAL RUN TIME: 0 days 0 hours 0 minutes 35 seconds 257 msec
