                         Program Version 5.0.0 -  RELEASE  -
|  1> !PBE0 D3BJ RIJCOSX def2-TZVP def2/J TightSCF
|  2> *xyz 0 1
|  3> C          1.63556       -1.67040       -5.29211
|  4> C          0.33848       -1.50091       -4.50540
|  5> N          2.48451       -0.50741       -5.14039
|  6> H          1.39834       -1.82924       -6.35259
|  7> H          2.15586       -2.56540       -4.93209
|  8> C          3.45115       -0.14953       -5.95259
|  9> C          3.92267        1.08956       -5.85071
| 10> N          3.96616       -1.00618       -6.86788
| 11> H          3.52139       -1.90647       -6.99527
| 12> H          4.44482       -0.62347       -7.67035
| 13> H          2.25200        0.24080       -4.49879
| 14> H          3.46428        1.64078       -5.13639
| 15> H          4.83447        1.31375       -6.22465
| 16> H         -0.17658       -0.62881       -4.85045
| 17> H          0.56384       -1.39374       -3.46490
| 18> H         -0.28102       -2.36136       -4.64938
| 19> *
| 20>
| 21> %MaxCore 64000
| 22>
| 23> %pal nprocs 4
| 24> end
| 25>
| 26> %scf
| 27>   MaxIter 150
| 28> end
| 29>
| 30>
| 31>                          ****END OF INPUT****

CARTESIAN COORDINATES (ANGSTROEM)
---------------------------------
  C      1.635560   -1.670400   -5.292110
  C      0.338480   -1.500910   -4.505400
  N      2.484510   -0.507410   -5.140390
  H      1.398340   -1.829240   -6.352590
  H      2.155860   -2.565400   -4.932090
  C      3.451150   -0.149530   -5.952590
  C      3.922670    1.089560   -5.850710
  N      3.966160   -1.006180   -6.867880
  H      3.521390   -1.906470   -6.995270
  H      4.444820   -0.623470   -7.670350
  H      2.252000    0.240800   -4.498790
  H      3.464280    1.640780   -5.136390
  H      4.834470    1.313750   -6.224650
  H     -0.176580   -0.628810   -4.850450
  H      0.563840   -1.393740   -3.464900
  H     -0.281020   -2.361360   -4.649380

 Total Charge           Charge          ....    0
 Multiplicity           Mult            ....    1
 Number of Electrons    NEL             ....   48
 Basis Dimension        Dim             ....  246

ORBITAL ENERGIES
----------------

  NO   OCC          E(Eh)            E(eV)
   0   2.0000     -14.384256      -391.4155
   1   2.0000     -14.380123      -391.3030
   2   2.0000     -10.263303      -279.2787
   3   2.0000     -10.261718      -279.2355
   4   2.0000     -10.219196      -278.0785
   5   2.0000     -10.126816      -275.5647
   6   2.0000      -0.996524       -27.1168
   7   2.0000      -0.907869       -24.7044
   8   2.0000      -0.801433       -21.8081
   9   2.0000      -0.723853       -19.6970
  10   2.0000      -0.647992       -17.6328
  11   2.0000      -0.613390       -16.6912
  12   2.0000      -0.549273       -14.9465
  13   2.0000      -0.511677       -13.9234
  14   2.0000      -0.494771       -13.4634
  15   2.0000      -0.476948       -12.9784
  16   2.0000      -0.432372       -11.7654
  17   2.0000      -0.409130       -11.1330
  18   2.0000      -0.392090       -10.6693
  19   2.0000      -0.388411       -10.5692
  20   2.0000      -0.387090       -10.5333
  21   2.0000      -0.360652        -9.8138
  22   2.0000      -0.268872        -7.3164
  23   2.0000      -0.169972        -4.6252
  24   0.0000       0.034414         0.9365
  25   0.0000       0.055492         1.5100
  26   0.0000       0.064520         1.7557
  27   0.0000       0.080397         2.1877
  28   0.0000       0.096861         2.6357

MULLIKEN ATOMIC CHARGES
-----------------------
   0 C :   -0.111455
   1 C :   -0.388924
   2 N :   -0.274955
   3 H :    0.102004
   4 H :    0.114033
   5 C :    0.345552
   6 C :   -0.551304
   7 N :   -0.495782
   8 H :    0.231362
   9 H :    0.251620
  10 H :    0.220083
  11 H :    0.066423
  12 H :    0.107302
  13 H :    0.129299
  14 H :    0.127932
  15 H :    0.126808
Sum of atomic charges:   -0.0000000

LOEWDIN ATOMIC CHARGES
----------------------
   0 C :   -0.318943
   1 C :   -0.304549
   2 N :    0.120483
   3 H :    0.126626
   4 H :    0.125474
   5 C :   -0.466659
   6 C :   -0.352778
   7 N :   -0.022442
   8 H :    0.160621
   9 H :    0.175600
  10 H :    0.200442
  11 H :    0.097526
  12 H :    0.097272
  13 H :    0.119732
  14 H :    0.119244
  15 H :    0.122351

  Mayer bond orders larger than 0.100000
B(  0-C ,  1-C ) :   1.0121 B(  0-C ,  2-N ) :   0.9550 B(  0-C ,  3-H ) :   0.9538
B(  0-C ,  4-H ) :   0.9468 B(  1-C , 13-H ) :   0.9728 B(  1-C , 14-H ) :   0.9737
B(  1-C , 15-H ) :   0.9703 B(  2-N ,  5-C ) :   1.2290 B(  2-N , 10-H ) :   0.9152
B(  5-C ,  6-C ) :   1.6254 B(  5-C ,  7-N ) :   1.1347 B(  6-C , 11-H ) :   0.9997
B(  6-C , 12-H ) :   0.9896 B(  7-N ,  8-H ) :   0.9207 B(  7-N ,  9-H ) :   0.9150

Dispersion correction           -0.010433951
FINAL SINGLE POINT ENERGY      -267.694359011392

DIPOLE MOMENT
-------------
                                X             Y             Z
Electronic contribution:      2.96289       0.53264      -1.29605
Nuclear contribution   :     -3.69145      -1.49398       1.19810
                        -----------------------------------------
Total Dipole Moment    :     -0.72856      -0.96134      -0.09795
                        -----------------------------------------
Magnitude (a.u.)       :      1.21019
Magnitude (Debye)      :      3.07607

Rotational constants in cm-1:     0.270790     0.068966     0.056679
Rotational constants in MHz :  8118.084803  2067.559423  1699.196934

                             ****ORCA TERMINATED NORMALLY****
TOTAL RUN TIME: 0 days 0 hours 0 minutes 34 seconds 961 msec
