                         Program Version 5.0.0 -  RELEASE  -
|  1> !PBE0 D3BJ RIJCOSX def2-TZVP def2/J TightSCF
|  2> *xyz 0 1
|  3> C          1.63556       -1.67040       -5.29211
|  4> C          0.33848       -1.50091       -4.50540
|  5> N          2.48451       -0.50741       -5.14039
|  6> H          1.39834       -1.82924       -6.35259
|  7> H          2.15586       -2.56540       -4.93209
|  8> C          3.45115       -0.14953       -5.95259
|  9> N          3.92267        1.08956       -5.85071
| 10> C          3.96616       -1.00618       -6.86788
| 11> H          3.52139       -1.90647       -6.99527
| 12> H          4.44482       -0.62347       -7.67035
| 13> H          2.25200        0.24080       -4.49879
| 14> H          3.46428        1.64078       -5.13639
| 15> H          4.83447        1.31375       -6.22465
| 16> H         -0.17658       -0.62881       -4.85045
| 17> H          0.56384       -1.39374       -3.46490
| 18> H         -0.28102       -2.36136       -4.64938
| 19> *
| 20>
| 21> %MaxCore 64000
| 22>
| 23> %pal nprocs 4
| 24> end
| 25>
| 26> %scf
| 27>   MaxIter 150
| 28> end
| 29>
| 30>
| 31>                          ****END OF INPUT****

CARTESIAN COORDINATES (ANGSTROEM)
---------------------------------
  C      1.635560   -1.670400   -5.292110
  C      0.338480   -1.500910   -4.505400
  N      2.484510   -0.507410   -5.140390
  H      1.398340   -1.829240   -6.352590
  H      2.155860   -2.565400   -4.932090
  C      3.451150   -0.149530   -5.952590
  N      3.922670    1.089560   -5.850710
  C      3.966160   -1.006180   -6.867880
  H      3.521390   -1.906470   -6.995270
  H      4.444820   -0.623470   -7.670350
  H      2.252000    0.240800   -4.498790
  H      3.464280    1.640780   -5.136390
  H      4.834470    1.313750   -6.224650
  H     -0.176580   -0.628810   -4.850450
  H      0.563840   -1.393740   -3.464900
  H     -0.281020   -2.361360   -4.649380

 Total Charge           Charge          ....    0
 Multiplicity           Mult            ....    1
 Number of Electrons    NEL             ....   48
 Basis Dimension        Dim             ....  246

ORBITAL ENERGIES
----------------

  NO   OCC          E(Eh)            E(eV)
   0   2.0000     -14.390134      -391.5754
   1   2.0000     -14.382465      -391.3668
   2   2.0000     -10.262977      -279.2698
   3   2.0000     -10.256162      -279.0844
   4   2.0000     -10.215279      -277.9719
   5   2.0000     -10.127903      -275.5942
   6   2.0000      -1.005027       -27.3482
   7   2.0000      -0.913052       -24.8454
   8   2.0000      -0.787355       -21.4250
   9   2.0000      -0.723653       -19.6916
  10   2.0000      -0.664626       -18.0854
  11   2.0000      -0.584846       -15.9145
  12   2.0000      -0.551200       -14.9989
  13   2.0000      -0.539674       -14.6853
  14   2.0000      -0.488768       -13.3001
  15   2.0000      -0.480459       -13.0740
  16   2.0000      -0.414070       -11.2674
  17   2.0000      -0.408230       -11.1085
  18   2.0000      -0.404680       -11.0119
  19   2.0000      -0.382103       -10.3976
  20   2.0000      -0.373625       -10.1669
  21   2.0000      -0.361470        -9.8361
  22   2.0000      -0.262971        -7.1558
  23   2.0000      -0.173533        -4.7221
  24   0.0000       0.028013         0.7623
  25   0.0000       0.051759         1.4084
  26   0.0000       0.071504         1.9457
  27   0.0000       0.085450         2.3252
  28   0.0000       0.099294         2.7019

MULLIKEN ATOMIC CHARGES
-----------------------
   0 C :   -0.090332
   1 C :   -0.379700
   2 N :   -0.283571
   3 H :    0.119100
   4 H :    0.116266
   5 C :    0.320083
   6 N :   -0.467078
   7 C :   -0.555348
   8 H :    0.097925
   9 H :    0.099754
  10 H :    0.183285
  11 H :    0.208394
  12 H :    0.257046
  13 H :    0.122986
  14 H :    0.122374
  15 H :    0.128817
Sum of atomic charges:   -0.0000000

LOEWDIN ATOMIC CHARGES
----------------------
   0 C :   -0.300447
   1 C :   -0.307475
   2 N :    0.121501
   3 H :    0.135693
   4 H :    0.130637
   5 C :   -0.478935
   6 N :   -0.012198
   7 C :   -0.361315
   8 H :    0.096760
   9 H :    0.095332
  10 H :    0.180516
  11 H :    0.162242
  12 H :    0.180389
  13 H :    0.117131
  14 H :    0.116935
  15 H :    0.123233

  Mayer bond orders larger than 0.100000
B(  0-C ,  1-C ) :   0.9946 B(  0-C ,  2-N ) :   0.9453 B(  0-C ,  3-H ) :   0.9593
B(  0-C ,  4-H ) :   0.9554 B(  1-C , 13-H ) :   0.9731 B(  1-C , 14-H ) :   0.9733
B(  1-C , 15-H ) :   0.9718 B(  2-N ,  5-C ) :   1.1949 B(  2-N , 10-H ) :   0.9234
B(  5-C ,  6-N ) :   1.1544 B(  5-C ,  7-C ) :   1.6287 B(  6-N , 11-H ) :   0.9219
B(  6-N , 12-H ) :   0.9100 B(  7-C ,  8-H ) :   0.9975 B(  7-C ,  9-H ) :   0.9895

Dispersion correction           -0.010470985
FINAL SINGLE POINT ENERGY      -267.694431153265

DIPOLE MOMENT
-------------
                                X             Y             Z
Electronic contribution:      3.01995       2.67991      -0.16885
Nuclear contribution   :     -3.68222      -1.93858       0.98231
                        -----------------------------------------
Total Dipole Moment    :     -0.66228       0.74133       0.81346
                        -----------------------------------------
Magnitude (a.u.)       :      1.28449
Magnitude (Debye)      :      3.26491

Rotational constants in cm-1:     0.275407     0.068040     0.056255
Rotational constants in MHz :  8256.498401  2039.796466  1686.484500

                             ****ORCA TERMINATED NORMALLY****
TOTAL RUN TIME: 0 days 0 hours 0 minutes 24 seconds 585 msec
