                         Program Version 5.0.0 -  RELEASE  -
|  1> !PBE0 D3BJ RIJCOSX def2-TZVP def2/J TightSCF xyzfile
|  2>
|  3> *xyzfile 0 1 D3.xyz
|  4>
|  5> %MaxCore 64000
|  6>
|  7> %pal nprocs 18
|  8> end
|  9>
| 10> %scf
| 11>   MaxIter 150
| 12> end
| 13>
| 14>
| 15>                          ****END OF INPUT****

CARTESIAN COORDINATES (ANGSTROEM)
---------------------------------
  C      1.635557   -1.670396   -5.292109
  C      0.338484   -1.500907   -4.505398
  N      2.484511   -0.507410   -5.140392
  C     -0.684873   -0.528026   -5.099889
  C     -0.290406    0.951335   -5.153423
  H      0.607991    1.070692   -5.764412
  C     -0.055168    1.619420   -3.788577
  H     -1.080912    1.483775   -5.689436
  H      0.045006    0.862302   -3.003015
  H     -0.922936    2.230329   -3.517028
  C      1.223022    2.469865   -3.756911
  H      1.114701    3.258074   -4.532999
  H      1.237732    3.011242   -2.792157
  F      2.353815    1.712032   -3.934477
  H      1.398337   -1.829239   -6.352591
  H      2.155864   -2.565398   -4.932091
  C      3.451149   -0.149530   -5.952589
  N      3.922667    1.089559   -5.850711
  C      3.966162   -1.006183   -6.867880
  H      3.521391   -1.906467   -6.995270
  H      4.444824   -0.623472   -7.670348
  H      2.251995    0.240804   -4.498792
  H      3.464277    1.640782   -5.136392
  H      4.834470    1.313745   -6.224653
  H     -0.937999   -0.869056   -6.110838
  H     -1.604638   -0.622496   -4.513132
  H      0.594887   -1.211578   -3.482312
  H     -0.126530   -2.487656   -4.434176

 Total Charge           Charge          ....    0
 Multiplicity           Mult            ....    1
 Number of Electrons    NEL             ....   88
 Basis Dimension        Dim             ....  443

ORBITAL ENERGIES
----------------

  NO   OCC          E(Eh)            E(eV)
   0   2.0000     -24.815198      -675.2559
   1   2.0000     -14.360928      -390.7807
   2   2.0000     -14.354689      -390.6109
   3   2.0000     -10.327153      -281.0161
   4   2.0000     -10.245784      -278.8020
   5   2.0000     -10.244154      -278.7576
   6   2.0000     -10.242328      -278.7079
   7   2.0000     -10.228680      -278.3365
   8   2.0000     -10.225587      -278.2524
   9   2.0000     -10.222469      -278.1675
  10   2.0000     -10.111648      -275.1519
  11   2.0000      -1.295448       -35.2509
  12   2.0000      -0.984103       -26.7788
  13   2.0000      -0.894171       -24.3316
  14   2.0000      -0.847828       -23.0706
  15   2.0000      -0.803927       -21.8760
  16   2.0000      -0.751652       -20.4535
  17   2.0000      -0.714774       -19.4500
  18   2.0000      -0.680956       -18.5298
  19   2.0000      -0.653853       -17.7922
  20   2.0000      -0.596943       -16.2436
  21   2.0000      -0.586359       -15.9556
  22   2.0000      -0.575607       -15.6631
  23   2.0000      -0.549437       -14.9509
  24   2.0000      -0.545127       -14.8337
  25   2.0000      -0.512858       -13.9556
  26   2.0000      -0.504802       -13.7364
  27   2.0000      -0.488606       -13.2957
  28   2.0000      -0.477083       -12.9821
  29   2.0000      -0.449944       -12.2436
  30   2.0000      -0.441936       -12.0257
  31   2.0000      -0.432807       -11.7773
  32   2.0000      -0.414509       -11.2794
  33   2.0000      -0.390125       -10.6159
  34   2.0000      -0.388572       -10.5736
  35   2.0000      -0.376000       -10.2315
  36   2.0000      -0.371433       -10.1072
  37   2.0000      -0.366015        -9.9598
  38   2.0000      -0.354417        -9.6442
  39   2.0000      -0.344428        -9.3724
  40   2.0000      -0.335280        -9.1234
  41   2.0000      -0.332140        -9.0380
  42   2.0000      -0.240930        -6.5560
  43   2.0000      -0.156745        -4.2652
  44   0.0000       0.031900         0.8680
  45   0.0000       0.048346         1.3156
  46   0.0000       0.054366         1.4794
  47   0.0000       0.062321         1.6958
  48   0.0000       0.070399         1.9156

MULLIKEN ATOMIC CHARGES
-----------------------
   0 C :   -0.102275
   1 C :   -0.226543
   2 N :   -0.288851
   3 C :   -0.187667
   4 C :   -0.262715
   5 H :    0.148958
   6 C :   -0.224120
   7 H :    0.110392
   8 H :    0.120912
   9 H :    0.127987
  10 C :   -0.014648
  11 H :    0.121841
  12 H :    0.124093
  13 F :   -0.233564
  14 H :    0.102613
  15 H :    0.114788
  16 C :    0.302030
  17 N :   -0.499047
  18 C :   -0.564376
  19 H :    0.091653
  20 H :    0.092642
  21 H :    0.223176
  22 H :    0.241276
  23 H :    0.242313
  24 H :    0.108110
  25 H :    0.106023
  26 H :    0.106884
  27 H :    0.118112
Sum of atomic charges:   -0.0000000

LOEWDIN ATOMIC CHARGES
----------------------
   0 C :   -0.280150
   1 C :   -0.275546
   2 N :    0.122610
   3 C :   -0.271216
   4 C :   -0.276218
   5 H :    0.145654
   6 C :   -0.275076
   7 H :    0.138072
   8 H :    0.142720
   9 H :    0.147024
  10 C :   -0.340217
  11 H :    0.131566
  12 H :    0.129311
  13 F :    0.139104
  14 H :    0.136339
  15 H :    0.131742
  16 C :   -0.483077
  17 N :   -0.021980
  18 C :   -0.373502
  19 H :    0.094244
  20 H :    0.092602
  21 H :    0.163093
  22 H :    0.149279
  23 H :    0.173610
  24 H :    0.142425
  25 H :    0.139288
  26 H :    0.134225
  27 H :    0.144075

  Mayer bond orders larger than 0.100000
B(  0-C ,  1-C ) :   1.0014 B(  0-C ,  2-N ) :   0.9557 B(  0-C , 14-H ) :   0.9525
B(  0-C , 15-H ) :   0.9568 B(  1-C ,  3-C ) :   1.0092 B(  1-C , 26-H ) :   0.9688
B(  1-C , 27-H ) :   0.9596 B(  2-N , 16-C ) :   1.2047 B(  2-N , 21-H ) :   0.8880
B(  3-C ,  4-C ) :   1.0021 B(  3-C , 24-H ) :   0.9529 B(  3-C , 25-H ) :   0.9584
B(  4-C ,  5-H ) :   0.9668 B(  4-C ,  6-C ) :   0.9571 B(  4-C ,  7-H ) :   0.9533
B(  6-C ,  8-H ) :   0.9626 B(  6-C ,  9-H ) :   0.9420 B(  6-C , 10-C ) :   1.0125
B( 10-C , 11-H ) :   0.9707 B( 10-C , 12-H ) :   0.9617 B( 10-C , 13-F ) :   0.9038
B( 16-C , 17-N ) :   1.1667 B( 16-C , 18-C ) :   1.6371 B( 17-N , 22-H ) :   0.8857
B( 17-N , 23-H ) :   0.9162 B( 18-C , 19-H ) :   0.9989 B( 18-C , 20-H ) :   0.9928

Dispersion correction           -0.024873866
FINAL SINGLE POINT ENERGY      -523.986357725957

DIPOLE MOMENT
-------------
                                X             Y             Z
Electronic contribution:      6.27969       4.47401       2.81289
Nuclear contribution   :     -7.84660      -3.08098      -1.66782
                        -----------------------------------------
Total Dipole Moment    :     -1.56691       1.39302       1.14507
                        -----------------------------------------
Magnitude (a.u.)       :      2.38891
Magnitude (Debye)      :      6.07213

Rotational constants in cm-1:     0.043547     0.029898     0.020008
Rotational constants in MHz :  1305.520367   896.323854   599.829375

                             ****ORCA TERMINATED NORMALLY****
TOTAL RUN TIME: 0 days 0 hours 0 minutes 41 seconds 628 msec
