                         Program Version 5.0.0 -  RELEASE  -
|  1> !LC-BLYP RIJCOSX def2-SVP def2/J TightSCF
|  2> *xyz -1 1
|  3> C         -7.33044       -2.67899       -3.20681
|  4> S         -6.01966       -2.92697       -4.41913
|  5> O         -5.64583       -1.58838       -4.91931
|  6> O         -4.88196       -3.50370       -3.66724
|  7> O         -6.54927       -3.80515       -5.42507
|  8> C         -7.46900       -1.24615       -2.71383
|  9> H         -7.11825       -3.37982       -2.39805
| 10> H         -8.24184       -3.00474       -3.70651
| 11> H         -7.67580       -0.60214       -3.54292
| 12> H         -6.55749       -0.94096       -2.24382
| 13> H         -8.27114       -1.18777       -2.00810
| 14> *
| 15> %MaxCore 64000
| 16>
| 17> %pal nprocs 4
| 18> end
| 19>
| 20> %scf
| 21>   MaxIter 150
| 22> end
| 23>
| 24>
| 25>                          ****END OF INPUT****

CARTESIAN COORDINATES (ANGSTROEM)
---------------------------------
  C     -7.330440   -2.678990   -3.206810
  S     -6.019660   -2.926970   -4.419130
  O     -5.645830   -1.588380   -4.919310
  O     -4.881960   -3.503700   -3.667240
  O     -6.549270   -3.805150   -5.425070
  C     -7.469000   -1.246150   -2.713830
  H     -7.118250   -3.379820   -2.398050
  H     -8.241840   -3.004740   -3.706510
  H     -7.675800   -0.602140   -3.542920
  H     -6.557490   -0.940960   -2.243820
  H     -8.271140   -1.187770   -2.008100

 Total Charge           Charge          ....   -1
 Multiplicity           Mult            ....    1
 Number of Electrons    NEL             ....   58
 Basis Dimension        Dim             ....  113

ORBITAL ENERGIES
----------------

  NO   OCC          E(Eh)            E(eV)
   0   2.0000     -88.260675     -2401.6951
   1   2.0000     -18.696000      -508.7440
   2   2.0000     -18.685685      -508.4633
   3   2.0000     -18.678913      -508.2791
   4   2.0000      -9.935771      -270.3661
   5   2.0000      -9.930806      -270.2310
   6   2.0000      -7.816917      -212.7091
   7   2.0000      -5.850790      -159.2081
   8   2.0000      -5.850614      -159.2033
   9   2.0000      -5.850423      -159.1981
  10   2.0000      -0.989912       -26.9369
  11   2.0000      -0.841933       -22.9102
  12   2.0000      -0.818206       -22.2645
  13   2.0000      -0.728054       -19.8114
  14   2.0000      -0.600029       -16.3276
  15   2.0000      -0.464444       -12.6382
  16   2.0000      -0.415865       -11.3163
  17   2.0000      -0.395271       -10.7559
  18   2.0000      -0.361257        -9.8303
  19   2.0000      -0.336101        -9.1458
  20   2.0000      -0.329497        -8.9661
  21   2.0000      -0.310719        -8.4551
  22   2.0000      -0.303392        -8.2557
  23   2.0000      -0.211571        -5.7571
  24   2.0000      -0.211247        -5.7483
  25   2.0000      -0.177505        -4.8301
  26   2.0000      -0.171629        -4.6703
  27   2.0000      -0.159829        -4.3492
  28   2.0000      -0.121643        -3.3101
  29   0.0000       0.272790         7.4230
  30   0.0000       0.328528         8.9397
  31   0.0000       0.333356         9.0711
  32   0.0000       0.340703         9.2710
  33   0.0000       0.364238         9.9114

MULLIKEN ATOMIC CHARGES
-----------------------
   0 C :   -0.094182
   1 S :    0.748518
   2 O :   -0.555816
   3 O :   -0.575469
   4 O :   -0.523262
   5 C :    0.041304
   6 H :   -0.000067
   7 H :   -0.008961
   8 H :    0.005015
   9 H :    0.005780
  10 H :   -0.042863
Sum of atomic charges:   -1.0000000

LOEWDIN ATOMIC CHARGES
----------------------
   0 C :   -0.198601
   1 S :    1.078273
   2 O :   -0.627179
   3 O :   -0.642693
   4 O :   -0.592675
   5 C :   -0.084321
   6 H :    0.013107
   7 H :    0.008825
   8 H :    0.020018
   9 H :    0.022016
  10 H :    0.003230

  Mayer bond orders larger than 0.100000
B(  0-C ,  1-S ) :   0.8823 B(  0-C ,  5-C ) :   1.0897 B(  0-C ,  6-H ) :   0.9426
B(  0-C ,  7-H ) :   0.9420 B(  1-S ,  2-O ) :   1.6429 B(  1-S ,  3-O ) :   1.6285
B(  1-S ,  4-O ) :   1.6830 B(  5-C ,  8-H ) :   0.9614 B(  5-C ,  9-H ) :   0.9660
B(  5-C , 10-H ) :   0.9546

FINAL SINGLE POINT ENERGY      -701.866630842216

DIPOLE MOMENT
-------------
                                X             Y             Z
Electronic contribution:      4.78214      -3.56012      -5.19894
Nuclear contribution   :     -6.18165       4.01759       6.33106
                        -----------------------------------------
Total Dipole Moment    :     -1.39951       0.45747       1.13213
                        -----------------------------------------
Magnitude (a.u.)       :      1.85731
Magnitude (Debye)      :      4.72092

Rotational constants in cm-1:     0.161711     0.082788     0.081165
Rotational constants in MHz :  4847.971521  2481.906910  2433.276832

                             ****ORCA TERMINATED NORMALLY****
TOTAL RUN TIME: 0 days 0 hours 0 minutes 15 seconds 2 msec
