                         Program Version 5.0.0 -  RELEASE  -
|  1> !LC-BLYP RIJCOSX def2-SVP def2/J TightSCF
|  2> *xyz 1 1
|  3> C         -2.16038       -1.36949       -3.46710
|  4> N         -3.03011       -1.91086       -4.54107
|  5> C         -2.04772        0.14658       -3.51177
|  6> H         -3.47744       -2.79151       -4.25710
|  7> H         -2.53801       -2.01786       -5.43808
|  8> H         -3.89159       -1.37604       -4.71437
|  9> H         -1.18444       -1.84400       -3.56639
| 10> H         -2.59819       -1.70838       -2.52848
| 11> H         -1.61525        0.44478       -4.44395
| 12> H         -1.42718        0.48198       -2.70720
| 13> H         -3.02145        0.57958       -3.41560
| 14> *
| 15> %MaxCore 64000
| 16>
| 17> %pal nprocs 4
| 18> end
| 19>
| 20> %scf
| 21>   MaxIter 150
| 22> end
| 23>
| 24>
| 25>                          ****END OF INPUT****

CARTESIAN COORDINATES (ANGSTROEM)
---------------------------------
  C     -2.160380   -1.369490   -3.467100
  N     -3.030110   -1.910860   -4.541070
  C     -2.047720    0.146580   -3.511770
  H     -3.477440   -2.791510   -4.257100
  H     -2.538010   -2.017860   -5.438080
  H     -3.891590   -1.376040   -4.714370
  H     -1.184440   -1.844000   -3.566390
  H     -2.598190   -1.708380   -2.528480
  H     -1.615250    0.444780   -4.443950
  H     -1.427180    0.481980   -2.707200
  H     -3.021450    0.579580   -3.415600

 Total Charge           Charge          ....    1
 Multiplicity           Mult            ....    1
 Number of Electrons    NEL             ....   26
 Basis Dimension        Dim             ....   82

ORBITAL ENERGIES
----------------

  NO   OCC          E(Eh)            E(eV)
   0   2.0000     -14.524376      -395.2284
   1   2.0000     -10.338106      -281.3142
   2   2.0000     -10.258566      -279.1498
   3   2.0000      -1.311546       -35.6890
   4   2.0000      -1.069935       -29.1144
   5   2.0000      -0.950471       -25.8636
   6   2.0000      -0.915682       -24.9170
   7   2.0000      -0.875134       -23.8136
   8   2.0000      -0.803172       -21.8554
   9   2.0000      -0.745271       -20.2799
  10   2.0000      -0.681270       -18.5383
  11   2.0000      -0.665697       -18.1145
  12   2.0000      -0.645817       -17.5736
  13   0.0000      -0.114176        -3.1069
  14   0.0000      -0.052226        -1.4211
  15   0.0000      -0.049749        -1.3537
  16   0.0000      -0.017248        -0.4693
  17   0.0000       0.026293         0.7155

MULLIKEN ATOMIC CHARGES
-----------------------
   0 C :   -0.053774
   1 N :    0.011454
   2 C :   -0.020016
   3 H :    0.216113
   4 H :    0.225896
   5 H :    0.206005
   6 H :    0.104769
   7 H :    0.097044
   8 H :    0.059462
   9 H :    0.095590
  10 H :    0.057458
Sum of atomic charges:    1.0000000

LOEWDIN ATOMIC CHARGES
----------------------
   0 C :    0.036582
   1 N :    0.285436
   2 C :   -0.053568
   3 H :    0.154057
   4 H :    0.152384
   5 H :    0.148375
   6 H :    0.061447
   7 H :    0.058177
   8 H :    0.044890
   9 H :    0.068678
  10 H :    0.043541

  Mayer bond orders larger than 0.100000
B(  0-C ,  1-N ) :   0.9352 B(  0-C ,  2-C ) :   1.1086 B(  0-C ,  6-H ) :   0.9505
B(  0-C ,  7-H ) :   0.9536 B(  1-N ,  3-H ) :   0.9324 B(  1-N ,  4-H ) :   0.9317
B(  1-N ,  5-H ) :   0.9307 B(  2-C ,  8-H ) :   0.9690 B(  2-C ,  9-H ) :   0.9544
B(  2-C , 10-H ) :   0.9655

FINAL SINGLE POINT ENERGY      -135.030865213928

DIPOLE MOMENT
-------------
                                X             Y             Z
Electronic contribution:     -0.68973      -1.53975      -0.81945
Nuclear contribution   :     -0.15215       0.37393      -0.04773
                        -----------------------------------------
Total Dipole Moment    :     -0.84188      -1.16581      -0.86718
                        -----------------------------------------
Magnitude (a.u.)       :      1.67925
Magnitude (Debye)      :      4.26832

Rotational constants in cm-1:     1.020762     0.277172     0.247319
Rotational constants in MHz : 30601.664035  8309.399682  7414.438136

                             ****ORCA TERMINATED NORMALLY****
TOTAL RUN TIME: 0 days 0 hours 0 minutes 9 seconds 57 msec
