                         Program Version 5.0.0 -  RELEASE  -
|  1> !LC-BLYP RIJCOSX def2-SVP def2/J TightSCF
|  2> *xyz 0 1
|  3> C         -7.33044       -2.67899       -3.20681
|  4> S         -6.01966       -2.92697       -4.41913
|  5> F         -5.64583       -1.58838       -4.91931
|  6> O         -4.88196       -3.50370       -3.66724
|  7> O         -6.54927       -3.80515       -5.42507
|  8> C         -7.46900       -1.24615       -2.71383
|  9> H         -7.11825       -3.37982       -2.39805
| 10> H         -8.24184       -3.00474       -3.70651
| 11> H         -7.67580       -0.60214       -3.54292
| 12> H         -6.55749       -0.94096       -2.24382
| 13> H         -8.27114       -1.18777       -2.00810
| 14> *
| 15> %MaxCore 64000
| 16>
| 17> %pal nprocs 4
| 18> end
| 19>
| 20> %scf
| 21>   MaxIter 150
| 22> end
| 23>
| 24>
| 25>                          ****END OF INPUT****

CARTESIAN COORDINATES (ANGSTROEM)
---------------------------------
  C     -7.330440   -2.678990   -3.206810
  S     -6.019660   -2.926970   -4.419130
  F     -5.645830   -1.588380   -4.919310
  O     -4.881960   -3.503700   -3.667240
  O     -6.549270   -3.805150   -5.425070
  C     -7.469000   -1.246150   -2.713830
  H     -7.118250   -3.379820   -2.398050
  H     -8.241840   -3.004740   -3.706510
  H     -7.675800   -0.602140   -3.542920
  H     -6.557490   -0.940960   -2.243820
  H     -8.271140   -1.187770   -2.008100

 Total Charge           Charge          ....    0
 Multiplicity           Mult            ....    1
 Number of Electrons    NEL             ....   58
 Basis Dimension        Dim             ....  113

ORBITAL ENERGIES
----------------

  NO   OCC          E(Eh)            E(eV)
   0   2.0000     -88.532904     -2409.1028
   1   2.0000     -24.556638      -668.2201
   2   2.0000     -18.949264      -515.6357
   3   2.0000     -18.932693      -515.1848
   4   2.0000     -10.142761      -275.9986
   5   2.0000     -10.112790      -275.1830
   6   2.0000      -8.091485      -220.1805
   7   2.0000      -6.129736      -166.7986
   8   2.0000      -6.122843      -166.6110
   9   2.0000      -6.121750      -166.5813
  10   2.0000      -1.416812       -38.5534
  11   2.0000      -1.189716       -32.3738
  12   2.0000      -1.082237       -29.4492
  13   2.0000      -0.932290       -25.3689
  14   2.0000      -0.818086       -22.2612
  15   2.0000      -0.774546       -21.0765
  16   2.0000      -0.686304       -18.6753
  17   2.0000      -0.658591       -17.9212
  18   2.0000      -0.629105       -17.1188
  19   2.0000      -0.601815       -16.3762
  20   2.0000      -0.567495       -15.4423
  21   2.0000      -0.548178       -14.9167
  22   2.0000      -0.527534       -14.3549
  23   2.0000      -0.513315       -13.9680
  24   2.0000      -0.493262       -13.4223
  25   2.0000      -0.473251       -12.8778
  26   2.0000      -0.418682       -11.3929
  27   2.0000      -0.404206       -10.9990
  28   2.0000      -0.390142       -10.6163
  29   0.0000       0.095452         2.5974
  30   0.0000       0.141716         3.8563
  31   0.0000       0.159749         4.3470
  32   0.0000       0.165359         4.4996
  33   0.0000       0.177814         4.8386

MULLIKEN ATOMIC CHARGES
-----------------------
   0 C :   -0.129950
   1 S :    0.840588
   2 F :   -0.165537
   3 O :   -0.437925
   4 O :   -0.385518
   5 C :   -0.010889
   6 H :    0.092558
   7 H :    0.073993
   8 H :    0.034804
   9 H :    0.045067
  10 H :    0.042808
Sum of atomic charges:   -0.0000000

LOEWDIN ATOMIC CHARGES
----------------------
   0 C :   -0.156048
   1 S :    1.138574
   2 F :   -0.136114
   3 O :   -0.514023
   4 O :   -0.463509
   5 C :   -0.076343
   6 H :    0.054936
   7 H :    0.043801
   8 H :    0.030790
   9 H :    0.035358
  10 H :    0.042580

  Mayer bond orders larger than 0.100000
B(  0-C ,  1-S ) :   0.9228 B(  0-C ,  5-C ) :   1.0727 B(  0-C ,  6-H ) :   0.9360
B(  0-C ,  7-H ) :   0.9382 B(  1-S ,  2-F ) :   1.0268 B(  1-S ,  3-O ) :   1.7814
B(  1-S ,  4-O ) :   1.8307 B(  5-C ,  8-H ) :   0.9717 B(  5-C ,  9-H ) :   0.9709
B(  5-C , 10-H ) :   0.9597

FINAL SINGLE POINT ENERGY      -726.373248526418

DIPOLE MOMENT
-------------
                                X             Y             Z
Electronic contribution:      5.68868      -1.72967      -6.42711
Nuclear contribution   :     -6.81251       2.87933       7.15058
                        -----------------------------------------
Total Dipole Moment    :     -1.12383       1.14966       0.72347
                        -----------------------------------------
Magnitude (a.u.)       :      1.76298
Magnitude (Debye)      :      4.48115

Rotational constants in cm-1:     0.152543     0.082494     0.078987
Rotational constants in MHz :  4573.135887  2473.116216  2367.980829

                             ****ORCA TERMINATED NORMALLY****
TOTAL RUN TIME: 0 days 0 hours 0 minutes 14 seconds 515 msec
