                         Program Version 5.0.0 -  RELEASE  -
|  1> !LC-BLYP RIJCOSX def2-SVP def2/J TightSCF
|  2> *xyz 0 1
|  3> C         -2.16038       -1.36949       -3.46710
|  4> C         -3.03011       -1.91086       -4.54107
|  5> C         -2.04772        0.14658       -3.51177
|  6> H         -3.47744       -2.79151       -4.25710
|  7> H         -2.53801       -2.01786       -5.43808
|  8> H         -3.89159       -1.37604       -4.71437
|  9> H         -1.18444       -1.84400       -3.56639
| 10> H         -2.59819       -1.70838       -2.52848
| 11> H         -1.61525        0.44478       -4.44395
| 12> H         -1.42718        0.48198       -2.70720
| 13> H         -3.02145        0.57958       -3.41560
| 14> *
| 15> %MaxCore 64000
| 16>
| 17> %pal nprocs 4
| 18> end
| 19>
| 20> %scf
| 21>   MaxIter 150
| 22> end
| 23>
| 24>
| 25>                          ****END OF INPUT****

CARTESIAN COORDINATES (ANGSTROEM)
---------------------------------
  C     -2.160380   -1.369490   -3.467100
  C     -3.030110   -1.910860   -4.541070
  C     -2.047720    0.146580   -3.511770
  H     -3.477440   -2.791510   -4.257100
  H     -2.538010   -2.017860   -5.438080
  H     -3.891590   -1.376040   -4.714370
  H     -1.184440   -1.844000   -3.566390
  H     -2.598190   -1.708380   -2.528480
  H     -1.615250    0.444780   -4.443950
  H     -1.427180    0.481980   -2.707200
  H     -3.021450    0.579580   -3.415600

 Total Charge           Charge          ....    0
 Multiplicity           Mult            ....    1
 Number of Electrons    NEL             ....   26
 Basis Dimension        Dim             ....   82

ORBITAL ENERGIES
----------------

  NO   OCC          E(Eh)            E(eV)
   0   2.0000     -10.070235      -274.0250
   1   2.0000     -10.062458      -273.8134
   2   2.0000     -10.046280      -273.3732
   3   2.0000      -0.891718       -24.2649
   4   2.0000      -0.791364       -21.5341
   5   2.0000      -0.688168       -18.7260
   6   2.0000      -0.573825       -15.6146
   7   2.0000      -0.542650       -14.7663
   8   2.0000      -0.501966       -13.6592
   9   2.0000      -0.491800       -13.3826
  10   2.0000      -0.435917       -11.8619
  11   2.0000      -0.423686       -11.5291
  12   2.0000      -0.421155       -11.4602
  13   0.0000       0.134111         3.6494
  14   0.0000       0.183285         4.9874
  15   0.0000       0.187431         5.1003
  16   0.0000       0.188217         5.1216
  17   0.0000       0.221933         6.0391

MULLIKEN ATOMIC CHARGES
-----------------------
   0 C :   -0.047321
   1 C :    0.059855
   2 C :    0.016492
   3 H :   -0.020153
   4 H :   -0.004600
   5 H :   -0.025522
   6 H :    0.003406
   7 H :   -0.001105
   8 H :    0.006346
   9 H :    0.006539
  10 H :    0.006064
Sum of atomic charges:   -0.0000000

LOEWDIN ATOMIC CHARGES
----------------------
   0 C :   -0.047177
   1 C :   -0.065093
   2 C :   -0.064641
   3 H :    0.022034
   4 H :    0.017982
   5 H :    0.018321
   6 H :    0.024526
   7 H :    0.023180
   8 H :    0.023550
   9 H :    0.024109
  10 H :    0.023208

  Mayer bond orders larger than 0.100000
B(  0-C ,  1-C ) :   1.1139 B(  0-C ,  2-C ) :   1.1088 B(  0-C ,  6-H ) :   0.9547
B(  0-C ,  7-H ) :   0.9563 B(  1-C ,  3-H ) :   0.9540 B(  1-C ,  4-H ) :   0.9677
B(  1-C ,  5-H ) :   0.9559 B(  2-C ,  8-H ) :   0.9743 B(  2-C ,  9-H ) :   0.9680
B(  2-C , 10-H ) :   0.9714

FINAL SINGLE POINT ENERGY      -118.639045580307

DIPOLE MOMENT
-------------
                                X             Y             Z
Electronic contribution:      0.31433      -0.12459       0.27171
Nuclear contribution   :     -0.34625       0.09603      -0.26933
                        -----------------------------------------
Total Dipole Moment    :     -0.03192      -0.02856       0.00237
                        -----------------------------------------
Magnitude (a.u.)       :      0.04289
Magnitude (Debye)      :      0.10903

Rotational constants in cm-1:     1.028617     0.291238     0.258956
Rotational constants in MHz : 30837.159054  8731.095379  7763.318586

                             ****ORCA TERMINATED NORMALLY****
TOTAL RUN TIME: 0 days 0 hours 0 minutes 9 seconds 378 msec
