                         Program Version 5.0.0 -  RELEASE  -
|  1> !LC-BLYP RIJCOSX def2-SVP def2/J TightSCF
|  2> *xyz 0 1
|  3> C         -7.33044       -2.67899       -3.20681
|  4> S         -6.01966       -2.92697       -4.41913
|  5> O         -5.64583       -1.58838       -4.91931
|  6> F         -4.88196       -3.50370       -3.66724
|  7> O         -6.54927       -3.80515       -5.42507
|  8> C         -7.46900       -1.24615       -2.71383
|  9> H         -7.11825       -3.37982       -2.39805
| 10> H         -8.24184       -3.00474       -3.70651
| 11> H         -7.67580       -0.60214       -3.54292
| 12> H         -6.55749       -0.94096       -2.24382
| 13> H         -8.27114       -1.18777       -2.00810
| 14> *
| 15> %MaxCore 64000
| 16>
| 17> %pal nprocs 4
| 18> end
| 19>
| 20> %scf
| 21>   MaxIter 150
| 22> end
| 23>
| 24>
| 25>                          ****END OF INPUT****

CARTESIAN COORDINATES (ANGSTROEM)
---------------------------------
  C     -7.330440   -2.678990   -3.206810
  S     -6.019660   -2.926970   -4.419130
  O     -5.645830   -1.588380   -4.919310
  F     -4.881960   -3.503700   -3.667240
  O     -6.549270   -3.805150   -5.425070
  C     -7.469000   -1.246150   -2.713830
  H     -7.118250   -3.379820   -2.398050
  H     -8.241840   -3.004740   -3.706510
  H     -7.675800   -0.602140   -3.542920
  H     -6.557490   -0.940960   -2.243820
  H     -8.271140   -1.187770   -2.008100

 Total Charge           Charge          ....    0
 Multiplicity           Mult            ....    1
 Number of Electrons    NEL             ....   58
 Basis Dimension        Dim             ....  113

ORBITAL ENERGIES
----------------

  NO   OCC          E(Eh)            E(eV)
   0   2.0000     -88.533911     -2409.1302
   1   2.0000     -24.552550      -668.1088
   2   2.0000     -18.949839      -515.6513
   3   2.0000     -18.938645      -515.3467
   4   2.0000     -10.143393      -276.0158
   5   2.0000     -10.103313      -274.9251
   6   2.0000      -8.092422      -220.2060
   7   2.0000      -6.130538      -166.8204
   8   2.0000      -6.123832      -166.6379
   9   2.0000      -6.122809      -166.6101
  10   2.0000      -1.412541       -38.4372
  11   2.0000      -1.191447       -32.4209
  12   2.0000      -1.087092       -29.5813
  13   2.0000      -0.927607       -25.2415
  14   2.0000      -0.819671       -22.3044
  15   2.0000      -0.766478       -20.8569
  16   2.0000      -0.676326       -18.4038
  17   2.0000      -0.653831       -17.7917
  18   2.0000      -0.640373       -17.4254
  19   2.0000      -0.594305       -16.1719
  20   2.0000      -0.575522       -15.6607
  21   2.0000      -0.544941       -14.8286
  22   2.0000      -0.519905       -14.1473
  23   2.0000      -0.500596       -13.6219
  24   2.0000      -0.492650       -13.4057
  25   2.0000      -0.472854       -12.8670
  26   2.0000      -0.418810       -11.3964
  27   2.0000      -0.412055       -11.2126
  28   2.0000      -0.394499       -10.7349
  29   0.0000       0.110442         3.0053
  30   0.0000       0.123636         3.3643
  31   0.0000       0.154659         4.2085
  32   0.0000       0.168955         4.5975
  33   0.0000       0.182490         4.9658

MULLIKEN ATOMIC CHARGES
-----------------------
   0 C :   -0.147662
   1 S :    0.843869
   2 O :   -0.424806
   3 F :   -0.173921
   4 O :   -0.387635
   5 C :    0.023301
   6 H :    0.062323
   7 H :    0.085507
   8 H :    0.052943
   9 H :    0.034116
  10 H :    0.031966
Sum of atomic charges:   -0.0000000

LOEWDIN ATOMIC CHARGES
----------------------
   0 C :   -0.162661
   1 S :    1.139235
   2 O :   -0.501783
   3 F :   -0.144362
   4 O :   -0.464331
   5 C :   -0.067741
   6 H :    0.037580
   7 H :    0.051789
   8 H :    0.039883
   9 H :    0.034169
  10 H :    0.038221

  Mayer bond orders larger than 0.100000
B(  0-C ,  1-S ) :   0.9061 B(  0-C ,  5-C ) :   1.0816 B(  0-C ,  6-H ) :   0.9357
B(  0-C ,  7-H ) :   0.9372 B(  1-S ,  2-O ) :   1.7959 B(  1-S ,  3-F ) :   1.0195
B(  1-S ,  4-O ) :   1.8326 B(  5-C ,  8-H ) :   0.9652 B(  5-C ,  9-H ) :   0.9700
B(  5-C , 10-H ) :   0.9569

FINAL SINGLE POINT ENERGY      -726.377406637548

DIPOLE MOMENT
-------------
                                X             Y             Z
Electronic contribution:      7.03163      -5.01825      -4.31994
Nuclear contribution   :     -7.60849       4.87515       5.84588
                        -----------------------------------------
Total Dipole Moment    :     -0.57686      -0.14309       1.52594
                        -----------------------------------------
Magnitude (a.u.)       :      1.63760
Magnitude (Debye)      :      4.16244

Rotational constants in cm-1:     0.153704     0.080342     0.079431
Rotational constants in MHz :  4607.928650  2408.599360  2381.267225

                             ****ORCA TERMINATED NORMALLY****
TOTAL RUN TIME: 0 days 0 hours 0 minutes 14 seconds 363 msec
