                         Program Version 5.0.0 -  RELEASE  -
|  1> !LC-BLYP RIJCOSX def2-SVP def2/J TightSCF
|  2> *xyz 0 1
|  3> C         -7.33044       -2.67899       -3.20681
|  4> S         -6.01966       -2.92697       -4.41913
|  5> O         -5.64583       -1.58838       -4.91931
|  6> O         -4.88196       -3.50370       -3.66724
|  7> F         -6.54927       -3.80515       -5.42507
|  8> C         -7.46900       -1.24615       -2.71383
|  9> H         -7.11825       -3.37982       -2.39805
| 10> H         -8.24184       -3.00474       -3.70651
| 11> H         -7.67580       -0.60214       -3.54292
| 12> H         -6.55749       -0.94096       -2.24382
| 13> H         -8.27114       -1.18777       -2.00810
| 14> *
| 15> %MaxCore 64000
| 16>
| 17> %pal nprocs 4
| 18> end
| 19>
| 20> %scf
| 21>   MaxIter 150
| 22> end
| 23>
| 24>
| 25>                          ****END OF INPUT****

CARTESIAN COORDINATES (ANGSTROEM)
---------------------------------
  C     -7.330440   -2.678990   -3.206810
  S     -6.019660   -2.926970   -4.419130
  O     -5.645830   -1.588380   -4.919310
  O     -4.881960   -3.503700   -3.667240
  F     -6.549270   -3.805150   -5.425070
  C     -7.469000   -1.246150   -2.713830
  H     -7.118250   -3.379820   -2.398050
  H     -8.241840   -3.004740   -3.706510
  H     -7.675800   -0.602140   -3.542920
  H     -6.557490   -0.940960   -2.243820
  H     -8.271140   -1.187770   -2.008100

 Total Charge           Charge          ....    0
 Multiplicity           Mult            ....    1
 Number of Electrons    NEL             ....   58
 Basis Dimension        Dim             ....  113

ORBITAL ENERGIES
----------------

  NO   OCC          E(Eh)            E(eV)
   0   2.0000     -88.535114     -2409.1629
   1   2.0000     -24.575231      -668.7260
   2   2.0000     -18.938212      -515.3350
   3   2.0000     -18.933468      -515.2059
   4   2.0000     -10.144069      -276.0341
   5   2.0000     -10.103212      -274.9224
   6   2.0000      -8.093830      -220.2443
   7   2.0000      -6.132160      -166.8646
   8   2.0000      -6.124999      -166.6697
   9   2.0000      -6.123947      -166.6411
  10   2.0000      -1.450006       -39.4567
  11   2.0000      -1.176121       -32.0039
  12   2.0000      -1.068622       -29.0787
  13   2.0000      -0.927509       -25.2388
  14   2.0000      -0.831921       -22.6377
  15   2.0000      -0.775642       -21.1063
  16   2.0000      -0.687800       -18.7160
  17   2.0000      -0.681158       -18.5352
  18   2.0000      -0.646931       -17.6039
  19   2.0000      -0.597867       -16.2688
  20   2.0000      -0.572964       -15.5912
  21   2.0000      -0.535445       -14.5702
  22   2.0000      -0.515477       -14.0268
  23   2.0000      -0.503248       -13.6941
  24   2.0000      -0.484784       -13.1916
  25   2.0000      -0.466649       -12.6982
  26   2.0000      -0.410375       -11.1669
  27   2.0000      -0.401899       -10.9362
  28   2.0000      -0.379679       -10.3316
  29   0.0000       0.112806         3.0696
  30   0.0000       0.122348         3.3293
  31   0.0000       0.152749         4.1565
  32   0.0000       0.170550         4.6409
  33   0.0000       0.178685         4.8623

MULLIKEN ATOMIC CHARGES
-----------------------
   0 C :   -0.141392
   1 S :    0.835908
   2 O :   -0.420341
   3 O :   -0.433616
   4 F :   -0.127789
   5 C :    0.026114
   6 H :    0.081471
   7 H :    0.051866
   8 H :    0.043111
   9 H :    0.051297
  10 H :    0.033369
Sum of atomic charges:    0.0000000

LOEWDIN ATOMIC CHARGES
----------------------
   0 C :   -0.161720
   1 S :    1.132564
   2 O :   -0.498439
   3 O :   -0.508933
   4 F :   -0.098822
   5 C :   -0.062509
   6 H :    0.048044
   7 H :    0.032789
   8 H :    0.036864
   9 H :    0.041126
  10 H :    0.039037

  Mayer bond orders larger than 0.100000
B(  0-C ,  1-S ) :   0.9078 B(  0-C ,  5-C ) :   1.0910 B(  0-C ,  6-H ) :   0.9340
B(  0-C ,  7-H ) :   0.9341 B(  1-S ,  2-O ) :   1.7902 B(  1-S ,  3-O ) :   1.7759
B(  1-S ,  4-F ) :   1.0708 B(  5-C ,  8-H ) :   0.9635 B(  5-C ,  9-H ) :   0.9693
B(  5-C , 10-H ) :   0.9578

FINAL SINGLE POINT ENERGY      -726.357456739103

DIPOLE MOMENT
-------------
                                X             Y             Z
Electronic contribution:      4.18089      -5.51603      -7.33015
Nuclear contribution   :     -5.87110       5.18927       7.67759
                        -----------------------------------------
Total Dipole Moment    :     -1.69021      -0.32676       0.34744
                        -----------------------------------------
Magnitude (a.u.)       :      1.75621
Magnitude (Debye)      :      4.46394

Rotational constants in cm-1:     0.155988     0.080452     0.078187
Rotational constants in MHz :  4676.405251  2411.902056  2343.983816

                             ****ORCA TERMINATED NORMALLY****
TOTAL RUN TIME: 0 days 0 hours 0 minutes 14 seconds 286 msec
