                         Program Version 5.0.0 -  RELEASE  -
|  1> !DLPNO-CCSD(T) aug-cc-pVTZ aug-cc-pVTZ/C TightSCF TightPNO RIJCOSX def2/J
|  2> *xyz -1 1
|  3> C         -0.91495        0.61511        2.50554
|  4> C         -0.05915        1.50352        3.41058
|  5> H          0.36536        2.34431        2.86116
|  6> H         -0.69226        1.92021        4.19898
|  7> C          1.08303        0.74964        4.08571
|  8> O          2.22817        1.26348        4.01983
|  9> O          0.81003       -0.34541        4.63627
| 10> C         -0.13074       -0.19398        1.47076
| 11> H         -1.64796        1.24596        1.99108
| 12> H         -1.47818       -0.08105        3.13042
| 13> H         -0.80952       -0.78099        0.88803
| 14> H          0.55985       -0.83974        1.97175
| 15> H          0.40595        0.47288        0.82877
| 16> *
| 17>
| 18> %MaxCore 64000
| 19>
| 20> %pal nprocs 2
| 21> end
| 22>
| 23> %scf
| 24>   MaxIter 150
| 25> end
| 26>
| 27>
| 28>                          ****END OF INPUT****

CARTESIAN COORDINATES (ANGSTROEM)
---------------------------------
  C     -0.914950    0.615110    2.505540
  C     -0.059150    1.503520    3.410580
  H      0.365360    2.344310    2.861160
  H     -0.692260    1.920210    4.198980
  C      1.083030    0.749640    4.085710
  O      2.228170    1.263480    4.019830
  O      0.810030   -0.345410    4.636270
  C     -0.130740   -0.193980    1.470760
  H     -1.647960    1.245960    1.991080
  H     -1.478180   -0.081050    3.130420
  H     -0.809520   -0.780990    0.888030
  H      0.559850   -0.839740    1.971750
  H      0.405950    0.472880    0.828770

 Total Charge           Charge          ....   -1
 Multiplicity           Mult            ....    1
 Number of Electrons    NEL             ....   48
 Basis Dimension        Dim             ....  437

ORBITAL ENERGIES
----------------

  NO   OCC          E(Eh)            E(eV)
   0   2.0000     -20.285259      -551.9900
   1   2.0000     -20.284658      -551.9736
   2   2.0000     -11.126586      -302.7698
   3   2.0000     -11.076472      -301.4061
   4   2.0000     -11.066915      -301.1461
   5   2.0000     -11.053444      -300.7795
   6   2.0000      -1.165088       -31.7037
   7   2.0000      -1.057663       -28.7805
   8   2.0000      -0.912738       -24.8369
   9   2.0000      -0.796005       -21.6604
  10   2.0000      -0.669770       -18.2254
  11   2.0000      -0.518131       -14.0991
  12   2.0000      -0.474876       -12.9220
  13   2.0000      -0.467032       -12.7086
  14   2.0000      -0.425542       -11.5796
  15   2.0000      -0.412265       -11.2183
  16   2.0000      -0.382043       -10.3959
  17   2.0000      -0.357128        -9.7179
  18   2.0000      -0.349348        -9.5063
  19   2.0000      -0.322783        -8.7834
  20   2.0000      -0.308391        -8.3917
  21   2.0000      -0.199885        -5.4392
  22   2.0000      -0.197386        -5.3711
  23   2.0000      -0.187208        -5.0942
  24   0.0000       0.112735         3.0677
  25   0.0000       0.122846         3.3428
  26   0.0000       0.131985         3.5915
  27   0.0000       0.142029         3.8648
  28   0.0000       0.148567         4.0427

MULLIKEN ATOMIC CHARGES
-----------------------
   0 C :   -0.335001
   1 C :   -0.282641
   2 H :    0.200802
   3 H :    0.250070
   4 C :    0.646330
   5 O :   -0.945221
   6 O :   -0.921024
   7 C :   -1.055699
   8 H :    0.297491
   9 H :    0.263326
  10 H :    0.264730
  11 H :    0.321546
  12 H :    0.295291
Sum of atomic charges:   -1.0000000

LOEWDIN ATOMIC CHARGES
----------------------
   0 C :    0.222657
   1 C :    0.186738
   2 H :   -0.193850
   3 H :   -0.173703
   4 C :   -1.212480
   5 O :    0.248277
   6 O :    0.264014
   7 C :    0.576987
   8 H :   -0.166856
   9 H :   -0.165851
  10 H :   -0.198587
  11 H :   -0.198362
  12 H :   -0.188985

  Mayer bond orders larger than 0.100000
B(  0-C ,  1-C ) :   0.8547 B(  0-C ,  7-C ) :   0.7705 B(  0-C ,  8-H ) :   0.9139
B(  0-C ,  9-H ) :   0.9462 B(  1-C ,  2-H ) :   0.9894 B(  1-C ,  3-H ) :   0.9830
B(  1-C ,  4-C ) :   0.6673 B(  4-C ,  5-O ) :   1.2448 B(  4-C ,  6-O ) :   1.3492
B(  7-C , 10-H ) :   1.0023 B(  7-C , 11-H ) :   0.9211 B(  7-C , 12-H ) :   0.9351

E(0)                                       ...   -305.423510679
E(0)                                       ...   -305.423510679
E(CORR)(strong-pairs)                      ...     -1.211420318
E(CORR)(weak-pairs)                        ...     -0.001171812
E(CORR)(corrected)                         ...     -1.212592130
E(TOT)                                     ...   -306.636102810
E(CCSD(T))                                 ...   -306.687574866
FINAL SINGLE POINT ENERGY      -306.687574866100

DIPOLE MOMENT
-------------
                                X             Y             Z
Electronic contribution:      4.48002       0.25717       5.42735
Nuclear contribution   :     -6.45806       0.15825      -7.12052
                        -----------------------------------------
Total Dipole Moment    :     -1.97804       0.41541      -1.69317
                        -----------------------------------------
Magnitude (a.u.)       :      2.63667
Magnitude (Debye)      :      6.70189

Rotational constants in cm-1:     0.199323     0.080770     0.077827
Rotational constants in MHz :  5975.562678  2421.415024  2333.195390

                             ****ORCA TERMINATED NORMALLY****
TOTAL RUN TIME: 0 days 0 hours 48 minutes 19 seconds 963 msec
