                         Program Version 5.0.0 -  RELEASE  -
|  1> !DLPNO-CCSD(T) aug-cc-pVTZ aug-cc-pVTZ/C TightSCF TightPNO RIJCOSX def2/J
|  2> *xyz 1 1
|  3> C          4.60295       -2.44010        2.63478
|  4> C          3.86085       -1.59157        3.62289
|  5> N          2.75650       -2.04616        4.16633
|  6> N          4.25433       -0.36291        3.86046
|  7> H          3.56526        0.31099        4.16898
|  8> H          5.05429       -0.01606        3.33784
|  9> H          2.43970       -2.97389        3.89740
| 10> H          2.06687       -1.41253        4.54981
| 11> C          3.74469       -2.58056        1.36188
| 12> C          3.20372       -1.25600        0.82621
| 13> H          2.89894       -3.23929        1.58307
| 14> H          4.33496       -3.09552        0.60019
| 15> H          5.56156       -1.97135        2.40708
| 16> H          4.81050       -3.42255        3.06310
| 17> H          2.62184       -1.43789       -0.05313
| 18> H          4.02069       -0.60826        0.58562
| 19> H          2.58975       -0.79418        1.57097
| 20> *
| 21>
| 22> %MaxCore 64000
| 23>
| 24> %pal nprocs 2
| 25> end
| 26>
| 27> %scf
| 28>   MaxIter 150
| 29> end
| 30>
| 31>
| 32>                          ****END OF INPUT****

CARTESIAN COORDINATES (ANGSTROEM)
---------------------------------
  C      4.602950   -2.440100    2.634780
  C      3.860850   -1.591570    3.622890
  N      2.756500   -2.046160    4.166330
  N      4.254330   -0.362910    3.860460
  H      3.565260    0.310990    4.168980
  H      5.054290   -0.016060    3.337840
  H      2.439700   -2.973890    3.897400
  H      2.066870   -1.412530    4.549810
  C      3.744690   -2.580560    1.361880
  C      3.203720   -1.256000    0.826210
  H      2.898940   -3.239290    1.583070
  H      4.334960   -3.095520    0.600190
  H      5.561560   -1.971350    2.407080
  H      4.810500   -3.422550    3.063100
  H      2.621840   -1.437890   -0.053130
  H      4.020690   -0.608260    0.585620
  H      2.589750   -0.794180    1.570970

 Total Charge           Charge          ....    1
 Multiplicity           Mult            ....    1
 Number of Electrons    NEL             ....   48
 Basis Dimension        Dim             ....  529

ORBITAL ENERGIES
----------------

  NO   OCC          E(Eh)            E(eV)
   0   2.0000     -15.802715      -430.0137
   1   2.0000     -15.802214      -430.0001
   2   2.0000     -11.566375      -314.7371
   3   2.0000     -11.423900      -310.8601
   4   2.0000     -11.392107      -309.9950
   5   2.0000     -11.357886      -309.0638
   6   2.0000      -1.525156       -41.5016
   7   2.0000      -1.403634       -38.1948
   8   2.0000      -1.252267       -34.0759
   9   2.0000      -1.142263       -31.0825
  10   2.0000      -1.050500       -28.5856
  11   2.0000      -0.991254       -26.9734
  12   2.0000      -0.953006       -25.9326
  13   2.0000      -0.929610       -25.2960
  14   2.0000      -0.862843       -23.4791
  15   2.0000      -0.832298       -22.6480
  16   2.0000      -0.794789       -21.6273
  17   2.0000      -0.747846       -20.3499
  18   2.0000      -0.730416       -19.8756
  19   2.0000      -0.724533       -19.7155
  20   2.0000      -0.654697       -17.8152
  21   2.0000      -0.649855       -17.6835
  22   2.0000      -0.641990       -17.4694
  23   2.0000      -0.628909       -17.1135
  24   0.0000      -0.094811        -2.5799
  25   0.0000      -0.075695        -2.0598
  26   0.0000      -0.073784        -2.0078
  27   0.0000      -0.060934        -1.6581
  28   0.0000      -0.051759        -1.4084

MULLIKEN ATOMIC CHARGES
-----------------------
   0 C :   -0.077044
   1 C :    0.944376
   2 N :   -0.513512
   3 N :   -0.536709
   4 H :    0.164197
   5 H :    0.134168
   6 H :    0.110512
   7 H :    0.167980
   8 C :   -0.460852
   9 C :   -0.995928
  10 H :    0.208682
  11 H :    0.369225
  12 H :    0.195088
  13 H :    0.368487
  14 H :    0.276839
  15 H :    0.285692
  16 H :    0.358800
Sum of atomic charges:    1.0000000

LOEWDIN ATOMIC CHARGES
----------------------
   0 C :    0.366171
   1 C :   -0.252591
   2 N :    0.948480
   3 N :    0.950384
   4 H :   -0.225431
   5 H :   -0.228866
   6 H :   -0.228288
   7 H :   -0.220211
   8 C :    0.304541
   9 C :    0.621158
  10 H :   -0.143678
  11 H :   -0.122141
  12 H :   -0.131710
  13 H :   -0.118421
  14 H :   -0.157586
  15 H :   -0.167767
  16 H :   -0.194045

  Mayer bond orders larger than 0.100000
B(  0-C ,  1-C ) :   0.5344 B(  0-C ,  2-N ) :  -0.1034 B(  0-C ,  8-C ) :   0.9240
B(  0-C , 12-H ) :   1.0213 B(  0-C , 13-H ) :   0.8845 B(  1-C ,  2-N ) :   0.8870
B(  1-C ,  3-N ) :   0.7552 B(  1-C ,  8-C ) :   0.1300 B(  2-N ,  6-H ) :   1.1070
B(  2-N ,  7-H ) :   1.0435 B(  3-N ,  4-H ) :   1.0391 B(  3-N ,  5-H ) :   1.0909
B(  8-C ,  9-C ) :   0.8198 B(  8-C , 10-H ) :   0.9823 B(  8-C , 11-H ) :   0.8617
B(  9-C , 14-H ) :   1.0011 B(  9-C , 15-H ) :   0.9536 B(  9-C , 16-H ) :   0.8899

E(0)                                       ...   -266.686826450
E(0)                                       ...   -266.686826450
E(CORR)(strong-pairs)                      ...     -1.158027095
E(CORR)(weak-pairs)                        ...     -0.001243650
E(CORR)(corrected)                         ...     -1.159270744
E(TOT)                                     ...   -267.846097194
E(CCSD(T))                                 ...   -267.892429625
FINAL SINGLE POINT ENERGY      -267.892429625015

DIPOLE MOMENT
-------------
                                X             Y             Z
Electronic contribution:      0.52438       0.54101       5.15021
Nuclear contribution   :     -0.82989      -0.08664      -4.26094
                        -----------------------------------------
Total Dipole Moment    :     -0.30552       0.45437       0.88927
                        -----------------------------------------
Magnitude (a.u.)       :      1.04431
Magnitude (Debye)      :      2.65443

Rotational constants in cm-1:     0.166042     0.084809     0.078793
Rotational constants in MHz :  4977.819890  2542.513379  2362.161076

                             ****ORCA TERMINATED NORMALLY****
TOTAL RUN TIME: 0 days 1 hours 14 minutes 25 seconds 513 msec
