                         Program Version 5.0.0 -  RELEASE  -
|  1> !DLPNO-CCSD(T) aug-cc-pVTZ aug-cc-pVTZ/C TightSCF TightPNO RIJCOSX def2/J
|  2>
|  3> *xyzfile 0 1 B.xyz
|  4>
|  5> %MaxCore 64000
|  6>
|  7> %pal nprocs 18
|  8> end
|  9>
| 10> %scf
| 11>   MaxIter 150
| 12> end
| 13>
| 14>
| 15>                          ****END OF INPUT****

CARTESIAN COORDINATES (ANGSTROEM)
---------------------------------
  C      4.602954   -2.440100    2.634780
  C     -0.914947    0.615112    2.505538
  C     -0.059146    1.503524    3.410578
  H      0.365364    2.344315    2.861161
  H     -0.692261    1.920207    4.198985
  C      1.083027    0.749640    4.085705
  C      3.860851   -1.591565    3.622893
  N      2.756502   -2.046159    4.166333
  N      4.254325   -0.362905    3.860455
  H      3.565256    0.310994    4.168983
  H      5.054292   -0.016059    3.337838
  H      2.439696   -2.973894    3.897395
  H      2.066869   -1.412532    4.549813
  O      2.228167    1.263475    4.019826
  O      0.810034   -0.345411    4.636269
  C      3.744685   -2.580557    1.361882
  C      0.772139    0.636882    0.562129
  C     -0.130740   -0.193985    1.470763
  H     -0.840563   -0.760165    0.856377
  H      0.466691   -0.938942    2.006959
  H     -1.647961    1.245963    1.991076
  H     -1.478180   -0.081046    3.130424
  C      3.203721   -1.256004    0.826211
  H      2.898939   -3.239289    1.583074
  H      4.334962   -3.095523    0.600188
  C      2.107815   -1.442385   -0.216865
  H      2.786775   -0.672760    1.650711
  H      4.021008   -0.652993    0.414046
  C      1.390662   -0.145912   -0.602422
  H      1.372179   -2.152184    0.176151
  H      2.523302   -1.906787   -1.117115
  H      1.561361    1.100094    1.161831
  H      0.195516    1.468325    0.142758
  H      0.602893   -0.398214   -1.319716
  H      2.087247    0.508272   -1.137335
  H      5.561557   -1.971347    2.407084
  H      4.810498   -3.422552    3.063099

 Total Charge           Charge          ....    0
 Multiplicity           Mult            ....    1
 Number of Electrons    NEL             ....  118
 Basis Dimension        Dim             .... 1196

ORBITAL ENERGIES
----------------

  NO   OCC          E(Eh)            E(eV)
   0   2.0000     -20.468118      -556.9658
   1   2.0000     -20.465501      -556.8946
   2   2.0000     -15.601443      -424.5368
   3   2.0000     -15.601382      -424.5352
   4   2.0000     -11.384622      -309.7913
   5   2.0000     -11.303568      -307.5857
   6   2.0000     -11.280748      -306.9648
   7   2.0000     -11.259804      -306.3949
   8   2.0000     -11.233639      -305.6828
   9   2.0000     -11.224163      -305.4250
  10   2.0000     -11.215847      -305.1987
  11   2.0000     -11.204588      -304.8923
  12   2.0000     -11.201206      -304.8003
  13   2.0000     -11.197674      -304.7042
  14   2.0000     -11.189457      -304.4806
  15   2.0000      -1.358083       -36.9553
  16   2.0000      -1.333762       -36.2935
  17   2.0000      -1.250693       -34.0331
  18   2.0000      -1.210736       -32.9458
  19   2.0000      -1.119930       -30.4749
  20   2.0000      -1.081436       -29.4274
  21   2.0000      -1.045584       -28.4518
  22   2.0000      -0.994296       -27.0562
  23   2.0000      -0.945913       -25.7396
  24   2.0000      -0.892663       -24.2906
  25   2.0000      -0.866520       -23.5792
  26   2.0000      -0.832357       -22.6496
  27   2.0000      -0.802220       -21.8295
  28   2.0000      -0.770964       -20.9790
  29   2.0000      -0.765345       -20.8261
  30   2.0000      -0.750565       -20.4239
  31   2.0000      -0.692155       -18.8345
  32   2.0000      -0.677789       -18.4436
  33   2.0000      -0.666591       -18.1389
  34   2.0000      -0.650961       -17.7135
  35   2.0000      -0.634436       -17.2639
  36   2.0000      -0.625839       -17.0299
  37   2.0000      -0.607406       -16.5284
  38   2.0000      -0.593648       -16.1540
  39   2.0000      -0.590595       -16.0709
  40   2.0000      -0.577293       -15.7089
  41   2.0000      -0.570771       -15.5315
  42   2.0000      -0.558401       -15.1949
  43   2.0000      -0.555152       -15.1064
  44   2.0000      -0.527144       -14.3443
  45   2.0000      -0.521817       -14.1994
  46   2.0000      -0.512952       -13.9581
  47   2.0000      -0.510762       -13.8985
  48   2.0000      -0.497510       -13.5379
  49   2.0000      -0.477079       -12.9820
  50   2.0000      -0.473118       -12.8742
  51   2.0000      -0.463972       -12.6253
  52   2.0000      -0.445296       -12.1171
  53   2.0000      -0.437717       -11.9109
  54   2.0000      -0.435486       -11.8502
  55   2.0000      -0.430300       -11.7091
  56   2.0000      -0.387154       -10.5350
  57   2.0000      -0.375798       -10.2260
  58   2.0000      -0.372848       -10.1457
  59   0.0000       0.013941         0.3794
  60   0.0000       0.025070         0.6822
  61   0.0000       0.027703         0.7538
  62   0.0000       0.034996         0.9523
  63   0.0000       0.041728         1.1355

MULLIKEN ATOMIC CHARGES
-----------------------
   0 C :   -0.313456
   1 C :   -0.511085
   2 C :   -0.366221
   3 H :    0.157279
   4 H :    0.370000
   5 C :    1.111642
   6 C :    1.213577
   7 N :   -0.684221
   8 N :   -0.818322
   9 H :    0.334842
  10 H :   -0.006678
  11 H :   -0.023378
  12 H :    0.338088
  13 O :   -1.014637
  14 O :   -1.045508
  15 C :   -0.624764
  16 C :   -0.311321
  17 C :   -0.605446
  18 H :    0.473018
  19 H :    0.237839
  20 H :    0.230597
  21 H :    0.183770
  22 C :   -0.490974
  23 H :    0.220897
  24 H :    0.358813
  25 C :   -0.361595
  26 H :    0.517759
  27 H :    0.250003
  28 C :   -0.859122
  29 H :    0.000108
  30 H :    0.527882
  31 H :    0.152311
  32 H :    0.564275
  33 H :    0.118132
  34 H :    0.162841
  35 H :    0.119273
  36 H :    0.393784
Sum of atomic charges:    0.0000000

LOEWDIN ATOMIC CHARGES
----------------------
   0 C :    0.354813
   1 C :    0.277274
   2 C :    0.249977
   3 H :   -0.178504
   4 H :   -0.151957
   5 C :   -0.979151
   6 C :   -0.254170
   7 N :    0.943831
   8 N :    0.938015
   9 H :   -0.570721
  10 H :   -0.233832
  11 H :   -0.231664
  12 H :   -0.568670
  13 O :    0.484856
  14 O :    0.481186
  15 C :    0.312858
  16 C :    0.285481
  17 C :    0.273310
  18 H :   -0.131676
  19 H :   -0.168837
  20 H :   -0.144240
  21 H :   -0.149945
  22 C :    0.286041
  23 H :   -0.147327
  24 H :   -0.128326
  25 C :    0.291866
  26 H :   -0.198756
  27 H :   -0.116178
  28 C :    0.305261
  29 H :   -0.151334
  30 H :   -0.133519
  31 H :   -0.160725
  32 H :   -0.132413
  33 H :   -0.142106
  34 H :   -0.140155
  35 H :   -0.141372
  36 H :   -0.129194

  Mayer bond orders larger than 0.100000
B(  0-C ,  6-C ) :   0.6231 B(  0-C ,  7-N ) :  -0.1469 B(  0-C , 15-C ) :   1.0557
B(  0-C , 35-H ) :   1.1793 B(  0-C , 36-H ) :   0.8402 B(  1-C ,  2-C ) :   0.9198
B(  1-C ,  5-C ) :   0.1070 B(  1-C , 17-C ) :   0.8939 B(  1-C , 20-H ) :   0.9596
B(  1-C , 21-H ) :   1.0093 B(  2-C ,  3-H ) :   1.0207 B(  2-C ,  4-H ) :   0.9366
B(  2-C ,  5-C ) :   0.6865 B(  2-C , 17-C ) :   0.1156 B(  4-H ,  5-C ) :  -0.1302
B(  5-C , 13-O ) :   1.0081 B(  5-C , 14-O ) :   0.9528 B(  6-C ,  7-N ) :   0.8638
B(  6-C ,  8-N ) :   0.5606 B(  6-C , 10-H ) :  -0.1404 B(  6-C , 11-H ) :  -0.1091
B(  7-N , 11-H ) :   1.2765 B(  7-N , 12-H ) :   0.6882 B(  8-N ,  9-H ) :   0.6813
B(  8-N , 10-H ) :   1.2854 B(  9-H , 13-O ) :   0.1671 B( 12-H , 14-O ) :   0.1571
B( 15-C , 22-C ) :   0.8171 B( 15-C , 23-H ) :   1.0030 B( 15-C , 24-H ) :   0.8553
B( 16-C , 17-C ) :   0.8173 B( 16-C , 28-C ) :   0.9654 B( 16-C , 31-H ) :   1.0954
B( 16-C , 32-H ) :   0.6744 B( 17-C , 18-H ) :   0.7508 B( 17-C , 19-H ) :   1.0811
B( 22-C , 25-C ) :   0.8580 B( 22-C , 26-H ) :   0.9151 B( 22-C , 27-H ) :   0.9484
B( 25-C , 28-C ) :   0.8852 B( 25-C , 29-H ) :   1.1945 B( 25-C , 30-H ) :   0.6945
B( 28-C , 29-H ) :   0.1010 B( 28-C , 31-H ) :   0.1091 B( 28-C , 32-H ) :  -0.1033
B( 28-C , 33-H ) :   1.1233 B( 28-C , 34-H ) :   1.0546

E(0)                                       ...   -688.263872350
E(0)                                       ...   -688.263872350
E(CORR)(strong-pairs)                      ...     -2.915751323
E(CORR)(weak-pairs)                        ...     -0.005777776
E(CORR)(corrected)                         ...     -2.921529099
E(TOT)                                     ...   -691.185401449
E(CCSD(T))                                 ...   -691.310420217
FINAL SINGLE POINT ENERGY      -691.310420216783

DIPOLE MOMENT
-------------
                                X             Y             Z
Electronic contribution:      3.49893       1.51418      12.83426
Nuclear contribution   :     -1.50655      -3.48027     -14.35034
                        -----------------------------------------
Total Dipole Moment    :      1.99238      -1.96610      -1.51608
                        -----------------------------------------
Magnitude (a.u.)       :      3.18333
Magnitude (Debye)      :      8.09139

Rotational constants in cm-1:     0.021781     0.017296     0.011403
Rotational constants in MHz :   652.971749   518.510612   341.853154

                             ****ORCA TERMINATED NORMALLY****
TOTAL RUN TIME: 0 days 6 hours 28 minutes 45 seconds 492 msec
