                         Program Version 5.0.0 -  RELEASE  -
|  1> !DLPNO-CCSD(T) aug-cc-pVTZ aug-cc-pVTZ/C TightSCF TightPNO RIJCOSX def2/J
|  2> *xyz 0 1
|  3> C         -0.91495        0.61511        2.50554
|  4> C         -0.05915        1.50352        3.41058
|  5> H          0.36536        2.34431        2.86116
|  6> H         -0.69226        1.92021        4.19898
|  7> C          1.08303        0.74964        4.08571
|  8> F          2.22817        1.26348        4.01983
|  9> O          0.81003       -0.34541        4.63627
| 10> C         -0.13074       -0.19398        1.47076
| 11> H         -1.64796        1.24596        1.99108
| 12> H         -1.47818       -0.08105        3.13042
| 13> H         -0.80952       -0.78099        0.88803
| 14> H          0.55985       -0.83974        1.97175
| 15> H          0.40595        0.47288        0.82877
| 16> *
| 17>
| 18> %MaxCore 64000
| 19>
| 20> %pal nprocs 2
| 21> end
| 22>
| 23> %scf
| 24>   MaxIter 150
| 25> end
| 26>
| 27>
| 28>                          ****END OF INPUT****

CARTESIAN COORDINATES (ANGSTROEM)
---------------------------------
  C     -0.914950    0.615110    2.505540
  C     -0.059150    1.503520    3.410580
  H      0.365360    2.344310    2.861160
  H     -0.692260    1.920210    4.198980
  C      1.083030    0.749640    4.085710
  F      2.228170    1.263480    4.019830
  O      0.810030   -0.345410    4.636270
  C     -0.130740   -0.193980    1.470760
  H     -1.647960    1.245960    1.991080
  H     -1.478180   -0.081050    3.130420
  H     -0.809520   -0.780990    0.888030
  H      0.559850   -0.839740    1.971750
  H      0.405950    0.472880    0.828770

 Total Charge           Charge          ....    0
 Multiplicity           Mult            ....    1
 Number of Electrons    NEL             ....   48
 Basis Dimension        Dim             ....  437

ORBITAL ENERGIES
----------------

  NO   OCC          E(Eh)            E(eV)
   0   2.0000     -26.375422      -717.7117
   1   2.0000     -20.561635      -559.5105
   2   2.0000     -11.430025      -311.0268
   3   2.0000     -11.259826      -306.3955
   4   2.0000     -11.239043      -305.8299
   5   2.0000     -11.214191      -305.1537
   6   2.0000      -1.728781       -47.0425
   7   2.0000      -1.374416       -37.3997
   8   2.0000      -1.092231       -29.7211
   9   2.0000      -0.989645       -26.9296
  10   2.0000      -0.904821       -24.6214
  11   2.0000      -0.835514       -22.7355
  12   2.0000      -0.769402       -20.9365
  13   2.0000      -0.761477       -20.7208
  14   2.0000      -0.712106       -19.3774
  15   2.0000      -0.638684       -17.3795
  16   2.0000      -0.628581       -17.1046
  17   2.0000      -0.582012       -15.8373
  18   2.0000      -0.575910       -15.6713
  19   2.0000      -0.517175       -14.0730
  20   2.0000      -0.506407       -13.7800
  21   2.0000      -0.492740       -13.4081
  22   2.0000      -0.483569       -13.1586
  23   2.0000      -0.463444       -12.6109
  24   0.0000       0.026811         0.7296
  25   0.0000       0.036985         1.0064
  26   0.0000       0.038756         1.0546
  27   0.0000       0.045707         1.2437
  28   0.0000       0.058903         1.6028

MULLIKEN ATOMIC CHARGES
-----------------------
   0 C :   -0.330824
   1 C :   -0.345723
   2 H :    0.225371
   3 H :    0.297884
   4 C :    0.724130
   5 F :   -0.324621
   6 O :   -0.714889
   7 C :   -1.028103
   8 H :    0.326365
   9 H :    0.274530
  10 H :    0.287476
  11 H :    0.309094
  12 H :    0.299308
Sum of atomic charges:   -0.0000000

LOEWDIN ATOMIC CHARGES
----------------------
   0 C :    0.255968
   1 C :    0.257898
   2 H :   -0.170948
   3 H :   -0.152236
   4 C :   -0.923484
   5 F :    0.585827
   6 O :    0.399047
   7 C :    0.599020
   8 H :   -0.143023
   9 H :   -0.151837
  10 H :   -0.177257
  11 H :   -0.196959
  12 H :   -0.182016

  Mayer bond orders larger than 0.100000
B(  0-C ,  1-C ) :   0.8746 B(  0-C ,  7-C ) :   0.7851 B(  0-C ,  8-H ) :   0.8871
B(  0-C ,  9-H ) :   0.9464 B(  1-C ,  2-H ) :   0.9729 B(  1-C ,  3-H ) :   0.9291
B(  1-C ,  4-C ) :   0.7314 B(  4-C ,  5-F ) :   0.7154 B(  4-C ,  6-O ) :   1.6220
B(  7-C , 10-H ) :   0.9866 B(  7-C , 11-H ) :   0.9327 B(  7-C , 12-H ) :   0.9283

E(0)                                       ...   -329.975097982
E(0)                                       ...   -329.975097982
E(CORR)(strong-pairs)                      ...     -1.212014714
E(CORR)(weak-pairs)                        ...     -0.001152419
E(CORR)(corrected)                         ...     -1.213167132
E(TOT)                                     ...   -331.188265114
E(CCSD(T))                                 ...   -331.236135265
FINAL SINGLE POINT ENERGY      -331.236135264685

DIPOLE MOMENT
-------------
                                X             Y             Z
Electronic contribution:      7.93816       1.56073       7.14522
Nuclear contribution   :     -8.39104      -0.60591      -7.87060
                        -----------------------------------------
Total Dipole Moment    :     -0.45288       0.95482      -0.72538
                        -----------------------------------------
Magnitude (a.u.)       :      1.28178
Magnitude (Debye)      :      3.25801

Rotational constants in cm-1:     0.194210     0.077092     0.074391
Rotational constants in MHz :  5822.269139  2311.145895  2230.180895

                             ****ORCA TERMINATED NORMALLY****
TOTAL RUN TIME: 0 days 0 hours 44 minutes 34 seconds 373 msec
