                         Program Version 5.0.0 -  RELEASE  -
|  1> !DLPNO-CCSD(T) aug-cc-pVTZ aug-cc-pVTZ/C TightSCF TightPNO RIJCOSX def2/J
|  2> *xyz 0 1
|  3> C          4.60295       -2.44010        2.63478
|  4> C          3.86085       -1.59157        3.62289
|  5> C          2.75650       -2.04616        4.16633
|  6> N          4.25433       -0.36291        3.86046
|  7> H          3.56526        0.31099        4.16898
|  8> H          5.05429       -0.01606        3.33784
|  9> H          2.43970       -2.97389        3.89740
| 10> H          2.06687       -1.41253        4.54981
| 11> C          3.74469       -2.58056        1.36188
| 12> C          3.20372       -1.25600        0.82621
| 13> H          2.89894       -3.23929        1.58307
| 14> H          4.33496       -3.09552        0.60019
| 15> H          5.56156       -1.97135        2.40708
| 16> H          4.81050       -3.42255        3.06310
| 17> H          2.62184       -1.43789       -0.05313
| 18> H          4.02069       -0.60826        0.58562
| 19> H          2.58975       -0.79418        1.57097
| 20> *
| 21>
| 22> %MaxCore 64000
| 23>
| 24> %pal nprocs 2
| 25> end
| 26>
| 27> %scf
| 28>   MaxIter 150
| 29> end
| 30>
| 31>
| 32>                          ****END OF INPUT****

CARTESIAN COORDINATES (ANGSTROEM)
---------------------------------
  C      4.602950   -2.440100    2.634780
  C      3.860850   -1.591570    3.622890
  C      2.756500   -2.046160    4.166330
  N      4.254330   -0.362910    3.860460
  H      3.565260    0.310990    4.168980
  H      5.054290   -0.016060    3.337840
  H      2.439700   -2.973890    3.897400
  H      2.066870   -1.412530    4.549810
  C      3.744690   -2.580560    1.361880
  C      3.203720   -1.256000    0.826210
  H      2.898940   -3.239290    1.583070
  H      4.334960   -3.095520    0.600190
  H      5.561560   -1.971350    2.407080
  H      4.810500   -3.422550    3.063100
  H      2.621840   -1.437890   -0.053130
  H      4.020690   -0.608260    0.585620
  H      2.589750   -0.794180    1.570970

 Total Charge           Charge          ....    0
 Multiplicity           Mult            ....    1
 Number of Electrons    NEL             ....   48
 Basis Dimension        Dim             ....  529

ORBITAL ENERGIES
----------------

  NO   OCC          E(Eh)            E(eV)
   0   2.0000     -15.560663      -423.4272
   1   2.0000     -11.252055      -306.1840
   2   2.0000     -11.226452      -305.4873
   3   2.0000     -11.221210      -305.3446
   4   2.0000     -11.202616      -304.8387
   5   2.0000     -11.146685      -303.3167
   6   2.0000      -1.244340       -33.8602
   7   2.0000      -1.072815       -29.1928
   8   2.0000      -0.995207       -27.0810
   9   2.0000      -0.933742       -25.4084
  10   2.0000      -0.826121       -22.4799
  11   2.0000      -0.755780       -20.5658
  12   2.0000      -0.700413       -19.0592
  13   2.0000      -0.662948       -18.0397
  14   2.0000      -0.620782       -16.8923
  15   2.0000      -0.602696       -16.4002
  16   2.0000      -0.557634       -15.1740
  17   2.0000      -0.548812       -14.9339
  18   2.0000      -0.519523       -14.1369
  19   2.0000      -0.509640       -13.8680
  20   2.0000      -0.478068       -13.0089
  21   2.0000      -0.472229       -12.8500
  22   2.0000      -0.464838       -12.6489
  23   2.0000      -0.292023        -7.9464
  24   0.0000       0.027685         0.7533
  25   0.0000       0.035179         0.9573
  26   0.0000       0.037571         1.0224
  27   0.0000       0.041737         1.1357
  28   0.0000       0.054880         1.4934

MULLIKEN ATOMIC CHARGES
-----------------------
   0 C :   -0.101241
   1 C :    1.164490
   2 C :   -1.462419
   3 N :   -0.818323
   4 H :    0.022862
   5 H :    0.074812
   6 H :    0.240595
   7 H :    0.457362
   8 C :   -0.473984
   9 C :   -1.027387
  10 H :    0.196875
  11 H :    0.352458
  12 H :    0.147056
  13 H :    0.349702
  14 H :    0.260609
  15 H :    0.261158
  16 H :    0.355374
Sum of atomic charges:    0.0000000

LOEWDIN ATOMIC CHARGES
----------------------
   0 C :    0.306052
   1 C :   -0.340427
   2 C :    0.552708
   3 N :    0.843678
   4 H :   -0.262914
   5 H :   -0.273792
   6 H :   -0.287276
   7 H :   -0.278441
   8 C :    0.279169
   9 C :    0.599504
  10 H :   -0.151825
  11 H :   -0.146143
  12 H :   -0.152715
  13 H :   -0.134909
  14 H :   -0.177665
  15 H :   -0.178405
  16 H :   -0.196597

  Mayer bond orders larger than 0.100000
B(  0-C ,  1-C ) :   0.6710 B(  0-C ,  2-C ) :  -0.1169 B(  0-C ,  3-N ) :  -0.1197
B(  0-C ,  8-C ) :   0.8888 B(  0-C , 12-H ) :   1.0661 B(  0-C , 13-H ) :   0.9196
B(  1-C ,  2-C ) :   1.1038 B(  1-C ,  3-N ) :   0.3010 B(  1-C ,  4-H ) :  -0.1362
B(  1-C ,  6-H ) :  -0.1286 B(  1-C ,  8-C ) :   0.1399 B(  2-C ,  6-H ) :   1.1951
B(  2-C ,  7-H ) :   0.7691 B(  3-N ,  4-H ) :   1.2088 B(  3-N ,  5-H ) :   1.1178
B(  8-C ,  9-C ) :   0.7975 B(  8-C , 10-H ) :   1.0023 B(  8-C , 11-H ) :   0.8704
B(  9-C , 14-H ) :   1.0083 B(  9-C , 15-H ) :   0.9799 B(  9-C , 16-H ) :   0.8788

E(0)                                       ...   -250.244229989
E(0)                                       ...   -250.244229989
E(CORR)(strong-pairs)                      ...     -1.139888238
E(CORR)(weak-pairs)                        ...     -0.001238876
E(CORR)(corrected)                         ...     -1.141127115
E(TOT)                                     ...   -251.385357104
E(CCSD(T))                                 ...   -251.432004365
FINAL SINGLE POINT ENERGY      -251.432004365299

DIPOLE MOMENT
-------------
                                X             Y             Z
Electronic contribution:      1.37463       0.69238       3.33540
Nuclear contribution   :     -1.05621      -0.17147      -3.92631
                        -----------------------------------------
Total Dipole Moment    :      0.31842       0.52091      -0.59091
                        -----------------------------------------
Magnitude (a.u.)       :      0.84965
Magnitude (Debye)      :      2.15965

Rotational constants in cm-1:     0.171127     0.086782     0.080643
Rotational constants in MHz :  5130.249275  2601.647634  2417.629092

                             ****ORCA TERMINATED NORMALLY****
TOTAL RUN TIME: 0 days 1 hours 11 minutes 5 seconds 154 msec
