                         Program Version 5.0.0 -  RELEASE  -
|  1> !DLPNO-CCSD(T) aug-cc-pVTZ aug-cc-pVTZ/C TightSCF TightPNO RIJCOSX def2/J
|  2> *xyz 0 1
|  3> C         -0.91495        0.61511        2.50554
|  4> C         -0.05915        1.50352        3.41058
|  5> H          0.36536        2.34431        2.86116
|  6> H         -0.69226        1.92021        4.19898
|  7> C          1.08303        0.74964        4.08571
|  8> O          2.22817        1.26348        4.01983
|  9> F          0.81003       -0.34541        4.63627
| 10> C         -0.13074       -0.19398        1.47076
| 11> H         -1.64796        1.24596        1.99108
| 12> H         -1.47818       -0.08105        3.13042
| 13> H         -0.80952       -0.78099        0.88803
| 14> H          0.55985       -0.83974        1.97175
| 15> H          0.40595        0.47288        0.82877
| 16> *
| 17>
| 18> %MaxCore 64000
| 19>
| 20> %pal nprocs 8
| 21> end
| 22>
| 23> %scf
| 24>   MaxIter 150
| 25> end
| 26>
| 27>
| 28>                          ****END OF INPUT****

CARTESIAN COORDINATES (ANGSTROEM)
---------------------------------
  C     -0.914950    0.615110    2.505540
  C     -0.059150    1.503520    3.410580
  H      0.365360    2.344310    2.861160
  H     -0.692260    1.920210    4.198980
  C      1.083030    0.749640    4.085710
  O      2.228170    1.263480    4.019830
  F      0.810030   -0.345410    4.636270
  C     -0.130740   -0.193980    1.470760
  H     -1.647960    1.245960    1.991080
  H     -1.478180   -0.081050    3.130420
  H     -0.809520   -0.780990    0.888030
  H      0.559850   -0.839740    1.971750
  H      0.405950    0.472880    0.828770

 Total Charge           Charge          ....    0
 Multiplicity           Mult            ....    1
 Number of Electrons    NEL             ....   48
 Basis Dimension        Dim             ....  437

ORBITAL ENERGIES
----------------

  NO   OCC          E(Eh)            E(eV)
   0   2.0000     -26.376303      -717.7357
   1   2.0000     -20.561529      -559.5077
   2   2.0000     -11.428583      -310.9876
   3   2.0000     -11.258910      -306.3705
   4   2.0000     -11.244375      -305.9750
   5   2.0000     -11.220845      -305.3347
   6   2.0000      -1.730338       -47.0849
   7   2.0000      -1.372072       -37.3360
   8   2.0000      -1.097974       -29.8774
   9   2.0000      -0.989848       -26.9351
  10   2.0000      -0.905027       -24.6270
  11   2.0000      -0.840849       -22.8807
  12   2.0000      -0.776037       -21.1170
  13   2.0000      -0.769479       -20.9386
  14   2.0000      -0.696166       -18.9436
  15   2.0000      -0.645836       -17.5741
  16   2.0000      -0.629099       -17.1187
  17   2.0000      -0.589780       -16.0487
  18   2.0000      -0.571557       -15.5529
  19   2.0000      -0.525673       -14.3043
  20   2.0000      -0.517405       -14.0793
  21   2.0000      -0.499364       -13.5884
  22   2.0000      -0.483975       -13.1696
  23   2.0000      -0.455524       -12.3954
  24   0.0000       0.025775         0.7014
  25   0.0000       0.035331         0.9614
  26   0.0000       0.038859         1.0574
  27   0.0000       0.044924         1.2224
  28   0.0000       0.058411         1.5894

MULLIKEN ATOMIC CHARGES
-----------------------
   0 C :   -0.355859
   1 C :   -0.325116
   2 H :    0.265042
   3 H :    0.297912
   4 C :    0.752970
   5 O :   -0.742756
   6 F :   -0.329421
   7 C :   -1.021795
   8 H :    0.306847
   9 H :    0.270101
  10 H :    0.295406
  11 H :    0.273971
  12 H :    0.312698
Sum of atomic charges:    0.0000000

LOEWDIN ATOMIC CHARGES
----------------------
   0 C :    0.253993
   1 C :    0.255582
   2 H :   -0.162055
   3 H :   -0.154748
   4 C :   -0.930534
   5 O :    0.386128
   6 F :    0.592474
   7 C :    0.601611
   8 H :   -0.141921
   9 H :   -0.154481
  10 H :   -0.177494
  11 H :   -0.191775
  12 H :   -0.176781

  Mayer bond orders larger than 0.100000
B(  0-C ,  1-C ) :   0.8662 B(  0-C ,  7-C ) :   0.7801 B(  0-C ,  8-H ) :   0.9035
B(  0-C ,  9-H ) :   0.9524 B(  1-C ,  2-H ) :   0.9560 B(  1-C ,  3-H ) :   0.9439
B(  1-C ,  4-C ) :   0.7674 B(  1-C ,  6-F ) :   0.1331 B(  4-C ,  5-O ) :   1.5332
B(  4-C ,  6-F ) :   0.7626 B(  7-C , 10-H ) :   0.9755 B(  7-C , 11-H ) :   0.9576
B(  7-C , 12-H ) :   0.9219

E(0)                                       ...   -329.974591807
E(0)                                       ...   -329.974591807
E(CORR)(strong-pairs)                      ...     -1.211702234
E(CORR)(weak-pairs)                        ...     -0.001145645
E(CORR)(corrected)                         ...     -1.212847880
E(TOT)                                     ...   -331.187439687
E(CCSD(T))                                 ...   -331.235188758
FINAL SINGLE POINT ENERGY      -331.235188757939

DIPOLE MOMENT
-------------
                                X             Y             Z
Electronic contribution:      5.41297      -1.26184       8.18749
Nuclear contribution   :     -6.78915       1.21145      -8.56691
                        -----------------------------------------
Total Dipole Moment    :     -1.37618      -0.05039      -0.37942
                        -----------------------------------------
Magnitude (a.u.)       :      1.42842
Magnitude (Debye)      :      3.63075

Rotational constants in cm-1:     0.188995     0.079574     0.075294
Rotational constants in MHz :  5665.932233  2385.568994  2257.246443

                             ****ORCA TERMINATED NORMALLY****
TOTAL RUN TIME: 0 days 0 hours 14 minutes 14 seconds 445 msec
