                         Program Version 5.0.0 -  RELEASE  -
|  1> !DLPNO-CCSD(T) aug-cc-pVTZ aug-cc-pVTZ/C TightSCF TightPNO RIJCOSX def2/J
|  2> *xyz 0 1
|  3> C          4.60295       -2.44010        2.63478
|  4> C          3.86085       -1.59157        3.62289
|  5> N          2.75650       -2.04616        4.16633
|  6> C          4.25433       -0.36291        3.86046
|  7> H          3.56526        0.31099        4.16898
|  8> H          5.05429       -0.01606        3.33784
|  9> H          2.43970       -2.97389        3.89740
| 10> H          2.06687       -1.41253        4.54981
| 11> C          3.74469       -2.58056        1.36188
| 12> C          3.20372       -1.25600        0.82621
| 13> H          2.89894       -3.23929        1.58307
| 14> H          4.33496       -3.09552        0.60019
| 15> H          5.56156       -1.97135        2.40708
| 16> H          4.81050       -3.42255        3.06310
| 17> H          2.62184       -1.43789       -0.05313
| 18> H          4.02069       -0.60826        0.58562
| 19> H          2.58975       -0.79418        1.57097
| 20> *
| 21>
| 22> %MaxCore 64000
| 23>
| 24> %pal nprocs 2
| 25> end
| 26>
| 27> %scf
| 28>   MaxIter 150
| 29> end
| 30>
| 31>
| 32>                          ****END OF INPUT****

CARTESIAN COORDINATES (ANGSTROEM)
---------------------------------
  C      4.602950   -2.440100    2.634780
  C      3.860850   -1.591570    3.622890
  N      2.756500   -2.046160    4.166330
  C      4.254330   -0.362910    3.860460
  H      3.565260    0.310990    4.168980
  H      5.054290   -0.016060    3.337840
  H      2.439700   -2.973890    3.897400
  H      2.066870   -1.412530    4.549810
  C      3.744690   -2.580560    1.361880
  C      3.203720   -1.256000    0.826210
  H      2.898940   -3.239290    1.583070
  H      4.334960   -3.095520    0.600190
  H      5.561560   -1.971350    2.407080
  H      4.810500   -3.422550    3.063100
  H      2.621840   -1.437890   -0.053130
  H      4.020690   -0.608260    0.585620
  H      2.589750   -0.794180    1.570970

 Total Charge           Charge          ....    0
 Multiplicity           Mult            ....    1
 Number of Electrons    NEL             ....   48
 Basis Dimension        Dim             ....  529

ORBITAL ENERGIES
----------------

  NO   OCC          E(Eh)            E(eV)
   0   2.0000     -15.560940      -423.4347
   1   2.0000     -11.252424      -306.1940
   2   2.0000     -11.225963      -305.4740
   3   2.0000     -11.224531      -305.4350
   4   2.0000     -11.201354      -304.8043
   5   2.0000     -11.147886      -303.3494
   6   2.0000      -1.244149       -33.8550
   7   2.0000      -1.071269       -29.1507
   8   2.0000      -0.999196       -27.1895
   9   2.0000      -0.935008       -25.4429
  10   2.0000      -0.819064       -22.2879
  11   2.0000      -0.766171       -20.8486
  12   2.0000      -0.704507       -19.1706
  13   2.0000      -0.645959       -17.5774
  14   2.0000      -0.625619       -17.0240
  15   2.0000      -0.611028       -16.6269
  16   2.0000      -0.551554       -15.0085
  17   2.0000      -0.545068       -14.8321
  18   2.0000      -0.530375       -14.4322
  19   2.0000      -0.509865       -13.8741
  20   2.0000      -0.477282       -12.9875
  21   2.0000      -0.471364       -12.8265
  22   2.0000      -0.461982       -12.5712
  23   2.0000      -0.293997        -8.0001
  24   0.0000       0.026768         0.7284
  25   0.0000       0.034815         0.9474
  26   0.0000       0.037835         1.0295
  27   0.0000       0.041602         1.1320
  28   0.0000       0.054948         1.4952

MULLIKEN ATOMIC CHARGES
-----------------------
   0 C :   -0.140033
   1 C :    1.280444
   2 N :   -0.825378
   3 C :   -1.530056
   4 H :    0.478108
   5 H :    0.210980
   6 H :    0.034668
   7 H :    0.042208
   8 C :   -0.468864
   9 C :   -1.009485
  10 H :    0.181678
  11 H :    0.348225
  12 H :    0.199562
  13 H :    0.324964
  14 H :    0.257964
  15 H :    0.254470
  16 H :    0.360544
Sum of atomic charges:   -0.0000000

LOEWDIN ATOMIC CHARGES
----------------------
   0 C :    0.303616
   1 C :   -0.340593
   2 N :    0.843706
   3 C :    0.556102
   4 H :   -0.282648
   5 H :   -0.290381
   6 H :   -0.272113
   7 H :   -0.258095
   8 C :    0.278309
   9 C :    0.599356
  10 H :   -0.155594
  11 H :   -0.144482
  12 H :   -0.147974
  13 H :   -0.140188
  14 H :   -0.179834
  15 H :   -0.173147
  16 H :   -0.196041

  Mayer bond orders larger than 0.100000
B(  0-C ,  1-C ) :   0.5730 B(  0-C ,  2-N ) :  -0.1201 B(  0-C ,  8-C ) :   0.9234
B(  0-C , 12-H ) :   1.0343 B(  0-C , 13-H ) :   0.9340 B(  1-C ,  2-N ) :   0.4689
B(  1-C ,  3-C ) :   0.7786 B(  1-C ,  5-H ) :  -0.1869 B(  2-N ,  3-C ) :  -0.1315
B(  2-N ,  6-H ) :   1.1743 B(  2-N ,  7-H ) :   1.1937 B(  3-C ,  4-H ) :   0.6825
B(  3-C ,  5-H ) :   1.3150 B(  8-C ,  9-C ) :   0.7882 B(  8-C , 10-H ) :   1.0078
B(  8-C , 11-H ) :   0.8843 B(  9-C , 14-H ) :   0.9906 B(  9-C , 15-H ) :   0.9970
B(  9-C , 16-H ) :   0.9027

E(0)                                       ...   -250.244329173
E(0)                                       ...   -250.244329173
E(CORR)(strong-pairs)                      ...     -1.139827712
E(CORR)(weak-pairs)                        ...     -0.001237430
E(CORR)(corrected)                         ...     -1.141065142
E(TOT)                                     ...   -251.385394316
E(CCSD(T))                                 ...   -251.432055321
FINAL SINGLE POINT ENERGY      -251.432055320812

DIPOLE MOMENT
-------------
                                X             Y             Z
Electronic contribution:      0.07764      -0.75597       3.61315
Nuclear contribution   :     -0.70193       0.22667      -3.99866
                        -----------------------------------------
Total Dipole Moment    :     -0.62428      -0.52931      -0.38551
                        -----------------------------------------
Magnitude (a.u.)       :      0.90472
Magnitude (Debye)      :      2.29960

Rotational constants in cm-1:     0.170665     0.086587     0.081284
Rotational constants in MHz :  5116.404877  2595.819690  2436.831753

                             ****ORCA TERMINATED NORMALLY****
TOTAL RUN TIME: 0 days 1 hours 12 minutes 10 seconds 993 msec
