                         Program Version 5.0.0 -  RELEASE  -
|  1> !DLPNO-CCSD(T) aug-cc-pVTZ aug-cc-pVTZ/C TightSCF TightPNO RIJCOSX def2/J
|  2>
|  3> *xyzfile 0 1 D1.xyz
|  4>
|  5> %MaxCore 64000
|  6>
|  7> %pal nprocs 18
|  8> end
|  9>
| 10> %scf
| 11>   MaxIter 150
| 12> end
| 13>
| 14>
| 15>                          ****END OF INPUT****

CARTESIAN COORDINATES (ANGSTROEM)
---------------------------------
  C      4.602954   -2.440100    2.634780
  C     -0.914947    0.615112    2.505538
  C     -0.059146    1.503524    3.410578
  H      0.365364    2.344315    2.861161
  H     -0.692261    1.920207    4.198985
  C      1.083027    0.749640    4.085705
  C      3.860851   -1.591565    3.622893
  C      2.756502   -2.046159    4.166333
  N      4.254325   -0.362905    3.860455
  H      3.565256    0.310994    4.168983
  H      5.054292   -0.016059    3.337838
  H      2.439696   -2.973894    3.897395
  H      2.066869   -1.412532    4.549813
  F      2.228167    1.263475    4.019826
  O      0.810034   -0.345411    4.636269
  C      3.744685   -2.580557    1.361882
  C      0.772139    0.636882    0.562129
  C     -0.130740   -0.193985    1.470763
  H     -0.840563   -0.760165    0.856377
  H      0.466691   -0.938942    2.006959
  H     -1.647961    1.245963    1.991076
  H     -1.478180   -0.081046    3.130424
  C      3.203721   -1.256004    0.826211
  H      2.898939   -3.239289    1.583074
  H      4.334962   -3.095523    0.600188
  C      2.107815   -1.442385   -0.216865
  H      2.786775   -0.672760    1.650711
  H      4.021008   -0.652993    0.414046
  C      1.390662   -0.145912   -0.602422
  H      1.372179   -2.152184    0.176151
  H      2.523302   -1.906787   -1.117115
  H      1.561361    1.100094    1.161831
  H      0.195516    1.468325    0.142758
  H      0.602893   -0.398214   -1.319716
  H      2.087247    0.508272   -1.137335
  H      5.561557   -1.971347    2.407084
  H      4.810498   -3.422552    3.063099

 Total Charge           Charge          ....    0
 Multiplicity           Mult            ....    1
 Number of Electrons    NEL             ....  118
 Basis Dimension        Dim             .... 1196

ORBITAL ENERGIES
----------------

  NO   OCC          E(Eh)            E(eV)
   0   2.0000     -26.400453      -718.3928
   1   2.0000     -20.572212      -559.7983
   2   2.0000     -15.533481      -422.6875
   3   2.0000     -11.445099      -311.4370
   4   2.0000     -11.266733      -306.5834
   5   2.0000     -11.241651      -305.9009
   6   2.0000     -11.226756      -305.4956
   7   2.0000     -11.225154      -305.4520
   8   2.0000     -11.224244      -305.4272
   9   2.0000     -11.219604      -305.3009
  10   2.0000     -11.212681      -305.1126
  11   2.0000     -11.211689      -305.0856
  12   2.0000     -11.211101      -305.0696
  13   2.0000     -11.208432      -304.9969
  14   2.0000     -11.110385      -302.3290
  15   2.0000      -1.759372       -47.8749
  16   2.0000      -1.394226       -37.9388
  17   2.0000      -1.223887       -33.3037
  18   2.0000      -1.114338       -30.3227
  19   2.0000      -1.085068       -29.5262
  20   2.0000      -1.054143       -28.6847
  21   2.0000      -1.009117       -27.4595
  22   2.0000      -0.977584       -26.6014
  23   2.0000      -0.944007       -25.6877
  24   2.0000      -0.920068       -25.0363
  25   2.0000      -0.883040       -24.0288
  26   2.0000      -0.840786       -22.8789
  27   2.0000      -0.807495       -21.9731
  28   2.0000      -0.801384       -21.8068
  29   2.0000      -0.795407       -21.6441
  30   2.0000      -0.763457       -20.7747
  31   2.0000      -0.740752       -20.1569
  32   2.0000      -0.723452       -19.6861
  33   2.0000      -0.675937       -18.3932
  34   2.0000      -0.656248       -17.8574
  35   2.0000      -0.653339       -17.7783
  36   2.0000      -0.641540       -17.4572
  37   2.0000      -0.622395       -16.9362
  38   2.0000      -0.617067       -16.7912
  39   2.0000      -0.589096       -16.0301
  40   2.0000      -0.584145       -15.8954
  41   2.0000      -0.574017       -15.6198
  42   2.0000      -0.561040       -15.2667
  43   2.0000      -0.543307       -14.7841
  44   2.0000      -0.538541       -14.6544
  45   2.0000      -0.529534       -14.4094
  46   2.0000      -0.518765       -14.1163
  47   2.0000      -0.515682       -14.0324
  48   2.0000      -0.494948       -13.4682
  49   2.0000      -0.490416       -13.3449
  50   2.0000      -0.485636       -13.2148
  51   2.0000      -0.478067       -13.0089
  52   2.0000      -0.465000       -12.6533
  53   2.0000      -0.460908       -12.5419
  54   2.0000      -0.449346       -12.2273
  55   2.0000      -0.447235       -12.1699
  56   2.0000      -0.437540       -11.9061
  57   2.0000      -0.425228       -11.5710
  58   2.0000      -0.266546        -7.2531
  59   0.0000       0.021311         0.5799
  60   0.0000       0.028839         0.7848
  61   0.0000       0.030449         0.8286
  62   0.0000       0.034698         0.9442
  63   0.0000       0.042714         1.1623

MULLIKEN ATOMIC CHARGES
-----------------------
   0 C :   -0.343386
   1 C :   -0.524243
   2 C :   -0.354589
   3 H :    0.218361
   4 H :    0.368605
   5 C :    1.000083
   6 C :    1.332527
   7 C :   -1.522252
   8 N :   -1.095495
   9 H :    0.205065
  10 H :   -0.062159
  11 H :    0.078510
  12 H :    0.800861
  13 F :   -0.484715
  14 O :   -0.845238
  15 C :   -0.593407
  16 C :   -0.335049
  17 C :   -0.551302
  18 H :    0.470360
  19 H :    0.273882
  20 H :    0.238919
  21 H :    0.200419
  22 C :   -0.498718
  23 H :    0.224219
  24 H :    0.371455
  25 C :   -0.362968
  26 H :    0.432408
  27 H :    0.224632
  28 C :   -0.845885
  29 H :   -0.008438
  30 H :    0.522572
  31 H :    0.124459
  32 H :    0.549308
  33 H :    0.116957
  34 H :    0.168628
  35 H :    0.124246
  36 H :    0.381369
Sum of atomic charges:    0.0000000

LOEWDIN ATOMIC CHARGES
----------------------
   0 C :    0.315403
   1 C :    0.293263
   2 C :    0.288090
   3 H :   -0.169244
   4 H :   -0.143663
   5 C :   -0.773372
   6 C :   -0.318961
   7 C :    0.557365
   8 N :    0.851564
   9 H :   -0.512552
  10 H :   -0.265742
  11 H :   -0.268090
  12 H :   -0.573085
  13 F :    0.734592
  14 O :    0.570601
  15 C :    0.304495
  16 C :    0.281986
  17 C :    0.282299
  18 H :   -0.124120
  19 H :   -0.163567
  20 H :   -0.135145
  21 H :   -0.142626
  22 C :    0.278195
  23 H :   -0.150349
  24 H :   -0.138264
  25 C :    0.290075
  26 H :   -0.206152
  27 H :   -0.120245
  28 C :    0.305817
  29 H :   -0.150508
  30 H :   -0.132522
  31 H :   -0.161712
  32 H :   -0.134658
  33 H :   -0.142294
  34 H :   -0.139368
  35 H :   -0.152767
  36 H :   -0.134738

  Mayer bond orders larger than 0.100000
B(  0-C ,  6-C ) :   0.7579 B(  0-C ,  7-C ) :  -0.1629 B(  0-C ,  8-N ) :  -0.1113
B(  0-C , 15-C ) :   0.9650 B(  0-C , 35-H ) :   1.1448 B(  0-C , 36-H ) :   0.9222
B(  1-C ,  2-C ) :   0.9265 B(  1-C ,  5-C ) :   0.1263 B(  1-C , 17-C ) :   0.8729
B(  1-C , 20-H ) :   0.9566 B(  1-C , 21-H ) :   1.0067 B(  2-C ,  3-H ) :   1.0163
B(  2-C ,  4-H ) :   0.9059 B(  2-C ,  5-C ) :   0.7085 B(  4-H ,  5-C ) :  -0.1033
B(  5-C , 13-F ) :   0.4807 B(  5-C , 14-O ) :   1.4537 B(  6-C ,  7-C ) :   1.2455
B(  6-C , 10-H ) :  -0.1997 B(  6-C , 11-H ) :  -0.1932 B(  6-C , 15-C ) :   0.1262
B(  7-C ,  8-N ) :  -0.1167 B(  7-C , 11-H ) :   1.6049 B(  7-C , 12-H ) :   0.3029
B(  8-N ,  9-H ) :   1.0041 B(  8-N , 10-H ) :   1.3178 B(  9-H , 13-F ) :  -0.1029
B( 15-C , 22-C ) :   0.7912 B( 15-C , 23-H ) :   1.0213 B( 15-C , 24-H ) :   0.8522
B( 16-C , 17-C ) :   0.8149 B( 16-C , 28-C ) :   0.9911 B( 16-C , 31-H ) :   1.1178
B( 16-C , 32-H ) :   0.6863 B( 17-C , 18-H ) :   0.7433 B( 17-C , 19-H ) :   1.0642
B( 22-C , 25-C ) :   0.8565 B( 22-C , 26-H ) :   0.9313 B( 22-C , 27-H ) :   0.9750
B( 25-C , 28-C ) :   0.8780 B( 25-C , 29-H ) :   1.1913 B( 25-C , 30-H ) :   0.7070
B( 28-C , 31-H ) :   0.1175 B( 28-C , 32-H ) :  -0.1013 B( 28-C , 33-H ) :   1.1190
B( 28-C , 34-H ) :   1.0551

E(0)                                       ...   -696.148608074
E(0)                                       ...   -696.148608074
E(CORR)(strong-pairs)                      ...     -2.899424454
E(CORR)(weak-pairs)                        ...     -0.005527568
E(CORR)(corrected)                         ...     -2.904952021
E(TOT)                                     ...   -699.053560096
E(CCSD(T))                                 ...   -699.175308266
FINAL SINGLE POINT ENERGY      -699.175308265897

DIPOLE MOMENT
-------------
                                X             Y             Z
Electronic contribution:      1.13406       7.47793      14.81717
Nuclear contribution   :     -1.66567      -5.90236     -15.95042
                        -----------------------------------------
Total Dipole Moment    :     -0.53161       1.57556      -1.13326
                        -----------------------------------------
Magnitude (a.u.)       :      2.01228
Magnitude (Debye)      :      5.11481

Rotational constants in cm-1:     0.021600     0.017292     0.011381
Rotational constants in MHz :   647.565282   518.410024   341.193038

                             ****ORCA TERMINATED NORMALLY****
TOTAL RUN TIME: 0 days 7 hours 25 minutes 47 seconds 643 msec
