                         Program Version 5.0.0 -  RELEASE  -
|  1> !DLPNO-CCSD(T) aug-cc-pVTZ aug-cc-pVTZ/C TightSCF TightPNO RIJCOSX def2/J
|  2>
|  3> *xyzfile 0 1 D4.xyz
|  4>
|  5> %MaxCore 64000
|  6>
|  7> %pal nprocs 18
|  8> end
|  9>
| 10> %scf
| 11>   MaxIter 150
| 12> end
| 13>
| 14>
| 15>                          ****END OF INPUT****

CARTESIAN COORDINATES (ANGSTROEM)
---------------------------------
  C      4.602954   -2.440100    2.634780
  C     -0.914947    0.615112    2.505538
  C     -0.059146    1.503524    3.410578
  H      0.365364    2.344315    2.861161
  H     -0.692261    1.920207    4.198985
  C      1.083027    0.749640    4.085705
  C      3.860851   -1.591565    3.622893
  N      2.756502   -2.046159    4.166333
  C      4.254325   -0.362905    3.860455
  H      3.565256    0.310994    4.168983
  H      5.054292   -0.016059    3.337838
  H      2.439696   -2.973894    3.897395
  H      2.066869   -1.412532    4.549813
  O      2.228167    1.263475    4.019826
  F      0.810034   -0.345411    4.636269
  C      3.744685   -2.580557    1.361882
  C      0.772139    0.636882    0.562129
  C     -0.130740   -0.193985    1.470763
  H     -0.840563   -0.760165    0.856377
  H      0.466691   -0.938942    2.006959
  H     -1.647961    1.245963    1.991076
  H     -1.478180   -0.081046    3.130424
  C      3.203721   -1.256004    0.826211
  H      2.898939   -3.239289    1.583074
  H      4.334962   -3.095523    0.600188
  C      2.107815   -1.442385   -0.216865
  H      2.786775   -0.672760    1.650711
  H      4.021008   -0.652993    0.414046
  C      1.390662   -0.145912   -0.602422
  H      1.372179   -2.152184    0.176151
  H      2.523302   -1.906787   -1.117115
  H      1.561361    1.100094    1.161831
  H      0.195516    1.468325    0.142758
  H      0.602893   -0.398214   -1.319716
  H      2.087247    0.508272   -1.137335
  H      5.561557   -1.971347    2.407084
  H      4.810498   -3.422552    3.063099

 Total Charge           Charge          ....    0
 Multiplicity           Mult            ....    1
 Number of Electrons    NEL             ....  118
 Basis Dimension        Dim             .... 1196

ORBITAL ENERGIES
----------------

  NO   OCC          E(Eh)            E(eV)
   0   2.0000     -26.402464      -718.4476
   1   2.0000     -20.574538      -559.8616
   2   2.0000     -15.534662      -422.7196
   3   2.0000     -11.446243      -311.4681
   4   2.0000     -11.267479      -306.6037
   5   2.0000     -11.248487      -306.0869
   6   2.0000     -11.232927      -305.6635
   7   2.0000     -11.224584      -305.4365
   8   2.0000     -11.222749      -305.3865
   9   2.0000     -11.218189      -305.2624
  10   2.0000     -11.213191      -305.1264
  11   2.0000     -11.211796      -305.0885
  12   2.0000     -11.209294      -305.0204
  13   2.0000     -11.203632      -304.8663
  14   2.0000     -11.109189      -302.2964
  15   2.0000      -1.762073       -47.9484
  16   2.0000      -1.394706       -37.9519
  17   2.0000      -1.223309       -33.2879
  18   2.0000      -1.119349       -30.4590
  19   2.0000      -1.085198       -29.5297
  20   2.0000      -1.053103       -28.6564
  21   2.0000      -1.008417       -27.4404
  22   2.0000      -0.976353       -26.5679
  23   2.0000      -0.946702       -25.7611
  24   2.0000      -0.922635       -25.1062
  25   2.0000      -0.882962       -24.0266
  26   2.0000      -0.841198       -22.8902
  27   2.0000      -0.813042       -22.1240
  28   2.0000      -0.806800       -21.9541
  29   2.0000      -0.796430       -21.6720
  30   2.0000      -0.762636       -20.7524
  31   2.0000      -0.743961       -20.2442
  32   2.0000      -0.719521       -19.5792
  33   2.0000      -0.679829       -18.4991
  34   2.0000      -0.660879       -17.9834
  35   2.0000      -0.654045       -17.7975
  36   2.0000      -0.630892       -17.1675
  37   2.0000      -0.618813       -16.8388
  38   2.0000      -0.612773       -16.6744
  39   2.0000      -0.599953       -16.3255
  40   2.0000      -0.586065       -15.9476
  41   2.0000      -0.575396       -15.6573
  42   2.0000      -0.566195       -15.4069
  43   2.0000      -0.542241       -14.7551
  44   2.0000      -0.537685       -14.6311
  45   2.0000      -0.529511       -14.4087
  46   2.0000      -0.523096       -14.2342
  47   2.0000      -0.513329       -13.9684
  48   2.0000      -0.501861       -13.6563
  49   2.0000      -0.494508       -13.4562
  50   2.0000      -0.488090       -13.2816
  51   2.0000      -0.475722       -12.9450
  52   2.0000      -0.464400       -12.6370
  53   2.0000      -0.462387       -12.5822
  54   2.0000      -0.450276       -12.2526
  55   2.0000      -0.447034       -12.1644
  56   2.0000      -0.435362       -11.8468
  57   2.0000      -0.419766       -11.4224
  58   2.0000      -0.265802        -7.2328
  59   0.0000       0.019957         0.5431
  60   0.0000       0.028143         0.7658
  61   0.0000       0.029943         0.8148
  62   0.0000       0.034494         0.9386
  63   0.0000       0.042164         1.1473

MULLIKEN ATOMIC CHARGES
-----------------------
   0 C :   -0.385435
   1 C :   -0.502361
   2 C :   -0.315726
   3 H :    0.195576
   4 H :    0.414795
   5 C :    0.974406
   6 C :    1.162179
   7 N :   -1.043872
   8 C :   -1.356443
   9 H :    0.818424
  10 H :    0.095065
  11 H :   -0.090792
  12 H :    0.287197
  13 O :   -0.830111
  14 F :   -0.524819
  15 C :   -0.638926
  16 C :   -0.291605
  17 C :   -0.609563
  18 H :    0.458695
  19 H :    0.217579
  20 H :    0.214776
  21 H :    0.206923
  22 C :   -0.454425
  23 H :    0.209731
  24 H :    0.337991
  25 C :   -0.367487
  26 H :    0.485188
  27 H :    0.219824
  28 C :   -0.861771
  29 H :   -0.022144
  30 H :    0.514262
  31 H :    0.154135
  32 H :    0.574798
  33 H :    0.126308
  34 H :    0.165032
  35 H :    0.120595
  36 H :    0.342003
Sum of atomic charges:   -0.0000000

LOEWDIN ATOMIC CHARGES
----------------------
   0 C :    0.312709
   1 C :    0.287852
   2 C :    0.287826
   3 H :   -0.158254
   4 H :   -0.145793
   5 C :   -0.774664
   6 C :   -0.320137
   7 N :    0.855578
   8 C :    0.554526
   9 H :   -0.574134
  10 H :   -0.272294
  11 H :   -0.263654
  12 H :   -0.512420
  13 O :    0.576827
  14 F :    0.731085
  15 C :    0.303212
  16 C :    0.287398
  17 C :    0.279609
  18 H :   -0.124892
  19 H :   -0.162234
  20 H :   -0.133946
  21 H :   -0.146715
  22 C :    0.281498
  23 H :   -0.154426
  24 H :   -0.136774
  25 C :    0.286269
  26 H :   -0.206853
  27 H :   -0.113971
  28 C :    0.306672
  29 H :   -0.154082
  30 H :   -0.133333
  31 H :   -0.159350
  32 H :   -0.133585
  33 H :   -0.143540
  34 H :   -0.137543
  35 H :   -0.147888
  36 H :   -0.140579

  Mayer bond orders larger than 0.100000
B(  0-C ,  6-C ) :   0.5743 B(  0-C ,  7-N ) :  -0.1743 B(  0-C ,  8-C ) :  -0.1596
B(  0-C , 15-C ) :   1.0417 B(  0-C , 35-H ) :   1.1758 B(  0-C , 36-H ) :   0.9468
B(  1-C ,  2-C ) :   0.9128 B(  1-C ,  5-C ) :   0.1019 B(  1-C , 17-C ) :   0.8701
B(  1-C , 20-H ) :   0.9808 B(  1-C , 21-H ) :   0.9941 B(  2-C ,  3-H ) :   0.9846
B(  2-C ,  4-H ) :   0.8970 B(  2-C ,  5-C ) :   0.7502 B(  2-C , 13-O ) :  -0.1012
B(  2-C , 14-F ) :   0.1031 B(  2-C , 17-C ) :   0.1095 B(  4-H ,  5-C ) :  -0.1207
B(  5-C , 13-O ) :   1.5005 B(  5-C , 14-F ) :   0.4857 B(  6-C ,  7-N ) :   0.4103
B(  6-C ,  8-C ) :   1.2225 B(  6-C , 10-H ) :  -0.2274 B(  6-C , 11-H ) :  -0.1875
B(  6-C , 36-H ) :  -0.1491 B(  7-N ,  8-C ) :  -0.1811 B(  7-N , 11-H ) :   1.3781
B(  7-N , 12-H ) :   0.8799 B(  7-N , 14-F ) :  -0.1070 B(  8-C ,  9-H ) :   0.2063
B(  8-C , 10-H ) :   1.6001 B( 12-H , 14-F ) :  -0.1207 B( 15-C , 22-C ) :   0.7931
B( 15-C , 23-H ) :   1.0141 B( 15-C , 24-H ) :   0.8910 B( 16-C , 17-C ) :   0.8248
B( 16-C , 28-C ) :   0.9815 B( 16-C , 31-H ) :   1.0987 B( 16-C , 32-H ) :   0.6708
B( 17-C , 18-H ) :   0.7661 B( 17-C , 19-H ) :   1.0933 B( 22-C , 25-C ) :   0.8622
B( 22-C , 26-H ) :   0.9252 B( 22-C , 27-H ) :   0.9962 B( 25-C , 28-C ) :   0.8898
B( 25-C , 29-H ) :   1.2061 B( 25-C , 30-H ) :   0.7149 B( 28-C , 31-H ) :   0.1133
B( 28-C , 32-H ) :  -0.1035 B( 28-C , 33-H ) :   1.1158 B( 28-C , 34-H ) :   1.0565

E(0)                                       ...   -696.147611148
E(0)                                       ...   -696.147611148
E(CORR)(strong-pairs)                      ...     -2.899128893
E(CORR)(weak-pairs)                        ...     -0.005519590
E(CORR)(corrected)                         ...     -2.904648483
E(TOT)                                     ...   -699.052259630
E(CCSD(T))                                 ...   -699.173919627
FINAL SINGLE POINT ENERGY      -699.173919626791

DIPOLE MOMENT
-------------
                                X             Y             Z
Electronic contribution:     -2.41897       3.58604      16.09942
Nuclear contribution   :      0.32481      -3.64700     -16.75441
                        -----------------------------------------
Total Dipole Moment    :     -2.09416      -0.06096      -0.65498
                        -----------------------------------------
Magnitude (a.u.)       :      2.19505
Magnitude (Debye)      :      5.57937

Rotational constants in cm-1:     0.021629     0.017327     0.011372
Rotational constants in MHz :   648.414821   519.443407   340.925013

                             ****ORCA TERMINATED NORMALLY****
TOTAL RUN TIME: 0 days 5 hours 39 minutes 10 seconds 572 msec
