                         Program Version 5.0.0 -  RELEASE  -
|  1> !LC-PBE RIJCOSX def2-SVPD def2/J TightSCF
|  2> *xyz -1 1
|  3> C          0.13297        2.38587       -4.02462
|  4> C         -1.36646        2.47911       -4.31393
|  5> C         -2.35773        2.30686       -3.13675
|  6> H         -1.63680        1.72709       -5.06399
|  7> H         -1.58235        3.44561       -4.76869
|  8> O         -3.44376        2.84652       -3.25274
|  9> O         -1.97092        1.58304       -2.15123
| 10> H          0.68084        2.52514       -4.93310
| 11> H          0.35823        1.42282       -3.61633
| 12> H          0.40851        3.14443       -3.32208
| 13> *
| 14> %MaxCore 64000
| 15>
| 16> %pal nprocs 4
| 17> end
| 18>
| 19> %scf
| 20>   MaxIter 150
| 21> end
| 22>
| 23>
| 24>                          ****END OF INPUT****

CARTESIAN COORDINATES (ANGSTROEM)
---------------------------------
  C      0.132970    2.385870   -4.024620
  C     -1.366460    2.479110   -4.313930
  C     -2.357730    2.306860   -3.136750
  H     -1.636800    1.727090   -5.063990
  H     -1.582350    3.445610   -4.768690
  O     -3.443760    2.846520   -3.252740
  O     -1.970920    1.583040   -2.151230
  H      0.680840    2.525140   -4.933100
  H      0.358230    1.422820   -3.616330
  H      0.408510    3.144430   -3.322080

 Total Charge           Charge          ....   -1
 Multiplicity           Mult            ....    1
 Number of Electrons    NEL             ....   40
 Basis Dimension        Dim             ....  146

ORBITAL ENERGIES
----------------

  NO   OCC          E(Eh)            E(eV)
   0   2.0000     -18.734112      -509.7811
   1   2.0000     -18.722375      -509.4617
   2   2.0000     -10.019969      -272.6572
   3   2.0000      -9.963289      -271.1149
   4   2.0000      -9.955644      -270.9069
   5   2.0000      -0.988148       -26.8889
   6   2.0000      -0.877979       -23.8910
   7   2.0000      -0.775647       -21.1064
   8   2.0000      -0.633778       -17.2460
   9   2.0000      -0.464750       -12.6465
  10   2.0000      -0.441910       -12.0250
  11   2.0000      -0.403788       -10.9876
  12   2.0000      -0.375229       -10.2105
  13   2.0000      -0.359192        -9.7741
  14   2.0000      -0.350489        -9.5373
  15   2.0000      -0.317297        -8.6341
  16   2.0000      -0.298877        -8.1328
  17   2.0000      -0.180357        -4.9078
  18   2.0000      -0.174980        -4.7615
  19   2.0000      -0.165321        -4.4986
  20   0.0000       0.219653         5.9771
  21   0.0000       0.256425         6.9777
  22   0.0000       0.263943         7.1823
  23   0.0000       0.286599         7.7987
  24   0.0000       0.310502         8.4492

MULLIKEN ATOMIC CHARGES
-----------------------
   0 C :    0.426744
   1 C :   -0.523063
   2 C :    0.309388
   3 H :    0.044700
   4 H :    0.042149
   5 O :   -0.579256
   6 O :   -0.706930
   7 H :   -0.009553
   8 H :    0.004981
   9 H :   -0.009159
Sum of atomic charges:   -1.0000000

LOEWDIN ATOMIC CHARGES
----------------------
   0 C :    0.060343
   1 C :   -0.064877
   2 C :   -0.327217
   3 H :    0.024796
   4 H :    0.010851
   5 O :   -0.299638
   6 O :   -0.341871
   7 H :   -0.031265
   8 H :   -0.017776
   9 H :   -0.013346

  Mayer bond orders larger than 0.100000
B(  0-C ,  1-C ) :   1.2814 B(  0-C ,  7-H ) :   0.8105 B(  0-C ,  8-H ) :   0.8606
B(  0-C ,  9-H ) :   0.8708 B(  1-C ,  2-C ) :   1.0098 B(  1-C ,  3-H ) :   0.9414
B(  1-C ,  4-H ) :   0.9559 B(  1-C ,  7-H ) :   0.1836 B(  1-C ,  8-H ) :   0.1738
B(  1-C ,  9-H ) :   0.1541 B(  2-C ,  4-H ) :   0.1343 B(  2-C ,  5-O ) :   1.6191
B(  2-C ,  6-O ) :   1.5466

FINAL SINGLE POINT ENERGY      -266.873672284260

DIPOLE MOMENT
-------------
                                X             Y             Z
Electronic contribution:     -5.17749      -0.35013       3.10618
Nuclear contribution   :      6.75610       0.63068      -4.53972
                        -----------------------------------------
Total Dipole Moment    :      1.57860       0.28055      -1.43354
                        -----------------------------------------
Magnitude (a.u.)       :      2.15075
Magnitude (Debye)      :      5.46678

Rotational constants in cm-1:     0.335096     0.130241     0.099025
Rotational constants in MHz : 10045.924902  3904.536250  2968.708333

                             ****ORCA TERMINATED NORMALLY****
TOTAL RUN TIME: 0 days 0 hours 0 minutes 16 seconds 954 msec
