                         Program Version 5.0.0 -  RELEASE  -
|  1> !LC-PBE RIJCOSX def2-SVPD def2/J TightSCF
|  2> *xyz 1 1
|  3> C          0.64866        1.00359       -3.64560
|  4> N          0.28128        0.67645       -2.24018
|  5> C          0.13297        2.38587       -4.02462
|  6> H          0.39079       -0.31925       -2.02649
|  7> H         -0.69269        0.99010       -2.13812
|  8> H          0.85421        1.21221       -1.57528
|  9> H          0.19099        0.23965       -4.27575
| 10> H          1.73157        0.93173       -3.75075
| 11> H          0.40589        2.60338       -5.03610
| 12> H          0.56342        3.11797       -3.37374
| 13> H         -0.93265        2.40724       -3.93025
| 14> *
| 15> %MaxCore 64000
| 16>
| 17> %pal nprocs 4
| 18> end
| 19>
| 20> %scf
| 21>   MaxIter 150
| 22> end
| 23>
| 24>
| 25>                          ****END OF INPUT****

CARTESIAN COORDINATES (ANGSTROEM)
---------------------------------
  C      0.648660    1.003590   -3.645600
  N      0.281280    0.676450   -2.240180
  C      0.132970    2.385870   -4.024620
  H      0.390790   -0.319250   -2.026490
  H     -0.692690    0.990100   -2.138120
  H      0.854210    1.212210   -1.575280
  H      0.190990    0.239650   -4.275750
  H      1.731570    0.931730   -3.750750
  H      0.405890    2.603380   -5.036100
  H      0.563420    3.117970   -3.373740
  H     -0.932650    2.407240   -3.930250

 Total Charge           Charge          ....    1
 Multiplicity           Mult            ....    1
 Number of Electrons    NEL             ....   26
 Basis Dimension        Dim             ....  124

ORBITAL ENERGIES
----------------

  NO   OCC          E(Eh)            E(eV)
   0   2.0000     -14.565706      -396.3530
   1   2.0000     -10.383113      -282.5389
   2   2.0000     -10.304247      -280.3928
   3   2.0000      -1.384191       -37.6657
   4   2.0000      -1.135047       -30.8862
   5   2.0000      -1.004403       -27.3312
   6   2.0000      -0.950901       -25.8753
   7   2.0000      -0.942552       -25.6481
   8   2.0000      -0.838896       -22.8275
   9   2.0000      -0.784885       -21.3578
  10   2.0000      -0.720843       -19.6151
  11   2.0000      -0.705108       -19.1870
  12   2.0000      -0.683762       -18.6061
  13   0.0000      -0.108844        -2.9618
  14   0.0000      -0.049749        -1.3537
  15   0.0000      -0.046237        -1.2582
  16   0.0000      -0.044436        -1.2092
  17   0.0000      -0.010641        -0.2895

MULLIKEN ATOMIC CHARGES
-----------------------
   0 C :    0.008796
   1 N :   -0.827535
   2 C :    0.317693
   3 H :    0.371322
   4 H :    0.464212
   5 H :    0.413351
   6 H :    0.040037
   7 H :    0.010456
   8 H :    0.067066
   9 H :    0.084786
  10 H :    0.049816
Sum of atomic charges:    1.0000000

LOEWDIN ATOMIC CHARGES
----------------------
   0 C :    0.026938
   1 N :    0.313885
   2 C :    0.137677
   3 H :    0.116186
   4 H :    0.108782
   5 H :    0.118723
   6 H :    0.064132
   7 H :    0.063626
   8 H :    0.026468
   9 H :    0.013040
  10 H :    0.010544

  Mayer bond orders larger than 0.100000
B(  0-C ,  1-N ) :   0.8166 B(  0-C ,  2-C ) :   1.2886 B(  0-C ,  6-H ) :   0.9629
B(  0-C ,  7-H ) :   0.9821 B(  0-C ,  8-H ) :   0.1424 B(  0-C ,  9-H ) :   0.1001
B(  0-C , 10-H ) :   0.1103 B(  1-N ,  3-H ) :   0.7832 B(  1-N ,  4-H ) :   0.6646
B(  1-N ,  5-H ) :   0.7601 B(  2-C ,  8-H ) :   0.8746 B(  2-C ,  9-H ) :   0.8618
B(  2-C , 10-H ) :   0.8789

FINAL SINGLE POINT ENERGY      -134.992337085659

DIPOLE MOMENT
-------------
                                X             Y             Z
Electronic contribution:      0.16843      -1.31684       1.34403
Nuclear contribution   :     -0.22655       0.48066      -0.09136
                        -----------------------------------------
Total Dipole Moment    :     -0.05811      -0.83618       1.25268
                        -----------------------------------------
Magnitude (a.u.)       :      1.50724
Magnitude (Debye)      :      3.83111

Rotational constants in cm-1:     0.998155     0.284845     0.251232
Rotational constants in MHz : 29923.943568  8539.431565  7531.732866

                             ****ORCA TERMINATED NORMALLY****
TOTAL RUN TIME: 0 days 0 hours 0 minutes 14 seconds 851 msec
