                         Program Version 5.0.0 -  RELEASE  -
|  1> !LC-PBE RIJCOSX def2-SVPD def2/J TightSCF
|  2> *xyz 0 1
|  3> C          0.13297        2.38587       -4.02462
|  4> C         -1.36646        2.47911       -4.31393
|  5> C         -2.35773        2.30686       -3.13675
|  6> H         -1.63680        1.72709       -5.06399
|  7> H         -1.58235        3.44561       -4.76869
|  8> F         -3.44376        2.84652       -3.25274
|  9> O         -1.97092        1.58304       -2.15123
| 10> H          0.68084        2.52514       -4.93310
| 11> H          0.35823        1.42282       -3.61633
| 12> H          0.40851        3.14443       -3.32208
| 13> *
| 14> %MaxCore 64000
| 15>
| 16> %pal nprocs 4
| 17> end
| 18>
| 19> %scf
| 20>   MaxIter 150
| 21> end
| 22>
| 23>
| 24>                          ****END OF INPUT****

CARTESIAN COORDINATES (ANGSTROEM)
---------------------------------
  C      0.132970    2.385870   -4.024620
  C     -1.366460    2.479110   -4.313930
  C     -2.357730    2.306860   -3.136750
  H     -1.636800    1.727090   -5.063990
  H     -1.582350    3.445610   -4.768690
  F     -3.443760    2.846520   -3.252740
  O     -1.970920    1.583040   -2.151230
  H      0.680840    2.525140   -4.933100
  H      0.358230    1.422820   -3.616330
  H      0.408510    3.144430   -3.322080

 Total Charge           Charge          ....    0
 Multiplicity           Mult            ....    1
 Number of Electrons    NEL             ....   40
 Basis Dimension        Dim             ....  146

ORBITAL ENERGIES
----------------

  NO   OCC          E(Eh)            E(eV)
   0   2.0000     -24.597462      -669.3310
   1   2.0000     -18.999800      -517.0108
   2   2.0000     -10.324344      -280.9397
   3   2.0000     -10.165549      -276.6186
   4   2.0000     -10.129599      -275.6404
   5   2.0000      -1.498137       -40.7664
   6   2.0000      -1.177216       -32.0337
   7   2.0000      -0.972058       -26.4511
   8   2.0000      -0.861304       -23.4373
   9   2.0000      -0.807394       -21.9703
  10   2.0000      -0.729186       -19.8422
  11   2.0000      -0.706380       -19.2216
  12   2.0000      -0.657895       -17.9022
  13   2.0000      -0.614572       -16.7234
  14   2.0000      -0.575330       -15.6555
  15   2.0000      -0.532785       -14.4978
  16   2.0000      -0.510770       -13.8988
  17   2.0000      -0.508226       -13.8295
  18   2.0000      -0.480255       -13.0684
  19   2.0000      -0.427957       -11.6453
  20   0.0000       0.063666         1.7324
  21   0.0000       0.083468         2.2713
  22   0.0000       0.108432         2.9506
  23   0.0000       0.123921         3.3721
  24   0.0000       0.144916         3.9434

MULLIKEN ATOMIC CHARGES
-----------------------
   0 C :    0.404435
   1 C :   -0.613914
   2 C :    0.629817
   3 H :    0.131460
   4 H :    0.104261
   5 F :   -0.272351
   6 O :   -0.469808
   7 H :    0.032056
   8 H :    0.030987
   9 H :    0.023057
Sum of atomic charges:    0.0000000

LOEWDIN ATOMIC CHARGES
----------------------
   0 C :    0.105380
   1 C :   -0.024514
   2 C :   -0.027448
   3 H :    0.052309
   4 H :    0.033927
   5 F :    0.005180
   6 O :   -0.147230
   7 H :   -0.001751
   8 H :    0.000752
   9 H :    0.003395

  Mayer bond orders larger than 0.100000
B(  0-C ,  1-C ) :   1.3525 B(  0-C ,  7-H ) :   0.8207 B(  0-C ,  8-H ) :   0.8574
B(  0-C ,  9-H ) :   0.8712 B(  1-C ,  2-C ) :   1.0870 B(  1-C ,  3-H ) :   0.9054
B(  1-C ,  4-H ) :   0.9269 B(  1-C ,  7-H ) :   0.1696 B(  1-C ,  8-H ) :   0.1622
B(  1-C ,  9-H ) :   0.1498 B(  2-C ,  5-F ) :   0.8741 B(  2-C ,  6-O ) :   1.8967

FINAL SINGLE POINT ENERGY      -291.368054079837

DIPOLE MOMENT
-------------
                                X             Y             Z
Electronic contribution:     -8.36152       0.50171       3.51403
Nuclear contribution   :      8.54799       0.05434      -4.66633
                        -----------------------------------------
Total Dipole Moment    :      0.18647       0.55605      -1.15230
                        -----------------------------------------
Magnitude (a.u.)       :      1.29296
Magnitude (Debye)      :      3.28646

Rotational constants in cm-1:     0.325803     0.123345     0.094275
Rotational constants in MHz :  9767.324172  3697.779805  2826.305733

                             ****ORCA TERMINATED NORMALLY****
TOTAL RUN TIME: 0 days 0 hours 0 minutes 17 seconds 961 msec
