                         Program Version 5.0.0 -  RELEASE  -
|  1> !LC-PBE RIJCOSX def2-SVPD def2/J TightSCF
|  2> *xyz 0 1
|  3> C          0.64866        1.00359       -3.64560
|  4> C          0.28128        0.67645       -2.24018
|  5> C          0.13297        2.38587       -4.02462
|  6> H          0.39079       -0.31925       -2.02649
|  7> H         -0.69269        0.99010       -2.13812
|  8> H          0.85421        1.21221       -1.57528
|  9> H          0.19099        0.23965       -4.27575
| 10> H          1.73157        0.93173       -3.75075
| 11> H          0.40589        2.60338       -5.03610
| 12> H          0.56342        3.11797       -3.37374
| 13> H         -0.93265        2.40724       -3.93025
| 14> *
| 15> %MaxCore 64000
| 16>
| 17> %pal nprocs 4
| 18> end
| 19>
| 20> %scf
| 21>   MaxIter 150
| 22> end
| 23>
| 24>
| 25>                          ****END OF INPUT****

CARTESIAN COORDINATES (ANGSTROEM)
---------------------------------
  C      0.648660    1.003590   -3.645600
  C      0.281280    0.676450   -2.240180
  C      0.132970    2.385870   -4.024620
  H      0.390790   -0.319250   -2.026490
  H     -0.692690    0.990100   -2.138120
  H      0.854210    1.212210   -1.575280
  H      0.190990    0.239650   -4.275750
  H      1.731570    0.931730   -3.750750
  H      0.405890    2.603380   -5.036100
  H      0.563420    3.117970   -3.373740
  H     -0.932650    2.407240   -3.930250

 Total Charge           Charge          ....    0
 Multiplicity           Mult            ....    1
 Number of Electrons    NEL             ....   26
 Basis Dimension        Dim             ....  124

ORBITAL ENERGIES
----------------

  NO   OCC          E(Eh)            E(eV)
   0   2.0000     -10.114202      -275.2214
   1   2.0000     -10.105047      -274.9723
   2   2.0000     -10.086664      -274.4721
   3   2.0000      -0.967530       -26.3278
   4   2.0000      -0.852242       -23.1907
   5   2.0000      -0.740264       -20.1436
   6   2.0000      -0.616857       -16.7855
   7   2.0000      -0.595350       -16.2003
   8   2.0000      -0.541421       -14.7328
   9   2.0000      -0.522222       -14.2104
  10   2.0000      -0.469140       -12.7660
  11   2.0000      -0.464469       -12.6388
  12   2.0000      -0.453694       -12.3456
  13   0.0000       0.096531         2.6267
  14   0.0000       0.121281         3.3002
  15   0.0000       0.129177         3.5151
  16   0.0000       0.163044         4.4367
  17   0.0000       0.180941         4.9237

MULLIKEN ATOMIC CHARGES
-----------------------
   0 C :   -0.695003
   1 C :    0.685747
   2 C :    0.358887
   3 H :   -0.145015
   4 H :   -0.101834
   5 H :   -0.090592
   6 H :    0.006490
   7 H :   -0.040404
   8 H :   -0.024192
   9 H :    0.019712
  10 H :    0.026205
Sum of atomic charges:   -0.0000000

LOEWDIN ATOMIC CHARGES
----------------------
   0 C :   -0.145834
   1 C :    0.082317
   2 C :    0.081415
   3 H :   -0.022123
   4 H :   -0.023251
   5 H :   -0.017340
   6 H :    0.032425
   7 H :    0.031219
   8 H :   -0.010153
   9 H :   -0.002787
  10 H :   -0.005887

  Mayer bond orders larger than 0.100000
B(  0-C ,  1-C ) :   1.2631 B(  0-C ,  2-C ) :   1.2466 B(  0-C ,  3-H ) :   0.1545
B(  0-C ,  4-H ) :   0.1959 B(  0-C ,  5-H ) :   0.1813 B(  0-C ,  6-H ) :   0.9726
B(  0-C ,  7-H ) :   1.0117 B(  0-C ,  8-H ) :   0.1399 B(  0-C ,  9-H ) :   0.1387
B(  0-C , 10-H ) :   0.1222 B(  1-C ,  3-H ) :   0.8241 B(  1-C ,  4-H ) :   0.7982
B(  1-C ,  5-H ) :   0.7781 B(  2-C ,  8-H ) :   0.8899 B(  2-C ,  9-H ) :   0.8716
B(  2-C , 10-H ) :   0.8780 B(  4-H ,  5-H ) :   0.1037

FINAL SINGLE POINT ENERGY      -118.613755533238

DIPOLE MOMENT
-------------
                                X             Y             Z
Electronic contribution:      0.25917      -0.27833      -0.24657
Nuclear contribution   :     -0.24754       0.26111       0.24628
                        -----------------------------------------
Total Dipole Moment    :      0.01163      -0.01721      -0.00030
                        -----------------------------------------
Magnitude (a.u.)       :      0.02078
Magnitude (Debye)      :      0.05281

Rotational constants in cm-1:     1.006509     0.299509     0.263145
Rotational constants in MHz : 30174.379724  8979.049324  7888.875355

                             ****ORCA TERMINATED NORMALLY****
TOTAL RUN TIME: 0 days 0 hours 0 minutes 12 seconds 360 msec
