                         Program Version 5.0.0 -  RELEASE  -
|  1> !LC-PBE RIJCOSX def2-SVPD def2/J TightSCF
|  2> *xyz 0 1
|  3> C          0.13297        2.38587       -4.02462
|  4> C         -1.36646        2.47911       -4.31393
|  5> C         -2.35773        2.30686       -3.13675
|  6> H         -1.63680        1.72709       -5.06399
|  7> H         -1.58235        3.44561       -4.76869
|  8> O         -3.44376        2.84652       -3.25274
|  9> F         -1.97092        1.58304       -2.15123
| 10> H          0.68084        2.52514       -4.93310
| 11> H          0.35823        1.42282       -3.61633
| 12> H          0.40851        3.14443       -3.32208
| 13> *
| 14> %MaxCore 64000
| 15>
| 16> %pal nprocs 4
| 17> end
| 18>
| 19> %scf
| 20>   MaxIter 150
| 21> end
| 22>
| 23>
| 24>                          ****END OF INPUT****

CARTESIAN COORDINATES (ANGSTROEM)
---------------------------------
  C      0.132970    2.385870   -4.024620
  C     -1.366460    2.479110   -4.313930
  C     -2.357730    2.306860   -3.136750
  H     -1.636800    1.727090   -5.063990
  H     -1.582350    3.445610   -4.768690
  O     -3.443760    2.846520   -3.252740
  F     -1.970920    1.583040   -2.151230
  H      0.680840    2.525140   -4.933100
  H      0.358230    1.422820   -3.616330
  H      0.408510    3.144430   -3.322080

 Total Charge           Charge          ....    0
 Multiplicity           Mult            ....    1
 Number of Electrons    NEL             ....   40
 Basis Dimension        Dim             ....  146

ORBITAL ENERGIES
----------------

  NO   OCC          E(Eh)            E(eV)
   0   2.0000     -24.573050      -668.6667
   1   2.0000     -19.010005      -517.2885
   2   2.0000     -10.318526      -280.7814
   3   2.0000     -10.163622      -276.5662
   4   2.0000     -10.134967      -275.7865
   5   2.0000      -1.449290       -39.4372
   6   2.0000      -1.216716       -33.1085
   7   2.0000      -0.974807       -26.5259
   8   2.0000      -0.842957       -22.9380
   9   2.0000      -0.797406       -21.6985
  10   2.0000      -0.702364       -19.1123
  11   2.0000      -0.695369       -18.9219
  12   2.0000      -0.646905       -17.6032
  13   2.0000      -0.614256       -16.7147
  14   2.0000      -0.577861       -15.7244
  15   2.0000      -0.551463       -15.0061
  16   2.0000      -0.532525       -14.4908
  17   2.0000      -0.510970       -13.9042
  18   2.0000      -0.490222       -13.3396
  19   2.0000      -0.437449       -11.9036
  20   0.0000       0.068170         1.8550
  21   0.0000       0.082674         2.2497
  22   0.0000       0.113088         3.0773
  23   0.0000       0.121377         3.3028
  24   0.0000       0.144755         3.9390

MULLIKEN ATOMIC CHARGES
-----------------------
   0 C :    0.420442
   1 C :   -0.614775
   2 C :    0.627863
   3 H :    0.129804
   4 H :    0.099389
   5 O :   -0.373486
   6 F :   -0.367164
   7 H :    0.030510
   8 H :    0.023278
   9 H :    0.024138
Sum of atomic charges:    0.0000000

LOEWDIN ATOMIC CHARGES
----------------------
   0 C :    0.094527
   1 C :   -0.014403
   2 C :   -0.023104
   3 H :    0.053208
   4 H :    0.043471
   5 O :   -0.110363
   6 F :   -0.037981
   7 H :   -0.001633
   8 H :   -0.003978
   9 H :    0.000256

  Mayer bond orders larger than 0.100000
B(  0-C ,  1-C ) :   1.3171 B(  0-C ,  7-H ) :   0.8196 B(  0-C ,  8-H ) :   0.8607
B(  0-C ,  9-H ) :   0.8725 B(  1-C ,  2-C ) :   1.0502 B(  1-C ,  3-H ) :   0.9082
B(  1-C ,  4-H ) :   0.9645 B(  1-C ,  7-H ) :   0.1800 B(  1-C ,  8-H ) :   0.1477
B(  1-C ,  9-H ) :   0.1404 B(  2-C ,  5-O ) :   1.9477 B(  2-C ,  6-F ) :   0.7977

FINAL SINGLE POINT ENERGY      -291.386377918957

DIPOLE MOMENT
-------------
                                X             Y             Z
Electronic contribution:     -5.85148      -1.63055       5.36120
Nuclear contribution   :      6.94213       1.43193      -5.86732
                        -----------------------------------------
Total Dipole Moment    :      1.09065      -0.19862      -0.50611
                        -----------------------------------------
Magnitude (a.u.)       :      1.21865
Magnitude (Debye)      :      3.09757

Rotational constants in cm-1:     0.306336     0.129048     0.095707
Rotational constants in MHz :  9183.725605  3868.769583  2869.236577

                             ****ORCA TERMINATED NORMALLY****
TOTAL RUN TIME: 0 days 0 hours 0 minutes 19 seconds 109 msec
