                         Program Version 5.0.0 -  RELEASE  -
|  1> !LC-PBE RIJCOSX def2-SVPD def2/J TightSCF xyzfile
|  2>
|  3> *xyzfile 0 1 D2.xyz
|  4>
|  5> %MaxCore 64000
|  6>
|  7> %pal nprocs 4
|  8> end
|  9>
| 10> %scf
| 11>   MaxIter 150
| 12> end
| 13>
| 14>
| 15>                          ****END OF INPUT****

CARTESIAN COORDINATES (ANGSTROEM)
---------------------------------
  C      0.648656    1.003595   -3.645601
  C      0.281280    0.676454   -2.240179
  C      0.132968    2.385869   -4.024618
  C     -1.366462    2.479106   -4.313932
  C     -2.357732    2.306858   -3.136753
  H     -1.636802    1.727095   -5.063993
  H     -1.582347    3.445605   -4.768687
  H      0.390790   -0.319253   -2.026495
  H     -0.692686    0.990104   -2.138123
  H      0.854206    1.212214   -1.575279
  O     -3.443763    2.846518   -3.252744
  F     -1.970922    1.583042   -2.151229
  H      0.190993    0.239655   -4.275752
  H      1.731572    0.931729   -3.750751
  H      0.414839    3.102847   -3.245165
  H      0.683167    2.687560   -4.919721

 Total Charge           Charge          ....    0
 Multiplicity           Mult            ....    1
 Number of Electrons    NEL             ....   56
 Basis Dimension        Dim             ....  218

ORBITAL ENERGIES
----------------

  NO   OCC          E(Eh)            E(eV)
   0   2.0000     -24.584764      -668.9854
   1   2.0000     -19.017930      -517.5042
   2   2.0000     -10.326553      -280.9998
   3   2.0000     -10.165837      -276.6265
   4   2.0000     -10.141886      -275.9747
   5   2.0000     -10.122549      -275.4486
   6   2.0000     -10.067990      -273.9639
   7   2.0000      -1.471132       -40.0315
   8   2.0000      -1.224871       -33.3304
   9   2.0000      -1.002608       -27.2823
  10   2.0000      -0.934528       -25.4298
  11   2.0000      -0.843890       -22.9634
  12   2.0000      -0.838048       -22.8045
  13   2.0000      -0.742538       -20.2055
  14   2.0000      -0.721574       -19.6350
  15   2.0000      -0.712118       -19.3777
  16   2.0000      -0.659113       -17.9354
  17   2.0000      -0.621954       -16.9242
  18   2.0000      -0.600754       -16.3474
  19   2.0000      -0.593875       -16.1602
  20   2.0000      -0.564654       -15.3650
  21   2.0000      -0.533365       -14.5136
  22   2.0000      -0.524267       -14.2660
  23   2.0000      -0.501489       -13.6462
  24   2.0000      -0.472087       -12.8461
  25   2.0000      -0.461875       -12.5682
  26   2.0000      -0.455533       -12.3957
  27   2.0000      -0.426191       -11.5973
  28   0.0000       0.062300         1.6953
  29   0.0000       0.084045         2.2870
  30   0.0000       0.105210         2.8629
  31   0.0000       0.111722         3.0401
  32   0.0000       0.113744         3.0951

MULLIKEN ATOMIC CHARGES
-----------------------
   0 C :   -0.345248
   1 C :    1.817448
   2 C :   -0.027105
   3 C :   -0.219250
   4 C :    0.585308
   5 H :    0.246123
   6 H :    0.118721
   7 H :    0.001981
   8 H :   -1.395236
   9 H :    0.046816
  10 O :   -0.348187
  11 F :   -0.459713
  12 H :    0.048592
  13 H :   -0.106527
  14 H :    0.038560
  15 H :   -0.002283
Sum of atomic charges:    0.0000000

LOEWDIN ATOMIC CHARGES
----------------------
   0 C :   -0.081193
   1 C :    0.112279
   2 C :   -0.055407
   3 C :    0.045001
   4 C :    0.020300
   5 H :    0.058433
   6 H :    0.046700
   7 H :   -0.013159
   8 H :   -0.144919
   9 H :   -0.007233
  10 O :   -0.094276
  11 F :   -0.034915
  12 H :    0.036466
  13 H :    0.032638
  14 H :    0.045368
  15 H :    0.033918

  Mayer bond orders larger than 0.100000
B(  0-C ,  1-C ) :   1.0028 B(  0-C ,  2-C ) :   1.1768 B(  0-C ,  7-H ) :   0.1743
B(  0-C ,  8-H ) :   0.4651 B(  0-C ,  9-H ) :   0.2049 B(  0-C , 12-H ) :   0.8985
B(  0-C , 13-H ) :   0.9885 B(  1-C ,  7-H ) :   0.6108 B(  1-C ,  8-H ) :  -1.0428
B(  1-C ,  9-H ) :   0.3824 B(  1-C , 11-F ) :  -0.1576 B(  2-C ,  3-C ) :   1.2157
B(  2-C ,  5-H ) :   0.1029 B(  2-C ,  6-H ) :   0.1168 B(  2-C , 14-H ) :   0.9076
B(  2-C , 15-H ) :   0.9089 B(  3-C ,  4-C ) :   1.0707 B(  3-C ,  5-H ) :   0.7863
B(  3-C ,  6-H ) :   0.9102 B(  3-C , 14-H ) :   0.1068 B(  4-C ,  6-H ) :   0.1037
B(  4-C , 10-O ) :   1.9465 B(  4-C , 11-F ) :   0.7263 B(  7-H ,  8-H ) :   0.1754
B(  8-H ,  9-H ) :   0.4389 B(  8-H , 11-F ) :   0.3573 B( 10-O , 11-F ) :   0.1083

FINAL SINGLE POINT ENERGY      -369.631351773045

DIPOLE MOMENT
-------------
                                X             Y             Z
Electronic contribution:    -10.22650       2.33501       3.26931
Nuclear contribution   :     11.08738      -2.45618      -3.73478
                        -----------------------------------------
Total Dipole Moment    :      0.86088      -0.12117      -0.46548
                        -----------------------------------------
Magnitude (a.u.)       :      0.98614
Magnitude (Debye)      :      2.50657

Rotational constants in cm-1:     0.156244     0.063730     0.048063
Rotational constants in MHz :  4684.071402  1910.571278  1440.877811

                             ****ORCA TERMINATED NORMALLY****
TOTAL RUN TIME: 0 days 0 hours 0 minutes 40 seconds 960 msec
