                         Program Version 5.0.0 -  RELEASE  -
|  1> !wB97X-D3 RIJCOSX def2-TZVP def2/J TightSCF
|  2> *xyz 1 1
|  3> C          0.64866        1.00359       -3.64560
|  4> N          0.28128        0.67645       -2.24018
|  5> H          0.39079       -0.31925       -2.02649
|  6> H         -0.69269        0.99010       -2.13812
|  7> H          0.85421        1.21221       -1.57528
|  8> H          0.03905        0.43387       -4.31545
|  9> H          1.67860        0.76457       -3.80989
| 10> H          0.49232        2.04741       -3.82138
| 11> *
| 12> %MaxCore 64000
| 13>
| 14> %pal nprocs 18
| 15> end
| 16>
| 17> %scf
| 18>   MaxIter 150
| 19> end
| 20>
| 21>
| 22>                          ****END OF INPUT****

CARTESIAN COORDINATES (ANGSTROEM)
---------------------------------
  C      0.648660    1.003590   -3.645600
  N      0.281280    0.676450   -2.240180
  H      0.390790   -0.319250   -2.026490
  H     -0.692690    0.990100   -2.138120
  H      0.854210    1.212210   -1.575280
  H      0.039050    0.433870   -4.315450
  H      1.678600    0.764570   -3.809890
  H      0.492320    2.047410   -3.821380

 Total Charge           Charge          ....    1
 Multiplicity           Mult            ....    1
 Number of Electrons    NEL             ....   18
 Basis Dimension        Dim             ....   98

ORBITAL ENERGIES
----------------

  NO   OCC          E(Eh)            E(eV)
   0   2.0000     -14.771466      -401.9520
   1   2.0000     -10.530391      -286.5465
   2   2.0000      -1.343792       -36.5664
   3   2.0000      -1.050623       -28.5889
   4   2.0000      -0.918634       -24.9973
   5   2.0000      -0.909157       -24.7394
   6   2.0000      -0.809873       -22.0378
   7   2.0000      -0.724938       -19.7266
   8   2.0000      -0.722699       -19.6656
   9   0.0000      -0.118520        -3.2251
  10   0.0000      -0.047732        -1.2989
  11   0.0000      -0.045786        -1.2459
  12   0.0000      -0.027935        -0.7602
  13   0.0000       0.015838         0.4310

MULLIKEN ATOMIC CHARGES
-----------------------
   0 C :   -0.330448
   1 N :   -0.308302
   2 H :    0.344544
   3 H :    0.343372
   4 H :    0.341112
   5 H :    0.204333
   6 H :    0.201824
   7 H :    0.203566
Sum of atomic charges:    1.0000000

LOEWDIN ATOMIC CHARGES
----------------------
   0 C :   -0.246792
   1 N :    0.154302
   2 H :    0.224099
   3 H :    0.230018
   4 H :    0.225978
   5 H :    0.137802
   6 H :    0.136820
   7 H :    0.137773

  Mayer bond orders larger than 0.100000
B(  0-C ,  1-N ) :   0.9048 B(  0-C ,  5-H ) :   0.9527 B(  0-C ,  6-H ) :   0.9552
B(  0-C ,  7-H ) :   0.9518 B(  1-N ,  2-H ) :   0.8679 B(  1-N ,  3-H ) :   0.8721
B(  1-N ,  4-H ) :   0.8713

Dispersion correction           -0.000495160
FINAL SINGLE POINT ENERGY       -96.225464987228

DIPOLE MOMENT
-------------
                                X             Y             Z
Electronic contribution:     -0.26459      -0.27858       1.06863
Nuclear contribution   :      0.04246       0.12404      -0.26487
                        -----------------------------------------
Total Dipole Moment    :     -0.22213      -0.15454       0.80376
                        -----------------------------------------
Magnitude (a.u.)       :      0.84809
Magnitude (Debye)      :      2.15566

Rotational constants in cm-1:     2.856727     0.687609     0.685111
Rotational constants in MHz : 85642.512409 20614.005719 20539.101620

                             ****ORCA TERMINATED NORMALLY****
TOTAL RUN TIME: 0 days 0 hours 0 minutes 4 seconds 757 msec
