                         Program Version 5.0.0 -  RELEASE  -
|  1> !wB97X-D3 RIJCOSX def2-TZVP def2/J TightSCF xyzfile
|  2>
|  3> *xyzfile 0 1 B.xyz
|  4>
|  5> %MaxCore 64000
|  6>
|  7> %pal nprocs 18
|  8> end
|  9>
| 10> %scf
| 11>   MaxIter 150
| 12> end
| 13>
| 14>
| 15>                          ****END OF INPUT****

CARTESIAN COORDINATES (ANGSTROEM)
---------------------------------
  C      0.648656    1.003595   -3.645601
  N      0.281280    0.676454   -2.240179
  C      0.132968    2.385869   -4.024618
  C     -1.366462    2.479106   -4.313932
  C     -2.357732    2.306858   -3.136753
  H     -1.636802    1.727095   -5.063993
  H     -1.582347    3.445605   -4.768687
  H      0.390790   -0.319253   -2.026495
  H     -0.692686    0.990104   -2.138123
  H      0.854206    1.212214   -1.575279
  O     -3.443763    2.846518   -3.252744
  O     -1.970922    1.583042   -2.151229
  H      0.190993    0.239655   -4.275752
  H      1.731572    0.931729   -3.750751
  H      0.414839    3.102847   -3.245165
  H      0.683167    2.687560   -4.919721

 Total Charge           Charge          ....    0
 Multiplicity           Mult            ....    1
 Number of Electrons    NEL             ....   56
 Basis Dimension        Dim             ....  271

ORBITAL ENERGIES
----------------

  NO   OCC          E(Eh)            E(eV)
   0   2.0000     -19.150515      -521.1120
   1   2.0000     -19.129603      -520.5430
   2   2.0000     -14.533882      -395.4870
   3   2.0000     -10.364350      -282.0283
   4   2.0000     -10.333013      -281.1756
   5   2.0000     -10.303538      -280.3735
   6   2.0000     -10.264229      -279.3039
   7   2.0000      -1.138731       -30.9865
   8   2.0000      -1.113339       -30.2955
   9   2.0000      -1.028712       -27.9927
  10   2.0000      -0.928885       -25.2762
  11   2.0000      -0.830417       -22.5968
  12   2.0000      -0.747549       -20.3418
  13   2.0000      -0.709132       -19.2965
  14   2.0000      -0.698161       -18.9979
  15   2.0000      -0.625043       -17.0083
  16   2.0000      -0.584326       -15.9003
  17   2.0000      -0.579906       -15.7800
  18   2.0000      -0.535220       -14.5641
  19   2.0000      -0.521806       -14.1991
  20   2.0000      -0.485204       -13.2031
  21   2.0000      -0.482309       -13.1243
  22   2.0000      -0.473216       -12.8769
  23   2.0000      -0.452204       -12.3051
  24   2.0000      -0.429130       -11.6772
  25   2.0000      -0.323740        -8.8094
  26   2.0000      -0.322713        -8.7815
  27   2.0000      -0.293642        -7.9904
  28   0.0000       0.057100         1.5538
  29   0.0000       0.102796         2.7972
  30   0.0000       0.108796         2.9605
  31   0.0000       0.138346         3.7646
  32   0.0000       0.148010         4.0276

MULLIKEN ATOMIC CHARGES
-----------------------
   0 C :   -0.171274
   1 N :   -0.307321
   2 C :   -0.219616
   3 C :   -0.252227
   4 C :    0.315251
   5 H :    0.101262
   6 H :    0.127975
   7 H :    0.282818
   8 H :    0.304369
   9 H :    0.280755
  10 O :   -0.422300
  11 O :   -0.579737
  12 H :    0.150921
  13 H :    0.144554
  14 H :    0.119275
  15 H :    0.125295
Sum of atomic charges:   -0.0000000

LOEWDIN ATOMIC CHARGES
----------------------
   0 C :   -0.270433
   1 N :    0.141231
   2 C :   -0.273495
   3 C :   -0.250775
   4 C :   -0.638105
   5 H :    0.143037
   6 H :    0.148402
   7 H :    0.191901
   8 H :    0.112141
   9 H :    0.197503
  10 O :    0.018948
  11 O :   -0.083975
  12 H :    0.143184
  13 H :    0.131790
  14 H :    0.142195
  15 H :    0.146452

  Mayer bond orders larger than 0.100000
B(  0-C ,  1-N ) :   0.9085 B(  0-C ,  2-C ) :   0.9706 B(  0-C , 12-H ) :   0.9653
B(  0-C , 13-H ) :   0.9748 B(  1-N ,  7-H ) :   0.8991 B(  1-N ,  8-H ) :   0.6775
B(  1-N ,  9-H ) :   0.8997 B(  2-C ,  3-C ) :   0.9408 B(  2-C , 14-H ) :   0.9685
B(  2-C , 15-H ) :   0.9675 B(  3-C ,  4-C ) :   0.9648 B(  3-C ,  5-H ) :   0.9628
B(  3-C ,  6-H ) :   0.9635 B(  4-C , 10-O ) :   1.9912 B(  4-C , 11-O ) :   1.4501
B(  8-H , 11-O ) :   0.3322

Dispersion correction           -0.004907460
FINAL SINGLE POINT ENERGY      -363.082808455468

DIPOLE MOMENT
-------------
                                X             Y             Z
Electronic contribution:     -5.78354       0.91732       2.54481
Nuclear contribution   :      9.92875      -2.62114      -2.63866
                        -----------------------------------------
Total Dipole Moment    :      4.14521      -1.70382      -0.09384
                        -----------------------------------------
Magnitude (a.u.)       :      4.48270
Magnitude (Debye)      :     11.39411

Rotational constants in cm-1:     0.159108     0.062474     0.047603
Rotational constants in MHz :  4769.938632  1872.932224  1427.103830

                             ****ORCA TERMINATED NORMALLY****
TOTAL RUN TIME: 0 days 0 hours 0 minutes 26 seconds 222 msec
