                         Program Version 5.0.0 -  RELEASE  -
|  1> !wB97X-D3 RIJCOSX def2-TZVP def2/J TightSCF
|  2> *xyz 0 1
|  3> C         -1.36646        2.47911       -4.31393
|  4> C         -2.35773        2.30686       -3.13675
|  5> F         -3.44376        2.84652       -3.25274
|  6> O         -1.97092        1.58304       -2.15123
|  7> H         -1.80853        3.10058       -5.06443
|  8> H         -1.13980        1.52081       -4.73248
|  9> H         -0.46612        2.93495       -3.95827
| 10> *
| 11> %MaxCore 64000
| 12>
| 13> %pal nprocs 18
| 14> end
| 15>
| 16> %scf
| 17>   MaxIter 150
| 18> end
| 19>
| 20>
| 21>                          ****END OF INPUT****

CARTESIAN COORDINATES (ANGSTROEM)
---------------------------------
  C     -1.366460    2.479110   -4.313930
  C     -2.357730    2.306860   -3.136750
  F     -3.443760    2.846520   -3.252740
  O     -1.970920    1.583040   -2.151230
  H     -1.808530    3.100580   -5.064430
  H     -1.139800    1.520810   -4.732480
  H     -0.466120    2.934950   -3.958270

 Total Charge           Charge          ....    0
 Multiplicity           Mult            ....    1
 Number of Electrons    NEL             ....   32
 Basis Dimension        Dim             ....  142

ORBITAL ENERGIES
----------------

  NO   OCC          E(Eh)            E(eV)
   0   2.0000     -24.870290      -676.7550
   1   2.0000     -19.230961      -523.3011
   2   2.0000     -10.462431      -284.6972
   3   2.0000     -10.299317      -280.2587
   4   2.0000      -1.465761       -39.8854
   5   2.0000      -1.131558       -30.7913
   6   2.0000      -0.885640       -24.0995
   7   2.0000      -0.783047       -21.3078
   8   2.0000      -0.670520       -18.2458
   9   2.0000      -0.664347       -18.0778
  10   2.0000      -0.606471       -16.5029
  11   2.0000      -0.543644       -14.7933
  12   2.0000      -0.530972       -14.4485
  13   2.0000      -0.492665       -13.4061
  14   2.0000      -0.438531       -11.9330
  15   2.0000      -0.384996       -10.4763
  16   0.0000       0.057146         1.5550
  17   0.0000       0.118165         3.2154
  18   0.0000       0.182937         4.9780
  19   0.0000       0.199804         5.4369
  20   0.0000       0.206567         5.6210

MULLIKEN ATOMIC CHARGES
-----------------------
   0 C :   -0.354048
   1 C :    0.388624
   2 F :   -0.072516
   3 O :   -0.385831
   4 H :    0.123491
   5 H :    0.150501
   6 H :    0.149779
Sum of atomic charges:   -0.0000000

LOEWDIN ATOMIC CHARGES
----------------------
   0 C :   -0.262864
   1 C :   -0.523534
   2 F :    0.381663
   3 O :    0.012979
   4 H :    0.119926
   5 H :    0.136106
   6 H :    0.135725

  Mayer bond orders larger than 0.100000
B(  0-C ,  1-C ) :   0.9856 B(  0-C ,  4-H ) :   0.9666 B(  0-C ,  5-H ) :   0.9542
B(  0-C ,  6-H ) :   0.9552 B(  1-C ,  2-F ) :   1.1938 B(  1-C ,  3-O ) :   2.0090

Dispersion correction           -0.000915317
FINAL SINGLE POINT ENERGY      -253.108208135992

DIPOLE MOMENT
-------------
                                X             Y             Z
Electronic contribution:     -4.31933       0.52107       2.69633
Nuclear contribution   :      4.40923       0.04336      -3.80230
                        -----------------------------------------
Total Dipole Moment    :      0.08990       0.56443      -1.10597
                        -----------------------------------------
Magnitude (a.u.)       :      1.24492
Magnitude (Debye)      :      3.16433

Rotational constants in cm-1:     0.364425     0.322930     0.176742
Rotational constants in MHz : 10925.196996  9681.206479  5298.597717

                             ****ORCA TERMINATED NORMALLY****
TOTAL RUN TIME: 0 days 0 hours 0 minutes 7 seconds 978 msec
