                         Program Version 5.0.0 -  RELEASE  -
|  1> !wB97X-D3 RIJCOSX def2-TZVP def2/J TightSCF
|  2> *xyz 0 1
|  3> C          0.64866        1.00359       -3.64560
|  4> C          0.28128        0.67645       -2.24018
|  5> H          0.39079       -0.31925       -2.02649
|  6> H         -0.69269        0.99010       -2.13812
|  7> H          0.85421        1.21221       -1.57528
|  8> H          0.03905        0.43387       -4.31545
|  9> H          1.67860        0.76457       -3.80989
| 10> H          0.49232        2.04741       -3.82138
| 11> *
| 12> %MaxCore 64000
| 13>
| 14> %pal nprocs 18
| 15> end
| 16>
| 17> %scf
| 18>   MaxIter 150
| 19> end
| 20>
| 21>
| 22>                          ****END OF INPUT****

CARTESIAN COORDINATES (ANGSTROEM)
---------------------------------
  C      0.648660    1.003590   -3.645600
  C      0.281280    0.676450   -2.240180
  H      0.390790   -0.319250   -2.026490
  H     -0.692690    0.990100   -2.138120
  H      0.854210    1.212210   -1.575280
  H      0.039050    0.433870   -4.315450
  H      1.678600    0.764570   -3.809890
  H      0.492320    2.047410   -3.821380

 Total Charge           Charge          ....    0
 Multiplicity           Mult            ....    1
 Number of Electrons    NEL             ....   18
 Basis Dimension        Dim             ....   98

ORBITAL ENERGIES
----------------

  NO   OCC          E(Eh)            E(eV)
   0   2.0000     -10.247996      -278.8621
   1   2.0000     -10.233539      -278.4688
   2   2.0000      -0.885976       -24.1086
   3   2.0000      -0.731119       -19.8948
   4   2.0000      -0.553835       -15.0706
   5   2.0000      -0.547781       -14.9059
   6   2.0000      -0.461633       -12.5617
   7   2.0000      -0.442173       -12.0322
   8   2.0000      -0.436889       -11.8883
   9   0.0000       0.127289         3.4637
  10   0.0000       0.172195         4.6857
  11   0.0000       0.199808         5.4370
  12   0.0000       0.201462         5.4821
  13   0.0000       0.211664         5.7597

MULLIKEN ATOMIC CHARGES
-----------------------
   0 C :   -0.306866
   1 C :   -0.294633
   2 H :    0.102857
   3 H :    0.099215
   4 H :    0.100979
   5 H :    0.100075
   6 H :    0.098265
   7 H :    0.100109
Sum of atomic charges:   -0.0000000

LOEWDIN ATOMIC CHARGES
----------------------
   0 C :   -0.331509
   1 C :   -0.324207
   2 H :    0.103011
   3 H :    0.109465
   4 H :    0.105268
   5 H :    0.112985
   6 H :    0.111577
   7 H :    0.113410

  Mayer bond orders larger than 0.100000
B(  0-C ,  1-C ) :   0.9793 B(  0-C ,  5-H ) :   0.9813 B(  0-C ,  6-H ) :   0.9829
B(  0-C ,  7-H ) :   0.9817 B(  1-C ,  2-H ) :   0.9818 B(  1-C ,  3-H ) :   0.9837
B(  1-C ,  4-H ) :   0.9837

Dispersion correction           -0.000484224
FINAL SINGLE POINT ENERGY       -79.822149275093

DIPOLE MOMENT
-------------
                                X             Y             Z
Electronic contribution:      0.01341      -0.06382       0.04525
Nuclear contribution   :     -0.02064       0.06655      -0.02194
                        -----------------------------------------
Total Dipole Moment    :     -0.00723       0.00273       0.02331
                        -----------------------------------------
Magnitude (a.u.)       :      0.02456
Magnitude (Debye)      :      0.06242

Rotational constants in cm-1:     2.856742     0.718110     0.715385
Rotational constants in MHz : 85642.970161 21528.388214 21446.695095

                             ****ORCA TERMINATED NORMALLY****
TOTAL RUN TIME: 0 days 0 hours 0 minutes 3 seconds 916 msec
