                         Program Version 5.0.0 -  RELEASE  -
|  1> !wB97X-D3 RIJCOSX def2-TZVP def2/J TightSCF
|  2> *xyz 0 1
|  3> C         -1.36646        2.47911       -4.31393
|  4> C         -2.35773        2.30686       -3.13675
|  5> O         -3.44376        2.84652       -3.25274
|  6> F         -1.97092        1.58304       -2.15123
|  7> H         -1.80853        3.10058       -5.06443
|  8> H         -1.13980        1.52081       -4.73248
|  9> H         -0.46612        2.93495       -3.95827
| 10> *
| 11> %MaxCore 64000
| 12>
| 13> %pal nprocs 18
| 14> end
| 15>
| 16> %scf
| 17>   MaxIter 150
| 18> end
| 19>
| 20>
| 21>                          ****END OF INPUT****

CARTESIAN COORDINATES (ANGSTROEM)
---------------------------------
  C     -1.366460    2.479110   -4.313930
  C     -2.357730    2.306860   -3.136750
  O     -3.443760    2.846520   -3.252740
  F     -1.970920    1.583040   -2.151230
  H     -1.808530    3.100580   -5.064430
  H     -1.139800    1.520810   -4.732480
  H     -0.466120    2.934950   -3.958270

 Total Charge           Charge          ....    0
 Multiplicity           Mult            ....    1
 Number of Electrons    NEL             ....   32
 Basis Dimension        Dim             ....  142

ORBITAL ENERGIES
----------------

  NO   OCC          E(Eh)            E(eV)
   0   2.0000     -24.846817      -676.1163
   1   2.0000     -19.240674      -523.5654
   2   2.0000     -10.456347      -284.5317
   3   2.0000     -10.298822      -280.2452
   4   2.0000      -1.417611       -38.5752
   5   2.0000      -1.172670       -31.9100
   6   2.0000      -0.882254       -24.0074
   7   2.0000      -0.757490       -20.6124
   8   2.0000      -0.643287       -17.5047
   9   2.0000      -0.641233       -17.4488
  10   2.0000      -0.608162       -16.5489
  11   2.0000      -0.541734       -14.7413
  12   2.0000      -0.533564       -14.5190
  13   2.0000      -0.503124       -13.6907
  14   2.0000      -0.464187       -12.6312
  15   2.0000      -0.395049       -10.7498
  16   0.0000       0.067651         1.8409
  17   0.0000       0.117701         3.2028
  18   0.0000       0.189601         5.1593
  19   0.0000       0.190238         5.1766
  20   0.0000       0.207350         5.6423

MULLIKEN ATOMIC CHARGES
-----------------------
   0 C :   -0.352659
   1 C :    0.372906
   2 O :   -0.317595
   3 F :   -0.125555
   4 H :    0.150089
   5 H :    0.137060
   6 H :    0.135755
Sum of atomic charges:    0.0000000

LOEWDIN ATOMIC CHARGES
----------------------
   0 C :   -0.261328
   1 C :   -0.511056
   2 O :    0.104912
   3 F :    0.277069
   4 H :    0.132986
   5 H :    0.129125
   6 H :    0.128291

  Mayer bond orders larger than 0.100000
B(  0-C ,  1-C ) :   0.9980 B(  0-C ,  4-H ) :   0.9713 B(  0-C ,  5-H ) :   0.9520
B(  0-C ,  6-H ) :   0.9531 B(  1-C ,  2-O ) :   2.0808 B(  1-C ,  3-F ) :   1.1280

Dispersion correction           -0.000897233
FINAL SINGLE POINT ENERGY      -253.126300552769

DIPOLE MOMENT
-------------
                                X             Y             Z
Electronic contribution:     -1.90409      -1.54721       4.49689
Nuclear contribution   :      2.88734       1.34891      -4.94049
                        -----------------------------------------
Total Dipole Moment    :      0.98325      -0.19830      -0.44360
                        -----------------------------------------
Magnitude (a.u.)       :      1.09676
Magnitude (Debye)      :      2.78775

Rotational constants in cm-1:     0.375207     0.313199     0.176202
Rotational constants in MHz : 11248.433436  9389.476975  5282.390844

                             ****ORCA TERMINATED NORMALLY****
TOTAL RUN TIME: 0 days 0 hours 0 minutes 6 seconds 857 msec
