                         Program Version 5.0.0 -  RELEASE  -
|  1> !wB97X-D3 RIJCOSX def2-TZVP def2/J TightSCF xyzfile
|  2>
|  3> *xyzfile 0 1 D1.xyz
|  4>
|  5> %MaxCore 64000
|  6>
|  7> %pal nprocs 18
|  8> end
|  9>
| 10> %scf
| 11>   MaxIter 150
| 12> end
| 13>
| 14>
| 15>                          ****END OF INPUT****

CARTESIAN COORDINATES (ANGSTROEM)
---------------------------------
  C      0.648656    1.003595   -3.645601
  C      0.281280    0.676454   -2.240179
  C      0.132968    2.385869   -4.024618
  C     -1.366462    2.479106   -4.313932
  C     -2.357732    2.306858   -3.136753
  H     -1.636802    1.727095   -5.063993
  H     -1.582347    3.445605   -4.768687
  H      0.390790   -0.319253   -2.026495
  H     -0.692686    0.990104   -2.138123
  H      0.854206    1.212214   -1.575279
  F     -3.443763    2.846518   -3.252744
  O     -1.970922    1.583042   -2.151229
  H      0.190993    0.239655   -4.275752
  H      1.731572    0.931729   -3.750751
  H      0.414839    3.102847   -3.245165
  H      0.683167    2.687560   -4.919721

 Total Charge           Charge          ....    0
 Multiplicity           Mult            ....    1
 Number of Electrons    NEL             ....   56
 Basis Dimension        Dim             ....  271

ORBITAL ENERGIES
----------------

  NO   OCC          E(Eh)            E(eV)
   0   2.0000     -24.880476      -677.0322
   1   2.0000     -19.238813      -523.5147
   2   2.0000     -10.473984      -285.0116
   3   2.0000     -10.313622      -280.6479
   4   2.0000     -10.282774      -279.8085
   5   2.0000     -10.253699      -279.0173
   6   2.0000     -10.179901      -277.0092
   7   2.0000      -1.475328       -40.1457
   8   2.0000      -1.154848       -31.4250
   9   2.0000      -0.933561       -25.4035
  10   2.0000      -0.873087       -23.7579
  11   2.0000      -0.801180       -21.8012
  12   2.0000      -0.769077       -20.9276
  13   2.0000      -0.691378       -18.8134
  14   2.0000      -0.678330       -18.4583
  15   2.0000      -0.664058       -18.0699
  16   2.0000      -0.630199       -17.1486
  17   2.0000      -0.584184       -15.8965
  18   2.0000      -0.551818       -15.0157
  19   2.0000      -0.534881       -14.5548
  20   2.0000      -0.507832       -13.8188
  21   2.0000      -0.479294       -13.0423
  22   2.0000      -0.473064       -12.8727
  23   2.0000      -0.449749       -12.2383
  24   2.0000      -0.436103       -11.8670
  25   2.0000      -0.413327       -11.2472
  26   2.0000      -0.403460       -10.9787
  27   2.0000      -0.338569        -9.2129
  28   0.0000       0.044217         1.2032
  29   0.0000       0.111663         3.0385
  30   0.0000       0.143861         3.9147
  31   0.0000       0.153123         4.1667
  32   0.0000       0.165500         4.5035

MULLIKEN ATOMIC CHARGES
-----------------------
   0 C :   -0.158630
   1 C :   -0.399775
   2 C :   -0.184202
   3 C :   -0.277405
   4 C :    0.405068
   5 H :    0.140325
   6 H :    0.137360
   7 H :    0.087538
   8 H :    0.181819
   9 H :    0.084546
  10 F :   -0.064384
  11 O :   -0.339550
  12 H :    0.073110
  13 H :    0.089949
  14 H :    0.113037
  15 H :    0.111193
Sum of atomic charges:   -0.0000000

LOEWDIN ATOMIC CHARGES
----------------------
   0 C :   -0.300942
   1 C :   -0.318022
   2 C :   -0.258030
   3 C :   -0.233838
   4 C :   -0.475412
   5 H :    0.158789
   6 H :    0.147032
   7 H :    0.097622
   8 H :    0.069609
   9 H :    0.100233
  10 F :    0.390605
  11 O :    0.077337
  12 H :    0.132156
  13 H :    0.129690
  14 H :    0.142854
  15 H :    0.140318

  Mayer bond orders larger than 0.100000
B(  0-C ,  1-C ) :   0.9592 B(  0-C ,  2-C ) :   0.9616 B(  0-C , 12-H ) :   0.9773
B(  0-C , 13-H ) :   0.9750 B(  1-C ,  7-H ) :   0.9862 B(  1-C ,  8-H ) :   0.9451
B(  1-C ,  9-H ) :   0.9867 B(  2-C ,  3-C ) :   0.9722 B(  2-C , 14-H ) :   0.9766
B(  2-C , 15-H ) :   0.9700 B(  3-C ,  4-C ) :   1.0056 B(  3-C ,  5-H ) :   0.9340
B(  3-C ,  6-H ) :   0.9634 B(  4-C , 10-F ) :   1.2136 B(  4-C , 11-O ) :   1.9265

Dispersion correction           -0.004674879
FINAL SINGLE POINT ENERGY      -371.002932582127

DIPOLE MOMENT
-------------
                                X             Y             Z
Electronic contribution:    -13.03042       4.60089       1.41031
Nuclear contribution   :     12.79331      -3.91961      -2.45895
                        -----------------------------------------
Total Dipole Moment    :     -0.23711       0.68128      -1.04864
                        -----------------------------------------
Magnitude (a.u.)       :      1.27279
Magnitude (Debye)      :      3.23518

Rotational constants in cm-1:     0.162888     0.059977     0.046450
Rotational constants in MHz :  4883.250030  1798.063289  1392.548669

                             ****ORCA TERMINATED NORMALLY****
TOTAL RUN TIME: 0 days 0 hours 0 minutes 18 seconds 723 msec
