                         Program Version 5.0.0 -  RELEASE  -
|  1> !wB97X-D3 RIJCOSX def2-TZVPD def2/J TightSCF
|  2> *xyz -1 1
|  3> C          4.99986       -1.59613       -5.92488
|  4> C          3.76678       -2.26611       -6.51175
|  5> C          2.49670       -1.84416       -5.73570
|  6> H          1.62642       -2.21743       -6.30895
|  7> H          2.48182       -2.45607       -4.79341
|  8> O          2.45973       -0.50920       -5.50576
|  9> H          3.88619       -3.35708       -6.53360
| 10> H          3.68560       -1.92217       -7.54713
| 11> H          5.86637       -1.89999       -6.47418
| 12> H          5.10830       -1.88372       -4.89997
| 13> H          4.89230       -0.53341       -5.98765
| 14> *
| 15>
| 16> %MaxCore 64000
| 17>
| 18> %pal nprocs 18
| 19> end
| 20>
| 21> %scf
| 22>   MaxIter 150
| 23> end
| 24>
| 25>
| 26>                          ****END OF INPUT****

CARTESIAN COORDINATES (ANGSTROEM)
---------------------------------
  C      4.999860   -1.596130   -5.924880
  C      3.766780   -2.266110   -6.511750
  C      2.496700   -1.844160   -5.735700
  H      1.626420   -2.217430   -6.308950
  H      2.481820   -2.456070   -4.793410
  O      2.459730   -0.509200   -5.505760
  H      3.886190   -3.357080   -6.533600
  H      3.685600   -1.922170   -7.547130
  H      5.866370   -1.899990   -6.474180
  H      5.108300   -1.883720   -4.899970
  H      4.892300   -0.533410   -5.987650

 Total Charge           Charge          ....   -1
 Multiplicity           Mult            ....    1
 Number of Electrons    NEL             ....   34
 Basis Dimension        Dim             ....  214

ORBITAL ENERGIES
----------------

  NO   OCC          E(Eh)            E(eV)
   0   2.0000     -18.897745      -514.2338
   1   2.0000     -10.090073      -274.5649
   2   2.0000     -10.081570      -274.3335
   3   2.0000     -10.079989      -274.2904
   4   2.0000      -0.805777       -21.9263
   5   2.0000      -0.695384       -18.9224
   6   2.0000      -0.575183       -15.6515
   7   2.0000      -0.470896       -12.8137
   8   2.0000      -0.374951       -10.2029
   9   2.0000      -0.363920        -9.9028
  10   2.0000      -0.307942        -8.3795
  11   2.0000      -0.283126        -7.7043
  12   2.0000      -0.251057        -6.8316
  13   2.0000      -0.241358        -6.5677
  14   2.0000      -0.210507        -5.7282
  15   2.0000      -0.065972        -1.7952
  16   2.0000      -0.063196        -1.7197
  17   0.0000       0.202927         5.5219
  18   0.0000       0.219826         5.9818
  19   0.0000       0.230633         6.2759
  20   0.0000       0.252112         6.8603
  21   0.0000       0.273316         7.4373

MULLIKEN ATOMIC CHARGES
-----------------------
   0 C :   -1.109278
   1 C :   -0.143174
   2 C :   -0.475132
   3 H :    0.163194
   4 H :    0.155716
   5 O :   -0.913477
   6 H :    0.245251
   7 H :    0.244798
   8 H :    0.313060
   9 H :    0.272730
  10 H :    0.246313
Sum of atomic charges:   -1.0000000

LOEWDIN ATOMIC CHARGES
----------------------
   0 C :   -0.163897
   1 C :   -0.298801
   2 C :   -0.577268
   3 H :    0.058810
   4 H :    0.067408
   5 O :   -0.389221
   6 H :    0.078202
   7 H :    0.083189
   8 H :    0.038103
   9 H :    0.054466
  10 H :    0.049008

  Mayer bond orders larger than 0.100000
B(  0-C ,  1-C ) :   0.6590 B(  0-C ,  2-C ) :   0.2019 B(  0-C ,  8-H ) :   0.9154
B(  0-C ,  9-H ) :   0.9625 B(  0-C , 10-H ) :   1.0518 B(  1-C ,  2-C ) :   0.8080
B(  1-C ,  6-H ) :   1.0052 B(  1-C ,  7-H ) :   0.9653 B(  2-C ,  3-H ) :   1.0819
B(  2-C ,  4-H ) :   1.0478 B(  2-C ,  5-O ) :   1.1243

Dispersion correction           -0.001912404
FINAL SINGLE POINT ENERGY      -193.759594039006

DIPOLE MOMENT
-------------
                                X             Y             Z
Electronic contribution:     -1.98944       1.97979       0.54154
Nuclear contribution   :      3.33375      -3.25054      -1.09297
                        -----------------------------------------
Total Dipole Moment    :      1.34432      -1.27075      -0.55143
                        -----------------------------------------
Magnitude (a.u.)       :      1.93030
Magnitude (Debye)      :      4.90644

Rotational constants in cm-1:     0.478390     0.193336     0.154822
Rotational constants in MHz : 14341.777399  5796.063993  4641.443060

                             ****ORCA TERMINATED NORMALLY****
TOTAL RUN TIME: 0 days 0 hours 0 minutes 16 seconds 953 msec
