                         Program Version 5.0.0 -  RELEASE  -
|  1> !wB97X-D3 RIJCOSX def2-TZVPD def2/J TightSCF
|  2> *xyz 1 1
|  3> C          4.99986       -1.59613       -5.92488
|  4> N          5.28156       -1.97413       -4.53576
|  5> C          3.76678       -2.26611       -6.51175
|  6> C          2.49670       -1.84416       -5.73570
|  7> C          4.79250       -1.36132       -3.45730
|  8> N          3.93990       -0.37492       -3.55736
|  9> N          5.25986       -1.75422       -2.23913
| 10> H          5.92282       -2.52145       -2.18672
| 11> H          4.65468       -1.64040       -1.44202
| 12> H          5.70914       -2.87560       -4.38702
| 13> H          3.33010       -0.31764       -4.36125
| 14> H          3.69849        0.11447       -2.70833
| 15> H          4.84333       -0.51793       -5.94302
| 16> H          5.90170       -1.82250       -6.49647
| 17> H          3.88619       -3.35708       -6.53360
| 18> H          3.68560       -1.92217       -7.54713
| 19> H          1.64155       -2.32499       -6.16281
| 20> H          2.37707       -0.78268       -5.79763
| 21> H          2.59306       -2.13299       -4.70994
| 22> *
| 23>
| 24> %MaxCore 64000
| 25>
| 26> %pal nprocs 18
| 27> end
| 28>
| 29> %scf
| 30>   MaxIter 150
| 31> end
| 32>
| 33>
| 34>                          ****END OF INPUT****

CARTESIAN COORDINATES (ANGSTROEM)
---------------------------------
  C      4.999860   -1.596130   -5.924880
  N      5.281560   -1.974130   -4.535760
  C      3.766780   -2.266110   -6.511750
  C      2.496700   -1.844160   -5.735700
  C      4.792500   -1.361320   -3.457300
  N      3.939900   -0.374920   -3.557360
  N      5.259860   -1.754220   -2.239130
  H      5.922820   -2.521450   -2.186720
  H      4.654680   -1.640400   -1.442020
  H      5.709140   -2.875600   -4.387020
  H      3.330100   -0.317640   -4.361250
  H      3.698490    0.114470   -2.708330
  H      4.843330   -0.517930   -5.943020
  H      5.901700   -1.822500   -6.496470
  H      3.886190   -3.357080   -6.533600
  H      3.685600   -1.922170   -7.547130
  H      1.641550   -2.324990   -6.162810
  H      2.377070   -0.782680   -5.797630
  H      2.593060   -2.132990   -4.709940

 Total Charge           Charge          ....    1
 Multiplicity           Mult            ....    1
 Number of Electrons    NEL             ....   56
 Basis Dimension        Dim             ....  367

ORBITAL ENERGIES
----------------

  NO   OCC          E(Eh)            E(eV)
   0   2.0000     -14.642420      -398.4405
   1   2.0000     -14.640168      -398.3792
   2   2.0000     -14.636106      -398.2687
   3   2.0000     -10.609428      -288.6972
   4   2.0000     -10.476208      -285.0721
   5   2.0000     -10.424317      -283.6601
   6   2.0000     -10.410085      -283.2728
   7   2.0000      -1.329507       -36.1777
   8   2.0000      -1.217390       -33.1269
   9   2.0000      -1.202799       -32.7298
  10   2.0000      -1.061966       -28.8976
  11   2.0000      -0.980247       -26.6739
  12   2.0000      -0.935018       -25.4431
  13   2.0000      -0.891640       -24.2627
  14   2.0000      -0.868611       -23.6361
  15   2.0000      -0.835325       -22.7304
  16   2.0000      -0.794206       -21.6115
  17   2.0000      -0.785893       -21.3852
  18   2.0000      -0.741321       -20.1724
  19   2.0000      -0.730971       -19.8907
  20   2.0000      -0.706016       -19.2117
  21   2.0000      -0.676764       -18.4157
  22   2.0000      -0.657109       -17.8809
  23   2.0000      -0.616581       -16.7780
  24   2.0000      -0.594269       -16.1709
  25   2.0000      -0.590405       -16.0657
  26   2.0000      -0.566032       -15.4025
  27   2.0000      -0.536658       -14.6032
  28   0.0000      -0.092753        -2.5239
  29   0.0000      -0.081279        -2.2117
  30   0.0000      -0.052156        -1.4192
  31   0.0000      -0.043402        -1.1810
  32   0.0000      -0.026947        -0.7333

MULLIKEN ATOMIC CHARGES
-----------------------
   0 C :   -0.820975
   1 N :   -0.148462
   2 C :   -0.063873
   3 C :   -1.351566
   4 C :    0.713226
   5 N :   -0.277996
   6 N :   -0.474743
   7 H :    0.238553
   8 H :    0.239336
   9 H :    0.257511
  10 H :    0.080708
  11 H :    0.226221
  12 H :    0.441741
  13 H :    0.276056
  14 H :    0.302574
  15 H :    0.283470
  16 H :    0.326110
  17 H :    0.356904
  18 H :    0.395205
Sum of atomic charges:    1.0000000

LOEWDIN ATOMIC CHARGES
----------------------
   0 C :   -0.166850
   1 N :    0.093907
   2 C :   -0.204284
   3 C :   -0.092345
   4 C :   -0.428807
   5 N :    0.218106
   6 N :    0.189447
   7 H :    0.134768
   8 H :    0.129194
   9 H :    0.166085
  10 H :    0.090059
  11 H :    0.150000
  12 H :    0.128209
  13 H :    0.133995
  14 H :    0.119772
  15 H :    0.121331
  16 H :    0.085399
  17 H :    0.070322
  18 H :    0.061693

  Mayer bond orders larger than 0.100000
B(  0-C ,  1-N ) :   0.9290 B(  0-C ,  2-C ) :   0.8965 B(  0-C ,  3-C ) :   0.1616
B(  0-C ,  4-C ) :  -0.1325 B(  0-C , 12-H ) :   0.8135 B(  0-C , 13-H ) :   0.9670
B(  1-N ,  4-C ) :   1.2337 B(  1-N ,  6-N ) :   0.1022 B(  1-N ,  9-H ) :   0.9496
B(  2-C ,  3-C ) :   0.5582 B(  2-C , 14-H ) :   0.9459 B(  2-C , 15-H ) :   0.9737
B(  3-C , 10-H ) :   0.2202 B(  3-C , 16-H ) :   0.9549 B(  3-C , 17-H ) :   0.9309
B(  3-C , 18-H ) :   0.8414 B(  4-C ,  5-N ) :   1.2011 B(  4-C ,  6-N ) :   0.9870
B(  5-N , 10-H ) :   0.9427 B(  5-N , 11-H ) :   0.9888 B(  6-N ,  7-H ) :   0.9516
B(  6-N ,  8-H ) :   0.9765

Dispersion correction           -0.005549031
FINAL SINGLE POINT ENERGY      -323.745803698688

DIPOLE MOMENT
-------------
                                X             Y             Z
Electronic contribution:      3.86541       0.80190       4.84021
Nuclear contribution   :     -3.69451      -0.93313      -3.60402
                        -----------------------------------------
Total Dipole Moment    :      0.17090      -0.13123       1.23619
                        -----------------------------------------
Magnitude (a.u.)       :      1.25483
Magnitude (Debye)      :      3.18952

Rotational constants in cm-1:     0.152547     0.057272     0.048491
Rotational constants in MHz :  4573.230603  1716.968614  1453.721796

                             ****ORCA TERMINATED NORMALLY****
TOTAL RUN TIME: 0 days 0 hours 0 minutes 39 seconds 398 msec
