                         Program Version 5.0.0 -  RELEASE  -
|  1> !wB97X-D3 RIJCOSX def2-TZVPD def2/J TightSCF
|  2> *xyz 0 1
|  3> C          4.99986       -1.59613       -5.92488
|  4> C          3.76678       -2.26611       -6.51175
|  5> C          2.49670       -1.84416       -5.73570
|  6> H          1.62642       -2.21743       -6.30895
|  7> H          2.48182       -2.45607       -4.79341
|  8> F          2.45973       -0.50920       -5.50576
|  9> H          3.88619       -3.35708       -6.53360
| 10> H          3.68560       -1.92217       -7.54713
| 11> H          5.86637       -1.89999       -6.47418
| 12> H          5.10830       -1.88372       -4.89997
| 13> H          4.89230       -0.53341       -5.98765
| 14> *
| 15>
| 16> %MaxCore 64000
| 17>
| 18> %pal nprocs 18
| 19> end
| 20>
| 21> %scf
| 22>   MaxIter 150
| 23> end
| 24>
| 25>
| 26>                          ****END OF INPUT****

CARTESIAN COORDINATES (ANGSTROEM)
---------------------------------
  C      4.999860   -1.596130   -5.924880
  C      3.766780   -2.266110   -6.511750
  C      2.496700   -1.844160   -5.735700
  H      1.626420   -2.217430   -6.308950
  H      2.481820   -2.456070   -4.793410
  F      2.459730   -0.509200   -5.505760
  H      3.886190   -3.357080   -6.533600
  H      3.685600   -1.922170   -7.547130
  H      5.866370   -1.899990   -6.474180
  H      5.108300   -1.883720   -4.899970
  H      4.892300   -0.533410   -5.987650

 Total Charge           Charge          ....    0
 Multiplicity           Mult            ....    1
 Number of Electrons    NEL             ....   34
 Basis Dimension        Dim             ....  214

ORBITAL ENERGIES
----------------

  NO   OCC          E(Eh)            E(eV)
   0   2.0000     -24.776052      -674.1906
   1   2.0000     -10.352170      -281.6969
   2   2.0000     -10.278291      -279.6865
   3   2.0000     -10.255290      -279.0606
   4   2.0000      -1.323004       -36.0008
   5   2.0000      -0.904777       -24.6202
   6   2.0000      -0.802281       -21.8312
   7   2.0000      -0.704739       -19.1769
   8   2.0000      -0.614447       -16.7200
   9   2.0000      -0.599750       -16.3200
  10   2.0000      -0.578133       -15.7318
  11   2.0000      -0.536648       -14.6029
  12   2.0000      -0.495013       -13.4700
  13   2.0000      -0.468685       -12.7536
  14   2.0000      -0.450053       -12.2466
  15   2.0000      -0.417941       -11.3728
  16   2.0000      -0.415249       -11.2995
  17   0.0000       0.072798         1.9809
  18   0.0000       0.091443         2.4883
  19   0.0000       0.096583         2.6282
  20   0.0000       0.112349         3.0572
  21   0.0000       0.136656         3.7186

MULLIKEN ATOMIC CHARGES
-----------------------
   0 C :   -1.195143
   1 C :   -0.217306
   2 C :   -0.269342
   3 H :    0.237103
   4 H :    0.254483
   5 F :   -0.317211
   6 H :    0.278319
   7 H :    0.276875
   8 H :    0.320129
   9 H :    0.328459
  10 H :    0.303635
Sum of atomic charges:    0.0000000

LOEWDIN ATOMIC CHARGES
----------------------
   0 C :   -0.121196
   1 C :   -0.241212
   2 C :   -0.259219
   3 H :    0.112994
   4 H :    0.123432
   5 F :   -0.028630
   6 H :    0.110179
   7 H :    0.103090
   8 H :    0.065216
   9 H :    0.069275
  10 H :    0.066073

  Mayer bond orders larger than 0.100000
B(  0-C ,  1-C ) :   0.6729 B(  0-C ,  2-C ) :   0.1607 B(  0-C ,  8-H ) :   0.9563
B(  0-C ,  9-H ) :   0.9392 B(  0-C , 10-H ) :   0.9852 B(  1-C ,  2-C ) :   0.8683
B(  1-C ,  6-H ) :   0.9527 B(  1-C ,  7-H ) :   0.9437 B(  2-C ,  3-H ) :   0.9847
B(  2-C ,  4-H ) :   0.9587 B(  2-C ,  5-F ) :   0.7906

Dispersion correction           -0.001918220
FINAL SINGLE POINT ENERGY      -218.401465020862

DIPOLE MOMENT
-------------
                                X             Y             Z
Electronic contribution:     -4.40404       3.87795       1.42362
Nuclear contribution   :      4.50596      -4.50325      -1.58424
                        -----------------------------------------
Total Dipole Moment    :      0.10192      -0.62530      -0.16062
                        -----------------------------------------
Magnitude (a.u.)       :      0.65359
Magnitude (Debye)      :      1.66131

Rotational constants in cm-1:     0.464063     0.182606     0.146573
Rotational constants in MHz : 13912.251583  5474.398056  4394.141907

                             ****ORCA TERMINATED NORMALLY****
TOTAL RUN TIME: 0 days 0 hours 0 minutes 15 seconds 20 msec
