                         Program Version 5.0.0 -  RELEASE  -
|  1> !wB97X-D3 RIJCOSX def2-TZVPD def2/J TightSCF
|  2> *xyz 0 1
|  3> C          4.99986       -1.59613       -5.92488
|  4> C          5.28156       -1.97413       -4.53576
|  5> C          3.76678       -2.26611       -6.51175
|  6> C          2.49670       -1.84416       -5.73570
|  7> C          4.79250       -1.36132       -3.45730
|  8> N          3.93990       -0.37492       -3.55736
|  9> N          5.25986       -1.75422       -2.23913
| 10> H          5.92282       -2.52145       -2.18672
| 11> H          4.65468       -1.64040       -1.44202
| 12> H          5.70914       -2.87560       -4.38702
| 13> H          3.33010       -0.31764       -4.36125
| 14> H          3.69849        0.11447       -2.70833
| 15> H          4.84333       -0.51793       -5.94302
| 16> H          5.90170       -1.82250       -6.49647
| 17> H          3.88619       -3.35708       -6.53360
| 18> H          3.68560       -1.92217       -7.54713
| 19> H          1.64155       -2.32499       -6.16281
| 20> H          2.37707       -0.78268       -5.79763
| 21> H          2.59306       -2.13299       -4.70994
| 22> *
| 23>
| 24> %MaxCore 64000
| 25>
| 26> %pal nprocs 18
| 27> end
| 28>
| 29> %scf
| 30>   MaxIter 150
| 31> end
| 32>
| 33>
| 34>                          ****END OF INPUT****

CARTESIAN COORDINATES (ANGSTROEM)
---------------------------------
  C      4.999860   -1.596130   -5.924880
  C      5.281560   -1.974130   -4.535760
  C      3.766780   -2.266110   -6.511750
  C      2.496700   -1.844160   -5.735700
  C      4.792500   -1.361320   -3.457300
  N      3.939900   -0.374920   -3.557360
  N      5.259860   -1.754220   -2.239130
  H      5.922820   -2.521450   -2.186720
  H      4.654680   -1.640400   -1.442020
  H      5.709140   -2.875600   -4.387020
  H      3.330100   -0.317640   -4.361250
  H      3.698490    0.114470   -2.708330
  H      4.843330   -0.517930   -5.943020
  H      5.901700   -1.822500   -6.496470
  H      3.886190   -3.357080   -6.533600
  H      3.685600   -1.922170   -7.547130
  H      1.641550   -2.324990   -6.162810
  H      2.377070   -0.782680   -5.797630
  H      2.593060   -2.132990   -4.709940

 Total Charge           Charge          ....    0
 Multiplicity           Mult            ....    1
 Number of Electrons    NEL             ....   56
 Basis Dimension        Dim             ....  367

ORBITAL ENERGIES
----------------

  NO   OCC          E(Eh)            E(eV)
   0   2.0000     -14.420172      -392.3928
   1   2.0000     -14.416923      -392.3044
   2   2.0000     -10.318215      -280.7729
   3   2.0000     -10.257475      -279.1201
   4   2.0000     -10.253827      -279.0208
   5   2.0000     -10.245844      -278.8036
   6   2.0000     -10.196852      -277.4704
   7   2.0000      -1.079102       -29.3639
   8   2.0000      -0.985381       -26.8136
   9   2.0000      -0.905655       -24.6441
  10   2.0000      -0.838225       -22.8092
  11   2.0000      -0.772306       -21.0155
  12   2.0000      -0.713032       -19.4026
  13   2.0000      -0.667640       -18.1674
  14   2.0000      -0.646015       -17.5789
  15   2.0000      -0.609443       -16.5838
  16   2.0000      -0.578598       -15.7444
  17   2.0000      -0.548512       -14.9258
  18   2.0000      -0.536123       -14.5886
  19   2.0000      -0.517237       -14.0747
  20   2.0000      -0.487278       -13.2595
  21   2.0000      -0.469027       -12.7629
  22   2.0000      -0.451497       -12.2859
  23   2.0000      -0.428269       -11.6538
  24   2.0000      -0.411977       -11.2105
  25   2.0000      -0.408550       -11.1172
  26   2.0000      -0.357362        -9.7243
  27   2.0000      -0.248654        -6.7662
  28   0.0000       0.064691         1.7603
  29   0.0000       0.086227         2.3463
  30   0.0000       0.089825         2.4443
  31   0.0000       0.101768         2.7693
  32   0.0000       0.109495         2.9795

MULLIKEN ATOMIC CHARGES
-----------------------
   0 C :   -0.569398
   1 C :   -0.954215
   2 C :   -0.097790
   3 C :   -1.312465
   4 C :    0.704499
   5 N :   -0.363442
   6 N :   -0.520747
   7 H :    0.201668
   8 H :    0.188793
   9 H :    0.363109
  10 H :    0.068437
  11 H :    0.188797
  12 H :    0.343594
  13 H :    0.222644
  14 H :    0.318897
  15 H :    0.211854
  16 H :    0.314013
  17 H :    0.339540
  18 H :    0.352213
Sum of atomic charges:   -0.0000000

LOEWDIN ATOMIC CHARGES
----------------------
   0 C :   -0.246380
   1 C :   -0.131611
   2 C :   -0.241089
   3 C :   -0.111611
   4 C :   -0.544580
   5 N :    0.129138
   6 N :    0.096486
   7 H :    0.105571
   8 H :    0.088318
   9 H :    0.065431
  10 H :    0.067603
  11 H :    0.112660
  12 H :    0.106796
  13 H :    0.106613
  14 H :    0.109488
  15 H :    0.098948
  16 H :    0.066175
  17 H :    0.061220
  18 H :    0.060825

  Mayer bond orders larger than 0.100000
B(  0-C ,  1-C ) :   0.8330 B(  0-C ,  2-C ) :   0.7502 B(  0-C , 12-H ) :   0.9237
B(  0-C , 13-H ) :   1.0873 B(  1-C ,  2-C ) :   0.1743 B(  1-C ,  4-C ) :   1.2752
B(  1-C ,  5-N ) :   0.1005 B(  1-C ,  6-N ) :   0.1174 B(  1-C ,  9-H ) :   0.9463
B(  2-C ,  3-C ) :   0.5957 B(  2-C , 14-H ) :   0.9349 B(  2-C , 15-H ) :   0.9775
B(  3-C , 10-H ) :   0.2073 B(  3-C , 16-H ) :   0.9492 B(  3-C , 17-H ) :   0.9351
B(  3-C , 18-H ) :   0.9242 B(  4-C ,  5-N ) :   0.9836 B(  4-C ,  6-N ) :   0.8699
B(  4-C ,  9-H ) :  -0.1479 B(  5-N , 10-H ) :   0.9672 B(  5-N , 11-H ) :   1.0084
B(  6-N ,  7-H ) :   0.9771 B(  6-N ,  8-H ) :   1.0129

Dispersion correction           -0.005525180
FINAL SINGLE POINT ENERGY      -307.260399401175

DIPOLE MOMENT
-------------
                                X             Y             Z
Electronic contribution:      2.87951       1.03267       4.31197
Nuclear contribution   :     -3.49027      -1.01686      -3.60427
                        -----------------------------------------
Total Dipole Moment    :     -0.61076       0.01581       0.70770
                        -----------------------------------------
Magnitude (a.u.)       :      0.93494
Magnitude (Debye)      :      2.37643

Rotational constants in cm-1:     0.155200     0.057307     0.048781
Rotational constants in MHz :  4652.781345  1718.017305  1462.410307

                             ****ORCA TERMINATED NORMALLY****
TOTAL RUN TIME: 0 days 0 hours 0 minutes 40 seconds 549 msec
