                         Program Version 5.0.0 -  RELEASE  -
|  1> !wB97X-D3 RIJCOSX def2-TZVPD def2/J TightSCF
|  2> *xyz 0 1
|  3> C          4.99986       -1.59613       -5.92488
|  4> N          5.28156       -1.97413       -4.53576
|  5> C          3.76678       -2.26611       -6.51175
|  6> C          2.49670       -1.84416       -5.73570
|  7> C          4.79250       -1.36132       -3.45730
|  8> C          3.93990       -0.37492       -3.55736
|  9> N          5.25986       -1.75422       -2.23913
| 10> H          5.92282       -2.52145       -2.18672
| 11> H          4.65468       -1.64040       -1.44202
| 12> H          5.70914       -2.87560       -4.38702
| 13> H          3.33010       -0.31764       -4.36125
| 14> H          3.69849        0.11447       -2.70833
| 15> H          4.84333       -0.51793       -5.94302
| 16> H          5.90170       -1.82250       -6.49647
| 17> H          3.88619       -3.35708       -6.53360
| 18> H          3.68560       -1.92217       -7.54713
| 19> H          1.64155       -2.32499       -6.16281
| 20> H          2.37707       -0.78268       -5.79763
| 21> H          2.59306       -2.13299       -4.70994
| 22> *
| 23>
| 24> %MaxCore 64000
| 25>
| 26> %pal nprocs 18
| 27> end
| 28>
| 29> %scf
| 30>   MaxIter 150
| 31> end
| 32>
| 33>
| 34>                          ****END OF INPUT****

CARTESIAN COORDINATES (ANGSTROEM)
---------------------------------
  C      4.999860   -1.596130   -5.924880
  N      5.281560   -1.974130   -4.535760
  C      3.766780   -2.266110   -6.511750
  C      2.496700   -1.844160   -5.735700
  C      4.792500   -1.361320   -3.457300
  C      3.939900   -0.374920   -3.557360
  N      5.259860   -1.754220   -2.239130
  H      5.922820   -2.521450   -2.186720
  H      4.654680   -1.640400   -1.442020
  H      5.709140   -2.875600   -4.387020
  H      3.330100   -0.317640   -4.361250
  H      3.698490    0.114470   -2.708330
  H      4.843330   -0.517930   -5.943020
  H      5.901700   -1.822500   -6.496470
  H      3.886190   -3.357080   -6.533600
  H      3.685600   -1.922170   -7.547130
  H      1.641550   -2.324990   -6.162810
  H      2.377070   -0.782680   -5.797630
  H      2.593060   -2.132990   -4.709940

 Total Charge           Charge          ....    0
 Multiplicity           Mult            ....    1
 Number of Electrons    NEL             ....   56
 Basis Dimension        Dim             ....  367

ORBITAL ENERGIES
----------------

  NO   OCC          E(Eh)            E(eV)
   0   2.0000     -14.423510      -392.4837
   1   2.0000     -14.418120      -392.3370
   2   2.0000     -10.320019      -280.8220
   3   2.0000     -10.303659      -280.3768
   4   2.0000     -10.271501      -279.5017
   5   2.0000     -10.249292      -278.8974
   6   2.0000     -10.181550      -277.0540
   7   2.0000      -1.080169       -29.3929
   8   2.0000      -0.995288       -27.0832
   9   2.0000      -0.892572       -24.2881
  10   2.0000      -0.838720       -22.8227
  11   2.0000      -0.793074       -21.5806
  12   2.0000      -0.716072       -19.4853
  13   2.0000      -0.667253       -18.1569
  14   2.0000      -0.640291       -17.4232
  15   2.0000      -0.614398       -16.7186
  16   2.0000      -0.566546       -15.4165
  17   2.0000      -0.558946       -15.2097
  18   2.0000      -0.531235       -14.4557
  19   2.0000      -0.502360       -13.6699
  20   2.0000      -0.490047       -13.3349
  21   2.0000      -0.472983       -12.8705
  22   2.0000      -0.471671       -12.8348
  23   2.0000      -0.438676       -11.9370
  24   2.0000      -0.433412       -11.7938
  25   2.0000      -0.421989       -11.4829
  26   2.0000      -0.342732        -9.3262
  27   2.0000      -0.259537        -7.0624
  28   0.0000       0.064738         1.7616
  29   0.0000       0.084067         2.2876
  30   0.0000       0.087255         2.3743
  31   0.0000       0.095950         2.6109
  32   0.0000       0.111103         3.0233

MULLIKEN ATOMIC CHARGES
-----------------------
   0 C :   -0.860270
   1 N :   -0.179890
   2 C :   -0.055678
   3 C :   -1.280612
   4 C :    0.912903
   5 C :   -1.571992
   6 N :   -0.495176
   7 H :    0.182096
   8 H :    0.217456
   9 H :    0.211808
  10 H :    0.301345
  11 H :    0.353429
  12 H :    0.440361
  13 H :    0.248565
  14 H :    0.265512
  15 H :    0.239779
  16 H :    0.335048
  17 H :    0.363699
  18 H :    0.371616
Sum of atomic charges:   -0.0000000

LOEWDIN ATOMIC CHARGES
----------------------
   0 C :   -0.200681
   1 N :    0.021005
   2 C :   -0.226194
   3 C :   -0.111811
   4 C :   -0.551064
   5 C :   -0.003349
   6 N :    0.102722
   7 H :    0.095801
   8 H :    0.100507
   9 H :    0.135648
  10 H :   -0.017667
  11 H :    0.025026
  12 H :    0.118959
  13 H :    0.113587
  14 H :    0.105275
  15 H :    0.103011
  16 H :    0.064944
  17 H :    0.064100
  18 H :    0.060182

  Mayer bond orders larger than 0.100000
B(  0-C ,  1-N ) :   0.9439 B(  0-C ,  2-C ) :   0.8633 B(  0-C ,  3-C ) :   0.1327
B(  0-C ,  5-C ) :   0.2182 B(  0-C , 12-H ) :   0.8286 B(  0-C , 13-H ) :   0.9714
B(  1-N ,  4-C ) :   1.0446 B(  1-N ,  9-H ) :   0.9703 B(  2-C ,  3-C ) :   0.6665
B(  2-C , 14-H ) :   0.9392 B(  2-C , 15-H ) :   0.9743 B(  3-C ,  5-C ) :   0.1672
B(  3-C , 16-H ) :   0.9164 B(  3-C , 17-H ) :   0.9317 B(  3-C , 18-H ) :   0.9289
B(  4-C ,  5-C ) :   0.9985 B(  4-C ,  6-N ) :   0.8947 B(  4-C , 11-H ) :  -0.1133
B(  5-C , 10-H ) :   0.8418 B(  5-C , 11-H ) :   1.0477 B(  5-C , 12-H ) :  -0.1015
B(  6-N ,  7-H ) :   1.0007 B(  6-N ,  8-H ) :   0.9725

Dispersion correction           -0.005494292
FINAL SINGLE POINT ENERGY      -307.249038751920

DIPOLE MOMENT
-------------
                                X             Y             Z
Electronic contribution:      4.03988      -0.37133       3.35716
Nuclear contribution   :     -3.78417      -0.66655      -3.38995
                        -----------------------------------------
Total Dipole Moment    :      0.25571      -1.03788      -0.03279
                        -----------------------------------------
Magnitude (a.u.)       :      1.06942
Magnitude (Debye)      :      2.71826

Rotational constants in cm-1:     0.157710     0.057795     0.049101
Rotational constants in MHz :  4728.033540  1732.635996  1472.015132

                             ****ORCA TERMINATED NORMALLY****
TOTAL RUN TIME: 0 days 0 hours 0 minutes 34 seconds 146 msec
