                         Program Version 5.0.0 -  RELEASE  -
|  1> !wB97X-D3 RIJCOSX def2-TZVPD def2/J TightSCF
|  2> *xyz 0 1
|  3> C          4.99986       -1.59613       -5.92488
|  4> N          5.28156       -1.97413       -4.53576
|  5> C          3.76678       -2.26611       -6.51175
|  6> C          2.49670       -1.84416       -5.73570
|  7> C          4.79250       -1.36132       -3.45730
|  8> N          3.93990       -0.37492       -3.55736
|  9> C          5.25986       -1.75422       -2.23913
| 10> H          5.92282       -2.52145       -2.18672
| 11> H          4.65468       -1.64040       -1.44202
| 12> H          5.70914       -2.87560       -4.38702
| 13> H          3.33010       -0.31764       -4.36125
| 14> H          3.69849        0.11447       -2.70833
| 15> H          4.84333       -0.51793       -5.94302
| 16> H          5.90170       -1.82250       -6.49647
| 17> H          3.88619       -3.35708       -6.53360
| 18> H          3.68560       -1.92217       -7.54713
| 19> H          1.64155       -2.32499       -6.16281
| 20> H          2.37707       -0.78268       -5.79763
| 21> H          2.59306       -2.13299       -4.70994
| 22> *
| 23>
| 24> %MaxCore 64000
| 25>
| 26> %pal nprocs 18
| 27> end
| 28>
| 29> %scf
| 30>   MaxIter 150
| 31> end
| 32>
| 33>
| 34>                          ****END OF INPUT****

CARTESIAN COORDINATES (ANGSTROEM)
---------------------------------
  C      4.999860   -1.596130   -5.924880
  N      5.281560   -1.974130   -4.535760
  C      3.766780   -2.266110   -6.511750
  C      2.496700   -1.844160   -5.735700
  C      4.792500   -1.361320   -3.457300
  N      3.939900   -0.374920   -3.557360
  C      5.259860   -1.754220   -2.239130
  H      5.922820   -2.521450   -2.186720
  H      4.654680   -1.640400   -1.442020
  H      5.709140   -2.875600   -4.387020
  H      3.330100   -0.317640   -4.361250
  H      3.698490    0.114470   -2.708330
  H      4.843330   -0.517930   -5.943020
  H      5.901700   -1.822500   -6.496470
  H      3.886190   -3.357080   -6.533600
  H      3.685600   -1.922170   -7.547130
  H      1.641550   -2.324990   -6.162810
  H      2.377070   -0.782680   -5.797630
  H      2.593060   -2.132990   -4.709940

 Total Charge           Charge          ....    0
 Multiplicity           Mult            ....    1
 Number of Electrons    NEL             ....   56
 Basis Dimension        Dim             ....  367

ORBITAL ENERGIES
----------------

  NO   OCC          E(Eh)            E(eV)
   0   2.0000     -14.422973      -392.4691
   1   2.0000     -14.420298      -392.3962
   2   2.0000     -10.324748      -280.9507
   3   2.0000     -10.312652      -280.6215
   4   2.0000     -10.283506      -279.8284
   5   2.0000     -10.272165      -279.5198
   6   2.0000     -10.179532      -276.9991
   7   2.0000      -1.089885       -29.6573
   8   2.0000      -1.004419       -27.3316
   9   2.0000      -0.913101       -24.8468
  10   2.0000      -0.832652       -22.6576
  11   2.0000      -0.788825       -21.4650
  12   2.0000      -0.713118       -19.4049
  13   2.0000      -0.707496       -19.2520
  14   2.0000      -0.649187       -17.6653
  15   2.0000      -0.603620       -16.4253
  16   2.0000      -0.579354       -15.7650
  17   2.0000      -0.562836       -15.3156
  18   2.0000      -0.554166       -15.0796
  19   2.0000      -0.504379       -13.7248
  20   2.0000      -0.493968       -13.4416
  21   2.0000      -0.482196       -13.1212
  22   2.0000      -0.471216       -12.8224
  23   2.0000      -0.448772       -12.2117
  24   2.0000      -0.443763       -12.0754
  25   2.0000      -0.439261       -11.9529
  26   2.0000      -0.347554        -9.4574
  27   2.0000      -0.245191        -6.6720
  28   0.0000       0.063437         1.7262
  29   0.0000       0.079484         2.1629
  30   0.0000       0.088854         2.4179
  31   0.0000       0.091090         2.4787
  32   0.0000       0.113680         3.0934

MULLIKEN ATOMIC CHARGES
-----------------------
   0 C :   -0.852329
   1 N :   -0.134884
   2 C :   -0.019566
   3 C :   -1.362103
   4 C :    0.866906
   5 N :   -0.336823
   6 C :   -1.626361
   7 H :    0.342510
   8 H :    0.356379
   9 H :    0.213489
  10 H :    0.081563
  11 H :    0.205556
  12 H :    0.426783
  13 H :    0.255541
  14 H :    0.277810
  15 H :    0.249616
  16 H :    0.309318
  17 H :    0.342212
  18 H :    0.404383
Sum of atomic charges:   -0.0000000

LOEWDIN ATOMIC CHARGES
----------------------
   0 C :   -0.202126
   1 N :    0.027609
   2 C :   -0.227092
   3 C :   -0.107280
   4 C :   -0.569448
   5 N :    0.126087
   6 C :   -0.012893
   7 H :   -0.000095
   8 H :   -0.005297
   9 H :    0.144324
  10 H :    0.062007
  11 H :    0.122507
  12 H :    0.116034
  13 H :    0.115050
  14 H :    0.109096
  15 H :    0.104150
  16 H :    0.069480
  17 H :    0.062895
  18 H :    0.064993

  Mayer bond orders larger than 0.100000
B(  0-C ,  1-N ) :   0.9279 B(  0-C ,  2-C ) :   0.8392 B(  0-C ,  3-C ) :   0.1499
B(  0-C ,  4-C ) :  -0.1252 B(  0-C ,  5-N ) :   0.1273 B(  0-C , 12-H ) :   0.8403
B(  0-C , 13-H ) :   1.0030 B(  1-N ,  4-C ) :   1.1293 B(  1-N ,  6-C ) :   0.1401
B(  1-N ,  9-H ) :   0.9339 B(  2-C ,  3-C ) :   0.5797 B(  2-C , 14-H ) :   0.9453
B(  2-C , 15-H ) :   0.9913 B(  3-C , 10-H ) :   0.2073 B(  3-C , 16-H ) :   0.9587
B(  3-C , 17-H ) :   0.9445 B(  3-C , 18-H ) :   0.8724 B(  4-C ,  5-N ) :   1.0608
B(  4-C ,  6-C ) :   0.9196 B(  5-N ,  6-C ) :   0.1459 B(  5-N , 10-H ) :   0.9383
B(  5-N , 11-H ) :   0.9949 B(  6-C ,  7-H ) :   0.9535 B(  6-C ,  8-H ) :   0.9616

Dispersion correction           -0.005596481
FINAL SINGLE POINT ENERGY      -307.246868877643

DIPOLE MOMENT
-------------
                                X             Y             Z
Electronic contribution:      2.72900       0.91318       1.89961
Nuclear contribution   :     -3.49502      -0.96869      -3.10119
                        -----------------------------------------
Total Dipole Moment    :     -0.76603      -0.05551      -1.20158
                        -----------------------------------------
Magnitude (a.u.)       :      1.42607
Magnitude (Debye)      :      3.62477

Rotational constants in cm-1:     0.153385     0.059790     0.050215
Rotational constants in MHz :  4598.376479  1792.462869  1505.410199

                             ****ORCA TERMINATED NORMALLY****
TOTAL RUN TIME: 0 days 0 hours 0 minutes 36 seconds 661 msec
