                         Program Version 5.0.0 -  RELEASE  -
|  1> !PBE0 D3BJ RIJCOSX def2-SVPD def2/J TightSCF
|  2> *xyz -1 1
|  3> C         -2.45380        0.05510        6.94145
|  4> C         -2.07842        1.48042        6.56410
|  5> O         -0.90125        1.85816        6.82810
|  6> O         -2.93658        2.17731        5.96415
|  7> H         -3.47026       -0.13135        6.66407
|  8> H         -2.34265       -0.07527        7.99765
|  9> H         -1.81248       -0.63046        6.42801
| 10> *
| 11> %MaxCore 64000
| 12>
| 13> %pal nprocs 4
| 14> end
| 15>
| 16> %scf
| 17>   MaxIter 150
| 18> end
| 19>
| 20>
| 21>                          ****END OF INPUT****

CARTESIAN COORDINATES (ANGSTROEM)
---------------------------------
  C     -2.453800    0.055100    6.941450
  C     -2.078420    1.480420    6.564100
  O     -0.901250    1.858160    6.828100
  O     -2.936580    2.177310    5.964150
  H     -3.470260   -0.131350    6.664070
  H     -2.342650   -0.075270    7.997650
  H     -1.812480   -0.630460    6.428010

 Total Charge           Charge          ....   -1
 Multiplicity           Mult            ....    1
 Number of Electrons    NEL             ....   32
 Basis Dimension        Dim             ....  110

ORBITAL ENERGIES
----------------

  NO   OCC          E(Eh)            E(eV)
   0   2.0000     -18.951479      -515.6960
   1   2.0000     -18.948804      -515.6232
   2   2.0000     -10.115344      -275.2525
   3   2.0000     -10.044892      -273.3354
   4   2.0000      -0.833760       -22.6878
   5   2.0000      -0.738587       -20.0980
   6   2.0000      -0.560611       -15.2550
   7   2.0000      -0.318587        -8.6692
   8   2.0000      -0.273909        -7.4534
   9   2.0000      -0.259875        -7.0716
  10   2.0000      -0.239289        -6.5114
  11   2.0000      -0.197120        -5.3639
  12   2.0000      -0.176984        -4.8160
  13   2.0000      -0.058542        -1.5930
  14   2.0000      -0.054124        -1.4728
  15   2.0000      -0.037225        -1.0129
  16   0.0000       0.178793         4.8652
  17   0.0000       0.220026         5.9872
  18   0.0000       0.229342         6.2407
  19   0.0000       0.248658         6.7663
  20   0.0000       0.271963         7.4005

MULLIKEN ATOMIC CHARGES
-----------------------
   0 C :    0.308161
   1 C :    0.179597
   2 O :   -0.747482
   3 O :   -0.712991
   4 H :   -0.020185
   5 H :   -0.002237
   6 H :   -0.004864
Sum of atomic charges:   -1.0000000

LOEWDIN ATOMIC CHARGES
----------------------
   0 C :    0.135919
   1 C :   -0.324500
   2 O :   -0.355545
   3 O :   -0.346805
   4 H :   -0.041486
   5 H :   -0.034709
   6 H :   -0.032872

  Mayer bond orders larger than 0.100000
B(  0-C ,  1-C ) :   1.2380 B(  0-C ,  4-H ) :   0.8919 B(  0-C ,  5-H ) :   0.8417
B(  0-C ,  6-H ) :   0.8494 B(  1-C ,  2-O ) :   1.3987 B(  1-C ,  3-O ) :   1.4024
B(  1-C ,  4-H ) :   0.2186 B(  1-C ,  5-H ) :   0.1477 B(  1-C ,  6-H ) :   0.1418

Dispersion correction           -0.003026318
FINAL SINGLE POINT ENERGY      -228.120572367687

DIPOLE MOMENT
-------------
                                X             Y             Z
Electronic contribution:      0.86780       3.34457      -0.90633
Nuclear contribution   :     -1.26064      -4.68337       1.27880
                        -----------------------------------------
Total Dipole Moment    :     -0.39284      -1.33880       0.37247
                        -----------------------------------------
Magnitude (a.u.)       :      1.44411
Magnitude (Debye)      :      3.67063

Rotational constants in cm-1:     0.391994     0.333933     0.186475
Rotational constants in MHz : 11751.676689 10011.065304  5590.392476

                             ****ORCA TERMINATED NORMALLY****
TOTAL RUN TIME: 0 days 0 hours 0 minutes 7 seconds 430 msec
