                         Program Version 5.0.0 -  RELEASE  -
|  1> !PBE0 D3BJ RIJCOSX def2-SVPD def2/J TightSCF
|  2> *xyz 1 1
|  3> C         -0.69912        3.48945        3.75516
|  4> N         -1.08067        3.79296        5.15686
|  5> H         -0.87449        4.76274        5.42734
|  6> H         -0.68079        3.13476        5.83900
|  7> H         -2.05755        3.53169        5.34620
|  8> H         -1.14600        4.20803        3.10030
|  9> H         -1.04188        2.50941        3.49644
| 10> H          0.36562        3.53208        3.65813
| 11> *
| 12> %MaxCore 64000
| 13>
| 14> %pal nprocs 4
| 15> end
| 16>
| 17> %scf
| 18>   MaxIter 150
| 19> end
| 20>
| 21>
| 22>                          ****END OF INPUT****

CARTESIAN COORDINATES (ANGSTROEM)
---------------------------------
  C     -0.699120    3.489450    3.755160
  N     -1.080670    3.792960    5.156860
  H     -0.874490    4.762740    5.427340
  H     -0.680790    3.134760    5.839000
  H     -2.057550    3.531690    5.346200
  H     -1.146000    4.208030    3.100300
  H     -1.041880    2.509410    3.496440
  H      0.365620    3.532080    3.658130

 Total Charge           Charge          ....    1
 Multiplicity           Mult            ....    1
 Number of Electrons    NEL             ....   18
 Basis Dimension        Dim             ....   88

ORBITAL ENERGIES
----------------

  NO   OCC          E(Eh)            E(eV)
   0   2.0000     -14.746873      -401.2828
   1   2.0000     -10.491159      -285.4790
   2   2.0000      -1.246200       -33.9108
   3   2.0000      -0.959081       -26.0979
   4   2.0000      -0.842050       -22.9133
   5   2.0000      -0.803611       -21.8674
   6   2.0000      -0.734860       -19.9966
   7   2.0000      -0.642438       -17.4816
   8   2.0000      -0.636297       -17.3145
   9   0.0000      -0.196057        -5.3350
  10   0.0000      -0.129261        -3.5174
  11   0.0000      -0.124807        -3.3962
  12   0.0000      -0.122427        -3.3314
  13   0.0000      -0.075489        -2.0542

MULLIKEN ATOMIC CHARGES
-----------------------
   0 C :    0.808824
   1 N :   -0.888711
   2 H :    0.384526
   3 H :    0.361911
   4 H :    0.376086
   5 H :   -0.016993
   6 H :   -0.017411
   7 H :   -0.008231
Sum of atomic charges:    1.0000000

LOEWDIN ATOMIC CHARGES
----------------------
   0 C :    0.283773
   1 N :    0.302247
   2 H :    0.114883
   3 H :    0.108980
   4 H :    0.108595
   5 H :    0.027350
   6 H :    0.027429
   7 H :    0.026743

  Mayer bond orders larger than 0.100000
B(  0-C ,  1-N ) :   0.7477 B(  0-C ,  5-H ) :   0.9121 B(  0-C ,  6-H ) :   0.9096
B(  0-C ,  7-H ) :   0.9150 B(  1-N ,  2-H ) :   0.7543 B(  1-N ,  3-H ) :   0.8043
B(  1-N ,  4-H ) :   0.7800

Dispersion correction           -0.002670758
FINAL SINGLE POINT ENERGY       -96.031383077053

DIPOLE MOMENT
-------------
                                X             Y             Z
Electronic contribution:     -0.25001       0.28374       0.99556
Nuclear contribution   :     -0.00699      -0.18064      -0.14199
                        -----------------------------------------
Total Dipole Moment    :     -0.25699       0.10310       0.85357
                        -----------------------------------------
Magnitude (a.u.)       :      0.89736
Magnitude (Debye)      :      2.28091

Rotational constants in cm-1:     2.906310     0.688008     0.676648
Rotational constants in MHz : 87128.982229 20625.947414 20285.402367

                             ****ORCA TERMINATED NORMALLY****
TOTAL RUN TIME: 0 days 0 hours 0 minutes 4 seconds 470 msec
