                         Program Version 5.0.0 -  RELEASE  -
|  1> !PBE0 D3BJ RIJCOSX def2-SVPD def2/J TightSCF
|  2> *xyz 0 1
|  3> C         -2.45380        0.05510        6.94145
|  4> C         -2.07842        1.48042        6.56410
|  5> F         -0.90125        1.85816        6.82810
|  6> O         -2.93658        2.17731        5.96415
|  7> H         -3.47026       -0.13135        6.66407
|  8> H         -2.34265       -0.07527        7.99765
|  9> H         -1.81248       -0.63046        6.42801
| 10> *
| 11> %MaxCore 64000
| 12>
| 13> %pal nprocs 4
| 14> end
| 15>
| 16> %scf
| 17>   MaxIter 150
| 18> end
| 19>
| 20>
| 21>                          ****END OF INPUT****

CARTESIAN COORDINATES (ANGSTROEM)
---------------------------------
  C     -2.453800    0.055100    6.941450
  C     -2.078420    1.480420    6.564100
  F     -0.901250    1.858160    6.828100
  O     -2.936580    2.177310    5.964150
  H     -3.470260   -0.131350    6.664070
  H     -2.342650   -0.075270    7.997650
  H     -1.812480   -0.630460    6.428010

 Total Charge           Charge          ....    0
 Multiplicity           Mult            ....    1
 Number of Electrons    NEL             ....   32
 Basis Dimension        Dim             ....  110

ORBITAL ENERGIES
----------------

  NO   OCC          E(Eh)            E(eV)
   0   2.0000     -24.856880      -676.3901
   1   2.0000     -19.230099      -523.2776
   2   2.0000     -10.421521      -283.5840
   3   2.0000     -10.262154      -279.2474
   4   2.0000      -1.337358       -36.3914
   5   2.0000      -1.056507       -28.7490
   6   2.0000      -0.794087       -21.6082
   7   2.0000      -0.679475       -18.4895
   8   2.0000      -0.569208       -15.4889
   9   2.0000      -0.564885       -15.3713
  10   2.0000      -0.523456       -14.2440
  11   2.0000      -0.462597       -12.5879
  12   2.0000      -0.450231       -12.2514
  13   2.0000      -0.423162       -11.5148
  14   2.0000      -0.374831       -10.1997
  15   2.0000      -0.313198        -8.5225
  16   0.0000      -0.029411        -0.8003
  17   0.0000       0.018955         0.5158
  18   0.0000       0.065260         1.7758
  19   0.0000       0.091660         2.4942
  20   0.0000       0.099764         2.7147

MULLIKEN ATOMIC CHARGES
-----------------------
   0 C :    0.248295
   1 C :    0.529385
   2 F :   -0.403577
   3 O :   -0.525064
   4 H :    0.004753
   5 H :    0.072684
   6 H :    0.073524
Sum of atomic charges:   -0.0000000

LOEWDIN ATOMIC CHARGES
----------------------
   0 C :    0.208754
   1 C :   -0.021539
   2 F :   -0.048265
   3 O :   -0.144976
   4 H :    0.002350
   5 H :    0.000793
   6 H :    0.002884

  Mayer bond orders larger than 0.100000
B(  0-C ,  1-C ) :   1.2544 B(  0-C ,  4-H ) :   0.9095 B(  0-C ,  5-H ) :   0.8227
B(  0-C ,  6-H ) :   0.8271 B(  1-C ,  2-F ) :   0.7048 B(  1-C ,  3-O ) :   1.7543
B(  1-C ,  4-H ) :   0.1836 B(  1-C ,  5-H ) :   0.1121 B(  1-C ,  6-H ) :   0.1085

Dispersion correction           -0.002786671
FINAL SINGLE POINT ENERGY      -252.643693511215

DIPOLE MOMENT
-------------
                                X             Y             Z
Electronic contribution:      2.82372       4.12280      -0.49006
Nuclear contribution   :     -2.49112      -5.16552       1.01592
                        -----------------------------------------
Total Dipole Moment    :      0.33261      -1.04272       0.52586
                        -----------------------------------------
Magnitude (a.u.)       :      1.21425
Magnitude (Debye)      :      3.08638

Rotational constants in cm-1:     0.367635     0.321184     0.176974
Rotational constants in MHz : 11021.414238  9628.842971  5305.560130

                             ****ORCA TERMINATED NORMALLY****
TOTAL RUN TIME: 0 days 0 hours 0 minutes 6 seconds 714 msec
