                         Program Version 5.0.0 -  RELEASE  -
|  1> !PBE0 D3BJ RIJCOSX def2-SVPD def2/J TightSCF
|  2> *xyz 0 1
|  3> C         -0.69912        3.48945        3.75516
|  4> C         -1.08067        3.79296        5.15686
|  5> H         -0.87449        4.76274        5.42734
|  6> H         -0.68079        3.13476        5.83900
|  7> H         -2.05755        3.53169        5.34620
|  8> H         -1.14600        4.20803        3.10030
|  9> H         -1.04188        2.50941        3.49644
| 10> H          0.36562        3.53208        3.65813
| 11> *
| 12> %MaxCore 64000
| 13>
| 14> %pal nprocs 4
| 15> end
| 16>
| 17> %scf
| 18>   MaxIter 150
| 19> end
| 20>
| 21>
| 22>                          ****END OF INPUT****

CARTESIAN COORDINATES (ANGSTROEM)
---------------------------------
  C     -0.699120    3.489450    3.755160
  C     -1.080670    3.792960    5.156860
  H     -0.874490    4.762740    5.427340
  H     -0.680790    3.134760    5.839000
  H     -2.057550    3.531690    5.346200
  H     -1.146000    4.208030    3.100300
  H     -1.041880    2.509410    3.496440
  H      0.365620    3.532080    3.658130

 Total Charge           Charge          ....    0
 Multiplicity           Mult            ....    1
 Number of Electrons    NEL             ....   18
 Basis Dimension        Dim             ....   88

ORBITAL ENERGIES
----------------

  NO   OCC          E(Eh)            E(eV)
   0   2.0000     -10.210017      -277.8287
   1   2.0000     -10.195971      -277.4465
   2   2.0000      -0.785914       -21.3858
   3   2.0000      -0.638665       -17.3789
   4   2.0000      -0.471212       -12.8223
   5   2.0000      -0.449959       -12.2440
   6   2.0000      -0.387071       -10.5327
   7   2.0000      -0.365330        -9.9411
   8   2.0000      -0.342821        -9.3286
   9   0.0000       0.036032         0.9805
  10   0.0000       0.067306         1.8315
  11   0.0000       0.108366         2.9488
  12   0.0000       0.113790         3.0964
  13   0.0000       0.131417         3.5760

MULLIKEN ATOMIC CHARGES
-----------------------
   0 C :    0.120765
   1 C :    0.379323
   2 H :   -0.152477
   3 H :   -0.161080
   4 H :   -0.150609
   5 H :   -0.018505
   6 H :   -0.003382
   7 H :   -0.014035
Sum of atomic charges:    0.0000000

LOEWDIN ATOMIC CHARGES
----------------------
   0 C :    0.074512
   1 C :    0.070027
   2 H :   -0.028310
   3 H :   -0.036036
   4 H :   -0.035950
   5 H :   -0.014889
   6 H :   -0.013632
   7 H :   -0.015721

  Mayer bond orders larger than 0.100000
B(  0-C ,  1-C ) :   1.4507 B(  0-C ,  2-H ) :   0.1427 B(  0-C ,  3-H ) :   0.1257
B(  0-C ,  4-H ) :   0.1288 B(  0-C ,  5-H ) :   0.8832 B(  0-C ,  6-H ) :   0.8874
B(  0-C ,  7-H ) :   0.8851 B(  1-C ,  2-H ) :   0.8573 B(  1-C ,  3-H ) :   0.7903
B(  1-C ,  4-H ) :   0.7908 B(  1-C ,  5-H ) :   0.1325 B(  1-C ,  6-H ) :   0.1360
B(  1-C ,  7-H ) :   0.1290 B(  3-H ,  4-H ) :   0.2640

Dispersion correction           -0.002680882
FINAL SINGLE POINT ENERGY       -79.652282449370

DIPOLE MOMENT
-------------
                                X             Y             Z
Electronic contribution:      0.05261       0.10199      -0.06129
Nuclear contribution   :     -0.07174      -0.12630       0.09844
                        -----------------------------------------
Total Dipole Moment    :     -0.01913      -0.02431       0.03715
                        -----------------------------------------
Magnitude (a.u.)       :      0.04835
Magnitude (Debye)      :      0.12289

Rotational constants in cm-1:     2.906543     0.717882     0.705537
Rotational constants in MHz : 87135.978289 21521.550473 21151.459355

                             ****ORCA TERMINATED NORMALLY****
TOTAL RUN TIME: 0 days 0 hours 0 minutes 4 seconds 413 msec
