                         Program Version 5.0.0 -  RELEASE  -
|  1> !PBE0 D3BJ RIJCOSX def2-SVPD def2/J TightSCF
|  2> *xyz 0 1
|  3> C         -2.45380        0.05510        6.94145
|  4> C         -2.07842        1.48042        6.56410
|  5> O         -0.90125        1.85816        6.82810
|  6> F         -2.93658        2.17731        5.96415
|  7> H         -3.47026       -0.13135        6.66407
|  8> H         -2.34265       -0.07527        7.99765
|  9> H         -1.81248       -0.63046        6.42801
| 10> *
| 11> %MaxCore 64000
| 12>
| 13> %pal nprocs 4
| 14> end
| 15>
| 16> %scf
| 17>   MaxIter 150
| 18> end
| 19>
| 20>
| 21>                          ****END OF INPUT****

CARTESIAN COORDINATES (ANGSTROEM)
---------------------------------
  C     -2.453800    0.055100    6.941450
  C     -2.078420    1.480420    6.564100
  O     -0.901250    1.858160    6.828100
  F     -2.936580    2.177310    5.964150
  H     -3.470260   -0.131350    6.664070
  H     -2.342650   -0.075270    7.997650
  H     -1.812480   -0.630460    6.428010

 Total Charge           Charge          ....    0
 Multiplicity           Mult            ....    1
 Number of Electrons    NEL             ....   32
 Basis Dimension        Dim             ....  110

ORBITAL ENERGIES
----------------

  NO   OCC          E(Eh)            E(eV)
   0   2.0000     -24.859688      -676.4665
   1   2.0000     -19.228390      -523.2311
   2   2.0000     -10.422252      -283.6039
   3   2.0000     -10.262364      -279.2531
   4   2.0000      -1.342520       -36.5318
   5   2.0000      -1.052233       -28.6327
   6   2.0000      -0.793961       -21.6048
   7   2.0000      -0.682642       -18.5756
   8   2.0000      -0.571533       -15.5522
   9   2.0000      -0.567639       -15.4463
  10   2.0000      -0.523714       -14.2510
  11   2.0000      -0.463794       -12.6205
  12   2.0000      -0.449685       -12.2365
  13   2.0000      -0.422290       -11.4911
  14   2.0000      -0.369391       -10.0517
  15   2.0000      -0.312613        -8.5066
  16   0.0000      -0.033159        -0.9023
  17   0.0000       0.018691         0.5086
  18   0.0000       0.065229         1.7750
  19   0.0000       0.094279         2.5655
  20   0.0000       0.095503         2.5988

MULLIKEN ATOMIC CHARGES
-----------------------
   0 C :    0.236378
   1 C :    0.515659
   2 O :   -0.549944
   3 F :   -0.377565
   4 H :    0.028922
   5 H :    0.072275
   6 H :    0.074275
Sum of atomic charges:    0.0000000

LOEWDIN ATOMIC CHARGES
----------------------
   0 C :    0.209019
   1 C :   -0.019830
   2 O :   -0.150825
   3 F :   -0.043781
   4 H :   -0.010722
   5 H :    0.007566
   6 H :    0.008575

  Mayer bond orders larger than 0.100000
B(  0-C ,  1-C ) :   1.2719 B(  0-C ,  4-H ) :   0.8961 B(  0-C ,  5-H ) :   0.8234
B(  0-C ,  6-H ) :   0.8299 B(  1-C ,  2-O ) :   1.7267 B(  1-C ,  3-F ) :   0.7493
B(  1-C ,  4-H ) :   0.1337 B(  1-C ,  5-H ) :   0.1282 B(  1-C ,  6-H ) :   0.1200

Dispersion correction           -0.002787068
FINAL SINGLE POINT ENERGY      -252.640819386420

DIPOLE MOMENT
-------------
                                X             Y             Z
Electronic contribution:     -0.48066       4.64228      -1.89269
Nuclear contribution   :     -0.38801      -5.49530       1.90863
                        -----------------------------------------
Total Dipole Moment    :     -0.86867      -0.85301       0.01594
                        -----------------------------------------
Magnitude (a.u.)       :      1.21757
Magnitude (Debye)      :      3.09481

Rotational constants in cm-1:     0.368583     0.320435     0.176966
Rotational constants in MHz : 11049.843408  9606.394840  5305.299921

                             ****ORCA TERMINATED NORMALLY****
TOTAL RUN TIME: 0 days 0 hours 0 minutes 6 seconds 891 msec
