                         Program Version 5.0.0 -  RELEASE  -
|  1> !PBE0 D3BJ RIJCOSX def2-SVPD def2/J TightSCF xyzfile
|  2>
|  3> *xyzfile 0 1 D2.xyz
|  4>
|  5> %MaxCore 64000
|  6>
|  7> %pal nprocs 4
|  8> end
|  9>
| 10> %scf
| 11>   MaxIter 150
| 12> end
| 13>
| 14>
| 15>                          ****END OF INPUT****

CARTESIAN COORDINATES (ANGSTROEM)
---------------------------------
  C     -0.699123    3.489451    3.755163
  H     -0.966716    4.349013    3.140491
  C     -1.080669    3.792957    5.156857
  C      0.776956    3.138391    3.617408
  H     -1.331455    2.656510    3.446323
  H      1.371398    3.888342    4.149744
  H      1.046926    3.232057    2.561331
  C      1.118917    1.731170    4.115155
  H      2.200573    1.654226    4.254882
  C      0.659466    0.635182    3.153306
  H      0.677024    1.576674    5.103150
  H      1.312288    0.638870    2.274207
  H     -0.339563    0.868049    2.772876
  C      0.639957   -0.771175    3.755619
  C     -0.341821   -0.965537    4.915046
  H      1.648266   -1.028665    4.097015
  H      0.398568   -1.482386    2.958453
  H     -0.279892   -2.005646    5.252547
  C     -1.789164   -0.639231    4.557496
  H     -0.032380   -0.352918    5.765118
  H     -2.107151   -1.270102    3.719619
  H     -1.856352    0.391636    4.197604
  C     -2.790700   -0.785275    5.702812
  H     -2.867308   -1.835651    6.001675
  H     -3.774554   -0.486577    5.334807
  C     -2.453797    0.055101    6.941445
  C     -2.078419    1.480421    6.564098
  H     -1.625584   -0.382163    7.498914
  H     -3.325274    0.087746    7.599175
  H     -0.874488    4.762737    5.427344
  H     -0.680793    3.134762    5.839000
  H     -2.057550    3.531691    5.346197
  O     -0.901252    1.858156    6.828104
  F     -2.936582    2.177309    5.964151

 Total Charge           Charge          ....    0
 Multiplicity           Mult            ....    1
 Number of Electrons    NEL             ....  104
 Basis Dimension        Dim             ....  434

ORBITAL ENERGIES
----------------

  NO   OCC          E(Eh)            E(eV)
   0   2.0000     -24.868522      -676.7069
   1   2.0000     -19.234714      -523.4032
   2   2.0000     -10.427818      -283.7554
   3   2.0000     -10.269540      -279.4484
   4   2.0000     -10.255383      -279.0632
   5   2.0000     -10.239299      -278.6255
   6   2.0000     -10.228495      -278.3315
   7   2.0000     -10.224331      -278.2182
   8   2.0000     -10.217278      -278.0263
   9   2.0000     -10.210297      -277.8363
  10   2.0000     -10.207583      -277.7625
  11   2.0000     -10.201321      -277.5921
  12   2.0000     -10.146543      -276.1015
  13   2.0000      -1.354272       -36.8516
  14   2.0000      -1.067466       -29.0472
  15   2.0000      -0.852114       -23.1872
  16   2.0000      -0.823001       -22.3950
  17   2.0000      -0.793582       -21.5945
  18   2.0000      -0.765372       -20.8268
  19   2.0000      -0.721338       -19.6286
  20   2.0000      -0.700780       -19.0692
  21   2.0000      -0.677879       -18.4460
  22   2.0000      -0.636514       -17.3204
  23   2.0000      -0.624431       -16.9916
  24   2.0000      -0.584540       -15.9061
  25   2.0000      -0.578126       -15.7316
  26   2.0000      -0.575281       -15.6542
  27   2.0000      -0.551186       -14.9985
  28   2.0000      -0.531438       -14.4612
  29   2.0000      -0.498113       -13.5543
  30   2.0000      -0.493088       -13.4176
  31   2.0000      -0.473046       -12.8722
  32   2.0000      -0.467717       -12.7272
  33   2.0000      -0.446767       -12.1572
  34   2.0000      -0.437364       -11.9013
  35   2.0000      -0.433443       -11.7946
  36   2.0000      -0.422133       -11.4868
  37   2.0000      -0.415802       -11.3146
  38   2.0000      -0.402656       -10.9568
  39   2.0000      -0.389909       -10.6100
  40   2.0000      -0.385986       -10.5032
  41   2.0000      -0.379700       -10.3322
  42   2.0000      -0.364097        -9.9076
  43   2.0000      -0.357561        -9.7297
  44   2.0000      -0.349316        -9.5054
  45   2.0000      -0.338485        -9.2106
  46   2.0000      -0.332952        -9.0601
  47   2.0000      -0.323535        -8.8038
  48   2.0000      -0.316984        -8.6256
  49   2.0000      -0.307001        -8.3539
  50   2.0000      -0.304420        -8.2837
  51   2.0000      -0.270753        -7.3676
  52   0.0000      -0.041939        -1.1412
  53   0.0000       0.017525         0.4769
  54   0.0000       0.037217         1.0127
  55   0.0000       0.039569         1.0767
  56   0.0000       0.046106         1.2546

MULLIKEN ATOMIC CHARGES
-----------------------
   0 C :   -0.151419
   1 H :   -0.227071
   2 C :    1.571946
   3 C :    0.399827
   4 H :   -0.135011
   5 H :   -0.015247
   6 H :   -0.055835
   7 C :    0.453921
   8 H :    0.060047
   9 C :   -0.121876
  10 H :   -0.616398
  11 H :   -0.181896
  12 H :   -0.026231
  13 C :    0.577121
  14 C :   -0.139921
  15 H :   -0.064876
  16 H :    0.088475
  17 H :   -0.214744
  18 C :    0.130241
  19 H :    0.078515
  20 H :   -0.043406
  21 H :   -0.389543
  22 C :    0.330102
  23 H :   -0.113632
  24 H :    0.104627
  25 C :    0.169468
  26 C :    0.783503
  27 H :    0.172202
  28 H :   -0.072961
  29 H :   -0.240461
  30 H :   -0.536548
  31 H :   -0.300582
  32 O :   -0.736173
  33 F :   -0.536163
Sum of atomic charges:   -0.0000000

LOEWDIN ATOMIC CHARGES
----------------------
   0 C :   -0.046122
   1 H :    0.020802
   2 C :    0.130250
   3 C :   -0.028071
   4 H :    0.001850
   5 H :    0.027242
   6 H :    0.017821
   7 C :   -0.013211
   8 H :    0.026974
   9 C :   -0.035688
  10 H :   -0.011822
  11 H :    0.025602
  12 H :    0.000584
  13 C :   -0.030944
  14 C :   -0.026415
  15 H :    0.025709
  16 H :    0.022650
  17 H :    0.028148
  18 C :   -0.027990
  19 H :    0.001221
  20 H :    0.035000
  21 H :    0.001651
  22 C :   -0.018034
  23 H :    0.029996
  24 H :    0.027541
  25 C :    0.059235
  26 C :    0.058017
  27 H :    0.037144
  28 H :    0.039634
  29 H :   -0.015893
  30 H :   -0.122327
  31 H :   -0.073553
  32 O :   -0.134052
  33 F :   -0.032949

  Mayer bond orders larger than 0.100000
B(  0-C ,  1-H ) :   0.9476 B(  0-C ,  2-C ) :   0.9557 B(  0-C ,  3-C ) :   1.1920
B(  0-C ,  4-H ) :   0.7829 B(  0-C ,  5-H ) :   0.1664 B(  0-C ,  6-H ) :   0.1459
B(  0-C ,  7-C ) :   0.1248 B(  0-C , 10-H ) :  -0.1107 B(  0-C , 29-H ) :   0.1296
B(  0-C , 30-H ) :   0.4640 B(  0-C , 31-H ) :   0.3033 B(  2-C ,  4-H ) :   0.1695
B(  2-C , 29-H ) :   0.5915 B(  2-C , 30-H ) :   0.1048 B(  2-C , 31-H ) :   0.3421
B(  3-C ,  4-H ) :   0.1173 B(  3-C ,  5-H ) :   0.7340 B(  3-C ,  6-H ) :   0.7724
B(  3-C ,  7-C ) :   1.1976 B(  3-C , 10-H ) :   0.1954 B(  3-C , 30-H ) :  -0.1357
B(  4-H , 21-H ) :   0.1376 B(  5-H ,  6-H ) :  -0.1069 B(  5-H ,  7-C ) :   0.1366
B(  6-H ,  7-C ) :   0.1513 B(  7-C ,  8-H ) :   0.7015 B(  7-C ,  9-C ) :   1.1426
B(  7-C , 10-H ) :   0.6065 B(  7-C , 11-H ) :   0.1738 B(  8-H ,  9-C ) :   0.1836
B(  9-C , 10-H ) :   0.2110 B(  9-C , 11-H ) :   0.9317 B(  9-C , 12-H ) :   0.9212
B(  9-C , 13-C ) :   1.2004 B(  9-C , 15-H ) :   0.1409 B(  9-C , 16-H ) :   0.1990
B( 10-H , 19-H ) :   0.1117 B( 13-C , 14-C ) :   1.1501 B( 13-C , 15-H ) :   0.7297
B( 13-C , 16-H ) :   0.7135 B( 14-C , 15-H ) :   0.2484 B( 14-C , 17-H ) :   0.9687
B( 14-C , 18-C ) :   1.1855 B( 14-C , 19-H ) :   0.8662 B( 14-C , 20-H ) :   0.1605
B( 14-C , 21-H ) :   0.2049 B( 15-H , 16-H ) :  -0.1022 B( 17-H , 18-C ) :   0.1527
B( 18-C , 20-H ) :   0.7432 B( 18-C , 21-H ) :   0.8235 B( 18-C , 22-C ) :   1.2638
B( 18-C , 23-H ) :   0.1500 B( 18-C , 24-H ) :   0.2150 B( 20-H , 21-H ) :   0.1391
B( 21-H , 22-C ) :   0.1059 B( 22-C , 23-H ) :   0.8527 B( 22-C , 24-H ) :   0.7080
B( 22-C , 25-C ) :   1.1713 B( 22-C , 28-H ) :   0.1556 B( 23-H , 24-H ) :  -0.1119
B( 23-H , 25-C ) :   0.1145 B( 25-C , 26-C ) :   1.1851 B( 25-C , 27-H ) :   0.8343
B( 25-C , 28-H ) :   0.7074 B( 26-C , 27-H ) :   0.1191 B( 26-C , 28-H ) :   0.2521
B( 26-C , 32-O ) :   1.5575 B( 26-C , 33-F ) :   0.4262 B( 29-H , 30-H ) :   0.2036
B( 30-H , 31-H ) :   0.3825 B( 30-H , 32-O ) :   0.1432 B( 31-H , 33-F ) :   0.2116
B( 32-O , 33-F ) :   0.1099

Dispersion correction           -0.032887319
FINAL SINGLE POINT ENERGY      -605.760809802752

DIPOLE MOMENT
-------------
                                X             Y             Z
Electronic contribution:     -8.95061       3.00417       9.45957
Nuclear contribution   :      8.07181      -4.09641      -9.21610
                        -----------------------------------------
Total Dipole Moment    :     -0.87881      -1.09224       0.24347
                        -----------------------------------------
Magnitude (a.u.)       :      1.42288
Magnitude (Debye)      :      3.61666

Rotational constants in cm-1:     0.028400     0.023377     0.015073
Rotational constants in MHz :   851.414727   700.831775   451.871218

                             ****ORCA TERMINATED NORMALLY****
TOTAL RUN TIME: 0 days 0 hours 2 minutes 58 seconds 59 msec
