                         Program Version 5.0.0 -  RELEASE  -
|  1> !wB97X-D3 RIJCOSX def2-TZVPD def2/J TightSCF
|  2> *xyz -1 1
|  3> C          4.08422        1.74208       -2.11472
|  4> C          4.26524        2.50052       -0.79589
|  5> H          4.86853        3.39267       -0.98113
|  6> H          3.30764        2.82457       -0.38781
|  7> C          4.98224        1.65026        0.24742
|  8> O          4.36806        1.38927        1.31371
|  9> O          6.12892        1.23351       -0.04562
| 10> H          3.57911        2.36849       -2.81997
| 11> H          3.50424        0.85965       -1.94198
| 12> H          5.04288        1.46841       -2.50327
| 13> *
| 14> %MaxCore 64000
| 15> %pal nprocs 8
| 16> end
| 17> %scf
| 18>   MaxIter 150
| 19> end
| 20>
| 21>
| 22>                          ****END OF INPUT****

CARTESIAN COORDINATES (ANGSTROEM)
---------------------------------
  C      4.084220    1.742080   -2.114720
  C      4.265240    2.500520   -0.795890
  H      4.868530    3.392670   -0.981130
  H      3.307640    2.824570   -0.387810
  C      4.982240    1.650260    0.247420
  O      4.368060    1.389270    1.313710
  O      6.128920    1.233510   -0.045620
  H      3.579110    2.368490   -2.819970
  H      3.504240    0.859650   -1.941980
  H      5.042880    1.468410   -2.503270

 Total Charge           Charge          ....   -1
 Multiplicity           Mult            ....    1
 Number of Electrons    NEL             ....   40
 Basis Dimension        Dim             ....  236

ORBITAL ENERGIES
----------------

  NO   OCC          E(Eh)            E(eV)
   0   2.0000     -18.962834      -516.0049
   1   2.0000     -18.962773      -516.0033
   2   2.0000     -10.156616      -276.3756
   3   2.0000     -10.110736      -275.1271
   4   2.0000     -10.100025      -274.8357
   5   2.0000      -0.935025       -25.4433
   6   2.0000      -0.839506       -22.8441
   7   2.0000      -0.722506       -19.6604
   8   2.0000      -0.586529       -15.9603
   9   2.0000      -0.425776       -11.5860
  10   2.0000      -0.394039       -10.7223
  11   2.0000      -0.361539        -9.8380
  12   2.0000      -0.329482        -8.9657
  13   2.0000      -0.312012        -8.4903
  14   2.0000      -0.306000        -8.3267
  15   2.0000      -0.273370        -7.4388
  16   2.0000      -0.257720        -7.0129
  17   2.0000      -0.139798        -3.8041
  18   2.0000      -0.134286        -3.6541
  19   2.0000      -0.121913        -3.3174
  20   0.0000       0.192590         5.2407
  21   0.0000       0.213561         5.8113
  22   0.0000       0.219940         5.9849
  23   0.0000       0.233836         6.3630
  24   0.0000       0.261943         7.1278

MULLIKEN ATOMIC CHARGES
-----------------------
   0 C :   -1.078933
   1 C :   -0.016431
   2 H :    0.196850
   3 H :    0.207032
   4 C :    0.375703
   5 O :   -0.766335
   6 O :   -0.769258
   7 H :    0.281603
   8 H :    0.301830
   9 H :    0.267939
Sum of atomic charges:   -1.0000000

LOEWDIN ATOMIC CHARGES
----------------------
   0 C :   -0.130098
   1 C :   -0.212756
   2 H :    0.094501
   3 H :    0.088220
   4 C :   -0.775540
   5 O :   -0.116938
   6 O :   -0.109473
   7 H :    0.043287
   8 H :    0.062611
   9 H :    0.056187

  Mayer bond orders larger than 0.100000
B(  0-C ,  1-C ) :   0.5638 B(  0-C ,  4-C ) :   0.1905 B(  0-C ,  7-H ) :   0.9337
B(  0-C ,  8-H ) :   0.9574 B(  0-C ,  9-H ) :   1.0139 B(  1-C ,  2-H ) :   0.9549
B(  1-C ,  3-H ) :   1.0110 B(  1-C ,  4-C ) :   0.9168 B(  4-C ,  5-O ) :   1.4425
B(  4-C ,  6-O ) :   1.4787

Dispersion correction           -0.001959198
FINAL SINGLE POINT ENERGY      -267.871329434097

DIPOLE MOMENT
-------------
                                X             Y             Z
Electronic contribution:      2.41982      -1.45211       5.08083
Nuclear contribution   :     -3.31311       2.28398      -6.76358
                        -----------------------------------------
Total Dipole Moment    :     -0.89329       0.83188      -1.68275
                        -----------------------------------------
Magnitude (a.u.)       :      2.07885
Magnitude (Debye)      :      5.28403

Rotational constants in cm-1:     0.309287     0.135287     0.107346
Rotational constants in MHz :  9272.201029  4055.789113  3218.155789

                             ****ORCA TERMINATED NORMALLY****
TOTAL RUN TIME: 0 days 0 hours 0 minutes 34 seconds 809 msec
