                         Program Version 5.0.0 -  RELEASE  -
|  1> !wB97X-D3 RIJCOSX def2-TZVPD def2/J TightSCF
|  2> *xyz 1 1
|  3> C          3.91385       -1.65829        3.01513
|  4> N          5.03927       -0.90115        2.49282
|  5> C          6.21038       -1.41726        2.17824
|  6> N          6.53591       -2.67712        2.55608
|  7> N          7.07675       -0.70082        1.47891
|  8> H          7.95464       -1.12155        1.20755
|  9> H          6.75616        0.10664        0.96028
| 10> H          4.84217        0.01761        2.11519
| 11> H          5.99388       -3.12692        3.28278
| 12> C          3.13916       -2.37657        1.91061
| 13> H          3.26723       -0.93940        3.52069
| 14> H          4.24720       -2.35509        3.79006
| 15> H          7.49844       -2.97548        2.46878
| 16> H          2.82969       -1.66654        1.17238
| 17> H          2.27790       -2.85264        2.33072
| 18> H          3.76754       -3.11338        1.45548
| 19> *
| 20> %MaxCore 64000
| 21> %pal nprocs 8
| 22> end
| 23> %scf
| 24>   MaxIter 150
| 25> end
| 26>
| 27>
| 28>                          ****END OF INPUT****

CARTESIAN COORDINATES (ANGSTROEM)
---------------------------------
  C      3.913850   -1.658290    3.015130
  N      5.039270   -0.901150    2.492820
  C      6.210380   -1.417260    2.178240
  N      6.535910   -2.677120    2.556080
  N      7.076750   -0.700820    1.478910
  H      7.954640   -1.121550    1.207550
  H      6.756160    0.106640    0.960280
  H      4.842170    0.017610    2.115190
  H      5.993880   -3.126920    3.282780
  C      3.139160   -2.376570    1.910610
  H      3.267230   -0.939400    3.520690
  H      4.247200   -2.355090    3.790060
  H      7.498440   -2.975480    2.468780
  H      2.829690   -1.666540    1.172380
  H      2.277900   -2.852640    2.330720
  H      3.767540   -3.113380    1.455480

 Total Charge           Charge          ....    1
 Multiplicity           Mult            ....    1
 Number of Electrons    NEL             ....   48
 Basis Dimension        Dim             ....  312

ORBITAL ENERGIES
----------------

  NO   OCC          E(Eh)            E(eV)
   0   2.0000     -14.647717      -398.5846
   1   2.0000     -14.645152      -398.5148
   2   2.0000     -14.643020      -398.4568
   3   2.0000     -10.614109      -288.8246
   4   2.0000     -10.483751      -285.2774
   5   2.0000     -10.408132      -283.2197
   6   2.0000      -1.335742       -36.3474
   7   2.0000      -1.224180       -33.3116
   8   2.0000      -1.206998       -32.8441
   9   2.0000      -1.046674       -28.4814
  10   2.0000      -0.952063       -25.9070
  11   2.0000      -0.910985       -24.7892
  12   2.0000      -0.890470       -24.2309
  13   2.0000      -0.848117       -23.0784
  14   2.0000      -0.791567       -21.5396
  15   2.0000      -0.784986       -21.3606
  16   2.0000      -0.756127       -20.5753
  17   2.0000      -0.731040       -19.8926
  18   2.0000      -0.701680       -19.0937
  19   2.0000      -0.660154       -17.9637
  20   2.0000      -0.628385       -17.0992
  21   2.0000      -0.607898       -16.5417
  22   2.0000      -0.573118       -15.5953
  23   2.0000      -0.542453       -14.7609
  24   0.0000      -0.091587        -2.4922
  25   0.0000      -0.087706        -2.3866
  26   0.0000      -0.057631        -1.5682
  27   0.0000      -0.050468        -1.3733
  28   0.0000      -0.024589        -0.6691

MULLIKEN ATOMIC CHARGES
-----------------------
   0 C :   -0.549993
   1 N :   -0.172557
   2 C :    0.784734
   3 N :   -0.364019
   4 N :   -0.415129
   5 H :    0.221348
   6 H :    0.231384
   7 H :    0.231135
   8 H :    0.206362
   9 C :   -1.079856
  10 H :    0.314040
  11 H :    0.336273
  12 H :    0.221089
  13 H :    0.332245
  14 H :    0.372850
  15 H :    0.330094
Sum of atomic charges:    1.0000000

LOEWDIN ATOMIC CHARGES
----------------------
   0 C :   -0.203517
   1 N :    0.080453
   2 C :   -0.425092
   3 N :    0.207028
   4 N :    0.202038
   5 H :    0.140722
   6 H :    0.143337
   7 H :    0.172064
   8 H :    0.122744
   9 C :   -0.059319
  10 H :    0.131646
  11 H :    0.117550
  12 H :    0.137124
  13 H :    0.078467
  14 H :    0.083161
  15 H :    0.071593

  Mayer bond orders larger than 0.100000
B(  0-C ,  1-N ) :   0.9171 B(  0-C ,  2-C ) :  -0.1079 B(  0-C ,  9-C ) :   0.7602
B(  0-C , 10-H ) :   0.9294 B(  0-C , 11-H ) :   0.8737 B(  1-N ,  2-C ) :   1.2376
B(  1-N ,  4-N ) :   0.1090 B(  1-N ,  7-H ) :   0.9922 B(  2-C ,  3-N ) :   1.1347
B(  2-C ,  4-N ) :   1.0824 B(  3-N ,  8-H ) :   0.9446 B(  3-N , 12-H ) :   1.0024
B(  4-N ,  5-H ) :   0.9941 B(  4-N ,  6-H ) :   0.9736 B(  9-C , 13-H ) :   0.9640
B(  9-C , 14-H ) :   0.9272 B(  9-C , 15-H ) :   0.9385

Dispersion correction           -0.003823302
FINAL SINGLE POINT ENERGY      -284.431892846660

DIPOLE MOMENT
-------------
                                X             Y             Z
Electronic contribution:      4.70538       1.90863       0.07316
Nuclear contribution   :     -3.67981      -1.62355      -0.28562
                        -----------------------------------------
Total Dipole Moment    :      1.02557       0.28508      -0.21246
                        -----------------------------------------
Magnitude (a.u.)       :      1.08545
Magnitude (Debye)      :      2.75900

Rotational constants in cm-1:     0.222027     0.074735     0.065694
Rotational constants in MHz :  6656.200457  2240.503315  1969.451902

                             ****ORCA TERMINATED NORMALLY****
TOTAL RUN TIME: 0 days 0 hours 0 minutes 56 seconds 369 msec
