                         Program Version 5.0.0 -  RELEASE  -
|  1> !wB97X-D3 RIJCOSX def2-TZVPD def2/J TightSCF xyzfile
|  2>
|  3> *xyzfile 0 1 B.xyz
|  4>
|  5> %MaxCore 64000
|  6>
|  7> %pal nprocs 18
|  8> end
|  9>
| 10> %scf
| 11>   MaxIter 150
| 12> end
| 13>
| 14>
| 15>                          ****END OF INPUT****

CARTESIAN COORDINATES (ANGSTROEM)
---------------------------------
  C      3.913853   -1.658291    3.015134
  N      5.039266   -0.901154    2.492821
  C      4.084215    1.742081   -2.114724
  C      4.265245    2.500518   -0.795890
  H      4.868534    3.392674   -0.981134
  H      3.307640    2.824571   -0.387809
  C      4.982240    1.650257    0.247422
  C      6.210384   -1.417261    2.178244
  N      6.535913   -2.677122    2.556078
  N      7.076754   -0.700820    1.478906
  H      7.954643   -1.121554    1.207554
  H      6.756161    0.106637    0.960278
  H      4.842168    0.017609    2.115191
  H      5.993876   -3.126918    3.282784
  H      7.498441   -2.975482    2.468776
  O      4.368065    1.389270    1.313706
  O      6.128919    1.233512   -0.045620
  C      3.139159   -2.376572    1.910609
  H      3.267235   -0.939401    3.520693
  H      4.247195   -2.355095    3.790065
  C      1.997274    0.430918   -1.399218
  C      3.412746    0.376886   -1.965497
  H      4.047407   -0.246590   -1.326706
  H      3.390774   -0.118719   -2.942839
  H      5.068475    1.598504   -2.565728
  H      3.503356    2.363939   -2.804565
  C      2.399946   -1.389579    1.009490
  H      2.440750   -3.087118    2.362976
  H      3.844475   -2.970462    1.318677
  C      2.070177   -1.936705   -0.372401
  H      1.481611   -1.061542    1.509912
  H      3.008628   -0.490001    0.897451
  C      1.322238   -0.935775   -1.256413
  H      1.472747   -2.850902   -0.283997
  H      3.003539   -2.234041   -0.862535
  H      1.376444    1.058920   -2.047420
  H      2.015341    0.929780   -0.426535
  H      0.316648   -0.787213   -0.848278
  H      1.185611   -1.379252   -2.248613

 Total Charge           Charge          ....    0
 Multiplicity           Mult            ....    1
 Number of Electrons    NEL             ....  126
 Basis Dimension        Dim             ....  805

ORBITAL ENERGIES
----------------

  NO   OCC          E(Eh)            E(eV)
   0   2.0000     -19.148288      -521.0514
   1   2.0000     -19.146983      -521.0159
   2   2.0000     -14.488399      -394.2494
   3   2.0000     -14.454510      -393.3272
   4   2.0000     -14.447759      -393.1435
   5   2.0000     -10.438214      -284.0383
   6   2.0000     -10.335050      -281.2310
   7   2.0000     -10.333242      -281.1818
   8   2.0000     -10.282657      -279.8053
   9   2.0000     -10.260400      -279.1997
  10   2.0000     -10.259884      -279.1856
  11   2.0000     -10.256121      -279.0832
  12   2.0000     -10.246977      -278.8344
  13   2.0000     -10.245461      -278.7932
  14   2.0000     -10.244734      -278.7734
  15   2.0000     -10.235701      -278.5276
  16   2.0000      -1.161129       -31.5959
  17   2.0000      -1.124426       -30.5972
  18   2.0000      -1.051607       -28.6157
  19   2.0000      -1.036960       -28.2171
  20   2.0000      -1.025418       -27.9030
  21   2.0000      -0.929022       -25.2800
  22   2.0000      -0.903906       -24.5965
  23   2.0000      -0.874373       -23.7929
  24   2.0000      -0.833054       -22.6686
  25   2.0000      -0.793647       -21.5962
  26   2.0000      -0.773163       -21.0388
  27   2.0000      -0.743066       -20.2198
  28   2.0000      -0.722343       -19.6560
  29   2.0000      -0.711665       -19.3654
  30   2.0000      -0.683431       -18.5971
  31   2.0000      -0.675394       -18.3784
  32   2.0000      -0.646749       -17.5989
  33   2.0000      -0.624742       -17.0001
  34   2.0000      -0.620819       -16.8933
  35   2.0000      -0.600346       -16.3363
  36   2.0000      -0.572776       -15.5860
  37   2.0000      -0.569059       -15.4849
  38   2.0000      -0.560616       -15.2551
  39   2.0000      -0.556497       -15.1430
  40   2.0000      -0.541643       -14.7389
  41   2.0000      -0.524327       -14.2677
  42   2.0000      -0.520853       -14.1731
  43   2.0000      -0.515128       -14.0174
  44   2.0000      -0.505974       -13.7682
  45   2.0000      -0.498159       -13.5556
  46   2.0000      -0.481497       -13.1022
  47   2.0000      -0.467913       -12.7326
  48   2.0000      -0.461799       -12.5662
  49   2.0000      -0.450166       -12.2496
  50   2.0000      -0.442485       -12.0406
  51   2.0000      -0.435000       -11.8369
  52   2.0000      -0.420671       -11.4471
  53   2.0000      -0.412436       -11.2230
  54   2.0000      -0.408291       -11.1102
  55   2.0000      -0.401791       -10.9333
  56   2.0000      -0.390850       -10.6356
  57   2.0000      -0.385758       -10.4970
  58   2.0000      -0.378788       -10.3073
  59   2.0000      -0.367092        -9.9891
  60   2.0000      -0.325769        -8.8646
  61   2.0000      -0.314951        -8.5702
  62   2.0000      -0.311673        -8.4810
  63   0.0000       0.038673         1.0523
  64   0.0000       0.064163         1.7460
  65   0.0000       0.070365         1.9147
  66   0.0000       0.080415         2.1882
  67   0.0000       0.085630         2.3301

MULLIKEN ATOMIC CHARGES
-----------------------
   0 C :   -1.107089
   1 N :   -0.009179
   2 C :   -0.654497
   3 C :   -0.398363
   4 H :    0.313858
   5 H :    0.260434
   6 C :    0.622855
   7 C :    0.570070
   8 N :   -0.356422
   9 N :   -0.269213
  10 H :    0.209058
  11 H :    0.260015
  12 H :    0.193553
  13 H :    0.196935
  14 H :    0.205501
  15 O :   -0.895601
  16 O :   -0.941968
  17 C :   -0.430146
  18 H :    0.378420
  19 H :    0.347765
  20 C :   -0.448771
  21 C :   -0.449191
  22 H :    0.192127
  23 H :    0.299111
  24 H :    0.274698
  25 H :    0.281450
  26 C :    0.382749
  27 H :    0.349627
  28 H :    0.278033
  29 C :   -0.436709
  30 H :    0.322014
  31 H :   -0.543937
  32 C :   -0.803242
  33 H :    0.290327
  34 H :    0.361285
  35 H :    0.293041
  36 H :    0.263983
  37 H :    0.301080
  38 H :    0.296338
Sum of atomic charges:   -0.0000000

LOEWDIN ATOMIC CHARGES
----------------------
   0 C :   -0.166958
   1 N :    0.099024
   2 C :   -0.203985
   3 C :   -0.125072
   4 H :    0.116032
   5 H :    0.106242
   6 C :   -0.648490
   7 C :   -0.431715
   8 N :    0.170982
   9 N :    0.203604
  10 H :    0.126251
  11 H :    0.041601
  12 H :    0.073534
  13 H :    0.104981
  14 H :    0.118584
  15 O :   -0.057265
  16 O :   -0.045214
  17 C :   -0.184464
  18 H :    0.133378
  19 H :    0.106359
  20 C :   -0.215742
  21 C :   -0.211529
  22 H :    0.104653
  23 H :    0.116609
  24 H :    0.108646
  25 H :    0.109173
  26 C :   -0.212821
  27 H :    0.115348
  28 H :    0.111914
  29 C :   -0.220204
  30 H :    0.128747
  31 H :    0.083539
  32 C :   -0.213141
  33 H :    0.112045
  34 H :    0.108977
  35 H :    0.116060
  36 H :    0.102911
  37 H :    0.108912
  38 H :    0.108497

  Mayer bond orders larger than 0.100000
B(  0-C ,  1-N ) :   1.0251 B(  0-C ,  7-C ) :  -0.1876 B(  0-C ,  8-N ) :   0.1073
B(  0-C , 12-H ) :  -0.1034 B(  0-C , 17-C ) :   0.7921 B(  0-C , 18-H ) :   0.7709
B(  0-C , 19-H ) :   0.8715 B(  0-C , 26-C ) :   0.2194 B(  0-C , 27-H ) :  -0.1399
B(  0-C , 31-H ) :   0.1176 B(  1-N ,  7-C ) :   1.2745 B(  1-N , 12-H ) :   0.7639
B(  1-N , 15-O ) :  -0.1462 B(  2-C ,  3-C ) :   0.8378 B(  2-C ,  6-C ) :   0.2226
B(  2-C , 20-C ) :   0.3151 B(  2-C , 21-C ) :   1.0152 B(  2-C , 24-H ) :   0.9182
B(  2-C , 25-H ) :   0.9129 B(  3-C ,  4-H ) :   0.8428 B(  3-C ,  5-H ) :   0.9936
B(  3-C ,  6-C ) :   0.9628 B(  3-C , 20-C ) :   0.1557 B(  6-C , 15-O ) :   1.3342
B(  6-C , 16-O ) :   1.2133 B(  7-C ,  8-N ) :   1.0925 B(  7-C ,  9-N ) :   1.1747
B(  7-C , 12-H ) :  -0.1396 B(  8-N , 13-H ) :   0.9490 B(  8-N , 14-H ) :   0.9983
B(  9-N , 10-H ) :   0.9837 B(  9-N , 11-H ) :   0.8592 B( 12-H , 15-O ) :   0.1597
B( 15-O , 16-O ) :   0.1374 B( 17-C , 26-C ) :   0.6851 B( 17-C , 27-H ) :   0.9285
B( 17-C , 28-H ) :   0.8262 B( 17-C , 29-C ) :   0.5315 B( 17-C , 30-H ) :  -0.1490
B( 20-C , 21-C ) :   0.3402 B( 20-C , 22-H ) :  -0.1023 B( 20-C , 32-C ) :   0.9279
B( 20-C , 35-H ) :   0.8843 B( 20-C , 36-H ) :   0.9968 B( 21-C , 22-H ) :   1.0826
B( 21-C , 23-H ) :   0.8586 B( 21-C , 29-C ) :   0.2132 B( 21-C , 32-C ) :   0.2940
B( 21-C , 36-H ) :  -0.1084 B( 26-C , 29-C ) :   0.5196 B( 26-C , 30-H ) :   0.7946
B( 26-C , 31-H ) :   1.4309 B( 26-C , 32-C ) :   0.3537 B( 29-C , 31-H ) :  -0.2099
B( 29-C , 32-C ) :   0.8949 B( 29-C , 33-H ) :   0.9041 B( 29-C , 34-H ) :   0.8968
B( 32-C , 37-H ) :   0.9270 B( 32-C , 38-H ) :   0.9314

Dispersion correction           -0.020324763
FINAL SINGLE POINT ENERGY      -747.886572409327

DIPOLE MOMENT
-------------
                                X             Y             Z
Electronic contribution:     12.29260       3.28587       7.68720
Nuclear contribution   :    -11.44764      -6.21818      -6.18483
                        -----------------------------------------
Total Dipole Moment    :      0.84496      -2.93230       1.50237
                        -----------------------------------------
Magnitude (a.u.)       :      3.40139
Magnitude (Debye)      :      8.64565

Rotational constants in cm-1:     0.020281     0.013510     0.009451
Rotational constants in MHz :   608.005987   405.034308   283.324538

                             ****ORCA TERMINATED NORMALLY****
TOTAL RUN TIME: 0 days 0 hours 6 minutes 16 seconds 38 msec
