                         Program Version 5.0.0 -  RELEASE  -
|  1> !wB97X-D3 RIJCOSX def2-TZVPD def2/J TightSCF
|  2> *xyz 0 1
|  3> C          4.08422        1.74208       -2.11472
|  4> C          4.26524        2.50052       -0.79589
|  5> H          4.86853        3.39267       -0.98113
|  6> H          3.30764        2.82457       -0.38781
|  7> C          4.98224        1.65026        0.24742
|  8> F          4.36806        1.38927        1.31371
|  9> O          6.12892        1.23351       -0.04562
| 10> H          3.57911        2.36849       -2.81997
| 11> H          3.50424        0.85965       -1.94198
| 12> H          5.04288        1.46841       -2.50327
| 13> *
| 14> %MaxCore 64000
| 15> %pal nprocs 8
| 16> end
| 17> %scf
| 18>   MaxIter 150
| 19> end
| 20>
| 21>
| 22>                          ****END OF INPUT****

CARTESIAN COORDINATES (ANGSTROEM)
---------------------------------
  C      4.084220    1.742080   -2.114720
  C      4.265240    2.500520   -0.795890
  H      4.868530    3.392670   -0.981130
  H      3.307640    2.824570   -0.387810
  C      4.982240    1.650260    0.247420
  F      4.368060    1.389270    1.313710
  O      6.128920    1.233510   -0.045620
  H      3.579110    2.368490   -2.819970
  H      3.504240    0.859650   -1.941980
  H      5.042880    1.468410   -2.503270

 Total Charge           Charge          ....    0
 Multiplicity           Mult            ....    1
 Number of Electrons    NEL             ....   40
 Basis Dimension        Dim             ....  236

ORBITAL ENERGIES
----------------

  NO   OCC          E(Eh)            E(eV)
   0   2.0000     -24.855397      -676.3497
   1   2.0000     -19.235927      -523.4362
   2   2.0000     -10.455246      -284.5017
   3   2.0000     -10.307856      -280.4910
   4   2.0000     -10.279197      -279.7112
   5   2.0000      -1.434571       -39.0367
   6   2.0000      -1.149657       -31.2838
   7   2.0000      -0.919112       -25.0103
   8   2.0000      -0.802300       -21.8317
   9   2.0000      -0.747581       -20.3427
  10   2.0000      -0.653738       -17.7891
  11   2.0000      -0.639560       -17.4033
  12   2.0000      -0.613983       -16.7073
  13   2.0000      -0.567357       -15.4386
  14   2.0000      -0.535360       -14.5679
  15   2.0000      -0.497122       -13.5274
  16   2.0000      -0.476420       -12.9641
  17   2.0000      -0.470818       -12.8116
  18   2.0000      -0.442080       -12.0296
  19   2.0000      -0.390183       -10.6174
  20   0.0000       0.050592         1.3767
  21   0.0000       0.066924         1.8211
  22   0.0000       0.088245         2.4013
  23   0.0000       0.094383         2.5683
  24   0.0000       0.104587         2.8459

MULLIKEN ATOMIC CHARGES
-----------------------
   0 C :   -1.140208
   1 C :   -0.123789
   2 H :    0.250630
   3 H :    0.267226
   4 C :    0.584518
   5 F :   -0.227308
   6 O :   -0.568011
   7 H :    0.304258
   8 H :    0.340081
   9 H :    0.312603
Sum of atomic charges:   -0.0000000

LOEWDIN ATOMIC CHARGES
----------------------
   0 C :   -0.088484
   1 C :   -0.157248
   2 H :    0.121961
   3 H :    0.108837
   4 C :   -0.479624
   5 F :    0.202219
   6 O :    0.073767
   7 H :    0.069717
   8 H :    0.075275
   9 H :    0.073580

  Mayer bond orders larger than 0.100000
B(  0-C ,  1-C ) :   0.6384 B(  0-C ,  4-C ) :   0.1664 B(  0-C ,  7-H ) :   0.9442
B(  0-C ,  8-H ) :   0.9156 B(  0-C ,  9-H ) :   0.9886 B(  1-C ,  2-H ) :   0.9408
B(  1-C ,  3-H ) :   0.9562 B(  1-C ,  4-C ) :   0.9079 B(  4-C ,  5-F ) :   0.9603
B(  4-C ,  6-O ) :   1.6866

Dispersion correction           -0.001915034
FINAL SINGLE POINT ENERGY      -292.439264218236

DIPOLE MOMENT
-------------
                                X             Y             Z
Electronic contribution:      1.90356      -2.03510       8.13898
Nuclear contribution   :     -2.87511       2.61564      -8.50037
                        -----------------------------------------
Total Dipole Moment    :     -0.97155       0.58054      -0.36139
                        -----------------------------------------
Magnitude (a.u.)       :      1.18808
Magnitude (Debye)      :      3.01986

Rotational constants in cm-1:     0.297822     0.128965     0.102219
Rotational constants in MHz :  8928.481997  3866.271686  3064.463504

                             ****ORCA TERMINATED NORMALLY****
TOTAL RUN TIME: 0 days 0 hours 0 minutes 34 seconds 363 msec
