                         Program Version 5.0.0 -  RELEASE  -
|  1> !wB97X-D3 RIJCOSX def2-TZVPD def2/J TightSCF
|  2> *xyz 0 1
|  3> C          3.91385       -1.65829        3.01513
|  4> C          5.03927       -0.90115        2.49282
|  5> C          6.21038       -1.41726        2.17824
|  6> N          6.53591       -2.67712        2.55608
|  7> N          7.07675       -0.70082        1.47891
|  8> H          7.95464       -1.12155        1.20755
|  9> H          6.75616        0.10664        0.96028
| 10> H          4.84217        0.01761        2.11519
| 11> H          5.99388       -3.12692        3.28278
| 12> C          3.13916       -2.37657        1.91061
| 13> H          3.26723       -0.93940        3.52069
| 14> H          4.24720       -2.35509        3.79006
| 15> H          7.49844       -2.97548        2.46878
| 16> H          2.82969       -1.66654        1.17238
| 17> H          2.27790       -2.85264        2.33072
| 18> H          3.76754       -3.11338        1.45548
| 19> *
| 20> %MaxCore 64000
| 21> %pal nprocs 8
| 22> end
| 23> %scf
| 24>   MaxIter 150
| 25> end
| 26>
| 27>
| 28>                          ****END OF INPUT****

CARTESIAN COORDINATES (ANGSTROEM)
---------------------------------
  C      3.913850   -1.658290    3.015130
  C      5.039270   -0.901150    2.492820
  C      6.210380   -1.417260    2.178240
  N      6.535910   -2.677120    2.556080
  N      7.076750   -0.700820    1.478910
  H      7.954640   -1.121550    1.207550
  H      6.756160    0.106640    0.960280
  H      4.842170    0.017610    2.115190
  H      5.993880   -3.126920    3.282780
  C      3.139160   -2.376570    1.910610
  H      3.267230   -0.939400    3.520690
  H      4.247200   -2.355090    3.790060
  H      7.498440   -2.975480    2.468780
  H      2.829690   -1.666540    1.172380
  H      2.277900   -2.852640    2.330720
  H      3.767540   -3.113380    1.455480

 Total Charge           Charge          ....    0
 Multiplicity           Mult            ....    1
 Number of Electrons    NEL             ....   48
 Basis Dimension        Dim             ....  312

ORBITAL ENERGIES
----------------

  NO   OCC          E(Eh)            E(eV)
   0   2.0000     -14.421856      -392.4387
   1   2.0000     -14.419717      -392.3804
   2   2.0000     -10.318175      -280.7718
   3   2.0000     -10.249270      -278.8968
   4   2.0000     -10.236133      -278.5393
   5   2.0000     -10.194096      -277.3955
   6   2.0000      -1.077778       -29.3278
   7   2.0000      -0.985165       -26.8077
   8   2.0000      -0.890874       -24.2419
   9   2.0000      -0.807528       -21.9740
  10   2.0000      -0.726724       -19.7752
  11   2.0000      -0.682103       -18.5610
  12   2.0000      -0.642339       -17.4789
  13   2.0000      -0.613269       -16.6879
  14   2.0000      -0.570727       -15.5303
  15   2.0000      -0.537502       -14.6262
  16   2.0000      -0.519326       -14.1316
  17   2.0000      -0.488069       -13.2810
  18   2.0000      -0.479516       -13.0483
  19   2.0000      -0.449854       -12.2411
  20   2.0000      -0.421862       -11.4794
  21   2.0000      -0.412793       -11.2327
  22   2.0000      -0.361702        -9.8424
  23   2.0000      -0.247042        -6.7223
  24   0.0000       0.064124         1.7449
  25   0.0000       0.089678         2.4403
  26   0.0000       0.092472         2.5163
  27   0.0000       0.102669         2.7938
  28   0.0000       0.119228         3.2444

MULLIKEN ATOMIC CHARGES
-----------------------
   0 C :   -0.414915
   1 C :   -0.638294
   2 C :    0.394048
   3 N :   -0.395686
   4 N :   -0.454978
   5 H :    0.168822
   6 H :    0.207268
   7 H :    0.396274
   8 H :    0.186743
   9 C :   -1.147416
  10 H :    0.230098
  11 H :    0.340676
  12 H :    0.167766
  13 H :    0.334290
  14 H :    0.315173
  15 H :    0.310131
Sum of atomic charges:    0.0000000

LOEWDIN ATOMIC CHARGES
----------------------
   0 C :   -0.284931
   1 C :   -0.154646
   2 C :   -0.541468
   3 N :    0.120080
   4 N :    0.102252
   5 H :    0.100384
   6 H :    0.113676
   7 H :    0.070743
   8 H :    0.095968
   9 C :   -0.104697
  10 H :    0.103114
  11 H :    0.094042
  12 H :    0.097808
  13 H :    0.066843
  14 H :    0.057901
  15 H :    0.062932

  Mayer bond orders larger than 0.100000
B(  0-C ,  1-C ) :   0.7833 B(  0-C ,  2-C ) :   0.1755 B(  0-C ,  9-C ) :   0.5875
B(  0-C , 10-H ) :   1.0989 B(  0-C , 11-H ) :   0.9105 B(  1-C ,  2-C ) :   1.3764
B(  1-C ,  7-H ) :   0.8901 B(  1-C ,  9-C ) :   0.1974 B(  2-C ,  3-N ) :   1.0378
B(  2-C ,  4-N ) :   1.0560 B(  2-C ,  7-H ) :  -0.1605 B(  3-N ,  8-H ) :   0.9472
B(  3-N , 12-H ) :   1.0400 B(  4-N ,  5-H ) :   1.0287 B(  4-N ,  6-H ) :   0.9763
B(  9-C , 13-H ) :   0.9671 B(  9-C , 14-H ) :   0.9412 B(  9-C , 15-H ) :   0.9664

Dispersion correction           -0.003816138
FINAL SINGLE POINT ENERGY      -267.947477754878

DIPOLE MOMENT
-------------
                                X             Y             Z
Electronic contribution:      4.60051       1.22882      -0.03638
Nuclear contribution   :     -3.74303      -1.46908      -0.23637
                        -----------------------------------------
Total Dipole Moment    :      0.85749      -0.24026      -0.27275
                        -----------------------------------------
Magnitude (a.u.)       :      0.93134
Magnitude (Debye)      :      2.36729

Rotational constants in cm-1:     0.225937     0.074877     0.065953
Rotational constants in MHz :  6773.424301  2244.750632  1977.214101

                             ****ORCA TERMINATED NORMALLY****
TOTAL RUN TIME: 0 days 0 hours 0 minutes 59 seconds 983 msec
