                         Program Version 5.0.0 -  RELEASE  -
|  1> !wB97X-D3 RIJCOSX def2-TZVPD def2/J TightSCF
|  2> *xyz 0 1
|  3> C          4.08422        1.74208       -2.11472
|  4> C          4.26524        2.50052       -0.79589
|  5> H          4.86853        3.39267       -0.98113
|  6> H          3.30764        2.82457       -0.38781
|  7> C          4.98224        1.65026        0.24742
|  8> O          4.36806        1.38927        1.31371
|  9> F          6.12892        1.23351       -0.04562
| 10> H          3.57911        2.36849       -2.81997
| 11> H          3.50424        0.85965       -1.94198
| 12> H          5.04288        1.46841       -2.50327
| 13> *
| 14> %MaxCore 64000
| 15> %pal nprocs 8
| 16> end
| 17> %scf
| 18>   MaxIter 150
| 19> end
| 20>
| 21>
| 22>                          ****END OF INPUT****

CARTESIAN COORDINATES (ANGSTROEM)
---------------------------------
  C      4.084220    1.742080   -2.114720
  C      4.265240    2.500520   -0.795890
  H      4.868530    3.392670   -0.981130
  H      3.307640    2.824570   -0.387810
  C      4.982240    1.650260    0.247420
  O      4.368060    1.389270    1.313710
  F      6.128920    1.233510   -0.045620
  H      3.579110    2.368490   -2.819970
  H      3.504240    0.859650   -1.941980
  H      5.042880    1.468410   -2.503270

 Total Charge           Charge          ....    0
 Multiplicity           Mult            ....    1
 Number of Electrons    NEL             ....   40
 Basis Dimension        Dim             ....  236

ORBITAL ENERGIES
----------------

  NO   OCC          E(Eh)            E(eV)
   0   2.0000     -24.856617      -676.3829
   1   2.0000     -19.235437      -523.4228
   2   2.0000     -10.454883      -284.4918
   3   2.0000     -10.307598      -280.4840
   4   2.0000     -10.283849      -279.8377
   5   2.0000      -1.437207       -39.1084
   6   2.0000      -1.146660       -31.2022
   7   2.0000      -0.923203       -25.1216
   8   2.0000      -0.799936       -21.7674
   9   2.0000      -0.753236       -20.4966
  10   2.0000      -0.657021       -17.8785
  11   2.0000      -0.645330       -17.5603
  12   2.0000      -0.606863       -16.5136
  13   2.0000      -0.567734       -15.4488
  14   2.0000      -0.536328       -14.5942
  15   2.0000      -0.500770       -13.6266
  16   2.0000      -0.481242       -13.0952
  17   2.0000      -0.473694       -12.8899
  18   2.0000      -0.445268       -12.1164
  19   2.0000      -0.385252       -10.4832
  20   0.0000       0.052578         1.4307
  21   0.0000       0.067145         1.8271
  22   0.0000       0.087211         2.3731
  23   0.0000       0.093614         2.5474
  24   0.0000       0.104548         2.8449

MULLIKEN ATOMIC CHARGES
-----------------------
   0 C :   -1.154879
   1 C :   -0.104875
   2 H :    0.271813
   3 H :    0.238126
   4 C :    0.583559
   5 O :   -0.568749
   6 F :   -0.234683
   7 H :    0.300940
   8 H :    0.346864
   9 H :    0.321883
Sum of atomic charges:   -0.0000000

LOEWDIN ATOMIC CHARGES
----------------------
   0 C :   -0.091119
   1 C :   -0.153690
   2 H :    0.118274
   3 H :    0.118027
   4 C :   -0.485677
   5 O :    0.069821
   6 F :    0.207124
   7 H :    0.070250
   8 H :    0.076945
   9 H :    0.070045

  Mayer bond orders larger than 0.100000
B(  0-C ,  1-C ) :   0.5931 B(  0-C ,  4-C ) :   0.1572 B(  0-C ,  7-H ) :   0.9565
B(  0-C ,  8-H ) :   0.9370 B(  0-C ,  9-H ) :   0.9537 B(  1-C ,  2-H ) :   0.9269
B(  1-C ,  3-H ) :   0.9897 B(  1-C ,  4-C ) :   0.9212 B(  4-C ,  5-O ) :   1.6563
B(  4-C ,  6-F ) :   0.9584

Dispersion correction           -0.001919580
FINAL SINGLE POINT ENERGY      -292.438536193391

DIPOLE MOMENT
-------------
                                X             Y             Z
Electronic contribution:      4.84927      -2.28639       5.83468
Nuclear contribution   :     -4.79499       2.78546      -7.01827
                        -----------------------------------------
Total Dipole Moment    :      0.05428       0.49907      -1.18359
                        -----------------------------------------
Magnitude (a.u.)       :      1.28566
Magnitude (Debye)      :      3.26788

Rotational constants in cm-1:     0.286098     0.133492     0.103343
Rotational constants in MHz :  8577.003657  4001.981591  3098.148068

                             ****ORCA TERMINATED NORMALLY****
TOTAL RUN TIME: 0 days 0 hours 0 minutes 34 seconds 268 msec
