                         Program Version 5.0.0 -  RELEASE  -
|  1> !wB97X-D3 RIJCOSX def2-TZVPD def2/J TightSCF
|  2> *xyz 0 1
|  3> C          3.91385       -1.65829        3.01513
|  4> N          5.03927       -0.90115        2.49282
|  5> C          6.21038       -1.41726        2.17824
|  6> C          6.53591       -2.67712        2.55608
|  7> N          7.07675       -0.70082        1.47891
|  8> H          7.95464       -1.12155        1.20755
|  9> H          6.75616        0.10664        0.96028
| 10> H          4.84217        0.01761        2.11519
| 11> H          5.99388       -3.12692        3.28278
| 12> C          3.13916       -2.37657        1.91061
| 13> H          3.26723       -0.93940        3.52069
| 14> H          4.24720       -2.35509        3.79006
| 15> H          7.49844       -2.97548        2.46878
| 16> H          2.82969       -1.66654        1.17238
| 17> H          2.27790       -2.85264        2.33072
| 18> H          3.76754       -3.11338        1.45548
| 19> *
| 20> %MaxCore 64000
| 21> %pal nprocs 8
| 22> end
| 23> %scf
| 24>   MaxIter 150
| 25> end
| 26>
| 27>
| 28>                          ****END OF INPUT****

CARTESIAN COORDINATES (ANGSTROEM)
---------------------------------
  C      3.913850   -1.658290    3.015130
  N      5.039270   -0.901150    2.492820
  C      6.210380   -1.417260    2.178240
  C      6.535910   -2.677120    2.556080
  N      7.076750   -0.700820    1.478910
  H      7.954640   -1.121550    1.207550
  H      6.756160    0.106640    0.960280
  H      4.842170    0.017610    2.115190
  H      5.993880   -3.126920    3.282780
  C      3.139160   -2.376570    1.910610
  H      3.267230   -0.939400    3.520690
  H      4.247200   -2.355090    3.790060
  H      7.498440   -2.975480    2.468780
  H      2.829690   -1.666540    1.172380
  H      2.277900   -2.852640    2.330720
  H      3.767540   -3.113380    1.455480

 Total Charge           Charge          ....    0
 Multiplicity           Mult            ....    1
 Number of Electrons    NEL             ....   48
 Basis Dimension        Dim             ....  312

ORBITAL ENERGIES
----------------

  NO   OCC          E(Eh)            E(eV)
   0   2.0000     -14.426767      -392.5723
   1   2.0000     -14.423486      -392.4830
   2   2.0000     -10.325519      -280.9716
   3   2.0000     -10.308476      -280.5079
   4   2.0000     -10.254006      -279.0257
   5   2.0000     -10.183195      -277.0988
   6   2.0000      -1.092039       -29.7159
   7   2.0000      -1.006193       -27.3799
   8   2.0000      -0.869683       -23.6653
   9   2.0000      -0.820011       -22.3136
  10   2.0000      -0.752731       -20.4828
  11   2.0000      -0.670936       -18.2571
  12   2.0000      -0.654310       -17.8047
  13   2.0000      -0.623361       -16.9625
  14   2.0000      -0.566665       -15.4197
  15   2.0000      -0.540006       -14.6943
  16   2.0000      -0.518377       -14.1058
  17   2.0000      -0.495917       -13.4946
  18   2.0000      -0.475866       -12.9490
  19   2.0000      -0.462991       -12.5986
  20   2.0000      -0.460231       -12.5235
  21   2.0000      -0.439595       -11.9620
  22   2.0000      -0.345332        -9.3970
  23   2.0000      -0.251403        -6.8410
  24   0.0000       0.064264         1.7487
  25   0.0000       0.084984         2.3125
  26   0.0000       0.093062         2.5324
  27   0.0000       0.095700         2.6041
  28   0.0000       0.122312         3.3283

MULLIKEN ATOMIC CHARGES
-----------------------
   0 C :   -0.470644
   1 N :   -0.236131
   2 C :    0.963496
   3 C :   -1.525844
   4 N :   -0.451904
   5 H :    0.198015
   6 H :    0.183975
   7 H :    0.209990
   8 H :    0.288531
   9 C :   -1.109650
  10 H :    0.297707
  11 H :    0.297712
  12 H :    0.369819
  13 H :    0.295204
  14 H :    0.362054
  15 H :    0.327669
Sum of atomic charges:    0.0000000

LOEWDIN ATOMIC CHARGES
----------------------
   0 C :   -0.236765
   1 N :    0.005549
   2 C :   -0.563293
   3 C :   -0.002269
   4 N :    0.109092
   5 H :    0.113126
   6 H :    0.104106
   7 H :    0.141465
   8 H :   -0.003471
   9 C :   -0.084889
  10 H :    0.111610
  11 H :    0.107565
  12 H :    0.005043
  13 H :    0.064594
  14 H :    0.064450
  15 H :    0.064088

  Mayer bond orders larger than 0.100000
B(  0-C ,  1-N ) :   0.8906 B(  0-C ,  3-C ) :   0.1354 B(  0-C ,  9-C ) :   0.7155
B(  0-C , 10-H ) :   0.9054 B(  0-C , 11-H ) :   0.8950 B(  1-N ,  2-C ) :   1.0817
B(  1-N ,  7-H ) :   0.9917 B(  2-C ,  3-C ) :   0.9928 B(  2-C ,  4-N ) :   0.9563
B(  2-C , 12-H ) :  -0.1116 B(  3-C ,  4-N ) :   0.1119 B(  3-C ,  8-H ) :   1.0097
B(  3-C , 12-H ) :   0.9609 B(  4-N ,  5-H ) :   0.9837 B(  4-N ,  6-H ) :   1.0124
B(  9-C , 13-H ) :   0.9784 B(  9-C , 14-H ) :   0.9091 B(  9-C , 15-H ) :   0.9848

Dispersion correction           -0.003813183
FINAL SINGLE POINT ENERGY      -267.938385639239

DIPOLE MOMENT
-------------
                                X             Y             Z
Electronic contribution:      3.05161       2.82061      -0.21066
Nuclear contribution   :     -3.42552      -1.84584      -0.22295
                        -----------------------------------------
Total Dipole Moment    :     -0.37391       0.97477      -0.43361
                        -----------------------------------------
Magnitude (a.u.)       :      1.13049
Magnitude (Debye)      :      2.87347

Rotational constants in cm-1:     0.233526     0.075277     0.067092
Rotational constants in MHz :  7000.931279  2256.752901  2011.361214

                             ****ORCA TERMINATED NORMALLY****
TOTAL RUN TIME: 0 days 0 hours 0 minutes 56 seconds 843 msec
