                         Program Version 5.0.0 -  RELEASE  -
|  1> !wB97X-D3 RIJCOSX def2-TZVPD def2/J TightSCF
|  2> *xyz 0 1
|  3> C          3.91385       -1.65829        3.01513
|  4> N          5.03927       -0.90115        2.49282
|  5> C          6.21038       -1.41726        2.17824
|  6> N          6.53591       -2.67712        2.55608
|  7> C          7.07675       -0.70082        1.47891
|  8> H          7.95464       -1.12155        1.20755
|  9> H          6.75616        0.10664        0.96028
| 10> H          4.84217        0.01761        2.11519
| 11> H          5.99388       -3.12692        3.28278
| 12> C          3.13916       -2.37657        1.91061
| 13> H          3.26723       -0.93940        3.52069
| 14> H          4.24720       -2.35509        3.79006
| 15> H          7.49844       -2.97548        2.46878
| 16> H          2.82969       -1.66654        1.17238
| 17> H          2.27790       -2.85264        2.33072
| 18> H          3.76754       -3.11338        1.45548
| 19> *
| 20> %MaxCore 64000
| 21> %pal nprocs 8
| 22> end
| 23> %scf
| 24>   MaxIter 150
| 25> end
| 26>
| 27>
| 28>                          ****END OF INPUT****

CARTESIAN COORDINATES (ANGSTROEM)
---------------------------------
  C      3.913850   -1.658290    3.015130
  N      5.039270   -0.901150    2.492820
  C      6.210380   -1.417260    2.178240
  N      6.535910   -2.677120    2.556080
  C      7.076750   -0.700820    1.478910
  H      7.954640   -1.121550    1.207550
  H      6.756160    0.106640    0.960280
  H      4.842170    0.017610    2.115190
  H      5.993880   -3.126920    3.282780
  C      3.139160   -2.376570    1.910610
  H      3.267230   -0.939400    3.520690
  H      4.247200   -2.355090    3.790060
  H      7.498440   -2.975480    2.468780
  H      2.829690   -1.666540    1.172380
  H      2.277900   -2.852640    2.330720
  H      3.767540   -3.113380    1.455480

 Total Charge           Charge          ....    0
 Multiplicity           Mult            ....    1
 Number of Electrons    NEL             ....   48
 Basis Dimension        Dim             ....  312

ORBITAL ENERGIES
----------------

  NO   OCC          E(Eh)            E(eV)
   0   2.0000     -14.422708      -392.4618
   1   2.0000     -14.421345      -392.4247
   2   2.0000     -10.322265      -280.8831
   3   2.0000     -10.316761      -280.7333
   4   2.0000     -10.261775      -279.2371
   5   2.0000     -10.181336      -277.0482
   6   2.0000      -1.086904       -29.5762
   7   2.0000      -0.998609       -27.1735
   8   2.0000      -0.887478       -24.1495
   9   2.0000      -0.816340       -22.2137
  10   2.0000      -0.740938       -20.1619
  11   2.0000      -0.705972       -19.2105
  12   2.0000      -0.638886       -17.3850
  13   2.0000      -0.599872       -16.3233
  14   2.0000      -0.576616       -15.6905
  15   2.0000      -0.539466       -14.6796
  16   2.0000      -0.532760       -14.4971
  17   2.0000      -0.503381       -13.6977
  18   2.0000      -0.477538       -12.9945
  19   2.0000      -0.466694       -12.6994
  20   2.0000      -0.457147       -12.4396
  21   2.0000      -0.451751       -12.2928
  22   2.0000      -0.349274        -9.5042
  23   2.0000      -0.250352        -6.8124
  24   0.0000       0.063816         1.7365
  25   0.0000       0.087176         2.3722
  26   0.0000       0.090833         2.4717
  27   0.0000       0.093943         2.5563
  28   0.0000       0.121083         3.2948

MULLIKEN ATOMIC CHARGES
-----------------------
   0 C :   -0.536864
   1 N :   -0.164533
   2 C :    1.002837
   3 N :   -0.406749
   4 C :   -1.593816
   5 H :    0.321562
   6 H :    0.331839
   7 H :    0.196032
   8 H :    0.155720
   9 C :   -1.066681
  10 H :    0.289316
  11 H :    0.309160
  12 H :    0.191643
  13 H :    0.292742
  14 H :    0.360202
  15 H :    0.317589
Sum of atomic charges:    0.0000000

LOEWDIN ATOMIC CHARGES
----------------------
   0 C :   -0.240564
   1 N :    0.009084
   2 C :   -0.561328
   3 N :    0.116188
   4 C :   -0.012159
   5 H :    0.007267
   6 H :    0.010164
   7 H :    0.149217
   8 H :    0.086562
   9 C :   -0.085845
  10 H :    0.112344
  11 H :    0.102947
  12 H :    0.109496
  13 H :    0.067949
  14 H :    0.063378
  15 H :    0.065301

  Mayer bond orders larger than 0.100000
B(  0-C ,  1-N ) :   0.9209 B(  0-C ,  9-C ) :   0.7266 B(  0-C , 10-H ) :   0.9608
B(  0-C , 11-H ) :   0.8969 B(  1-N ,  2-C ) :   1.1236 B(  1-N ,  4-C ) :   0.1183
B(  1-N ,  7-H ) :   0.9571 B(  2-C ,  3-N ) :   0.9870 B(  2-C ,  4-C ) :   0.8563
B(  2-C ,  5-H ) :  -0.1415 B(  3-N ,  8-H ) :   1.0015 B(  3-N , 12-H ) :   0.9888
B(  4-C ,  5-H ) :   1.0728 B(  4-C ,  6-H ) :   0.9213 B(  9-C , 13-H ) :   0.9862
B(  9-C , 14-H ) :   0.9336 B(  9-C , 15-H ) :   0.9637

Dispersion correction           -0.003849970
FINAL SINGLE POINT ENERGY      -267.938287157485

DIPOLE MOMENT
-------------
                                X             Y             Z
Electronic contribution:      2.50008       0.90972       0.96456
Nuclear contribution   :     -3.31079      -1.42658      -0.45147
                        -----------------------------------------
Total Dipole Moment    :     -0.81071      -0.51686       0.51310
                        -----------------------------------------
Magnitude (a.u.)       :      1.08980
Magnitude (Debye)      :      2.77004

Rotational constants in cm-1:     0.225507     0.077571     0.068070
Rotational constants in MHz :  6760.542142  2325.533779  2040.680522

                             ****ORCA TERMINATED NORMALLY****
TOTAL RUN TIME: 0 days 0 hours 0 minutes 58 seconds 371 msec
