                         Program Version 5.0.0 -  RELEASE  -
|  1> !PBE0 D3BJ RIJCOSX def2-TZVP def2/J TightSCF
|  2> *xyz -1 1
|  3> C          3.80351        1.37472       -3.26081
|  4> C          3.93993        0.32036       -4.36773
|  5> H          4.10504       -0.65508       -3.90773
|  6> H          3.02280        0.28052       -4.95712
|  7> C          5.10585        0.66802       -5.30546
|  8> O          4.80913        1.15019       -6.41436
|  9> O          6.26737        0.56500       -4.81948
| 10> H          3.64113        2.33595       -3.70189
| 11> H          4.69995        1.39701       -2.67703
| 12> H          2.97435        1.12625       -2.63180
| 13> *
| 14>
| 15> %MaxCore 64000
| 16>
| 17> %pal nprocs 4
| 18> end
| 19>
| 20> %scf
| 21>   MaxIter 150
| 22> end
| 23>
| 24>
| 25>                          ****END OF INPUT****

CARTESIAN COORDINATES (ANGSTROEM)
---------------------------------
  C      3.803510    1.374720   -3.260810
  C      3.939930    0.320360   -4.367730
  H      4.105040   -0.655080   -3.907730
  H      3.022800    0.280520   -4.957120
  C      5.105850    0.668020   -5.305460
  O      4.809130    1.150190   -6.414360
  O      6.267370    0.565000   -4.819480
  H      3.641130    2.335950   -3.701890
  H      4.699950    1.397010   -2.677030
  H      2.974350    1.126250   -2.631800

 Total Charge           Charge          ....   -1
 Multiplicity           Mult            ....    1
 Number of Electrons    NEL             ....   40
 Basis Dimension        Dim             ....  185

ORBITAL ENERGIES
----------------

  NO   OCC          E(Eh)            E(eV)
   0   2.0000     -18.929724      -515.1040
   1   2.0000     -18.926055      -515.0041
   2   2.0000     -10.090868      -274.5865
   3   2.0000     -10.052447      -273.5410
   4   2.0000     -10.039158      -273.1794
   5   2.0000      -0.839539       -22.8450
   6   2.0000      -0.746396       -20.3105
   7   2.0000      -0.622483       -16.9386
   8   2.0000      -0.486019       -13.2252
   9   2.0000      -0.330496        -8.9933
  10   2.0000      -0.300161        -8.1678
  11   2.0000      -0.268875        -7.3165
  12   2.0000      -0.236498        -6.4354
  13   2.0000      -0.220166        -5.9910
  14   2.0000      -0.215675        -5.8688
  15   2.0000      -0.183165        -4.9842
  16   2.0000      -0.169033        -4.5996
  17   2.0000      -0.051858        -1.4111
  18   2.0000      -0.042389        -1.1535
  19   2.0000      -0.032568        -0.8862
  20   0.0000       0.195354         5.3159
  21   0.0000       0.235806         6.4166
  22   0.0000       0.252334         6.8664
  23   0.0000       0.259572         7.0633
  24   0.0000       0.273930         7.4540

MULLIKEN ATOMIC CHARGES
-----------------------
   0 C :   -0.356201
   1 C :   -0.133542
   2 H :    0.035579
   3 H :    0.040161
   4 C :    0.223177
   5 O :   -0.522752
   6 O :   -0.552474
   7 H :    0.098929
   8 H :    0.102148
   9 H :    0.064976
Sum of atomic charges:   -1.0000000

LOEWDIN ATOMIC CHARGES
----------------------
   0 C :   -0.326957
   1 C :   -0.294840
   2 H :    0.116893
   3 H :    0.117206
   4 C :   -0.707471
   5 O :   -0.095724
   6 O :   -0.126461
   7 H :    0.110848
   8 H :    0.112228
   9 H :    0.094279

  Mayer bond orders larger than 0.100000
B(  0-C ,  1-C ) :   0.9872 B(  0-C ,  7-H ) :   0.9820 B(  0-C ,  8-H ) :   0.9697
B(  0-C ,  9-H ) :   0.9690 B(  1-C ,  2-H ) :   0.9453 B(  1-C ,  3-H ) :   0.9463
B(  1-C ,  4-C ) :   0.9436 B(  4-C ,  5-O ) :   1.8804 B(  4-C ,  6-O ) :   1.8301

Dispersion correction           -0.005485757
FINAL SINGLE POINT ENERGY      -267.641854742290

DIPOLE MOMENT
-------------
                                X             Y             Z
Electronic contribution:      3.79152      -0.46966      -4.55272
Nuclear contribution   :     -5.15232       0.33441       5.87398
                        -----------------------------------------
Total Dipole Moment    :     -1.36080      -0.13526       1.32126
                        -----------------------------------------
Magnitude (a.u.)       :      1.90152
Magnitude (Debye)      :      4.83329

Rotational constants in cm-1:     0.295355     0.137164     0.110193
Rotational constants in MHz :  8854.523706  4112.077980  3303.490503

                             ****ORCA TERMINATED NORMALLY****
TOTAL RUN TIME: 0 days 0 hours 0 minutes 18 seconds 798 msec
