                         Program Version 5.0.0 -  RELEASE  -
|  1> !PBE0 D3BJ RIJCOSX def2-TZVP def2/J TightSCF
|  2> *xyz 1 1
|  3> C          3.90595        2.81985       -3.75292
|  4> N          5.29562        3.13151       -4.10533
|  5> C          3.80351        1.37472       -3.26081
|  6> C          5.70862        3.46889       -5.32419
|  7> N          6.90470        3.03895       -5.71708
|  8> N          4.98188        4.29357       -6.09746
|  9> H          5.00055        4.10131       -7.08776
| 10> H          4.08469        4.59690       -5.73965
| 11> H          5.96336        2.52611       -3.64239
| 12> H          7.04716        2.06686       -5.47360
| 13> H          7.19815        3.30799       -6.64523
| 14> H          3.28202        2.94919       -4.64026
| 15> H          3.56525        3.51457       -2.98252
| 16> H          4.14157        0.71142       -4.02935
| 17> H          2.78528        1.15146       -3.01944
| 18> H          4.41205        1.25066       -2.38949
| 19> *
| 20>
| 21> %MaxCore 64000
| 22>
| 23> %pal nprocs 4
| 24> end
| 25>
| 26> %scf
| 27>   MaxIter 150
| 28> end
| 29>
| 30>
| 31>                          ****END OF INPUT****

CARTESIAN COORDINATES (ANGSTROEM)
---------------------------------
  C      3.905950    2.819850   -3.752920
  N      5.295620    3.131510   -4.105330
  C      3.803510    1.374720   -3.260810
  C      5.708620    3.468890   -5.324190
  N      6.904700    3.038950   -5.717080
  N      4.981880    4.293570   -6.097460
  H      5.000550    4.101310   -7.087760
  H      4.084690    4.596900   -5.739650
  H      5.963360    2.526110   -3.642390
  H      7.047160    2.066860   -5.473600
  H      7.198150    3.307990   -6.645230
  H      3.282020    2.949190   -4.640260
  H      3.565250    3.514570   -2.982520
  H      4.141570    0.711420   -4.029350
  H      2.785280    1.151460   -3.019440
  H      4.412050    1.250660   -2.389490

 Total Charge           Charge          ....    1
 Multiplicity           Mult            ....    1
 Number of Electrons    NEL             ....   48
 Basis Dimension        Dim             ....  246

ORBITAL ENERGIES
----------------

  NO   OCC          E(Eh)            E(eV)
   0   2.0000     -14.611570      -397.6010
   1   2.0000     -14.610191      -397.5635
   2   2.0000     -14.608946      -397.5296
   3   2.0000     -10.556155      -287.2476
   4   2.0000     -10.431923      -283.8671
   5   2.0000     -10.363283      -281.9993
   6   2.0000      -1.249471       -33.9998
   7   2.0000      -1.135046       -30.8862
   8   2.0000      -1.126664       -30.6581
   9   2.0000      -0.957575       -26.0569
  10   2.0000      -0.855143       -23.2696
  11   2.0000      -0.827589       -22.5198
  12   2.0000      -0.793401       -21.5895
  13   2.0000      -0.762410       -20.7462
  14   2.0000      -0.716363       -19.4932
  15   2.0000      -0.702655       -19.1202
  16   2.0000      -0.665707       -18.1148
  17   2.0000      -0.642187       -17.4748
  18   2.0000      -0.609769       -16.5927
  19   2.0000      -0.573667       -15.6103
  20   2.0000      -0.549521       -14.9532
  21   2.0000      -0.534179       -14.5358
  22   2.0000      -0.503220       -13.6933
  23   2.0000      -0.471982       -12.8433
  24   0.0000      -0.185943        -5.0598
  25   0.0000      -0.144742        -3.9386
  26   0.0000      -0.109475        -2.9790
  27   0.0000      -0.095723        -2.6047
  28   0.0000      -0.076279        -2.0756

MULLIKEN ATOMIC CHARGES
-----------------------
   0 C :   -0.119040
   1 N :   -0.218860
   2 C :   -0.408379
   3 C :    0.368199
   4 N :   -0.383331
   5 N :   -0.399467
   6 H :    0.287673
   7 H :    0.291446
   8 H :    0.250524
   9 H :    0.285958
  10 H :    0.282645
  11 H :    0.122327
  12 H :    0.174990
  13 H :    0.136870
  14 H :    0.170634
  15 H :    0.157812
Sum of atomic charges:    1.0000000

LOEWDIN ATOMIC CHARGES
----------------------
   0 C :   -0.282168
   1 N :    0.171949
   2 C :   -0.285442
   3 C :   -0.419907
   4 N :    0.063211
   5 N :    0.065732
   6 H :    0.197374
   7 H :    0.197397
   8 H :    0.212506
   9 H :    0.202067
  10 H :    0.198444
  11 H :    0.137987
  12 H :    0.147312
  13 H :    0.123515
  14 H :    0.140531
  15 H :    0.129493

  Mayer bond orders larger than 0.100000
B(  0-C ,  1-N ) :   0.8739 B(  0-C ,  2-C ) :   1.0046 B(  0-C , 11-H ) :   0.9642
B(  0-C , 12-H ) :   0.9415 B(  1-N ,  3-C ) :   1.4067 B(  1-N ,  8-H ) :   0.8981
B(  2-C , 13-H ) :   0.9658 B(  2-C , 14-H ) :   0.9564 B(  2-C , 15-H ) :   0.9630
B(  3-C ,  4-N ) :   1.3286 B(  3-C ,  5-N ) :   1.3393 B(  4-N ,  9-H ) :   0.8845
B(  4-N , 10-H ) :   0.8907 B(  5-N ,  6-H ) :   0.8831 B(  5-N ,  7-H ) :   0.8897

Dispersion correction           -0.010307802
FINAL SINGLE POINT ENERGY      -284.172382872070

DIPOLE MOMENT
-------------
                                X             Y             Z
Electronic contribution:      3.51768       3.39696      -2.67136
Nuclear contribution   :     -3.31456      -3.64300       1.57303
                        -----------------------------------------
Total Dipole Moment    :      0.20312      -0.24604      -1.09832
                        -----------------------------------------
Magnitude (a.u.)       :      1.14372
Magnitude (Debye)      :      2.90712

Rotational constants in cm-1:     0.229487     0.071000     0.059428
Rotational constants in MHz :  6879.840828  2128.520047  1781.605314

                             ****ORCA TERMINATED NORMALLY****
TOTAL RUN TIME: 0 days 0 hours 0 minutes 36 seconds 470 msec
