                         Program Version 5.0.0 -  RELEASE  -
|  1> !PBE0 D3BJ RIJCOSX def2-TZVP def2/J TightSCF xyzfile
|  2>
|  3> *xyzfile 0 1 B.xyz
|  4>
|  5> %MaxCore 64000
|  6>
|  7> %pal nprocs 18
|  8> end
|  9>
| 10> %scf
| 11>   MaxIter 150
| 12> end
| 13>
| 14>
| 15>                          ****END OF INPUT****

CARTESIAN COORDINATES (ANGSTROEM)
---------------------------------
  C      3.905947    2.819855   -3.752920
  N      5.295615    3.131515   -4.105334
  C      3.803511    1.374716   -3.260807
  C      3.939934    0.320362   -4.367729
  H      4.105043   -0.655085   -3.907733
  H      3.022801    0.280517   -4.957117
  C      5.105846    0.668022   -5.305463
  C      5.708619    3.468885   -5.324190
  N      6.904696    3.038954   -5.717084
  N      4.981884    4.293570   -6.097457
  H      5.000546    4.101311   -7.087761
  H      4.084693    4.596899   -5.739652
  H      5.963358    2.526112   -3.642391
  H      7.047164    2.066861   -5.473604
  H      7.198145    3.307994   -6.645225
  H      3.282025    2.949187   -4.640259
  H      3.565254    3.514574   -2.982523
  H      4.574833    1.215157   -2.500443
  H      2.843514    1.260845   -2.751465
  O      4.809132    1.150187   -6.414361
  O      6.267366    0.564999   -4.819481

 Total Charge           Charge          ....    0
 Multiplicity           Mult            ....    1
 Number of Electrons    NEL             ....   78
 Basis Dimension        Dim             ....  376

ORBITAL ENERGIES
----------------

  NO   OCC          E(Eh)            E(eV)
   0   2.0000     -19.119000      -520.2544
   1   2.0000     -19.114915      -520.1433
   2   2.0000     -14.446661      -393.1136
   3   2.0000     -14.440278      -392.9399
   4   2.0000     -14.415998      -392.2792
   5   2.0000     -10.384308      -282.5714
   6   2.0000     -10.282138      -279.7912
   7   2.0000     -10.274012      -279.5701
   8   2.0000     -10.232542      -278.4416
   9   2.0000     -10.197970      -277.5009
  10   2.0000      -1.077581       -29.3225
  11   2.0000      -1.029433       -28.0123
  12   2.0000      -0.968435       -26.3525
  13   2.0000      -0.949732       -25.8435
  14   2.0000      -0.936354       -25.4795
  15   2.0000      -0.818566       -22.2743
  16   2.0000      -0.734404       -19.9841
  17   2.0000      -0.675762       -18.3884
  18   2.0000      -0.641765       -17.4633
  19   2.0000      -0.623021       -16.9533
  20   2.0000      -0.590431       -16.0665
  21   2.0000      -0.549475       -14.9520
  22   2.0000      -0.529597       -14.4111
  23   2.0000      -0.511883       -13.9291
  24   2.0000      -0.492837       -13.4108
  25   2.0000      -0.489094       -13.3089
  26   2.0000      -0.443605       -12.0711
  27   2.0000      -0.437119       -11.8946
  28   2.0000      -0.423643       -11.5279
  29   2.0000      -0.399525       -10.8716
  30   2.0000      -0.394077       -10.7234
  31   2.0000      -0.388554       -10.5731
  32   2.0000      -0.351958        -9.5773
  33   2.0000      -0.346937        -9.4406
  34   2.0000      -0.328673        -8.9436
  35   2.0000      -0.303189        -8.2502
  36   2.0000      -0.243454        -6.6247
  37   2.0000      -0.228064        -6.2059
  38   2.0000      -0.218636        -5.9494
  39   0.0000      -0.013056        -0.3553
  40   0.0000       0.014849         0.4041
  41   0.0000       0.040715         1.1079
  42   0.0000       0.052944         1.4407
  43   0.0000       0.068352         1.8599

MULLIKEN ATOMIC CHARGES
-----------------------
   0 C :   -0.114676
   1 N :   -0.212792
   2 C :   -0.279638
   3 C :   -0.162881
   4 H :    0.102196
   5 H :    0.090149
   6 C :    0.268417
   7 C :    0.293998
   8 N :   -0.345988
   9 N :   -0.429241
  10 H :    0.278342
  11 H :    0.260063
  12 H :    0.258680
  13 H :    0.283448
  14 H :    0.236875
  15 H :    0.110581
  16 H :    0.134387
  17 H :    0.123224
  18 H :    0.115485
  19 O :   -0.461806
  20 O :   -0.548823
Sum of atomic charges:   -0.0000000

LOEWDIN ATOMIC CHARGES
----------------------
   0 C :   -0.269601
   1 N :    0.165411
   2 C :   -0.268899
   3 C :   -0.245102
   4 H :    0.142146
   5 H :    0.138099
   6 C :   -0.677007
   7 C :   -0.434663
   8 N :    0.056468
   9 N :    0.034104
  10 H :    0.188770
  11 H :    0.181405
  12 H :    0.209977
  13 H :    0.175028
  14 H :    0.178119
  15 H :    0.140532
  16 H :    0.131352
  17 H :    0.143171
  18 H :    0.141485
  19 O :   -0.042898
  20 O :   -0.087899

  Mayer bond orders larger than 0.100000
B(  0-C ,  1-N ) :   0.9339 B(  0-C ,  2-C ) :   1.0049 B(  0-C , 15-H ) :   0.9599
B(  0-C , 16-H ) :   0.9534 B(  1-N ,  7-C ) :   1.3796 B(  1-N , 12-H ) :   0.8808
B(  2-C ,  3-C ) :   1.0111 B(  2-C , 17-H ) :   0.9587 B(  2-C , 18-H ) :   0.9511
B(  3-C ,  4-H ) :   0.9355 B(  3-C ,  5-H ) :   0.9559 B(  3-C ,  6-C ) :   0.9601
B(  6-C , 19-O ) :   1.8411 B(  6-C , 20-O ) :   1.6815 B(  7-C ,  8-N ) :   1.4160
B(  7-C ,  9-N ) :   1.2807 B(  7-C , 19-O ) :   0.1623 B(  8-N , 13-H ) :   0.7944
B(  8-N , 14-H ) :   0.9115 B(  9-N , 10-H ) :   0.8979 B(  9-N , 11-H ) :   0.9070
B( 13-H , 20-O ) :   0.1613

Dispersion correction           -0.019740434
FINAL SINGLE POINT ENERGY      -511.522903953698

DIPOLE MOMENT
-------------
                                X             Y             Z
Electronic contribution:      4.19177       0.41132      -3.47162
Nuclear contribution   :     -4.94498       2.03334       3.78956
                        -----------------------------------------
Total Dipole Moment    :     -0.75321       2.44466       0.31793
                        -----------------------------------------
Magnitude (a.u.)       :      2.57774
Magnitude (Debye)      :      6.55210

Rotational constants in cm-1:     0.062533     0.042832     0.033687
Rotational constants in MHz :  1874.701390  1284.063603  1009.911042

                             ****ORCA TERMINATED NORMALLY****
TOTAL RUN TIME: 0 days 0 hours 0 minutes 27 seconds 740 msec
