                         Program Version 5.0.0 -  RELEASE  -
|  1> !PBE0 D3BJ RIJCOSX def2-TZVP def2/J TightSCF
|  2> *xyz 0 1
|  3> C          3.80351        1.37472       -3.26081
|  4> C          3.93993        0.32036       -4.36773
|  5> H          4.10504       -0.65508       -3.90773
|  6> H          3.02280        0.28052       -4.95712
|  7> C          5.10585        0.66802       -5.30546
|  8> F          4.80913        1.15019       -6.41436
|  9> O          6.26737        0.56500       -4.81948
| 10> H          3.64113        2.33595       -3.70189
| 11> H          4.69995        1.39701       -2.67703
| 12> H          2.97435        1.12625       -2.63180
| 13> *
| 14>
| 15> %MaxCore 64000
| 16>
| 17> %pal nprocs 4
| 18> end
| 19>
| 20> %scf
| 21>   MaxIter 150
| 22> end
| 23>
| 24>
| 25>                          ****END OF INPUT****

CARTESIAN COORDINATES (ANGSTROEM)
---------------------------------
  C      3.803510    1.374720   -3.260810
  C      3.939930    0.320360   -4.367730
  H      4.105040   -0.655080   -3.907730
  H      3.022800    0.280520   -4.957120
  C      5.105850    0.668020   -5.305460
  F      4.809130    1.150190   -6.414360
  O      6.267370    0.565000   -4.819480
  H      3.641130    2.335950   -3.701890
  H      4.699950    1.397010   -2.677030
  H      2.974350    1.126250   -2.631800

 Total Charge           Charge          ....    0
 Multiplicity           Mult            ....    1
 Number of Electrons    NEL             ....   40
 Basis Dimension        Dim             ....  185

ORBITAL ENERGIES
----------------

  NO   OCC          E(Eh)            E(eV)
   0   2.0000     -24.845280      -676.0744
   1   2.0000     -19.208588      -522.6923
   2   2.0000     -10.398190      -282.9491
   3   2.0000     -10.252121      -278.9744
   4   2.0000     -10.225957      -278.2624
   5   2.0000      -1.359885       -37.0043
   6   2.0000      -1.056102       -28.7380
   7   2.0000      -0.823830       -22.4175
   8   2.0000      -0.711631       -19.3645
   9   2.0000      -0.661839       -18.0095
  10   2.0000      -0.570305       -15.5188
  11   2.0000      -0.556724       -15.1492
  12   2.0000      -0.524511       -14.2727
  13   2.0000      -0.479200       -13.0397
  14   2.0000      -0.449528       -12.2323
  15   2.0000      -0.412620       -11.2280
  16   2.0000      -0.391773       -10.6607
  17   2.0000      -0.385918       -10.5014
  18   2.0000      -0.357933        -9.7399
  19   2.0000      -0.302783        -8.2391
  20   0.0000      -0.024351        -0.6626
  21   0.0000       0.043738         1.1902
  22   0.0000       0.084009         2.2860
  23   0.0000       0.097557         2.6547
  24   0.0000       0.110927         3.0185

MULLIKEN ATOMIC CHARGES
-----------------------
   0 C :   -0.376077
   1 C :   -0.200143
   2 H :    0.131519
   3 H :    0.110429
   4 C :    0.366601
   5 F :   -0.087240
   6 O :   -0.345070
   7 H :    0.123717
   8 H :    0.145504
   9 H :    0.130760
Sum of atomic charges:    0.0000000

LOEWDIN ATOMIC CHARGES
----------------------
   0 C :   -0.289797
   1 C :   -0.261452
   2 H :    0.152511
   3 H :    0.138683
   4 C :   -0.504119
   5 F :    0.342225
   6 O :    0.053406
   7 H :    0.120898
   8 H :    0.126507
   9 H :    0.121138

  Mayer bond orders larger than 0.100000
B(  0-C ,  1-C ) :   0.9906 B(  0-C ,  7-H ) :   0.9708 B(  0-C ,  8-H ) :   0.9676
B(  0-C ,  9-H ) :   0.9659 B(  1-C ,  2-H ) :   0.9449 B(  1-C ,  3-H ) :   0.9504
B(  1-C ,  4-C ) :   0.9983 B(  4-C ,  5-F ) :   1.1737 B(  4-C ,  6-O ) :   2.0440

Dispersion correction           -0.005190338
FINAL SINGLE POINT ENERGY      -292.197115792570

DIPOLE MOMENT
-------------
                                X             Y             Z
Electronic contribution:      4.01010      -0.00677      -7.44313
Nuclear contribution   :     -5.17129      -0.01923       7.59895
                        -----------------------------------------
Total Dipole Moment    :     -1.16120      -0.02601       0.15582
                        -----------------------------------------
Magnitude (a.u.)       :      1.17189
Magnitude (Debye)      :      2.97871

Rotational constants in cm-1:     0.282073     0.131822     0.105134
Rotational constants in MHz :  8456.328792  3951.925810  3151.840112

                             ****ORCA TERMINATED NORMALLY****
TOTAL RUN TIME: 0 days 0 hours 0 minutes 18 seconds 236 msec
