                         Program Version 5.0.0 -  RELEASE  -
|  1> !PBE0 D3BJ RIJCOSX def2-TZVP def2/J TightSCF
|  2> *xyz 0 1
|  3> C          3.90595        2.81985       -3.75292
|  4> C          5.29562        3.13151       -4.10533
|  5> C          3.80351        1.37472       -3.26081
|  6> C          5.70862        3.46889       -5.32419
|  7> N          6.90470        3.03895       -5.71708
|  8> N          4.98188        4.29357       -6.09746
|  9> H          5.00055        4.10131       -7.08776
| 10> H          4.08469        4.59690       -5.73965
| 11> H          5.96336        2.52611       -3.64239
| 12> H          7.04716        2.06686       -5.47360
| 13> H          7.19815        3.30799       -6.64523
| 14> H          3.28202        2.94919       -4.64026
| 15> H          3.56525        3.51457       -2.98252
| 16> H          4.14157        0.71142       -4.02935
| 17> H          2.78528        1.15146       -3.01944
| 18> H          4.41205        1.25066       -2.38949
| 19> *
| 20>
| 21> %MaxCore 64000
| 22>
| 23> %pal nprocs 4
| 24> end
| 25>
| 26> %scf
| 27>   MaxIter 150
| 28> end
| 29>
| 30>
| 31>                          ****END OF INPUT****

CARTESIAN COORDINATES (ANGSTROEM)
---------------------------------
  C      3.905950    2.819850   -3.752920
  C      5.295620    3.131510   -4.105330
  C      3.803510    1.374720   -3.260810
  C      5.708620    3.468890   -5.324190
  N      6.904700    3.038950   -5.717080
  N      4.981880    4.293570   -6.097460
  H      5.000550    4.101310   -7.087760
  H      4.084690    4.596900   -5.739650
  H      5.963360    2.526110   -3.642390
  H      7.047160    2.066860   -5.473600
  H      7.198150    3.307990   -6.645230
  H      3.282020    2.949190   -4.640260
  H      3.565250    3.514570   -2.982520
  H      4.141570    0.711420   -4.029350
  H      2.785280    1.151460   -3.019440
  H      4.412050    1.250660   -2.389490

 Total Charge           Charge          ....    0
 Multiplicity           Mult            ....    1
 Number of Electrons    NEL             ....   48
 Basis Dimension        Dim             ....  246

ORBITAL ENERGIES
----------------

  NO   OCC          E(Eh)            E(eV)
   0   2.0000     -14.385432      -391.4475
   1   2.0000     -14.382212      -391.3599
   2   2.0000     -10.261171      -279.2207
   3   2.0000     -10.197691      -277.4933
   4   2.0000     -10.188573      -277.2452
   5   2.0000     -10.145253      -276.0664
   6   2.0000      -0.992050       -26.9951
   7   2.0000      -0.901888       -24.5416
   8   2.0000      -0.799878       -21.7658
   9   2.0000      -0.716520       -19.4975
  10   2.0000      -0.631874       -17.1942
  11   2.0000      -0.592684       -16.1278
  12   2.0000      -0.549948       -14.9648
  13   2.0000      -0.525525       -14.3003
  14   2.0000      -0.490878       -13.3575
  15   2.0000      -0.459044       -12.4912
  16   2.0000      -0.434098       -11.8124
  17   2.0000      -0.401349       -10.9213
  18   2.0000      -0.381500       -10.3811
  19   2.0000      -0.362510        -9.8644
  20   2.0000      -0.337612        -9.1869
  21   2.0000      -0.334142        -9.0925
  22   2.0000      -0.286142        -7.7863
  23   2.0000      -0.178935        -4.8691
  24   0.0000       0.026270         0.7149
  25   0.0000       0.057722         1.5707
  26   0.0000       0.066843         1.8189
  27   0.0000       0.074219         2.0196
  28   0.0000       0.090980         2.4757

MULLIKEN ATOMIC CHARGES
-----------------------
   0 C :   -0.131793
   1 C :   -0.297479
   2 C :   -0.376032
   3 C :    0.253179
   4 N :   -0.467326
   5 N :   -0.471445
   6 H :    0.213300
   7 H :    0.247455
   8 H :    0.072608
   9 H :    0.253249
  10 H :    0.216096
  11 H :    0.052438
  12 H :    0.098749
  13 H :    0.104969
  14 H :    0.112574
  15 H :    0.119456
Sum of atomic charges:    0.0000000

LOEWDIN ATOMIC CHARGES
----------------------
   0 C :   -0.311185
   1 C :   -0.275004
   2 C :   -0.304932
   3 C :   -0.478222
   4 N :   -0.014489
   5 N :   -0.017681
   6 H :    0.156035
   7 H :    0.175608
   8 H :    0.127124
   9 H :    0.181434
  10 H :    0.160982
  11 H :    0.126595
  12 H :    0.130776
  13 H :    0.113365
  14 H :    0.112381
  15 H :    0.117211

  Mayer bond orders larger than 0.100000
B(  0-C ,  1-C ) :   0.9836 B(  0-C ,  2-C ) :   0.9850 B(  0-C , 11-H ) :   0.9557
B(  0-C , 12-H ) :   0.9580 B(  1-C ,  3-C ) :   1.7025 B(  1-C ,  8-H ) :   1.0225
B(  2-C , 13-H ) :   0.9771 B(  2-C , 14-H ) :   0.9723 B(  2-C , 15-H ) :   0.9778
B(  3-C ,  4-N ) :   1.1331 B(  3-C ,  5-N ) :   1.1616 B(  4-N ,  9-H ) :   0.9109
B(  4-N , 10-H ) :   0.9232 B(  5-N ,  6-H ) :   0.9069 B(  5-N ,  7-H ) :   0.9162

Dispersion correction           -0.010730141
FINAL SINGLE POINT ENERGY      -267.699736650708

DIPOLE MOMENT
-------------
                                X             Y             Z
Electronic contribution:      3.19879       3.26096      -2.88884
Nuclear contribution   :     -3.27358      -3.61654       1.70633
                        -----------------------------------------
Total Dipole Moment    :     -0.07478      -0.35558      -1.18251
                        -----------------------------------------
Magnitude (a.u.)       :      1.23708
Magnitude (Debye)      :      3.14440

Rotational constants in cm-1:     0.231961     0.071249     0.059473
Rotational constants in MHz :  6954.024434  2135.976855  1782.962814

                             ****ORCA TERMINATED NORMALLY****
TOTAL RUN TIME: 0 days 0 hours 0 minutes 36 seconds 4 msec
