                         Program Version 5.0.0 -  RELEASE  -
|  1> !PBE0 D3BJ RIJCOSX def2-TZVP def2/J TightSCF
|  2> *xyz 0 1
|  3> C          3.80351        1.37472       -3.26081
|  4> C          3.93993        0.32036       -4.36773
|  5> H          4.10504       -0.65508       -3.90773
|  6> H          3.02280        0.28052       -4.95712
|  7> C          5.10585        0.66802       -5.30546
|  8> O          4.80913        1.15019       -6.41436
|  9> F          6.26737        0.56500       -4.81948
| 10> H          3.64113        2.33595       -3.70189
| 11> H          4.69995        1.39701       -2.67703
| 12> H          2.97435        1.12625       -2.63180
| 13> *
| 14>
| 15> %MaxCore 64000
| 16>
| 17> %pal nprocs 4
| 18> end
| 19>
| 20> %scf
| 21>   MaxIter 150
| 22> end
| 23>
| 24>
| 25>                          ****END OF INPUT****

CARTESIAN COORDINATES (ANGSTROEM)
---------------------------------
  C      3.803510    1.374720   -3.260810
  C      3.939930    0.320360   -4.367730
  H      4.105040   -0.655080   -3.907730
  H      3.022800    0.280520   -4.957120
  C      5.105850    0.668020   -5.305460
  O      4.809130    1.150190   -6.414360
  F      6.267370    0.565000   -4.819480
  H      3.641130    2.335950   -3.701890
  H      4.699950    1.397010   -2.677030
  H      2.974350    1.126250   -2.631800

 Total Charge           Charge          ....    0
 Multiplicity           Mult            ....    1
 Number of Electrons    NEL             ....   40
 Basis Dimension        Dim             ....  185

ORBITAL ENERGIES
----------------

  NO   OCC          E(Eh)            E(eV)
   0   2.0000     -24.838331      -675.8853
   1   2.0000     -19.211330      -522.7669
   2   2.0000     -10.396134      -282.8932
   3   2.0000     -10.251667      -278.9620
   4   2.0000     -10.228670      -278.3363
   5   2.0000      -1.346138       -36.6303
   6   2.0000      -1.067339       -29.0438
   7   2.0000      -0.825710       -22.4687
   8   2.0000      -0.705864       -19.2075
   9   2.0000      -0.660015       -17.9599
  10   2.0000      -0.564409       -15.3583
  11   2.0000      -0.551963       -15.0197
  12   2.0000      -0.521312       -14.1856
  13   2.0000      -0.479338       -13.0435
  14   2.0000      -0.450703       -12.2642
  15   2.0000      -0.416075       -11.3220
  16   2.0000      -0.397285       -10.8107
  17   2.0000      -0.386480       -10.5167
  18   2.0000      -0.366998        -9.9865
  19   2.0000      -0.303551        -8.2600
  20   0.0000      -0.019972        -0.5435
  21   0.0000       0.041589         1.1317
  22   0.0000       0.083234         2.2649
  23   0.0000       0.099449         2.7061
  24   0.0000       0.116955         3.1825

MULLIKEN ATOMIC CHARGES
-----------------------
   0 C :   -0.379923
   1 C :   -0.199777
   2 H :    0.116217
   3 H :    0.133427
   4 C :    0.357449
   5 O :   -0.322899
   6 F :   -0.104105
   7 H :    0.136786
   8 H :    0.129077
   9 H :    0.133748
Sum of atomic charges:   -0.0000000

LOEWDIN ATOMIC CHARGES
----------------------
   0 C :   -0.293701
   1 C :   -0.258677
   2 H :    0.143000
   3 H :    0.151654
   4 C :   -0.502143
   5 O :    0.078452
   6 F :    0.313620
   7 H :    0.124261
   8 H :    0.121063
   9 H :    0.122471

  Mayer bond orders larger than 0.100000
B(  0-C ,  1-C ) :   0.9828 B(  0-C ,  7-H ) :   0.9693 B(  0-C ,  8-H ) :   0.9704
B(  0-C ,  9-H ) :   0.9654 B(  1-C ,  2-H ) :   0.9391 B(  1-C ,  3-H ) :   0.9566
B(  1-C ,  4-C ) :   1.0128 B(  4-C ,  5-O ) :   2.0760 B(  4-C ,  6-F ) :   1.1479

Dispersion correction           -0.005174287
FINAL SINGLE POINT ENERGY      -292.202530324441

DIPOLE MOMENT
-------------
                                X             Y             Z
Electronic contribution:      6.41919      -0.98257      -4.78073
Nuclear contribution   :     -6.76123       0.61881       5.86003
                        -----------------------------------------
Total Dipole Moment    :     -0.34204      -0.36377       1.07930
                        -----------------------------------------
Magnitude (a.u.)       :      1.18921
Magnitude (Debye)      :      3.02272

Rotational constants in cm-1:     0.275298     0.134631     0.105723
Rotational constants in MHz :  8253.224169  4036.137572  3169.487264

                             ****ORCA TERMINATED NORMALLY****
TOTAL RUN TIME: 0 days 0 hours 0 minutes 19 seconds 638 msec
