                         Program Version 5.0.0 -  RELEASE  -
|  1> !PBE0 D3BJ RIJCOSX def2-TZVP def2/J TightSCF
|  2> *xyz 0 1
|  3> C          3.90595        2.81985       -3.75292
|  4> N          5.29562        3.13151       -4.10533
|  5> C          3.80351        1.37472       -3.26081
|  6> C          5.70862        3.46889       -5.32419
|  7> C          6.90470        3.03895       -5.71708
|  8> N          4.98188        4.29357       -6.09746
|  9> H          5.00055        4.10131       -7.08776
| 10> H          4.08469        4.59690       -5.73965
| 11> H          5.96336        2.52611       -3.64239
| 12> H          7.04716        2.06686       -5.47360
| 13> H          7.19815        3.30799       -6.64523
| 14> H          3.28202        2.94919       -4.64026
| 15> H          3.56525        3.51457       -2.98252
| 16> H          4.14157        0.71142       -4.02935
| 17> H          2.78528        1.15146       -3.01944
| 18> H          4.41205        1.25066       -2.38949
| 19> *
| 20>
| 21> %MaxCore 64000
| 22>
| 23> %pal nprocs 4
| 24> end
| 25>
| 26> %scf
| 27>   MaxIter 150
| 28> end
| 29>
| 30>
| 31>                          ****END OF INPUT****

CARTESIAN COORDINATES (ANGSTROEM)
---------------------------------
  C      3.905950    2.819850   -3.752920
  N      5.295620    3.131510   -4.105330
  C      3.803510    1.374720   -3.260810
  C      5.708620    3.468890   -5.324190
  C      6.904700    3.038950   -5.717080
  N      4.981880    4.293570   -6.097460
  H      5.000550    4.101310   -7.087760
  H      4.084690    4.596900   -5.739650
  H      5.963360    2.526110   -3.642390
  H      7.047160    2.066860   -5.473600
  H      7.198150    3.307990   -6.645230
  H      3.282020    2.949190   -4.640260
  H      3.565250    3.514570   -2.982520
  H      4.141570    0.711420   -4.029350
  H      2.785280    1.151460   -3.019440
  H      4.412050    1.250660   -2.389490

 Total Charge           Charge          ....    0
 Multiplicity           Mult            ....    1
 Number of Electrons    NEL             ....   48
 Basis Dimension        Dim             ....  246

ORBITAL ENERGIES
----------------

  NO   OCC          E(Eh)            E(eV)
   0   2.0000     -14.386170      -391.4676
   1   2.0000     -14.385546      -391.4506
   2   2.0000     -10.266267      -279.3593
   3   2.0000     -10.261163      -279.2204
   4   2.0000     -10.218444      -278.0580
   5   2.0000     -10.130201      -275.6568
   6   2.0000      -0.997512       -27.1437
   7   2.0000      -0.913955       -24.8700
   8   2.0000      -0.797259       -21.6945
   9   2.0000      -0.728572       -19.8255
  10   2.0000      -0.650161       -17.6918
  11   2.0000      -0.614126       -16.7112
  12   2.0000      -0.549487       -14.9523
  13   2.0000      -0.509901       -13.8751
  14   2.0000      -0.498738       -13.5714
  15   2.0000      -0.466790       -12.7020
  16   2.0000      -0.436527       -11.8785
  17   2.0000      -0.414482       -11.2786
  18   2.0000      -0.393185       -10.6991
  19   2.0000      -0.386820       -10.5259
  20   2.0000      -0.383707       -10.4412
  21   2.0000      -0.349809        -9.5188
  22   2.0000      -0.272877        -7.4254
  23   2.0000      -0.183779        -5.0009
  24   0.0000       0.031395         0.8543
  25   0.0000       0.051104         1.3906
  26   0.0000       0.063362         1.7242
  27   0.0000       0.074003         2.0137
  28   0.0000       0.091448         2.4884

MULLIKEN ATOMIC CHARGES
-----------------------
   0 C :   -0.083469
   1 N :   -0.267038
   2 C :   -0.404855
   3 C :    0.279484
   4 C :   -0.501231
   5 N :   -0.471790
   6 H :    0.251971
   7 H :    0.223950
   8 H :    0.218656
   9 H :    0.090531
  10 H :    0.073959
  11 H :    0.087300
  12 H :    0.117664
  13 H :    0.134312
  14 H :    0.122997
  15 H :    0.127558
Sum of atomic charges:   -0.0000000

LOEWDIN ATOMIC CHARGES
----------------------
   0 C :   -0.310955
   1 N :    0.115448
   2 C :   -0.310043
   3 C :   -0.477061
   4 C :   -0.353928
   5 N :   -0.009441
   6 H :    0.175706
   7 H :    0.160879
   8 H :    0.197477
   9 H :    0.104047
  10 H :    0.097260
  11 H :    0.126280
  12 H :    0.125148
  13 H :    0.120587
  14 H :    0.120272
  15 H :    0.118323

  Mayer bond orders larger than 0.100000
B(  0-C ,  1-N ) :   0.9414 B(  0-C ,  2-C ) :   1.0042 B(  0-C , 11-H ) :   0.9623
B(  0-C , 12-H ) :   0.9572 B(  1-N ,  3-C ) :   1.2414 B(  1-N ,  8-H ) :   0.9179
B(  2-C , 13-H ) :   0.9724 B(  2-C , 14-H ) :   0.9684 B(  2-C , 15-H ) :   0.9720
B(  3-C ,  4-C ) :   1.6745 B(  3-C ,  5-N ) :   1.1227 B(  4-C ,  9-H ) :   0.9811
B(  4-C , 10-H ) :   1.0128 B(  5-N ,  6-H ) :   0.9128 B(  5-N ,  7-H ) :   0.9227

Dispersion correction           -0.010644312
FINAL SINGLE POINT ENERGY      -267.688188963058

DIPOLE MOMENT
-------------
                                X             Y             Z
Electronic contribution:      1.50042       3.25632      -1.28269
Nuclear contribution   :     -2.93222      -3.63618       1.36440
                        -----------------------------------------
Total Dipole Moment    :     -1.43180      -0.37986       0.08171
                        -----------------------------------------
Magnitude (a.u.)       :      1.48358
Magnitude (Debye)      :      3.77097

Rotational constants in cm-1:     0.237993     0.072843     0.061284
Rotational constants in MHz :  7134.860770  2183.763760  1837.240960

                             ****ORCA TERMINATED NORMALLY****
TOTAL RUN TIME: 0 days 0 hours 0 minutes 31 seconds 440 msec
