                         Program Version 5.0.0 -  RELEASE  -
|  1> !PBE0 D3BJ RIJCOSX def2-TZVP def2/J TightSCF
|  2> *xyz 0 1
|  3> C          3.90595        2.81985       -3.75292
|  4> N          5.29562        3.13151       -4.10533
|  5> C          3.80351        1.37472       -3.26081
|  6> C          5.70862        3.46889       -5.32419
|  7> N          6.90470        3.03895       -5.71708
|  8> C          4.98188        4.29357       -6.09746
|  9> H          5.00055        4.10131       -7.08776
| 10> H          4.08469        4.59690       -5.73965
| 11> H          5.96336        2.52611       -3.64239
| 12> H          7.04716        2.06686       -5.47360
| 13> H          7.19815        3.30799       -6.64523
| 14> H          3.28202        2.94919       -4.64026
| 15> H          3.56525        3.51457       -2.98252
| 16> H          4.14157        0.71142       -4.02935
| 17> H          2.78528        1.15146       -3.01944
| 18> H          4.41205        1.25066       -2.38949
| 19> *
| 20>
| 21> %MaxCore 64000
| 22>
| 23> %pal nprocs 4
| 24> end
| 25>
| 26> %scf
| 27>   MaxIter 150
| 28> end
| 29>
| 30>
| 31>                          ****END OF INPUT****

CARTESIAN COORDINATES (ANGSTROEM)
---------------------------------
  C      3.905950    2.819850   -3.752920
  N      5.295620    3.131510   -4.105330
  C      3.803510    1.374720   -3.260810
  C      5.708620    3.468890   -5.324190
  N      6.904700    3.038950   -5.717080
  C      4.981880    4.293570   -6.097460
  H      5.000550    4.101310   -7.087760
  H      4.084690    4.596900   -5.739650
  H      5.963360    2.526110   -3.642390
  H      7.047160    2.066860   -5.473600
  H      7.198150    3.307990   -6.645230
  H      3.282020    2.949190   -4.640260
  H      3.565250    3.514570   -2.982520
  H      4.141570    0.711420   -4.029350
  H      2.785280    1.151460   -3.019440
  H      4.412050    1.250660   -2.389490

 Total Charge           Charge          ....    0
 Multiplicity           Mult            ....    1
 Number of Electrons    NEL             ....   48
 Basis Dimension        Dim             ....  246

ORBITAL ENERGIES
----------------

  NO   OCC          E(Eh)            E(eV)
   0   2.0000     -14.388306      -391.5257
   1   2.0000     -14.384554      -391.4236
   2   2.0000     -10.265199      -279.3303
   3   2.0000     -10.255331      -279.0617
   4   2.0000     -10.216283      -277.9992
   5   2.0000     -10.135602      -275.8037
   6   2.0000      -1.002523       -27.2800
   7   2.0000      -0.915769       -24.9194
   8   2.0000      -0.786090       -21.3906
   9   2.0000      -0.729830       -19.8597
  10   2.0000      -0.663621       -18.0580
  11   2.0000      -0.584548       -15.9064
  12   2.0000      -0.552273       -15.0281
  13   2.0000      -0.532669       -14.4947
  14   2.0000      -0.486179       -13.2296
  15   2.0000      -0.471106       -12.8195
  16   2.0000      -0.418592       -11.3905
  17   2.0000      -0.415601       -11.3091
  18   2.0000      -0.405415       -11.0319
  19   2.0000      -0.385928       -10.5016
  20   2.0000      -0.375449       -10.2165
  21   2.0000      -0.351124        -9.5546
  22   2.0000      -0.270490        -7.3604
  23   2.0000      -0.187086        -5.0909
  24   0.0000       0.028363         0.7718
  25   0.0000       0.057010         1.5513
  26   0.0000       0.065730         1.7886
  27   0.0000       0.075806         2.0628
  28   0.0000       0.091588         2.4922

MULLIKEN ATOMIC CHARGES
-----------------------
   0 C :   -0.064012
   1 N :   -0.284100
   2 C :   -0.403174
   3 C :    0.287240
   4 N :   -0.463869
   5 C :   -0.503699
   6 H :    0.099241
   7 H :    0.085352
   8 H :    0.185086
   9 H :    0.213049
  10 H :    0.245544
  11 H :    0.114574
  12 H :    0.115471
  13 H :    0.124573
  14 H :    0.124858
  15 H :    0.123865
Sum of atomic charges:    0.0000000

LOEWDIN ATOMIC CHARGES
----------------------
   0 C :   -0.295937
   1 N :    0.117630
   2 C :   -0.313290
   3 C :   -0.486525
   4 N :   -0.014856
   5 C :   -0.340190
   6 H :    0.098801
   7 H :    0.098488
   8 H :    0.179537
   9 H :    0.160288
  10 H :    0.177550
  11 H :    0.136962
  12 H :    0.127301
  13 H :    0.116954
  14 H :    0.121171
  15 H :    0.116116

  Mayer bond orders larger than 0.100000
B(  0-C ,  1-N ) :   0.9382 B(  0-C ,  2-C ) :   0.9993 B(  0-C , 11-H ) :   0.9579
B(  0-C , 12-H ) :   0.9602 B(  1-N ,  3-C ) :   1.1866 B(  1-N ,  8-H ) :   0.9266
B(  2-C , 13-H ) :   0.9740 B(  2-C , 14-H ) :   0.9688 B(  2-C , 15-H ) :   0.9725
B(  3-C ,  4-N ) :   1.1527 B(  3-C ,  5-C ) :   1.6270 B(  4-N ,  9-H ) :   0.9096
B(  4-N , 10-H ) :   0.9159 B(  5-C ,  6-H ) :   0.9709 B(  5-C ,  7-H ) :   1.0043

Dispersion correction           -0.010669216
FINAL SINGLE POINT ENERGY      -267.692652847628

DIPOLE MOMENT
-------------
                                X             Y             Z
Electronic contribution:      3.41689       2.05201      -0.98139
Nuclear contribution   :     -3.34013      -3.37002       1.28371
                        -----------------------------------------
Total Dipole Moment    :      0.07676      -1.31801       0.30232
                        -----------------------------------------
Magnitude (a.u.)       :      1.35441
Magnitude (Debye)      :      3.44264

Rotational constants in cm-1:     0.239537     0.072280     0.060961
Rotational constants in MHz :  7181.153552  2166.902802  1827.551447

                             ****ORCA TERMINATED NORMALLY****
TOTAL RUN TIME: 0 days 0 hours 0 minutes 28 seconds 273 msec
