                         Program Version 5.0.0 -  RELEASE  -
|  1> !PBE0 D3BJ RIJCOSX def2-TZVP def2/J TightSCF xyzfile
|  2>
|  3> *xyzfile 0 1 D1.xyz
|  4>
|  5> %MaxCore 64000
|  6>
|  7> %pal nprocs 18
|  8> end
|  9>
| 10> %scf
| 11>   MaxIter 150
| 12> end
| 13>
| 14>
| 15>                          ****END OF INPUT****

CARTESIAN COORDINATES (ANGSTROEM)
---------------------------------
  C      3.905947    2.819855   -3.752920
  C      5.295615    3.131515   -4.105334
  C      3.803511    1.374716   -3.260807
  C      3.939934    0.320362   -4.367729
  H      4.105043   -0.655085   -3.907733
  H      3.022801    0.280517   -4.957117
  C      5.105846    0.668022   -5.305463
  C      5.708619    3.468885   -5.324190
  N      6.904696    3.038954   -5.717084
  N      4.981884    4.293570   -6.097457
  H      5.000546    4.101311   -7.087761
  H      4.084693    4.596899   -5.739652
  H      5.963358    2.526112   -3.642391
  H      7.047164    2.066861   -5.473604
  H      7.198145    3.307994   -6.645225
  H      3.282025    2.949187   -4.640259
  H      3.565254    3.514574   -2.982523
  H      4.574833    1.215157   -2.500443
  H      2.843514    1.260845   -2.751465
  F      4.809132    1.150187   -6.414361
  O      6.267366    0.564999   -4.819481

 Total Charge           Charge          ....    0
 Multiplicity           Mult            ....    1
 Number of Electrons    NEL             ....   78
 Basis Dimension        Dim             ....  376

ORBITAL ENERGIES
----------------

  NO   OCC          E(Eh)            E(eV)
   0   2.0000     -24.848808      -676.1704
   1   2.0000     -19.211529      -522.7723
   2   2.0000     -14.385012      -391.4361
   3   2.0000     -14.363849      -390.8602
   4   2.0000     -10.404317      -283.1159
   5   2.0000     -10.260417      -279.2001
   6   2.0000     -10.248443      -278.8743
   7   2.0000     -10.227986      -278.3177
   8   2.0000     -10.209974      -277.8275
   9   2.0000     -10.146941      -276.1123
  10   2.0000      -1.364362       -37.1262
  11   2.0000      -1.066311       -29.0158
  12   2.0000      -0.986825       -26.8529
  13   2.0000      -0.895280       -24.3618
  14   2.0000      -0.841142       -22.8886
  15   2.0000      -0.774151       -21.0657
  16   2.0000      -0.716475       -19.4963
  17   2.0000      -0.680828       -18.5263
  18   2.0000      -0.627314       -17.0701
  19   2.0000      -0.595686       -16.2094
  20   2.0000      -0.574973       -15.6458
  21   2.0000      -0.558763       -15.2047
  22   2.0000      -0.549811       -14.9611
  23   2.0000      -0.535197       -14.5634
  24   2.0000      -0.517170       -14.0729
  25   2.0000      -0.481483       -13.1018
  26   2.0000      -0.473568       -12.8864
  27   2.0000      -0.455181       -12.3861
  28   2.0000      -0.443937       -12.0801
  29   2.0000      -0.411313       -11.1924
  30   2.0000      -0.399127       -10.8608
  31   2.0000      -0.379913       -10.3379
  32   2.0000      -0.375446       -10.2164
  33   2.0000      -0.358938        -9.7672
  34   2.0000      -0.346664        -9.4332
  35   2.0000      -0.333144        -9.0653
  36   2.0000      -0.311323        -8.4715
  37   2.0000      -0.276633        -7.5276
  38   2.0000      -0.180679        -4.9165
  39   0.0000      -0.029470        -0.8019
  40   0.0000       0.033567         0.9134
  41   0.0000       0.054535         1.4840
  42   0.0000       0.063047         1.7156
  43   0.0000       0.073356         1.9961

MULLIKEN ATOMIC CHARGES
-----------------------
   0 C :   -0.175951
   1 C :   -0.293940
   2 C :   -0.219623
   3 C :   -0.221797
   4 H :    0.133929
   5 H :    0.109259
   6 C :    0.423120
   7 C :    0.121426
   8 N :   -0.413571
   9 N :   -0.456895
  10 H :    0.215316
  11 H :    0.243979
  12 H :    0.117288
  13 H :    0.261743
  14 H :    0.209485
  15 H :    0.062375
  16 H :    0.111950
  17 H :    0.129104
  18 H :    0.109408
  19 F :   -0.087379
  20 O :   -0.379228
Sum of atomic charges:   -0.0000000

LOEWDIN ATOMIC CHARGES
----------------------
   0 C :   -0.289602
   1 C :   -0.264766
   2 C :   -0.250678
   3 C :   -0.228978
   4 H :    0.155782
   5 H :    0.142100
   6 C :   -0.501962
   7 C :   -0.492711
   8 N :   -0.002145
   9 N :   -0.014650
  10 H :    0.155902
  11 H :    0.173204
  12 H :    0.133929
  13 H :    0.166629
  14 H :    0.158713
  15 H :    0.132423
  16 H :    0.136766
  17 H :    0.148018
  18 H :    0.138148
  19 F :    0.354850
  20 O :    0.049029

  Mayer bond orders larger than 0.100000
B(  0-C ,  1-C ) :   1.0057 B(  0-C ,  2-C ) :   0.9910 B(  0-C , 15-H ) :   0.9528
B(  0-C , 16-H ) :   0.9441 B(  1-C ,  7-C ) :   1.6374 B(  1-C , 12-H ) :   1.0233
B(  2-C ,  3-C ) :   1.0072 B(  2-C , 17-H ) :   0.9604 B(  2-C , 18-H ) :   0.9518
B(  3-C ,  4-H ) :   0.9366 B(  3-C ,  5-H ) :   0.9436 B(  3-C ,  6-C ) :   1.0204
B(  6-C , 19-F ) :   1.1718 B(  6-C , 20-O ) :   1.9419 B(  7-C ,  8-N ) :   1.2173
B(  7-C ,  9-N ) :   1.1856 B(  8-N , 13-H ) :   0.8566 B(  8-N , 14-H ) :   0.9216
B(  9-N , 10-H ) :   0.9087 B(  9-N , 11-H ) :   0.9166

Dispersion correction           -0.019655477
FINAL SINGLE POINT ENERGY      -519.425877788383

DIPOLE MOMENT
-------------
                                X             Y             Z
Electronic contribution:      3.43634      -3.60458      -6.51331
Nuclear contribution   :     -4.60158       3.22721       5.56005
                        -----------------------------------------
Total Dipole Moment    :     -1.16525      -0.37736      -0.95326
                        -----------------------------------------
Magnitude (a.u.)       :      1.55207
Magnitude (Debye)      :      3.94504

Rotational constants in cm-1:     0.061224     0.042534     0.033552
Rotational constants in MHz :  1835.464095  1275.135177  1005.856966

                             ****ORCA TERMINATED NORMALLY****
TOTAL RUN TIME: 0 days 0 hours 0 minutes 26 seconds 725 msec
