                         Program Version 5.0.0 -  RELEASE  -
|  1> !PBE0 D3BJ RIJCOSX def2-TZVP def2/J TightSCF xyzfile
|  2>
|  3> *xyzfile 0 1 D2.xyz
|  4>
|  5> %MaxCore 64000
|  6>
|  7> %pal nprocs 18
|  8> end
|  9>
| 10> %scf
| 11>   MaxIter 150
| 12> end
| 13>
| 14>
| 15>                          ****END OF INPUT****

CARTESIAN COORDINATES (ANGSTROEM)
---------------------------------
  C      3.905947    2.819855   -3.752920
  N      5.295615    3.131515   -4.105334
  C      3.803511    1.374716   -3.260807
  C      3.939934    0.320362   -4.367729
  H      4.105043   -0.655085   -3.907733
  H      3.022801    0.280517   -4.957117
  C      5.105846    0.668022   -5.305463
  C      5.708619    3.468885   -5.324190
  C      6.904696    3.038954   -5.717084
  N      4.981884    4.293570   -6.097457
  H      5.000546    4.101311   -7.087761
  H      4.084693    4.596899   -5.739652
  H      5.963358    2.526112   -3.642391
  H      7.047164    2.066861   -5.473604
  H      7.198145    3.307994   -6.645225
  H      3.282025    2.949187   -4.640259
  H      3.565254    3.514574   -2.982523
  H      4.574833    1.215157   -2.500443
  H      2.843514    1.260845   -2.751465
  F      4.809132    1.150187   -6.414361
  O      6.267366    0.564999   -4.819481

 Total Charge           Charge          ....    0
 Multiplicity           Mult            ....    1
 Number of Electrons    NEL             ....   78
 Basis Dimension        Dim             ....  376

ORBITAL ENERGIES
----------------

  NO   OCC          E(Eh)            E(eV)
   0   2.0000     -24.849086      -676.1780
   1   2.0000     -19.211961      -522.7840
   2   2.0000     -14.386098      -391.4656
   3   2.0000     -14.380978      -391.3263
   4   2.0000     -10.406006      -283.1618
   5   2.0000     -10.269332      -279.4427
   6   2.0000     -10.260837      -279.2116
   7   2.0000     -10.256882      -279.1039
   8   2.0000     -10.252503      -278.9848
   9   2.0000     -10.113505      -275.2025
  10   2.0000      -1.364313       -37.1249
  11   2.0000      -1.066756       -29.0279
  12   2.0000      -0.996684       -27.1212
  13   2.0000      -0.914449       -24.8834
  14   2.0000      -0.843535       -22.9537
  15   2.0000      -0.766582       -20.8598
  16   2.0000      -0.721898       -19.6438
  17   2.0000      -0.686076       -18.6691
  18   2.0000      -0.640825       -17.4377
  19   2.0000      -0.612438       -16.6653
  20   2.0000      -0.578815       -15.7503
  21   2.0000      -0.564261       -15.3543
  22   2.0000      -0.551738       -15.0136
  23   2.0000      -0.528002       -14.3677
  24   2.0000      -0.512577       -13.9479
  25   2.0000      -0.497719       -13.5436
  26   2.0000      -0.483380       -13.1534
  27   2.0000      -0.456836       -12.4311
  28   2.0000      -0.432315       -11.7639
  29   2.0000      -0.419219       -11.4075
  30   2.0000      -0.408455       -11.1146
  31   2.0000      -0.404230       -10.9997
  32   2.0000      -0.380889       -10.3645
  33   2.0000      -0.379359       -10.3229
  34   2.0000      -0.357030        -9.7153
  35   2.0000      -0.348793        -9.4911
  36   2.0000      -0.295827        -8.0499
  37   2.0000      -0.270402        -7.3580
  38   2.0000      -0.175325        -4.7708
  39   0.0000      -0.034226        -0.9313
  40   0.0000       0.028437         0.7738
  41   0.0000       0.047487         1.2922
  42   0.0000       0.061123         1.6633
  43   0.0000       0.067495         1.8366

MULLIKEN ATOMIC CHARGES
-----------------------
   0 C :   -0.138536
   1 N :   -0.264497
   2 C :   -0.264135
   3 C :   -0.200167
   4 H :    0.140127
   5 H :    0.115502
   6 C :    0.384437
   7 C :    0.190072
   8 C :   -0.473003
   9 N :   -0.471810
  10 H :    0.251308
  11 H :    0.219476
  12 H :    0.240603
  13 H :    0.148609
  14 H :    0.068102
  15 H :    0.098663
  16 H :    0.131145
  17 H :    0.137201
  18 H :    0.120161
  19 F :   -0.076825
  20 O :   -0.356433
Sum of atomic charges:    0.0000000

LOEWDIN ATOMIC CHARGES
----------------------
   0 C :   -0.289776
   1 N :    0.125096
   2 C :   -0.263522
   3 C :   -0.231700
   4 H :    0.157454
   5 H :    0.143154
   6 C :   -0.503428
   7 C :   -0.503696
   8 C :   -0.337633
   9 N :   -0.013409
  10 H :    0.174386
  11 H :    0.157662
  12 H :    0.202478
  13 H :    0.105437
  14 H :    0.095224
  15 H :    0.131530
  16 H :    0.130170
  17 H :    0.147342
  18 H :    0.143930
  19 F :    0.363013
  20 O :    0.066287

  Mayer bond orders larger than 0.100000
B(  0-C ,  1-N ) :   0.9670 B(  0-C ,  2-C ) :   0.9979 B(  0-C , 15-H ) :   0.9635
B(  0-C , 16-H ) :   0.9567 B(  1-N ,  7-C ) :   1.1942 B(  1-N , 12-H ) :   0.9095
B(  2-C ,  3-C ) :   0.9981 B(  2-C , 17-H ) :   0.9603 B(  2-C , 18-H ) :   0.9501
B(  3-C ,  4-H ) :   0.9393 B(  3-C ,  5-H ) :   0.9445 B(  3-C ,  6-C ) :   1.0042
B(  6-C , 19-F ) :   1.1856 B(  6-C , 20-O ) :   1.9950 B(  7-C ,  8-C ) :   1.7009
B(  7-C ,  9-N ) :   1.0875 B(  8-C , 13-H ) :   0.9486 B(  8-C , 14-H ) :   1.0090
B(  9-N , 10-H ) :   0.9144 B(  9-N , 11-H ) :   0.9252

Dispersion correction           -0.019558826
FINAL SINGLE POINT ENERGY      -519.395903371319

DIPOLE MOMENT
-------------
                                X             Y             Z
Electronic contribution:      2.06568      -3.75180      -5.19406
Nuclear contribution   :     -4.40347       3.21582       5.36161
                        -----------------------------------------
Total Dipole Moment    :     -2.33780      -0.53599       0.16756
                        -----------------------------------------
Magnitude (a.u.)       :      2.40430
Magnitude (Debye)      :      6.11124

Rotational constants in cm-1:     0.061226     0.043199     0.033926
Rotational constants in MHz :  1835.503528  1295.087558  1017.061512

                             ****ORCA TERMINATED NORMALLY****
TOTAL RUN TIME: 0 days 0 hours 0 minutes 29 seconds 247 msec
