                         Program Version 5.0.0 -  RELEASE  -
|  1> !PBE0 D3BJ RIJCOSX def2-TZVP def2/J TightSCF xyzfile
|  2>
|  3> *xyzfile 0 1 D4.xyz
|  4>
|  5> %MaxCore 64000
|  6>
|  7> %pal nprocs 18
|  8> end
|  9>
| 10> %scf
| 11>   MaxIter 150
| 12> end
| 13>
| 14>
| 15>                          ****END OF INPUT****

CARTESIAN COORDINATES (ANGSTROEM)
---------------------------------
  C      3.905947    2.819855   -3.752920
  C      5.295615    3.131515   -4.105334
  C      3.803511    1.374716   -3.260807
  C      3.939934    0.320362   -4.367729
  H      4.105043   -0.655085   -3.907733
  H      3.022801    0.280517   -4.957117
  C      5.105846    0.668022   -5.305463
  C      5.708619    3.468885   -5.324190
  N      6.904696    3.038954   -5.717084
  N      4.981884    4.293570   -6.097457
  H      5.000546    4.101311   -7.087761
  H      4.084693    4.596899   -5.739652
  H      5.963358    2.526112   -3.642391
  H      7.047164    2.066861   -5.473604
  H      7.198145    3.307994   -6.645225
  H      3.282025    2.949187   -4.640259
  H      3.565254    3.514574   -2.982523
  H      4.574833    1.215157   -2.500443
  H      2.843514    1.260845   -2.751465
  O      4.809132    1.150187   -6.414361
  F      6.267366    0.564999   -4.819481

 Total Charge           Charge          ....    0
 Multiplicity           Mult            ....    1
 Number of Electrons    NEL             ....   78
 Basis Dimension        Dim             ....  376

ORBITAL ENERGIES
----------------

  NO   OCC          E(Eh)            E(eV)
   0   2.0000     -24.845978      -676.0934
   1   2.0000     -19.208012      -522.6766
   2   2.0000     -14.383187      -391.3864
   3   2.0000     -14.372528      -391.0964
   4   2.0000     -10.396890      -282.9138
   5   2.0000     -10.263386      -279.2809
   6   2.0000     -10.245390      -278.7912
   7   2.0000     -10.228092      -278.3205
   8   2.0000     -10.207388      -277.7571
   9   2.0000     -10.148061      -276.1428
  10   2.0000      -1.356903       -36.9232
  11   2.0000      -1.067972       -29.0610
  12   2.0000      -0.988365       -26.8948
  13   2.0000      -0.897810       -24.4307
  14   2.0000      -0.840493       -22.8710
  15   2.0000      -0.772888       -21.0314
  16   2.0000      -0.715247       -19.4629
  17   2.0000      -0.678524       -18.4636
  18   2.0000      -0.627165       -17.0660
  19   2.0000      -0.605478       -16.4759
  20   2.0000      -0.571505       -15.5514
  21   2.0000      -0.559560       -15.2264
  22   2.0000      -0.543709       -14.7951
  23   2.0000      -0.524574       -14.2744
  24   2.0000      -0.516427       -14.0527
  25   2.0000      -0.482329       -13.1248
  26   2.0000      -0.477113       -12.9829
  27   2.0000      -0.455867       -12.4048
  28   2.0000      -0.442088       -12.0298
  29   2.0000      -0.411182       -11.1888
  30   2.0000      -0.396906       -10.8004
  31   2.0000      -0.383875       -10.4458
  32   2.0000      -0.375010       -10.2045
  33   2.0000      -0.357213        -9.7203
  34   2.0000      -0.347912        -9.4672
  35   2.0000      -0.338311        -9.2059
  36   2.0000      -0.302318        -8.2265
  37   2.0000      -0.277437        -7.5494
  38   2.0000      -0.182835        -4.9752
  39   0.0000      -0.020704        -0.5634
  40   0.0000       0.038466         1.0467
  41   0.0000       0.053286         1.4500
  42   0.0000       0.064274         1.7490
  43   0.0000       0.074051         2.0150

MULLIKEN ATOMIC CHARGES
-----------------------
   0 C :   -0.150137
   1 C :   -0.293310
   2 C :   -0.253431
   3 C :   -0.211555
   4 H :    0.123065
   5 H :    0.123789
   6 C :    0.384704
   7 C :    0.157220
   8 N :   -0.405770
   9 N :   -0.459985
  10 H :    0.226674
  11 H :    0.243541
  12 H :    0.092421
  13 H :    0.241076
  14 H :    0.217740
  15 H :    0.071012
  16 H :    0.110243
  17 H :    0.125583
  18 H :    0.110816
  19 O :   -0.326012
  20 F :   -0.127682
Sum of atomic charges:    0.0000000

LOEWDIN ATOMIC CHARGES
----------------------
   0 C :   -0.287405
   1 C :   -0.276827
   2 C :   -0.256809
   3 C :   -0.228502
   4 H :    0.145882
   5 H :    0.154001
   6 C :   -0.512344
   7 C :   -0.480905
   8 N :    0.001797
   9 N :   -0.003314
  10 H :    0.161633
  11 H :    0.174579
  12 H :    0.125770
  13 H :    0.166963
  14 H :    0.162774
  15 H :    0.137362
  16 H :    0.136207
  17 H :    0.143042
  18 H :    0.138719
  19 O :    0.082504
  20 F :    0.314874

  Mayer bond orders larger than 0.100000
B(  0-C ,  1-C ) :   0.9952 B(  0-C ,  2-C ) :   0.9852 B(  0-C , 15-H ) :   0.9484
B(  0-C , 16-H ) :   0.9446 B(  1-C ,  7-C ) :   1.6357 B(  1-C , 12-H ) :   1.0399
B(  2-C ,  3-C ) :   1.0018 B(  2-C , 17-H ) :   0.9662 B(  2-C , 18-H ) :   0.9503
B(  3-C ,  4-H ) :   0.9350 B(  3-C ,  5-H ) :   0.9535 B(  3-C ,  6-C ) :   1.0295
B(  6-C , 19-O ) :   2.0544 B(  6-C , 20-F ) :   1.0909 B(  7-C ,  8-N ) :   1.1959
B(  7-C ,  9-N ) :   1.1919 B(  8-N , 13-H ) :   0.9010 B(  8-N , 14-H ) :   0.9217
B(  9-N , 10-H ) :   0.9089 B(  9-N , 11-H ) :   0.9173

Dispersion correction           -0.019692227
FINAL SINGLE POINT ENERGY      -519.426569524468

DIPOLE MOMENT
-------------
                                X             Y             Z
Electronic contribution:      5.86479      -4.47713      -3.97003
Nuclear contribution   :     -6.25608       3.89116       3.75052
                        -----------------------------------------
Total Dipole Moment    :     -0.39129      -0.58597      -0.21950
                        -----------------------------------------
Magnitude (a.u.)       :      0.73801
Magnitude (Debye)      :      1.87587

Rotational constants in cm-1:     0.061229     0.042568     0.033282
Rotational constants in MHz :  1835.590871  1276.154029   997.769927

                             ****ORCA TERMINATED NORMALLY****
TOTAL RUN TIME: 0 days 0 hours 0 minutes 24 seconds 879 msec
