                         Program Version 5.0.0 -  RELEASE  -
|  1> !PBE0 D3BJ RIJCOSX def2-TZVP def2/J TightSCF xyzfile
|  2>
|  3> *xyzfile 0 1 D5.xyz
|  4>
|  5> %MaxCore 64000
|  6>
|  7> %pal nprocs 18
|  8> end
|  9>
| 10> %scf
| 11>   MaxIter 150
| 12> end
| 13>
| 14>
| 15>                          ****END OF INPUT****

CARTESIAN COORDINATES (ANGSTROEM)
---------------------------------
  C      3.905947    2.819855   -3.752920
  N      5.295615    3.131515   -4.105334
  C      3.803511    1.374716   -3.260807
  C      3.939934    0.320362   -4.367729
  H      4.105043   -0.655085   -3.907733
  H      3.022801    0.280517   -4.957117
  C      5.105846    0.668022   -5.305463
  C      5.708619    3.468885   -5.324190
  C      6.904696    3.038954   -5.717084
  N      4.981884    4.293570   -6.097457
  H      5.000546    4.101311   -7.087761
  H      4.084693    4.596899   -5.739652
  H      5.963358    2.526112   -3.642391
  H      7.047164    2.066861   -5.473604
  H      7.198145    3.307994   -6.645225
  H      3.282025    2.949187   -4.640259
  H      3.565254    3.514574   -2.982523
  H      4.574833    1.215157   -2.500443
  H      2.843514    1.260845   -2.751465
  O      4.809132    1.150187   -6.414361
  F      6.267366    0.564999   -4.819481

 Total Charge           Charge          ....    0
 Multiplicity           Mult            ....    1
 Number of Electrons    NEL             ....   78
 Basis Dimension        Dim             ....  376

ORBITAL ENERGIES
----------------

  NO   OCC          E(Eh)            E(eV)
   0   2.0000     -24.842608      -676.0017
   1   2.0000     -19.212901      -522.8096
   2   2.0000     -14.391397      -391.6098
   3   2.0000     -14.378078      -391.2474
   4   2.0000     -10.399855      -282.9944
   5   2.0000     -10.268587      -279.4225
   6   2.0000     -10.259108      -279.1645
   7   2.0000     -10.258925      -279.1595
   8   2.0000     -10.253890      -279.0225
   9   2.0000     -10.118795      -275.3464
  10   2.0000      -1.354140       -36.8480
  11   2.0000      -1.071305       -29.1517
  12   2.0000      -0.998204       -27.1625
  13   2.0000      -0.913946       -24.8697
  14   2.0000      -0.843733       -22.9591
  15   2.0000      -0.766349       -20.8534
  16   2.0000      -0.722731       -19.6665
  17   2.0000      -0.680884       -18.5278
  18   2.0000      -0.641883       -17.4665
  19   2.0000      -0.616589       -16.7782
  20   2.0000      -0.573281       -15.5998
  21   2.0000      -0.570520       -15.5246
  22   2.0000      -0.537526       -14.6268
  23   2.0000      -0.524337       -14.2679
  24   2.0000      -0.514163       -13.9911
  25   2.0000      -0.501170       -13.6375
  26   2.0000      -0.480919       -13.0865
  27   2.0000      -0.456500       -12.4220
  28   2.0000      -0.435437       -11.8488
  29   2.0000      -0.418066       -11.3761
  30   2.0000      -0.407426       -11.0866
  31   2.0000      -0.395213       -10.7543
  32   2.0000      -0.386055       -10.5051
  33   2.0000      -0.378323       -10.2947
  34   2.0000      -0.371801       -10.1172
  35   2.0000      -0.336762        -9.1638
  36   2.0000      -0.306001        -8.3267
  37   2.0000      -0.273368        -7.4387
  38   2.0000      -0.175983        -4.7887
  39   0.0000      -0.025372        -0.6904
  40   0.0000       0.029559         0.8043
  41   0.0000       0.046162         1.2561
  42   0.0000       0.061528         1.6743
  43   0.0000       0.069709         1.8969

MULLIKEN ATOMIC CHARGES
-----------------------
   0 C :   -0.119352
   1 N :   -0.258703
   2 C :   -0.290571
   3 C :   -0.192927
   4 H :    0.131397
   5 H :    0.129996
   6 C :    0.351752
   7 C :    0.227521
   8 C :   -0.445754
   9 N :   -0.477389
  10 H :    0.259652
  11 H :    0.219110
  12 H :    0.221269
  13 H :    0.094969
  14 H :    0.071976
  15 H :    0.107610
  16 H :    0.129842
  17 H :    0.134813
  18 H :    0.121778
  19 O :   -0.302699
  20 F :   -0.114292
Sum of atomic charges:   -0.0000000

LOEWDIN ATOMIC CHARGES
----------------------
   0 C :   -0.286748
   1 N :    0.124898
   2 C :   -0.269464
   3 C :   -0.230804
   4 H :    0.148270
   5 H :    0.155299
   6 C :   -0.511776
   7 C :   -0.493060
   8 C :   -0.339374
   9 N :   -0.004440
  10 H :    0.178583
  11 H :    0.158820
  12 H :    0.194990
  13 H :    0.098004
  14 H :    0.097296
  15 H :    0.136940
  16 H :    0.129970
  17 H :    0.142814
  18 H :    0.144499
  19 O :    0.103463
  20 F :    0.321819

  Mayer bond orders larger than 0.100000
B(  0-C ,  1-N ) :   0.9541 B(  0-C ,  2-C ) :   0.9924 B(  0-C , 15-H ) :   0.9605
B(  0-C , 16-H ) :   0.9553 B(  1-N ,  7-C ) :   1.1942 B(  1-N , 12-H ) :   0.9151
B(  2-C ,  3-C ) :   0.9876 B(  2-C , 17-H ) :   0.9659 B(  2-C , 18-H ) :   0.9479
B(  3-C ,  4-H ) :   0.9396 B(  3-C ,  5-H ) :   0.9552 B(  3-C ,  6-C ) :   1.0140
B(  6-C , 19-O ) :   2.0683 B(  6-C , 20-F ) :   1.1267 B(  7-C ,  8-C ) :   1.6863
B(  7-C ,  9-N ) :   1.0974 B(  8-C , 13-H ) :   0.9722 B(  8-C , 14-H ) :   1.0086
B(  9-N , 10-H ) :   0.9139 B(  9-N , 11-H ) :   0.9267

Dispersion correction           -0.019595787
FINAL SINGLE POINT ENERGY      -519.400993611197

DIPOLE MOMENT
-------------
                                X             Y             Z
Electronic contribution:      4.41027      -4.63256      -2.62474
Nuclear contribution   :     -6.05797       3.87976       3.55209
                        -----------------------------------------
Total Dipole Moment    :     -1.64769      -0.75280       0.92734
                        -----------------------------------------
Magnitude (a.u.)       :      2.03508
Magnitude (Debye)      :      5.17277

Rotational constants in cm-1:     0.061282     0.043164     0.033679
Rotational constants in MHz :  1837.191639  1294.028651  1009.659886

                             ****ORCA TERMINATED NORMALLY****
TOTAL RUN TIME: 0 days 0 hours 0 minutes 30 seconds 665 msec
