                         Program Version 5.0.0 -  RELEASE  -
|  1> !PBE0 D3BJ RIJCOSX def2-SVPD def2/J TightSCF
|  2> *xyz -1 1
|  3> C         -0.91495        0.61511        2.50554
|  4> C         -0.05915        1.50352        3.41058
|  5> H          0.36536        2.34431        2.86116
|  6> H         -0.69226        1.92021        4.19898
|  7> C          1.08303        0.74964        4.08571
|  8> O          2.22817        1.26348        4.01983
|  9> O          0.81003       -0.34541        4.63627
| 10> C         -0.13074       -0.19398        1.47076
| 11> H         -1.64796        1.24596        1.99108
| 12> H         -1.47818       -0.08105        3.13042
| 13> H         -0.80952       -0.78099        0.88803
| 14> H          0.55985       -0.83974        1.97175
| 15> H          0.40595        0.47288        0.82877
| 16> *
| 17>
| 18> %MaxCore 64000
| 19>
| 20> %pal nprocs 4
| 21> end
| 22>
| 23> %scf
| 24>   MaxIter 150
| 25> end
| 26>
| 27>
| 28>                          ****END OF INPUT****

CARTESIAN COORDINATES (ANGSTROEM)
---------------------------------
  C     -0.914950    0.615110    2.505540
  C     -0.059150    1.503520    3.410580
  H      0.365360    2.344310    2.861160
  H     -0.692260    1.920210    4.198980
  C      1.083030    0.749640    4.085710
  O      2.228170    1.263480    4.019830
  O      0.810030   -0.345410    4.636270
  C     -0.130740   -0.193980    1.470760
  H     -1.647960    1.245960    1.991080
  H     -1.478180   -0.081050    3.130420
  H     -0.809520   -0.780990    0.888030
  H      0.559850   -0.839740    1.971750
  H      0.405950    0.472880    0.828770

 Total Charge           Charge          ....   -1
 Multiplicity           Mult            ....    1
 Number of Electrons    NEL             ....   48
 Basis Dimension        Dim             ....  182

ORBITAL ENERGIES
----------------

  NO   OCC          E(Eh)            E(eV)
   0   2.0000     -18.956877      -515.8428
   1   2.0000     -18.956170      -515.8236
   2   2.0000     -10.118331      -275.3338
   3   2.0000     -10.084862      -274.4231
   4   2.0000     -10.076389      -274.1925
   5   2.0000     -10.059827      -273.7418
   6   2.0000      -0.842713       -22.9314
   7   2.0000      -0.747786       -20.3483
   8   2.0000      -0.653964       -17.7953
   9   2.0000      -0.558175       -15.1887
  10   2.0000      -0.459160       -12.4944
  11   2.0000      -0.341099        -9.2818
  12   2.0000      -0.318515        -8.6672
  13   2.0000      -0.303839        -8.2679
  14   2.0000      -0.270111        -7.3501
  15   2.0000      -0.249339        -6.7849
  16   2.0000      -0.228491        -6.2175
  17   2.0000      -0.221262        -6.0209
  18   2.0000      -0.208360        -5.6698
  19   2.0000      -0.187767        -5.1094
  20   2.0000      -0.176786        -4.8106
  21   2.0000      -0.065776        -1.7899
  22   2.0000      -0.057876        -1.5749
  23   2.0000      -0.044835        -1.2200
  24   0.0000       0.153510         4.1772
  25   0.0000       0.177465         4.8291
  26   0.0000       0.194700         5.2981
  27   0.0000       0.205450         5.5906
  28   0.0000       0.225717         6.1421

MULLIKEN ATOMIC CHARGES
-----------------------
   0 C :   -0.525094
   1 C :   -0.011181
   2 H :    0.046620
   3 H :    0.030423
   4 C :    0.580834
   5 O :   -0.757364
   6 O :   -0.810979
   7 C :    0.480600
   8 H :   -0.112121
   9 H :    0.069573
  10 H :   -0.020804
  11 H :    0.007333
  12 H :    0.022162
Sum of atomic charges:   -1.0000000

LOEWDIN ATOMIC CHARGES
----------------------
   0 C :   -0.096959
   1 C :   -0.007642
   2 H :    0.004130
   3 H :    0.013698
   4 C :   -0.299746
   5 O :   -0.333337
   6 O :   -0.324534
   7 C :    0.109627
   8 H :   -0.000781
   9 H :    0.012574
  10 H :   -0.035162
  11 H :   -0.019280
  12 H :   -0.022589

  Mayer bond orders larger than 0.100000
B(  0-C ,  1-C ) :   1.2015 B(  0-C ,  2-H ) :   0.1270 B(  0-C ,  3-H ) :   0.1094
B(  0-C ,  7-C ) :   1.3393 B(  0-C ,  8-H ) :   1.0137 B(  0-C ,  9-H ) :   0.9040
B(  0-C , 10-H ) :   0.1912 B(  0-C , 11-H ) :   0.1934 B(  0-C , 12-H ) :   0.1853
B(  1-C ,  2-H ) :   0.8975 B(  1-C ,  3-H ) :   0.8562 B(  1-C ,  4-C ) :   1.0366
B(  1-C ,  9-H ) :   0.1156 B(  2-H ,  4-C ) :   0.1948 B(  4-C ,  5-O ) :   1.3352
B(  4-C ,  6-O ) :   1.3750 B(  7-C , 10-H ) :   0.7943 B(  7-C , 11-H ) :   0.8704
B(  7-C , 12-H ) :   0.8193

Dispersion correction           -0.008345296
FINAL SINGLE POINT ENERGY      -306.605833456397

DIPOLE MOMENT
-------------
                                X             Y             Z
Electronic contribution:      4.60633       0.20175       5.51946
Nuclear contribution   :     -6.45806       0.15825      -7.12052
                        -----------------------------------------
Total Dipole Moment    :     -1.85173       0.35999      -1.60107
                        -----------------------------------------
Magnitude (a.u.)       :      2.47425
Magnitude (Debye)      :      6.28905

Rotational constants in cm-1:     0.199323     0.080770     0.077827
Rotational constants in MHz :  5975.562678  2421.415024  2333.195390

                             ****ORCA TERMINATED NORMALLY****
TOTAL RUN TIME: 0 days 0 hours 0 minutes 17 seconds 36 msec
