                         Program Version 5.0.0 -  RELEASE  -
|  1> !PBE0 D3BJ RIJCOSX def2-SVPD def2/J TightSCF
|  2> *xyz 1 1
|  3> C          4.60295       -2.44010        2.63478
|  4> C          3.86085       -1.59157        3.62289
|  5> N          2.75650       -2.04616        4.16633
|  6> N          4.25433       -0.36291        3.86046
|  7> H          3.56526        0.31099        4.16898
|  8> H          5.05429       -0.01606        3.33784
|  9> H          2.43970       -2.97389        3.89740
| 10> H          2.06687       -1.41253        4.54981
| 11> C          3.74469       -2.58056        1.36188
| 12> C          3.20372       -1.25600        0.82621
| 13> H          2.89894       -3.23929        1.58307
| 14> H          4.33496       -3.09552        0.60019
| 15> H          5.56156       -1.97135        2.40708
| 16> H          4.81050       -3.42255        3.06310
| 17> H          2.62184       -1.43789       -0.05313
| 18> H          4.02069       -0.60826        0.58562
| 19> H          2.58975       -0.79418        1.57097
| 20> *
| 21>
| 22> %MaxCore 64000
| 23>
| 24> %pal nprocs 4
| 25> end
| 26>
| 27> %scf
| 28>   MaxIter 150
| 29> end
| 30>
| 31>
| 32>                          ****END OF INPUT****

CARTESIAN COORDINATES (ANGSTROEM)
---------------------------------
  C      4.602950   -2.440100    2.634780
  C      3.860850   -1.591570    3.622890
  N      2.756500   -2.046160    4.166330
  N      4.254330   -0.362910    3.860460
  H      3.565260    0.310990    4.168980
  H      5.054290   -0.016060    3.337840
  H      2.439700   -2.973890    3.897400
  H      2.066870   -1.412530    4.549810
  C      3.744690   -2.580560    1.361880
  C      3.203720   -1.256000    0.826210
  H      2.898940   -3.239290    1.583070
  H      4.334960   -3.095520    0.600190
  H      5.561560   -1.971350    2.407080
  H      4.810500   -3.422550    3.063100
  H      2.621840   -1.437890   -0.053130
  H      4.020690   -0.608260    0.585620
  H      2.589750   -0.794180    1.570970

 Total Charge           Charge          ....    1
 Multiplicity           Mult            ....    1
 Number of Electrons    NEL             ....   48
 Basis Dimension        Dim             ....  208

ORBITAL ENERGIES
----------------

  NO   OCC          E(Eh)            E(eV)
   0   2.0000     -14.640253      -398.3815
   1   2.0000     -14.639969      -398.3738
   2   2.0000     -10.553825      -287.1842
   3   2.0000     -10.431098      -283.8446
   4   2.0000     -10.402323      -283.0616
   5   2.0000     -10.368217      -282.1335
   6   2.0000      -1.226454       -33.3735
   7   2.0000      -1.126353       -30.6496
   8   2.0000      -0.995867       -27.0989
   9   2.0000      -0.906780       -24.6747
  10   2.0000      -0.851726       -23.1766
  11   2.0000      -0.800300       -21.7773
  12   2.0000      -0.788621       -21.4595
  13   2.0000      -0.750031       -20.4094
  14   2.0000      -0.711795       -19.3689
  15   2.0000      -0.681794       -18.5526
  16   2.0000      -0.643653       -17.5147
  17   2.0000      -0.608018       -16.5450
  18   2.0000      -0.589582       -16.0433
  19   2.0000      -0.581225       -15.8159
  20   2.0000      -0.524660       -14.2767
  21   2.0000      -0.522243       -14.2110
  22   2.0000      -0.510260       -13.8849
  23   2.0000      -0.506022       -13.7696
  24   0.0000      -0.211248        -5.7483
  25   0.0000      -0.149689        -4.0732
  26   0.0000      -0.110338        -3.0025
  27   0.0000      -0.106051        -2.8858
  28   0.0000      -0.078513        -2.1364

MULLIKEN ATOMIC CHARGES
-----------------------
   0 C :    0.175901
   1 C :    0.637872
   2 N :   -0.077183
   3 N :   -0.113273
   4 H :   -0.041023
   5 H :    0.107612
   6 H :    0.100485
   7 H :   -0.082251
   8 C :   -0.443476
   9 C :    0.616912
  10 H :    0.072345
  11 H :   -0.086847
  12 H :    0.092165
  13 H :    0.054948
  14 H :   -0.051691
  15 H :    0.028422
  16 H :    0.009082
Sum of atomic charges:    1.0000000

LOEWDIN ATOMIC CHARGES
----------------------
   0 C :    0.050229
   1 C :   -0.064851
   2 N :    0.286492
   3 N :    0.285674
   4 H :    0.051495
   5 H :    0.054047
   6 H :    0.054544
   7 H :    0.052564
   8 C :   -0.043207
   9 C :    0.137904
  10 H :    0.026120
  11 H :    0.043597
  12 H :    0.041226
  13 H :    0.050991
  14 H :    0.004111
  15 H :   -0.003559
  16 H :   -0.027377

  Mayer bond orders larger than 0.100000
B(  0-C ,  1-C ) :   1.1949 B(  0-C ,  8-C ) :   1.1499 B(  0-C , 12-H ) :   0.8072
B(  0-C , 13-H ) :   0.8400 B(  1-C ,  2-N ) :   1.0353 B(  1-C ,  3-N ) :   1.0070
B(  1-C ,  4-H ) :  -0.1332 B(  1-C ,  7-H ) :  -0.1226 B(  1-C , 12-H ) :   0.1450
B(  1-C , 13-H ) :   0.1611 B(  2-N ,  3-N ) :   0.1779 B(  2-N ,  6-H ) :   1.0138
B(  2-N ,  7-H ) :   1.2328 B(  3-N ,  4-H ) :   1.2058 B(  3-N ,  5-H ) :   0.9933
B(  4-H ,  5-H ) :  -0.1342 B(  6-H ,  7-H ) :  -0.1516 B(  8-C ,  9-C ) :   1.3559
B(  8-C , 10-H ) :   0.9025 B(  8-C , 11-H ) :   1.0230 B(  8-C , 12-H ) :   0.1249
B(  8-C , 14-H ) :   0.1938 B(  8-C , 15-H ) :   0.1770 B(  8-C , 16-H ) :   0.1987
B(  9-C , 14-H ) :   0.8062 B(  9-C , 15-H ) :   0.7984 B(  9-C , 16-H ) :   0.8273

Dispersion correction           -0.012067883
FINAL SINGLE POINT ENERGY      -267.858444725096

DIPOLE MOMENT
-------------
                                X             Y             Z
Electronic contribution:      0.49473       0.57092       5.20134
Nuclear contribution   :     -0.82989      -0.08664      -4.26094
                        -----------------------------------------
Total Dipole Moment    :     -0.33516       0.48428       0.94040
                        -----------------------------------------
Magnitude (a.u.)       :      1.10960
Magnitude (Debye)      :      2.82038

Rotational constants in cm-1:     0.166042     0.084809     0.078793
Rotational constants in MHz :  4977.819890  2542.513379  2362.161076

                             ****ORCA TERMINATED NORMALLY****
TOTAL RUN TIME: 0 days 0 hours 0 minutes 20 seconds 594 msec
