                         Program Version 5.0.0 -  RELEASE  -
|  1> !PBE0 D3BJ RIJCOSX def2-SVPD def2/J TightSCF
|  2> *xyz 0 1
|  3> C         -0.91495        0.61511        2.50554
|  4> C         -0.05915        1.50352        3.41058
|  5> H          0.36536        2.34431        2.86116
|  6> H         -0.69226        1.92021        4.19898
|  7> C          1.08303        0.74964        4.08571
|  8> F          2.22817        1.26348        4.01983
|  9> O          0.81003       -0.34541        4.63627
| 10> C         -0.13074       -0.19398        1.47076
| 11> H         -1.64796        1.24596        1.99108
| 12> H         -1.47818       -0.08105        3.13042
| 13> H         -0.80952       -0.78099        0.88803
| 14> H          0.55985       -0.83974        1.97175
| 15> H          0.40595        0.47288        0.82877
| 16> *
| 17>
| 18> %MaxCore 64000
| 19>
| 20> %pal nprocs 4
| 21> end
| 22>
| 23> %scf
| 24>   MaxIter 150
| 25> end
| 26>
| 27>
| 28>                          ****END OF INPUT****

CARTESIAN COORDINATES (ANGSTROEM)
---------------------------------
  C     -0.914950    0.615110    2.505540
  C     -0.059150    1.503520    3.410580
  H      0.365360    2.344310    2.861160
  H     -0.692260    1.920210    4.198980
  C      1.083030    0.749640    4.085710
  F      2.228170    1.263480    4.019830
  O      0.810030   -0.345410    4.636270
  C     -0.130740   -0.193980    1.470760
  H     -1.647960    1.245960    1.991080
  H     -1.478180   -0.081050    3.130420
  H     -0.809520   -0.780990    0.888030
  H      0.559850   -0.839740    1.971750
  H      0.405950    0.472880    0.828770

 Total Charge           Charge          ....    0
 Multiplicity           Mult            ....    1
 Number of Electrons    NEL             ....   48
 Basis Dimension        Dim             ....  182

ORBITAL ENERGIES
----------------

  NO   OCC          E(Eh)            E(eV)
   0   2.0000     -24.856251      -676.3730
   1   2.0000     -19.227154      -523.1974
   2   2.0000     -10.415684      -283.4252
   3   2.0000     -10.265105      -279.3277
   4   2.0000     -10.248295      -278.8703
   5   2.0000     -10.224534      -278.2237
   6   2.0000      -1.339344       -36.4454
   7   2.0000      -1.055387       -28.7186
   8   2.0000      -0.832081       -22.6421
   9   2.0000      -0.747890       -20.3511
  10   2.0000      -0.683273       -18.5928
  11   2.0000      -0.627681       -17.0801
  12   2.0000      -0.569473       -15.4962
  13   2.0000      -0.550994       -14.9933
  14   2.0000      -0.527916       -14.3653
  15   2.0000      -0.481956       -13.1147
  16   2.0000      -0.471499       -12.8301
  17   2.0000      -0.433793       -11.8041
  18   2.0000      -0.419978       -11.4282
  19   2.0000      -0.386946       -10.5293
  20   2.0000      -0.370276       -10.0757
  21   2.0000      -0.362548        -9.8654
  22   2.0000      -0.357977        -9.7411
  23   2.0000      -0.310742        -8.4557
  24   0.0000      -0.030302        -0.8246
  25   0.0000       0.021825         0.5939
  26   0.0000       0.049389         1.3440
  27   0.0000       0.054201         1.4749
  28   0.0000       0.066221         1.8020

MULLIKEN ATOMIC CHARGES
-----------------------
   0 C :   -0.477351
   1 C :   -0.095095
   2 H :    0.088301
   3 H :    0.093223
   4 C :    0.886249
   5 F :   -0.405230
   6 O :   -0.603202
   7 C :    0.497723
   8 H :   -0.077900
   9 H :    0.076572
  10 H :    0.001125
  11 H :   -0.014220
  12 H :    0.029804
Sum of atomic charges:   -0.0000000

LOEWDIN ATOMIC CHARGES
----------------------
   0 C :   -0.067531
   1 C :    0.034800
   2 H :    0.026684
   3 H :    0.044187
   4 C :   -0.000718
   5 F :   -0.038243
   6 O :   -0.137921
   7 C :    0.127878
   8 H :    0.026340
   9 H :    0.028997
  10 H :   -0.012440
  11 H :   -0.019008
  12 H :   -0.013024

  Mayer bond orders larger than 0.100000
B(  0-C ,  1-C ) :   1.2351 B(  0-C ,  2-H ) :   0.1244 B(  0-C ,  3-H ) :   0.1127
B(  0-C ,  7-C ) :   1.3628 B(  0-C ,  8-H ) :   0.9948 B(  0-C ,  9-H ) :   0.9024
B(  0-C , 10-H ) :   0.1784 B(  0-C , 11-H ) :   0.1781 B(  0-C , 12-H ) :   0.1761
B(  1-C ,  2-H ) :   0.8898 B(  1-C ,  3-H ) :   0.8430 B(  1-C ,  4-C ) :   1.1006
B(  1-C ,  9-H ) :   0.1045 B(  4-C ,  5-F ) :   0.6535 B(  4-C ,  6-O ) :   1.7048
B(  7-C , 10-H ) :   0.7987 B(  7-C , 11-H ) :   0.8752 B(  7-C , 12-H ) :   0.8204

Dispersion correction           -0.008017288
FINAL SINGLE POINT ENERGY      -331.125453859179

DIPOLE MOMENT
-------------
                                X             Y             Z
Electronic contribution:      7.96836       1.46304       7.21617
Nuclear contribution   :     -8.39104      -0.60591      -7.87060
                        -----------------------------------------
Total Dipole Moment    :     -0.42268       0.85713      -0.65442
                        -----------------------------------------
Magnitude (a.u.)       :      1.15827
Magnitude (Debye)      :      2.94410

Rotational constants in cm-1:     0.194210     0.077092     0.074391
Rotational constants in MHz :  5822.269139  2311.145895  2230.180895

                             ****ORCA TERMINATED NORMALLY****
TOTAL RUN TIME: 0 days 0 hours 0 minutes 17 seconds 181 msec
