                         Program Version 5.0.0 -  RELEASE  -
|  1> !PBE0 D3BJ RIJCOSX def2-SVPD def2/J TightSCF
|  2> *xyz 0 1
|  3> C          4.60295       -2.44010        2.63478
|  4> C          3.86085       -1.59157        3.62289
|  5> C          2.75650       -2.04616        4.16633
|  6> N          4.25433       -0.36291        3.86046
|  7> H          3.56526        0.31099        4.16898
|  8> H          5.05429       -0.01606        3.33784
|  9> H          2.43970       -2.97389        3.89740
| 10> H          2.06687       -1.41253        4.54981
| 11> C          3.74469       -2.58056        1.36188
| 12> C          3.20372       -1.25600        0.82621
| 13> H          2.89894       -3.23929        1.58307
| 14> H          4.33496       -3.09552        0.60019
| 15> H          5.56156       -1.97135        2.40708
| 16> H          4.81050       -3.42255        3.06310
| 17> H          2.62184       -1.43789       -0.05313
| 18> H          4.02069       -0.60826        0.58562
| 19> H          2.58975       -0.79418        1.57097
| 20> *
| 21>
| 22> %MaxCore 64000
| 23>
| 24> %pal nprocs 4
| 25> end
| 26>
| 27> %scf
| 28>   MaxIter 150
| 29> end
| 30>
| 31>
| 32>                          ****END OF INPUT****

CARTESIAN COORDINATES (ANGSTROEM)
---------------------------------
  C      4.602950   -2.440100    2.634780
  C      3.860850   -1.591570    3.622890
  C      2.756500   -2.046160    4.166330
  N      4.254330   -0.362910    3.860460
  H      3.565260    0.310990    4.168980
  H      5.054290   -0.016060    3.337840
  H      2.439700   -2.973890    3.897400
  H      2.066870   -1.412530    4.549810
  C      3.744690   -2.580560    1.361880
  C      3.203720   -1.256000    0.826210
  H      2.898940   -3.239290    1.583070
  H      4.334960   -3.095520    0.600190
  H      5.561560   -1.971350    2.407080
  H      4.810500   -3.422550    3.063100
  H      2.621840   -1.437890   -0.053130
  H      4.020690   -0.608260    0.585620
  H      2.589750   -0.794180    1.570970

 Total Charge           Charge          ....    0
 Multiplicity           Mult            ....    1
 Number of Electrons    NEL             ....   48
 Basis Dimension        Dim             ....  208

ORBITAL ENERGIES
----------------

  NO   OCC          E(Eh)            E(eV)
   0   2.0000     -14.399064      -391.8185
   1   2.0000     -10.252336      -278.9802
   2   2.0000     -10.234351      -278.4908
   3   2.0000     -10.230893      -278.3967
   4   2.0000     -10.212766      -277.9035
   5   2.0000     -10.163141      -276.5531
   6   2.0000      -0.953743       -25.9527
   7   2.0000      -0.813595       -22.1391
   8   2.0000      -0.747181       -20.3318
   9   2.0000      -0.700574       -19.0636
  10   2.0000      -0.620899       -16.8955
  11   2.0000      -0.572563       -15.5802
  12   2.0000      -0.538131       -14.6433
  13   2.0000      -0.501758       -13.6535
  14   2.0000      -0.470577       -12.8051
  15   2.0000      -0.449893       -12.2422
  16   2.0000      -0.416061       -11.3216
  17   2.0000      -0.402514       -10.9530
  18   2.0000      -0.380020       -10.3409
  19   2.0000      -0.374603       -10.1935
  20   2.0000      -0.349803        -9.5186
  21   2.0000      -0.341544        -9.2939
  22   2.0000      -0.335285        -9.1236
  23   2.0000      -0.202513        -5.5107
  24   0.0000       0.023117         0.6290
  25   0.0000       0.034023         0.9258
  26   0.0000       0.053907         1.4669
  27   0.0000       0.061983         1.6867
  28   0.0000       0.067197         1.8285

MULLIKEN ATOMIC CHARGES
-----------------------
   0 C :    0.336652
   1 C :   -0.226204
   2 C :    0.264073
   3 N :   -0.021226
   4 H :   -0.061114
   5 H :    0.018693
   6 H :   -0.055484
   7 H :   -0.345296
   8 C :   -0.496694
   9 C :    0.596401
  10 H :    0.054977
  11 H :   -0.087698
  12 H :    0.005498
  13 H :    0.059832
  14 H :   -0.124225
  15 H :    0.027882
  16 H :    0.053932
Sum of atomic charges:    0.0000000

LOEWDIN ATOMIC CHARGES
----------------------
   0 C :    0.009382
   1 C :   -0.277930
   2 C :    0.167372
   3 N :    0.170667
   4 H :    0.012575
   5 H :    0.002336
   6 H :   -0.075334
   7 H :   -0.079425
   8 C :   -0.067014
   9 C :    0.119312
  10 H :    0.018778
  11 H :    0.017219
  12 H :    0.014525
  13 H :    0.029090
  14 H :   -0.018088
  15 H :   -0.017801
  16 H :   -0.025665

  Mayer bond orders larger than 0.100000
B(  0-C ,  1-C ) :   1.2064 B(  0-C ,  8-C ) :   1.1689 B(  0-C , 10-H ) :   0.1084
B(  0-C , 11-H ) :   0.1511 B(  0-C , 12-H ) :   0.6936 B(  0-C , 13-H ) :   0.8131
B(  1-C ,  2-C ) :   1.9419 B(  1-C ,  3-N ) :   0.8614 B(  1-C ,  5-H ) :   0.1020
B(  1-C ,  7-H ) :   0.1997 B(  1-C , 12-H ) :   0.2276 B(  1-C , 13-H ) :   0.1853
B(  2-C ,  3-N ) :   0.3213 B(  2-C ,  6-H ) :   0.7900 B(  2-C ,  7-H ) :   0.8427
B(  3-N ,  4-H ) :   1.0934 B(  3-N ,  5-H ) :   0.9547 B(  4-H ,  5-H ) :  -0.1235
B(  8-C ,  9-C ) :   1.3239 B(  8-C , 10-H ) :   0.9207 B(  8-C , 11-H ) :   0.9692
B(  8-C , 12-H ) :   0.1607 B(  8-C , 14-H ) :   0.2085 B(  8-C , 15-H ) :   0.1874
B(  8-C , 16-H ) :   0.2203 B(  9-C , 14-H ) :   0.8222 B(  9-C , 15-H ) :   0.7964
B(  9-C , 16-H ) :   0.8237

Dispersion correction           -0.012480076
FINAL SINGLE POINT ENERGY      -251.407503925861

DIPOLE MOMENT
-------------
                                X             Y             Z
Electronic contribution:      1.36017       0.70209       3.42277
Nuclear contribution   :     -1.05621      -0.17147      -3.92631
                        -----------------------------------------
Total Dipole Moment    :      0.30396       0.53061      -0.50354
                        -----------------------------------------
Magnitude (a.u.)       :      0.79214
Magnitude (Debye)      :      2.01347

Rotational constants in cm-1:     0.171127     0.086782     0.080643
Rotational constants in MHz :  5130.249275  2601.647634  2417.629092

                             ****ORCA TERMINATED NORMALLY****
TOTAL RUN TIME: 0 days 0 hours 0 minutes 22 seconds 910 msec
