                         Program Version 5.0.0 -  RELEASE  -
|  1> !PBE0 D3BJ RIJCOSX def2-SVPD def2/J TightSCF
|  2> *xyz 0 1
|  3> C         -0.91495        0.61511        2.50554
|  4> C         -0.05915        1.50352        3.41058
|  5> H          0.36536        2.34431        2.86116
|  6> H         -0.69226        1.92021        4.19898
|  7> C          1.08303        0.74964        4.08571
|  8> O          2.22817        1.26348        4.01983
|  9> F          0.81003       -0.34541        4.63627
| 10> C         -0.13074       -0.19398        1.47076
| 11> H         -1.64796        1.24596        1.99108
| 12> H         -1.47818       -0.08105        3.13042
| 13> H         -0.80952       -0.78099        0.88803
| 14> H          0.55985       -0.83974        1.97175
| 15> H          0.40595        0.47288        0.82877
| 16> *
| 17>
| 18> %MaxCore 64000
| 19>
| 20> %pal nprocs 4
| 21> end
| 22>
| 23> %scf
| 24>   MaxIter 150
| 25> end
| 26>
| 27>
| 28>                          ****END OF INPUT****

CARTESIAN COORDINATES (ANGSTROEM)
---------------------------------
  C     -0.914950    0.615110    2.505540
  C     -0.059150    1.503520    3.410580
  H      0.365360    2.344310    2.861160
  H     -0.692260    1.920210    4.198980
  C      1.083030    0.749640    4.085710
  O      2.228170    1.263480    4.019830
  F      0.810030   -0.345410    4.636270
  C     -0.130740   -0.193980    1.470760
  H     -1.647960    1.245960    1.991080
  H     -1.478180   -0.081050    3.130420
  H     -0.809520   -0.780990    0.888030
  H      0.559850   -0.839740    1.971750
  H      0.405950    0.472880    0.828770

 Total Charge           Charge          ....    0
 Multiplicity           Mult            ....    1
 Number of Electrons    NEL             ....   48
 Basis Dimension        Dim             ....  182

ORBITAL ENERGIES
----------------

  NO   OCC          E(Eh)            E(eV)
   0   2.0000     -24.857405      -676.4044
   1   2.0000     -19.225805      -523.1608
   2   2.0000     -10.414675      -283.3977
   3   2.0000     -10.264252      -279.3045
   4   2.0000     -10.253133      -279.0019
   5   2.0000     -10.230195      -278.3777
   6   2.0000      -1.340769       -36.4842
   7   2.0000      -1.052981       -28.6531
   8   2.0000      -0.837095       -22.7785
   9   2.0000      -0.748106       -20.3570
  10   2.0000      -0.683326       -18.5942
  11   2.0000      -0.632855       -17.2209
  12   2.0000      -0.572172       -15.5696
  13   2.0000      -0.561951       -15.2915
  14   2.0000      -0.511626       -13.9220
  15   2.0000      -0.488448       -13.2914
  16   2.0000      -0.473899       -12.8955
  17   2.0000      -0.436192       -11.8694
  18   2.0000      -0.418399       -11.3852
  19   2.0000      -0.392288       -10.6747
  20   2.0000      -0.380178       -10.3452
  21   2.0000      -0.365818        -9.9544
  22   2.0000      -0.360981        -9.8228
  23   2.0000      -0.304703        -8.2914
  24   0.0000      -0.026790        -0.7290
  25   0.0000       0.018289         0.4977
  26   0.0000       0.050289         1.3684
  27   0.0000       0.054590         1.4855
  28   0.0000       0.062241         1.6937

MULLIKEN ATOMIC CHARGES
-----------------------
   0 C :   -0.485392
   1 C :   -0.068991
   2 H :    0.062140
   3 H :    0.084093
   4 C :    0.917702
   5 O :   -0.564196
   6 F :   -0.450643
   7 C :    0.506152
   8 H :   -0.086944
   9 H :    0.057134
  10 H :    0.001277
  11 H :   -0.012618
  12 H :    0.040285
Sum of atomic charges:   -0.0000000

LOEWDIN ATOMIC CHARGES
----------------------
   0 C :   -0.076192
   1 C :    0.039997
   2 H :    0.038362
   3 H :    0.041112
   4 C :   -0.006742
   5 O :   -0.140896
   6 F :   -0.034979
   7 C :    0.128287
   8 H :    0.026325
   9 H :    0.023772
  10 H :   -0.012546
  11 H :   -0.018650
  12 H :   -0.007848

  Mayer bond orders larger than 0.100000
B(  0-C ,  1-C ) :   1.2018 B(  0-C ,  2-H ) :   0.1177 B(  0-C ,  3-H ) :   0.1044
B(  0-C ,  7-C ) :   1.3633 B(  0-C ,  8-H ) :   1.0022 B(  0-C ,  9-H ) :   0.9068
B(  0-C , 10-H ) :   0.1835 B(  0-C , 11-H ) :   0.1765 B(  0-C , 12-H ) :   0.1810
B(  1-C ,  2-H ) :   0.9269 B(  1-C ,  3-H ) :   0.8494 B(  1-C ,  4-C ) :   1.0511
B(  1-C ,  6-F ) :   0.1033 B(  2-H ,  4-C ) :   0.1258 B(  4-C ,  5-O ) :   1.6961
B(  4-C ,  6-F ) :   0.6196 B(  5-O ,  6-F ) :   0.1084 B(  7-C , 10-H ) :   0.7961
B(  7-C , 11-H ) :   0.8704 B(  7-C , 12-H ) :   0.8215

Dispersion correction           -0.007965734
FINAL SINGLE POINT ENERGY      -331.124450280159

DIPOLE MOMENT
-------------
                                X             Y             Z
Electronic contribution:      5.53693      -1.25607       8.22143
Nuclear contribution   :     -6.78915       1.21145      -8.56691
                        -----------------------------------------
Total Dipole Moment    :     -1.25221      -0.04462      -0.34548
                        -----------------------------------------
Magnitude (a.u.)       :      1.29976
Magnitude (Debye)      :      3.30374

Rotational constants in cm-1:     0.188995     0.079574     0.075294
Rotational constants in MHz :  5665.932233  2385.568994  2257.246443

                             ****ORCA TERMINATED NORMALLY****
TOTAL RUN TIME: 0 days 0 hours 0 minutes 16 seconds 991 msec
