                         Program Version 5.0.0 -  RELEASE  -
|  1> !PBE0 D3BJ RIJCOSX def2-SVPD def2/J TightSCF
|  2> *xyz 0 1
|  3> C          4.60295       -2.44010        2.63478
|  4> C          3.86085       -1.59157        3.62289
|  5> N          2.75650       -2.04616        4.16633
|  6> C          4.25433       -0.36291        3.86046
|  7> H          3.56526        0.31099        4.16898
|  8> H          5.05429       -0.01606        3.33784
|  9> H          2.43970       -2.97389        3.89740
| 10> H          2.06687       -1.41253        4.54981
| 11> C          3.74469       -2.58056        1.36188
| 12> C          3.20372       -1.25600        0.82621
| 13> H          2.89894       -3.23929        1.58307
| 14> H          4.33496       -3.09552        0.60019
| 15> H          5.56156       -1.97135        2.40708
| 16> H          4.81050       -3.42255        3.06310
| 17> H          2.62184       -1.43789       -0.05313
| 18> H          4.02069       -0.60826        0.58562
| 19> H          2.58975       -0.79418        1.57097
| 20> *
| 21>
| 22> %MaxCore 64000
| 23>
| 24> %pal nprocs 4
| 25> end
| 26>
| 27> %scf
| 28>   MaxIter 150
| 29> end
| 30>
| 31>
| 32>                          ****END OF INPUT****

CARTESIAN COORDINATES (ANGSTROEM)
---------------------------------
  C      4.602950   -2.440100    2.634780
  C      3.860850   -1.591570    3.622890
  N      2.756500   -2.046160    4.166330
  C      4.254330   -0.362910    3.860460
  H      3.565260    0.310990    4.168980
  H      5.054290   -0.016060    3.337840
  H      2.439700   -2.973890    3.897400
  H      2.066870   -1.412530    4.549810
  C      3.744690   -2.580560    1.361880
  C      3.203720   -1.256000    0.826210
  H      2.898940   -3.239290    1.583070
  H      4.334960   -3.095520    0.600190
  H      5.561560   -1.971350    2.407080
  H      4.810500   -3.422550    3.063100
  H      2.621840   -1.437890   -0.053130
  H      4.020690   -0.608260    0.585620
  H      2.589750   -0.794180    1.570970

 Total Charge           Charge          ....    0
 Multiplicity           Mult            ....    1
 Number of Electrons    NEL             ....   48
 Basis Dimension        Dim             ....  208

ORBITAL ENERGIES
----------------

  NO   OCC          E(Eh)            E(eV)
   0   2.0000     -14.399572      -391.8323
   1   2.0000     -10.252545      -278.9859
   2   2.0000     -10.234353      -278.4909
   3   2.0000     -10.233458      -278.4666
   4   2.0000     -10.211542      -277.8702
   5   2.0000     -10.164036      -276.5775
   6   2.0000      -0.953419       -25.9439
   7   2.0000      -0.812387       -22.1062
   8   2.0000      -0.750352       -20.4181
   9   2.0000      -0.701795       -19.0968
  10   2.0000      -0.613712       -16.6999
  11   2.0000      -0.582955       -15.8630
  12   2.0000      -0.541590       -14.7374
  13   2.0000      -0.486670       -13.2430
  14   2.0000      -0.471806       -12.8385
  15   2.0000      -0.461552       -12.5595
  16   2.0000      -0.405045       -11.0218
  17   2.0000      -0.403037       -10.9672
  18   2.0000      -0.389292       -10.5932
  19   2.0000      -0.376271       -10.2389
  20   2.0000      -0.345061        -9.3896
  21   2.0000      -0.343315        -9.3421
  22   2.0000      -0.332995        -9.0613
  23   2.0000      -0.204592        -5.5672
  24   0.0000       0.020571         0.5598
  25   0.0000       0.035774         0.9735
  26   0.0000       0.054775         1.4905
  27   0.0000       0.060936         1.6582
  28   0.0000       0.069633         1.8948

MULLIKEN ATOMIC CHARGES
-----------------------
   0 C :    0.189540
   1 C :   -0.267021
   2 N :    0.044120
   3 C :    0.325633
   4 H :   -0.307880
   5 H :   -0.008458
   6 H :   -0.016244
   7 H :   -0.130022
   8 C :   -0.466052
   9 C :    0.616436
  10 H :    0.070849
  11 H :   -0.150257
  12 H :    0.149225
  13 H :   -0.007689
  14 H :   -0.047944
  15 H :    0.013082
  16 H :   -0.007317
Sum of atomic charges:   -0.0000000

LOEWDIN ATOMIC CHARGES
----------------------
   0 C :    0.008348
   1 C :   -0.282372
   2 N :    0.174439
   3 C :    0.166429
   4 H :   -0.078508
   5 H :   -0.077540
   6 H :    0.004085
   7 H :    0.012848
   8 C :   -0.070097
   9 C :    0.121228
  10 H :    0.010714
  11 H :    0.018438
  12 H :    0.026410
  13 H :    0.020983
  14 H :   -0.018769
  15 H :   -0.011051
  16 H :   -0.025585

  Mayer bond orders larger than 0.100000
B(  0-C ,  1-C ) :   1.2767 B(  0-C ,  8-C ) :   1.1665 B(  0-C , 10-H ) :   0.1126
B(  0-C , 11-H ) :   0.1658 B(  0-C , 12-H ) :   0.8049 B(  0-C , 13-H ) :   0.8153
B(  1-C ,  2-N ) :   0.9387 B(  1-C ,  3-C ) :   2.0565 B(  1-C ,  4-H ) :   0.2657
B(  1-C ,  5-H ) :   0.1516 B(  1-C , 12-H ) :   0.1467 B(  1-C , 13-H ) :   0.2134
B(  2-N ,  3-C ) :   0.2783 B(  2-N ,  6-H ) :   1.0431 B(  2-N ,  7-H ) :   1.1414
B(  3-C ,  4-H ) :   0.7767 B(  3-C ,  5-H ) :   0.8467 B(  6-H ,  7-H ) :  -0.1343
B(  8-C ,  9-C ) :   1.3297 B(  8-C , 10-H ) :   0.8865 B(  8-C , 11-H ) :   1.0243
B(  8-C , 12-H ) :   0.1399 B(  8-C , 14-H ) :   0.2014 B(  8-C , 15-H ) :   0.1820
B(  8-C , 16-H ) :   0.2257 B(  9-C , 14-H ) :   0.7911 B(  9-C , 15-H ) :   0.8129
B(  9-C , 16-H ) :   0.8433 B( 15-H , 16-H ) :   0.1114

Dispersion correction           -0.012475768
FINAL SINGLE POINT ENERGY      -251.407581871724

DIPOLE MOMENT
-------------
                                X             Y             Z
Electronic contribution:      0.08079      -0.72807       3.69582
Nuclear contribution   :     -0.70193       0.22667      -3.99866
                        -----------------------------------------
Total Dipole Moment    :     -0.62113      -0.50140      -0.30283
                        -----------------------------------------
Magnitude (a.u.)       :      0.85377
Magnitude (Debye)      :      2.17010

Rotational constants in cm-1:     0.170665     0.086587     0.081284
Rotational constants in MHz :  5116.404877  2595.819690  2436.831753

                             ****ORCA TERMINATED NORMALLY****
TOTAL RUN TIME: 0 days 0 hours 0 minutes 23 seconds 576 msec
