                         Program Version 5.0.0 -  RELEASE  -
|  1> !PBE0 D3BJ RIJCOSX def2-SVPD def2/J TightSCF xyzfile
|  2>
|  3> *xyzfile 0 1 D4.xyz
|  4>
|  5> %MaxCore 64000
|  6>
|  7> %pal nprocs 4
|  8> end
|  9>
| 10> %scf
| 11>   MaxIter 150
| 12> end
| 13>
| 14>
| 15>                          ****END OF INPUT****

CARTESIAN COORDINATES (ANGSTROEM)
---------------------------------
  C      4.602954   -2.440100    2.634780
  C     -0.914947    0.615112    2.505538
  C     -0.059146    1.503524    3.410578
  H      0.365364    2.344315    2.861161
  H     -0.692261    1.920207    4.198985
  C      1.083027    0.749640    4.085705
  C      3.860851   -1.591565    3.622893
  N      2.756502   -2.046159    4.166333
  C      4.254325   -0.362905    3.860455
  H      3.565256    0.310994    4.168983
  H      5.054292   -0.016059    3.337838
  H      2.439696   -2.973894    3.897395
  H      2.066869   -1.412532    4.549813
  O      2.228167    1.263475    4.019826
  F      0.810034   -0.345411    4.636269
  C      3.744685   -2.580557    1.361882
  C      0.772139    0.636882    0.562129
  C     -0.130740   -0.193985    1.470763
  H     -0.840563   -0.760165    0.856377
  H      0.466691   -0.938942    2.006959
  H     -1.647961    1.245963    1.991076
  H     -1.478180   -0.081046    3.130424
  C      3.203721   -1.256004    0.826211
  H      2.898939   -3.239289    1.583074
  H      4.334962   -3.095523    0.600188
  C      2.107815   -1.442385   -0.216865
  H      2.786775   -0.672760    1.650711
  H      4.021008   -0.652993    0.414046
  C      1.390662   -0.145912   -0.602422
  H      1.372179   -2.152184    0.176151
  H      2.523302   -1.906787   -1.117115
  H      1.561361    1.100094    1.161831
  H      0.195516    1.468325    0.142758
  H      0.602893   -0.398214   -1.319716
  H      2.087247    0.508272   -1.137335
  H      5.561557   -1.971347    2.407084
  H      4.810498   -3.422552    3.063099

 Total Charge           Charge          ....    0
 Multiplicity           Mult            ....    1
 Number of Electrons    NEL             ....  118
 Basis Dimension        Dim             ....  482

ORBITAL ENERGIES
----------------

  NO   OCC          E(Eh)            E(eV)
   0   2.0000     -24.884652      -677.1458
   1   2.0000     -19.241186      -523.5793
   2   2.0000     -14.376365      -391.2008
   3   2.0000     -10.431659      -283.8599
   4   2.0000     -10.272578      -279.5311
   5   2.0000     -10.256683      -279.0985
   6   2.0000     -10.242223      -278.7050
   7   2.0000     -10.233027      -278.4548
   8   2.0000     -10.229385      -278.3557
   9   2.0000     -10.228430      -278.3297
  10   2.0000     -10.223886      -278.2061
  11   2.0000     -10.222742      -278.1749
  12   2.0000     -10.218580      -278.0617
  13   2.0000     -10.215177      -277.9691
  14   2.0000     -10.129489      -275.6374
  15   2.0000      -1.370414       -37.2909
  16   2.0000      -1.074091       -29.2275
  17   2.0000      -0.934749       -25.4358
  18   2.0000      -0.854732       -23.2584
  19   2.0000      -0.824453       -22.4345
  20   2.0000      -0.798507       -21.7285
  21   2.0000      -0.761232       -20.7142
  22   2.0000      -0.736309       -20.0360
  23   2.0000      -0.711990       -19.3742
  24   2.0000      -0.698938       -19.0191
  25   2.0000      -0.663014       -18.0415
  26   2.0000      -0.631507       -17.1842
  27   2.0000      -0.606452       -16.5024
  28   2.0000      -0.598409       -16.2835
  29   2.0000      -0.591835       -16.1046
  30   2.0000      -0.568419       -15.4675
  31   2.0000      -0.560279       -15.2460
  32   2.0000      -0.536559       -14.6005
  33   2.0000      -0.517876       -14.0921
  34   2.0000      -0.501746       -13.6532
  35   2.0000      -0.498506       -13.5650
  36   2.0000      -0.476299       -12.9607
  37   2.0000      -0.462483       -12.5848
  38   2.0000      -0.457135       -12.4393
  39   2.0000      -0.451638       -12.2897
  40   2.0000      -0.435791       -11.8585
  41   2.0000      -0.430030       -11.7017
  42   2.0000      -0.423914       -11.5353
  43   2.0000      -0.405799       -11.0424
  44   2.0000      -0.397376       -10.8132
  45   2.0000      -0.390379       -10.6227
  46   2.0000      -0.387664       -10.5489
  47   2.0000      -0.374932       -10.2024
  48   2.0000      -0.370224       -10.0743
  49   2.0000      -0.362208        -9.8562
  50   2.0000      -0.357668        -9.7326
  51   2.0000      -0.342835        -9.3290
  52   2.0000      -0.336834        -9.1657
  53   2.0000      -0.334453        -9.1009
  54   2.0000      -0.323833        -8.8120
  55   2.0000      -0.320755        -8.7282
  56   2.0000      -0.315268        -8.5789
  57   2.0000      -0.285482        -7.7684
  58   2.0000      -0.181332        -4.9343
  59   0.0000      -0.044542        -1.2120
  60   0.0000       0.012157         0.3308
  61   0.0000       0.028358         0.7717
  62   0.0000       0.035454         0.9647
  63   0.0000       0.040599         1.1047

MULLIKEN ATOMIC CHARGES
-----------------------
   0 C :    0.490259
   1 C :    0.391214
   2 C :    0.010785
   3 H :    0.235012
   4 H :   -0.080147
   5 C :    0.844374
   6 C :   -0.378258
   7 N :    0.262385
   8 C :    0.738741
   9 H :   -0.565946
  10 H :   -0.060765
  11 H :    0.009145
  12 H :   -0.439006
  13 O :   -0.599247
  14 F :   -0.518377
  15 C :    0.027603
  16 C :   -0.338472
  17 C :   -0.282063
  18 H :   -0.118568
  19 H :    0.026266
  20 H :   -0.022984
  21 H :    0.074326
  22 C :    0.061425
  23 H :    0.120202
  24 H :   -0.254293
  25 C :   -0.132742
  26 H :   -0.264826
  27 H :    0.026437
  28 C :    0.670978
  29 H :    0.200219
  30 H :   -0.290509
  31 H :    0.244675
  32 H :   -0.417550
  33 H :    0.129932
  34 H :    0.044333
  35 H :    0.182571
  36 H :   -0.027126
Sum of atomic charges:   -0.0000000

LOEWDIN ATOMIC CHARGES
----------------------
   0 C :    0.013200
   1 C :   -0.027132
   2 C :    0.058831
   3 H :    0.037775
   4 H :    0.043651
   5 C :    0.057904
   6 C :   -0.263521
   7 N :    0.199049
   8 C :    0.190790
   9 H :   -0.166561
  10 H :   -0.069271
  11 H :    0.005665
  12 H :   -0.068636
  13 O :   -0.116126
  14 F :   -0.032589
  15 C :   -0.025904
  16 C :   -0.035886
  17 C :   -0.035774
  18 H :    0.033373
  19 H :    0.011003
  20 H :    0.030654
  21 H :    0.025808
  22 C :   -0.029994
  23 H :    0.011495
  24 H :    0.022785
  25 C :   -0.045020
  26 H :   -0.010269
  27 H :    0.040890
  28 C :   -0.031879
  29 H :    0.015348
  30 H :    0.025020
  31 H :    0.015383
  32 H :    0.026060
  33 H :    0.022297
  34 H :    0.025909
  35 H :    0.025807
  36 H :    0.019864

  Mayer bond orders larger than 0.100000
B(  0-C ,  6-C ) :   1.3040 B(  0-C ,  8-C ) :   0.1052 B(  0-C , 15-C ) :   1.1276
B(  0-C , 23-H ) :   0.1022 B(  0-C , 24-H ) :   0.1289 B(  0-C , 35-H ) :   0.7574
B(  0-C , 36-H ) :   0.6047 B(  1-C ,  2-C ) :   1.2076 B(  1-C ,  4-H ) :   0.1548
B(  1-C , 17-C ) :   1.2556 B(  1-C , 20-H ) :   0.8076 B(  1-C , 21-H ) :   0.6821
B(  2-C ,  3-H ) :   0.8530 B(  2-C ,  4-H ) :   0.7458 B(  2-C ,  5-C ) :   1.1551
B(  2-C , 20-H ) :   0.1278 B(  2-C , 21-H ) :   0.1049 B(  3-H ,  5-C ) :   0.1142
B(  4-H ,  5-C ) :   0.2203 B(  5-C , 13-O ) :   1.6442 B(  5-C , 14-F ) :   0.4332
B(  6-C ,  7-N ) :   0.8274 B(  6-C ,  8-C ) :   2.0411 B(  6-C ,  9-H ) :   0.3303
B(  6-C , 10-H ) :   0.2698 B(  6-C , 26-H ) :  -0.1086 B(  6-C , 35-H ) :   0.1414
B(  6-C , 36-H ) :   0.2750 B(  7-N ,  8-C ) :   0.3577 B(  7-N , 11-H ) :   1.0366
B(  7-N , 12-H ) :   1.0932 B(  8-C ,  9-H ) :   0.3001 B(  8-C , 10-H ) :   0.7413
B(  9-H , 13-O ) :   0.1608 B( 11-H , 12-H ) :  -0.2134 B( 12-H , 14-F ) :   0.1147
B( 15-C , 22-C ) :   1.1363 B( 15-C , 23-H ) :   0.8424 B( 15-C , 24-H ) :   0.9748
B( 15-C , 26-H ) :   0.1058 B( 15-C , 27-H ) :   0.1008 B( 15-C , 35-H ) :   0.1364
B( 15-C , 36-H ) :   0.1619 B( 16-C , 17-C ) :   1.2879 B( 16-C , 18-H ) :   0.1696
B( 16-C , 19-H ) :   0.1044 B( 16-C , 25-C ) :   0.1198 B( 16-C , 28-C ) :   1.1073
B( 16-C , 31-H ) :   0.7991 B( 16-C , 32-H ) :   1.1876 B( 16-C , 33-H ) :   0.1401
B( 16-C , 34-H ) :   0.2421 B( 17-C , 18-H ) :   0.9192 B( 17-C , 19-H ) :   0.9174
B( 17-C , 20-H ) :   0.1882 B( 17-C , 21-H ) :   0.2148 B( 17-C , 32-H ) :   0.1207
B( 22-C , 23-H ) :   0.1133 B( 22-C , 24-H ) :   0.1902 B( 22-C , 25-C ) :   1.1950
B( 22-C , 26-H ) :   1.0085 B( 22-C , 27-H ) :   0.7505 B( 22-C , 29-H ) :   0.1053
B( 22-C , 30-H ) :   0.2309 B( 25-C , 27-H ) :   0.1109 B( 25-C , 28-C ) :   1.1762
B( 25-C , 29-H ) :   0.8249 B( 25-C , 30-H ) :   1.0105 B( 25-C , 33-H ) :   0.1869
B( 25-C , 34-H ) :   0.1544 B( 26-H , 27-H ) :   0.2091 B( 26-H , 31-H ) :   0.1632
B( 28-C , 33-H ) :   0.6776 B( 28-C , 34-H ) :   0.6624

Dispersion correction           -0.037635911
FINAL SINGLE POINT ENERGY      -699.048067973982

DIPOLE MOMENT
-------------
                                X             Y             Z
Electronic contribution:     -2.27318       3.58215      16.20039
Nuclear contribution   :      0.32481      -3.64700     -16.75441
                        -----------------------------------------
Total Dipole Moment    :     -1.94838      -0.06485      -0.55402
                        -----------------------------------------
Magnitude (a.u.)       :      2.02665
Magnitude (Debye)      :      5.15134

Rotational constants in cm-1:     0.021629     0.017327     0.011372
Rotational constants in MHz :   648.414821   519.443407   340.925013

                             ****ORCA TERMINATED NORMALLY****
TOTAL RUN TIME: 0 days 0 hours 3 minutes 49 seconds 53 msec
