                         Program Version 5.0.0 -  RELEASE  -
|  1> !PBE D3BJ RIJCOSX def2-TZVPD def2/J TightSCF
|  2> *xyz -1 1
|  3> C         -0.77894        0.17197        1.80496
|  4> C         -0.60249       -0.63071        0.49224
|  5> H          0.31389       -1.24035        0.60350
|  6> H         -0.36383        0.11332       -0.30117
|  7> O         -1.71206       -1.37684        0.20253
|  8> H         -1.65864        0.77733        1.73736
|  9> H          0.07466        0.79896        1.95712
| 10> H         -0.87474       -0.50584        2.62734
| 11> *
| 12> %MaxCore 64000
| 13>
| 14> %pal nprocs 4
| 15> end
| 16>
| 17> %scf
| 18>   MaxIter 150
| 19> end
| 20>
| 21>
| 22>                          ****END OF INPUT****

CARTESIAN COORDINATES (ANGSTROEM)
---------------------------------
  C     -0.778940    0.171970    1.804960
  C     -0.602490   -0.630710    0.492240
  H      0.313890   -1.240350    0.603500
  H     -0.363830    0.113320   -0.301170
  O     -1.712060   -1.376840    0.202530
  H     -1.658640    0.777330    1.737360
  H      0.074660    0.798960    1.957120
  H     -0.874740   -0.505840    2.627340

 Total Charge           Charge          ....   -1
 Multiplicity           Mult            ....    1
 Number of Electrons    NEL             ....   26
 Basis Dimension        Dim             ....  159

ORBITAL ENERGIES
----------------

  NO   OCC          E(Eh)            E(eV)
   0   2.0000     -18.434274      -501.6221
   1   2.0000      -9.698797      -263.9177
   2   2.0000      -9.672481      -263.2016
   3   2.0000      -0.608696       -16.5635
   4   2.0000      -0.457747       -12.4559
   5   2.0000      -0.317714        -8.6454
   6   2.0000      -0.203957        -5.5499
   7   2.0000      -0.181867        -4.9488
   8   2.0000      -0.132432        -3.6037
   9   2.0000      -0.117096        -3.1863
  10   2.0000      -0.078736        -2.1425
  11   2.0000       0.060518         1.6468
  12   2.0000       0.063629         1.7314
  13   0.0000       0.140389         3.8202
  14   0.0000       0.163111         4.4385
  15   0.0000       0.187611         5.1052
  16   0.0000       0.191576         5.2130
  17   0.0000       0.212271         5.7762

MULLIKEN ATOMIC CHARGES
-----------------------
   0 C :   -0.996674
   1 C :   -0.155127
   2 H :    0.126610
   3 H :    0.124785
   4 O :   -0.867281
   5 H :    0.209939
   6 H :    0.342839
   7 H :    0.214911
Sum of atomic charges:   -1.0000000

LOEWDIN ATOMIC CHARGES
----------------------
   0 C :   -0.182481
   1 C :   -0.626929
   2 H :    0.048758
   3 H :    0.049920
   4 O :   -0.375328
   5 H :    0.035052
   6 H :    0.017722
   7 H :    0.033287

  Mayer bond orders larger than 0.100000
B(  0-C ,  1-C ) :   0.8813 B(  0-C ,  4-O ) :   0.6318 B(  0-C ,  5-H ) :   1.0152
B(  0-C ,  6-H ) :   0.9691 B(  0-C ,  7-H ) :   1.0088 B(  1-C ,  2-H ) :   1.0768
B(  1-C ,  3-H ) :   1.0767 B(  1-C ,  4-O ) :   0.8709 B(  2-H ,  3-H ) :   0.1222
B(  4-O ,  6-H ) :  -0.1247

Dispersion correction           -0.003762079
FINAL SINGLE POINT ENERGY      -154.301452979821

DIPOLE MOMENT
-------------
                                X             Y             Z
Electronic contribution:     -1.75544      -2.01972      -1.65704
Nuclear contribution   :      2.47835       2.80827       2.30058
                        -----------------------------------------
Total Dipole Moment    :      0.72290       0.78855       0.64354
                        -----------------------------------------
Magnitude (a.u.)       :      1.24842
Magnitude (Debye)      :      3.17323

Rotational constants in cm-1:     1.255775     0.327783     0.287473
Rotational constants in MHz : 37647.186859  9826.677683  8618.224821

                             ****ORCA TERMINATED NORMALLY****
TOTAL RUN TIME: 0 days 0 hours 0 minutes 9 seconds 326 msec
