                         Program Version 5.0.0 -  RELEASE  -
|  1> !PBE D3BJ RIJCOSX def2-TZVPD def2/J TightSCF
|  2> *xyz 1 1
|  3> C         -2.12050        0.88520        1.78951
|  4> C         -0.77894        0.17197        1.80496
|  5> H         -2.32419        1.47265        2.68608
|  6> H         -2.18770        1.54127        0.91948
|  7> N         -3.17690       -0.15948        1.61070
|  8> H         -4.06474        0.23127        1.28675
|  9> H         -3.34407       -0.67151        2.48493
| 10> H         -2.71686       -0.78189        0.93588
| 11> H         -0.65708       -0.37837        0.89547
| 12> H         -0.74207       -0.50050        2.63642
| 13> H          0.00707        0.89251        1.89389
| 14> *
| 15> %MaxCore 64000
| 16>
| 17> %pal nprocs 4
| 18> end
| 19>
| 20> %scf
| 21>   MaxIter 150
| 22> end
| 23>
| 24>
| 25>                          ****END OF INPUT****

CARTESIAN COORDINATES (ANGSTROEM)
---------------------------------
  C     -2.120500    0.885200    1.789510
  C     -0.778940    0.171970    1.804960
  H     -2.324190    1.472650    2.686080
  H     -2.187700    1.541270    0.919480
  N     -3.176900   -0.159480    1.610700
  H     -4.064740    0.231270    1.286750
  H     -3.344070   -0.671510    2.484930
  H     -2.716860   -0.781890    0.935880
  H     -0.657080   -0.378370    0.895470
  H     -0.742070   -0.500500    2.636420
  H      0.007070    0.892510    1.893890

 Total Charge           Charge          ....    1
 Multiplicity           Mult            ....    1
 Number of Electrons    NEL             ....   26
 Basis Dimension        Dim             ....  183

ORBITAL ENERGIES
----------------

  NO   OCC          E(Eh)            E(eV)
   0   2.0000     -14.315297      -389.5390
   1   2.0000     -10.136167      -275.8191
   2   2.0000     -10.061142      -273.7776
   3   2.0000      -1.137137       -30.9431
   4   2.0000      -0.899398       -24.4739
   5   2.0000      -0.785850       -21.3841
   6   2.0000      -0.751794       -20.4573
   7   2.0000      -0.741307       -20.1720
   8   2.0000      -0.645498       -17.5649
   9   2.0000      -0.597389       -16.2558
  10   2.0000      -0.542437       -14.7605
  11   2.0000      -0.535295       -14.5661
  12   2.0000      -0.514068       -13.9885
  13   0.0000      -0.221161        -6.0181
  14   0.0000      -0.163533        -4.4499
  15   0.0000      -0.162986        -4.4351
  16   0.0000      -0.151512        -4.1228
  17   0.0000      -0.123387        -3.3575

MULLIKEN ATOMIC CHARGES
-----------------------
   0 C :   -0.166328
   1 C :   -0.911937
   2 H :    0.230178
   3 H :    0.225837
   4 N :   -0.147642
   5 H :    0.300921
   6 H :    0.301785
   7 H :    0.285357
   8 H :    0.368070
   9 H :    0.299842
  10 H :    0.213917
Sum of atomic charges:    1.0000000

LOEWDIN ATOMIC CHARGES
----------------------
   0 C :   -0.198339
   1 C :   -0.055659
   2 H :    0.137663
   3 H :    0.136638
   4 N :    0.188478
   5 H :    0.177545
   6 H :    0.179864
   7 H :    0.165548
   8 H :    0.085169
   9 H :    0.087277
  10 H :    0.095816

  Mayer bond orders larger than 0.100000
B(  0-C ,  1-C ) :   0.7685 B(  0-C ,  2-H ) :   0.9482 B(  0-C ,  3-H ) :   0.9432
B(  0-C ,  4-N ) :   1.0051 B(  1-C ,  8-H ) :   0.8756 B(  1-C ,  9-H ) :   0.9483
B(  1-C , 10-H ) :   1.0129 B(  4-N ,  5-H ) :   0.8860 B(  4-N ,  6-H ) :   0.8894
B(  4-N ,  7-H ) :   0.8740

Dispersion correction           -0.006241059
FINAL SINGLE POINT ENERGY      -135.397560172557

DIPOLE MOMENT
-------------
                                X             Y             Z
Electronic contribution:     -1.79183      -0.14795      -0.05498
Nuclear contribution   :      0.50278      -0.30871      -0.06979
                        -----------------------------------------
Total Dipole Moment    :     -1.28905      -0.45666      -0.12477
                        -----------------------------------------
Magnitude (a.u.)       :      1.37323
Magnitude (Debye)      :      3.49046

Rotational constants in cm-1:     0.963746     0.295157     0.256910
Rotational constants in MHz : 28892.375247  8848.576767  7701.963879

                             ****ORCA TERMINATED NORMALLY****
TOTAL RUN TIME: 0 days 0 hours 0 minutes 9 seconds 871 msec
