                         Program Version 5.0.0 -  RELEASE  -
|  1> !PBE D3BJ RIJCOSX def2-TZVPD def2/J TightSCF xyzfile
|  2>
|  3> *xyzfile 0 1 B.xyz
|  4>
|  5> %MaxCore 64000
|  6>
|  7> %pal nprocs 4
|  8> end
|  9>
| 10> %scf
| 11>   MaxIter 150
| 12> end
| 13>
| 14>
| 15>                          ****END OF INPUT****

CARTESIAN COORDINATES (ANGSTROEM)
---------------------------------
  C     -2.120502    0.885196    1.789506
  C     -0.778939    0.171966    1.804965
  H     -2.324193    1.472649    2.686078
  H     -2.187698    1.541272    0.919482
  N     -3.176900   -0.159484    1.610700
  H      0.015695    0.910767    1.939153
  H     -0.743553   -0.506827    2.665420
  C     -0.602493   -0.630712    0.492240
  H      0.313894   -1.240346    0.603498
  H     -0.363829    0.113322   -0.301169
  O     -1.712061   -1.376836    0.202535
  H     -4.064736    0.231272    1.286754
  H     -3.344073   -0.671511    2.484928
  H     -2.716861   -0.781886    0.935880

 Total Charge           Charge          ....    0
 Multiplicity           Mult            ....    1
 Number of Electrons    NEL             ....   42
 Basis Dimension        Dim             ....  269

ORBITAL ENERGIES
----------------

  NO   OCC          E(Eh)            E(eV)
   0   2.0000     -18.631457      -506.9877
   1   2.0000     -14.064412      -382.7121
   2   2.0000      -9.943748      -270.5831
   3   2.0000      -9.879065      -268.8230
   4   2.0000      -9.876676      -268.7580
   5   2.0000      -0.912226       -24.8229
   6   2.0000      -0.816650       -22.2222
   7   2.0000      -0.702104       -19.1052
   8   2.0000      -0.593384       -16.1468
   9   2.0000      -0.537727       -14.6323
  10   2.0000      -0.519727       -14.1425
  11   2.0000      -0.491660       -13.3788
  12   2.0000      -0.439307       -11.9542
  13   2.0000      -0.390805       -10.6343
  14   2.0000      -0.360427        -9.8077
  15   2.0000      -0.358093        -9.7442
  16   2.0000      -0.317388        -8.6366
  17   2.0000      -0.298712        -8.1284
  18   2.0000      -0.277541        -7.5523
  19   2.0000      -0.147348        -4.0095
  20   2.0000      -0.137386        -3.7385
  21   0.0000      -0.042925        -1.1681
  22   0.0000      -0.004432        -0.1206
  23   0.0000      -0.002072        -0.0564
  24   0.0000       0.021298         0.5796
  25   0.0000       0.040865         1.1120

MULLIKEN ATOMIC CHARGES
-----------------------
   0 C :   -0.382464
   1 C :   -0.203694
   2 H :    0.156685
   3 H :    0.189792
   4 N :   -0.069630
   5 H :    0.140214
   6 H :    0.189662
   7 C :   -0.211728
   8 H :    0.145602
   9 H :    0.143111
  10 O :   -0.785171
  11 H :    0.261862
  12 H :    0.272555
  13 H :    0.153203
Sum of atomic charges:    0.0000000

LOEWDIN ATOMIC CHARGES
----------------------
   0 C :   -0.183352
   1 C :   -0.193451
   2 H :    0.113769
   3 H :    0.126836
   4 N :    0.131631
   5 H :    0.108997
   6 H :    0.109657
   7 C :   -0.432040
   8 H :    0.096532
   9 H :    0.097149
  10 O :   -0.247253
  11 H :    0.149863
  12 H :    0.154936
  13 H :   -0.033275

  Mayer bond orders larger than 0.100000
B(  0-C ,  1-C ) :   0.9051 B(  0-C ,  2-H ) :   1.0049 B(  0-C ,  3-H ) :   0.9178
B(  0-C ,  4-N ) :   1.0280 B(  0-C ,  7-C ) :   0.1209 B(  1-C ,  5-H ) :   1.0160
B(  1-C ,  6-H ) :   0.9246 B(  1-C ,  7-C ) :   1.0536 B(  1-C , 10-O ) :   0.1611
B(  4-N , 11-H ) :   0.9116 B(  4-N , 12-H ) :   0.8938 B(  4-N , 13-H ) :   0.6948
B(  7-C ,  8-H ) :   1.0184 B(  7-C ,  9-H ) :   1.0337 B(  7-C , 10-O ) :   0.8654
B( 10-O , 13-H ) :   0.4521

Dispersion correction           -0.010415622
FINAL SINGLE POINT ENERGY      -249.453213471599

DIPOLE MOMENT
-------------
                                X             Y             Z
Electronic contribution:     -1.48243      -1.54180      -0.87643
Nuclear contribution   :      0.08650       3.01678       2.47433
                        -----------------------------------------
Total Dipole Moment    :     -1.39592       1.47498       1.59791
                        -----------------------------------------
Magnitude (a.u.)       :      2.58408
Magnitude (Debye)      :      6.56821

Rotational constants in cm-1:     0.238796     0.156489     0.106146
Rotational constants in MHz :  7158.916762  4691.413084  3182.185740

                             ****ORCA TERMINATED NORMALLY****
TOTAL RUN TIME: 0 days 0 hours 0 minutes 15 seconds 505 msec
