                         Program Version 5.0.0 -  RELEASE  -
|  1> !PBE D3BJ RIJCOSX def2-TZVPD def2/J TightSCF
|  2> *xyz 0 1
|  3> C         -0.77894        0.17197        1.80496
|  4> C         -0.60249       -0.63071        0.49224
|  5> H          0.31389       -1.24035        0.60350
|  6> H         -0.36383        0.11332       -0.30117
|  7> F         -1.71206       -1.37684        0.20253
|  8> H         -1.65864        0.77733        1.73736
|  9> H          0.07466        0.79896        1.95712
| 10> H         -0.87474       -0.50584        2.62734
| 11> *
| 12> %MaxCore 64000
| 13>
| 14> %pal nprocs 4
| 15> end
| 16>
| 17> %scf
| 18>   MaxIter 150
| 19> end
| 20>
| 21>
| 22>                          ****END OF INPUT****

CARTESIAN COORDINATES (ANGSTROEM)
---------------------------------
  C     -0.778940    0.171970    1.804960
  C     -0.602490   -0.630710    0.492240
  H      0.313890   -1.240350    0.603500
  H     -0.363830    0.113320   -0.301170
  F     -1.712060   -1.376840    0.202530
  H     -1.658640    0.777330    1.737360
  H      0.074660    0.798960    1.957120
  H     -0.874740   -0.505840    2.627340

 Total Charge           Charge          ....    0
 Multiplicity           Mult            ....    1
 Number of Electrons    NEL             ....   26
 Basis Dimension        Dim             ....  159

ORBITAL ENERGIES
----------------

  NO   OCC          E(Eh)            E(eV)
   0   2.0000     -24.248053      -659.8231
   1   2.0000      -9.957670      -270.9620
   2   2.0000      -9.874878      -268.7091
   3   2.0000      -1.101177       -29.9645
   4   2.0000      -0.691866       -18.8266
   5   2.0000      -0.569810       -15.5053
   6   2.0000      -0.457129       -12.4391
   7   2.0000      -0.440098       -11.9757
   8   2.0000      -0.403308       -10.9746
   9   2.0000      -0.355395        -9.6708
  10   2.0000      -0.354158        -9.6371
  11   2.0000      -0.286981        -7.8092
  12   2.0000      -0.284106        -7.7309
  13   0.0000      -0.005401        -0.1470
  14   0.0000       0.022606         0.6151
  15   0.0000       0.033762         0.9187
  16   0.0000       0.041342         1.1250
  17   0.0000       0.065792         1.7903

MULLIKEN ATOMIC CHARGES
-----------------------
   0 C :   -0.691875
   1 C :   -0.003974
   2 H :    0.147314
   3 H :    0.144152
   4 F :   -0.243716
   5 H :    0.201663
   6 H :    0.247709
   7 H :    0.198726
Sum of atomic charges:   -0.0000000

LOEWDIN ATOMIC CHARGES
----------------------
   0 C :   -0.082895
   1 C :   -0.303923
   2 H :    0.108470
   3 H :    0.110874
   4 F :   -0.022146
   5 H :    0.063010
   6 H :    0.064794
   7 H :    0.061816

  Mayer bond orders larger than 0.100000
B(  0-C ,  1-C ) :   0.9119 B(  0-C ,  5-H ) :   0.9748 B(  0-C ,  6-H ) :   0.9462
B(  0-C ,  7-H ) :   0.9733 B(  1-C ,  2-H ) :   0.9818 B(  1-C ,  3-H ) :   0.9828
B(  1-C ,  4-F ) :   0.8857

Dispersion correction           -0.003480356
FINAL SINGLE POINT ENERGY      -178.924512827619

DIPOLE MOMENT
-------------
                                X             Y             Z
Electronic contribution:     -2.77027      -3.31546      -2.83498
Nuclear contribution   :      3.27800       3.70743       3.04146
                        -----------------------------------------
Total Dipole Moment    :      0.50773       0.39198       0.20648
                        -----------------------------------------
Magnitude (a.u.)       :      0.67385
Magnitude (Debye)      :      1.71279

Rotational constants in cm-1:     1.234437     0.305084     0.268865
Rotational constants in MHz : 37007.496448  9146.194083  8060.380630

                             ****ORCA TERMINATED NORMALLY****
TOTAL RUN TIME: 0 days 0 hours 0 minutes 8 seconds 261 msec
