                         Program Version 5.0.0 -  RELEASE  -
|  1> !PBE D3BJ RIJCOSX def2-TZVPD def2/J TightSCF
|  2> *xyz 0 1
|  3> C         -2.12050        0.88520        1.78951
|  4> C         -0.77894        0.17197        1.80496
|  5> H         -2.32419        1.47265        2.68608
|  6> H         -2.18770        1.54127        0.91948
|  7> C         -3.17690       -0.15948        1.61070
|  8> H         -4.06474        0.23127        1.28675
|  9> H         -3.34407       -0.67151        2.48493
| 10> H         -2.71686       -0.78189        0.93588
| 11> H         -0.65708       -0.37837        0.89547
| 12> H         -0.74207       -0.50050        2.63642
| 13> H          0.00707        0.89251        1.89389
| 14> *
| 15> %MaxCore 64000
| 16>
| 17> %pal nprocs 4
| 18> end
| 19>
| 20> %scf
| 21>   MaxIter 150
| 22> end
| 23>
| 24>
| 25>                          ****END OF INPUT****

CARTESIAN COORDINATES (ANGSTROEM)
---------------------------------
  C     -2.120500    0.885200    1.789510
  C     -0.778940    0.171970    1.804960
  H     -2.324190    1.472650    2.686080
  H     -2.187700    1.541270    0.919480
  C     -3.176900   -0.159480    1.610700
  H     -4.064740    0.231270    1.286750
  H     -3.344070   -0.671510    2.484930
  H     -2.716860   -0.781890    0.935880
  H     -0.657080   -0.378370    0.895470
  H     -0.742070   -0.500500    2.636420
  H      0.007070    0.892510    1.893890

 Total Charge           Charge          ....    0
 Multiplicity           Mult            ....    1
 Number of Electrons    NEL             ....   26
 Basis Dimension        Dim             ....  183

ORBITAL ENERGIES
----------------

  NO   OCC          E(Eh)            E(eV)
   0   2.0000      -9.868161      -268.5263
   1   2.0000      -9.858534      -268.2644
   2   2.0000      -9.838932      -267.7310
   3   2.0000      -0.722899       -19.6711
   4   2.0000      -0.619246       -16.8505
   5   2.0000      -0.525769       -14.3069
   6   2.0000      -0.422168       -11.4878
   7   2.0000      -0.404806       -11.0153
   8   2.0000      -0.354577        -9.6485
   9   2.0000      -0.339813        -9.2468
  10   2.0000      -0.298537        -8.1236
  11   2.0000      -0.290696        -7.9102
  12   2.0000      -0.285883        -7.7793
  13   0.0000      -0.001416        -0.0385
  14   0.0000       0.024259         0.6601
  15   0.0000       0.027576         0.7504
  16   0.0000       0.043265         1.1773
  17   0.0000       0.064388         1.7521

MULLIKEN ATOMIC CHARGES
-----------------------
   0 C :    0.169046
   1 C :   -0.914473
   2 H :    0.146392
   3 H :    0.130676
   4 C :   -0.982801
   5 H :    0.230146
   6 H :    0.277075
   7 H :    0.241381
   8 H :    0.264994
   9 H :    0.239839
  10 H :    0.197725
Sum of atomic charges:   -0.0000000

LOEWDIN ATOMIC CHARGES
----------------------
   0 C :   -0.316010
   1 C :   -0.122569
   2 H :    0.103768
   3 H :    0.103978
   4 C :   -0.122291
   5 H :    0.050490
   6 H :    0.056371
   7 H :    0.047989
   8 H :    0.066700
   9 H :    0.070211
  10 H :    0.061362

  Mayer bond orders larger than 0.100000
B(  0-C ,  1-C ) :   0.7348 B(  0-C ,  2-H ) :   0.9498 B(  0-C ,  3-H ) :   0.9740
B(  0-C ,  4-C ) :   0.7507 B(  1-C ,  4-C ) :   0.2049 B(  1-C ,  8-H ) :   0.9735
B(  1-C ,  9-H ) :   0.9891 B(  1-C , 10-H ) :   1.0146 B(  4-C ,  5-H ) :   0.9759
B(  4-C ,  6-H ) :   0.9613 B(  4-C ,  7-H ) :   0.9919

Dispersion correction           -0.006236927
FINAL SINGLE POINT ENERGY      -118.986528341322

DIPOLE MOMENT
-------------
                                X             Y             Z
Electronic contribution:     -0.14463       0.47469       0.11295
Nuclear contribution   :      0.13334      -0.45108      -0.10852
                        -----------------------------------------
Total Dipole Moment    :     -0.01129       0.02360       0.00443
                        -----------------------------------------
Magnitude (a.u.)       :      0.02654
Magnitude (Debye)      :      0.06745

Rotational constants in cm-1:     0.972269     0.310387     0.269029
Rotational constants in MHz : 29147.878530  9305.178981  8065.286472

                             ****ORCA TERMINATED NORMALLY****
TOTAL RUN TIME: 0 days 0 hours 0 minutes 9 seconds 745 msec
