                         Program Version 5.0.0 -  RELEASE  -
|  1> !PBE D3BJ RIJCOSX def2-TZVPD def2/J TightSCF xyzfile
|  2>
|  3> *xyzfile 0 1 D.xyz
|  4>
|  5> %MaxCore 64000
|  6>
|  7> %pal nprocs 4
|  8> end
|  9>
| 10> %scf
| 11>   MaxIter 150
| 12> end
| 13>
| 14>
| 15>                          ****END OF INPUT****

CARTESIAN COORDINATES (ANGSTROEM)
---------------------------------
  C     -2.120502    0.885196    1.789506
  C     -0.778939    0.171966    1.804965
  H     -2.324193    1.472649    2.686078
  H     -2.187698    1.541272    0.919482
  C     -3.176900   -0.159484    1.610700
  H      0.015695    0.910767    1.939153
  H     -0.743553   -0.506827    2.665420
  C     -0.602493   -0.630712    0.492240
  H      0.313894   -1.240346    0.603498
  H     -0.363829    0.113322   -0.301169
  F     -1.712061   -1.376836    0.202535
  H     -4.064736    0.231272    1.286754
  H     -3.344073   -0.671511    2.484928
  H     -2.716861   -0.781886    0.935880

 Total Charge           Charge          ....    0
 Multiplicity           Mult            ....    1
 Number of Electrons    NEL             ....   42
 Basis Dimension        Dim             ....  269

ORBITAL ENERGIES
----------------

  NO   OCC          E(Eh)            E(eV)
   0   2.0000     -24.266443      -660.3235
   1   2.0000      -9.965108      -271.1644
   2   2.0000      -9.885994      -269.0116
   3   2.0000      -9.866676      -268.4859
   4   2.0000      -9.805545      -266.8225
   5   2.0000      -1.132920       -30.8283
   6   2.0000      -0.733188       -19.9511
   7   2.0000      -0.665914       -18.1204
   8   2.0000      -0.574489       -15.6326
   9   2.0000      -0.532190       -14.4816
  10   2.0000      -0.474691       -12.9170
  11   2.0000      -0.471273       -12.8240
  12   2.0000      -0.432992       -11.7823
  13   2.0000      -0.392130       -10.6704
  14   2.0000      -0.363019        -9.8783
  15   2.0000      -0.355638        -9.6774
  16   2.0000      -0.334862        -9.1121
  17   2.0000      -0.299583        -8.1521
  18   2.0000      -0.288199        -7.8423
  19   2.0000      -0.282104        -7.6764
  20   2.0000      -0.232902        -6.3376
  21   0.0000      -0.007832        -0.2131
  22   0.0000       0.015926         0.4334
  23   0.0000       0.017254         0.4695
  24   0.0000       0.021125         0.5748
  25   0.0000       0.043818         1.1923

MULLIKEN ATOMIC CHARGES
-----------------------
   0 C :   -0.043962
   1 C :   -0.244406
   2 H :    0.073989
   3 H :    0.158791
   4 C :   -1.018503
   5 H :    0.116017
   6 H :    0.189209
   7 C :   -0.171933
   8 H :    0.170712
   9 H :    0.176996
  10 F :   -0.242546
  11 H :    0.233599
  12 H :    0.279844
  13 H :    0.322194
Sum of atomic charges:   -0.0000000

LOEWDIN ATOMIC CHARGES
----------------------
   0 C :   -0.258142
   1 C :   -0.190053
   2 H :    0.105326
   3 H :    0.111328
   4 C :   -0.104427
   5 H :    0.112278
   6 H :    0.115473
   7 C :   -0.214002
   8 H :    0.117825
   9 H :    0.126086
  10 F :   -0.014840
  11 H :    0.055855
  12 H :    0.061576
  13 H :   -0.024284

  Mayer bond orders larger than 0.100000
B(  0-C ,  1-C ) :   0.8547 B(  0-C ,  2-H ) :   1.0102 B(  0-C ,  3-H ) :   0.9470
B(  0-C ,  4-C ) :   0.8226 B(  0-C ,  7-C ) :   0.1196 B(  1-C ,  4-C ) :   0.2066
B(  1-C ,  5-H ) :   1.0026 B(  1-C ,  6-H ) :   0.9528 B(  1-C ,  7-C ) :   1.0244
B(  4-C , 10-F ) :   0.1042 B(  4-C , 11-H ) :   0.9539 B(  4-C , 12-H ) :   0.9303
B(  4-C , 13-H ) :   1.0894 B(  7-C ,  8-H ) :   0.9772 B(  7-C ,  9-H ) :   0.9888
B(  7-C , 10-F ) :   0.8924 B( 10-F , 13-H ) :  -0.1127 B( 12-H , 13-H ) :   0.1059

Dispersion correction           -0.009946013
FINAL SINGLE POINT ENERGY      -257.408992534515

DIPOLE MOMENT
-------------
                                X             Y             Z
Electronic contribution:      0.85199      -4.22247      -3.74448
Nuclear contribution   :     -0.20666       4.43855       3.76066
                        -----------------------------------------
Total Dipole Moment    :      0.64532       0.21608       0.01618
                        -----------------------------------------
Magnitude (a.u.)       :      0.68073
Magnitude (Debye)      :      1.73028

Rotational constants in cm-1:     0.236353     0.155239     0.105045
Rotational constants in MHz :  7085.692869  4653.957069  3149.180346

                             ****ORCA TERMINATED NORMALLY****
TOTAL RUN TIME: 0 days 0 hours 0 minutes 14 seconds 893 msec
