                         Program Version 5.0.0 -  RELEASE  -
|  1> !PBE D3BJ RIJCOSX def2-SVPD def2/J TightSCF
|  2> *xyz -1 1
|  3> C         -0.10608        1.76991       -4.08984
|  4> C         -0.25875        1.00432       -5.40983
|  5> C          0.39596       -0.37070       -5.33994
|  6> H          0.23915        1.56939       -6.20125
|  7> H         -1.30936        0.88869       -5.68245
|  8> O         -0.32633       -1.39040       -5.49128
|  9> O          1.61941       -0.40073       -5.03683
| 10> H         -0.57627        2.72718       -4.17630
| 11> H          0.93321        1.90140       -3.87192
| 12> H         -0.56868        1.21534       -3.30031
| 13> *
| 14> %MaxCore 64000
| 15>
| 16> %pal nprocs 4
| 17> end
| 18>
| 19> %scf
| 20>   MaxIter 150
| 21> end
| 22>
| 23>
| 24>                          ****END OF INPUT****

CARTESIAN COORDINATES (ANGSTROEM)
---------------------------------
  C     -0.106080    1.769910   -4.089840
  C     -0.258750    1.004320   -5.409830
  C      0.395960   -0.370700   -5.339940
  H      0.239150    1.569390   -6.201250
  H     -1.309360    0.888690   -5.682450
  O     -0.326330   -1.390400   -5.491280
  O      1.619410   -0.400730   -5.036830
  H     -0.576270    2.727180   -4.176300
  H      0.933210    1.901400   -3.871920
  H     -0.568680    1.215340   -3.300310

 Total Charge           Charge          ....   -1
 Multiplicity           Mult            ....    1
 Number of Electrons    NEL             ....   40
 Basis Dimension        Dim             ....  146

ORBITAL ENERGIES
----------------

  NO   OCC          E(Eh)            E(eV)
   0   2.0000     -18.505717      -503.5662
   1   2.0000     -18.504756      -503.5400
   2   2.0000      -9.772131      -265.9132
   3   2.0000      -9.733817      -264.8706
   4   2.0000      -9.722731      -264.5690
   5   2.0000      -0.723825       -19.6963
   6   2.0000      -0.634019       -17.2525
   7   2.0000      -0.528543       -14.3824
   8   2.0000      -0.405961       -11.0468
   9   2.0000      -0.266281        -7.2459
  10   2.0000      -0.243865        -6.6359
  11   2.0000      -0.207785        -5.6541
  12   2.0000      -0.184181        -5.0118
  13   2.0000      -0.167165        -4.5488
  14   2.0000      -0.159880        -4.3506
  15   2.0000      -0.131262        -3.5718
  16   2.0000      -0.120315        -3.2739
  17   2.0000      -0.013374        -0.3639
  18   2.0000      -0.000189        -0.0051
  19   2.0000       0.018377         0.5001
  20   0.0000       0.139279         3.7900
  21   0.0000       0.172462         4.6929
  22   0.0000       0.186634         5.0786
  23   0.0000       0.198029         5.3886
  24   0.0000       0.214122         5.8266

MULLIKEN ATOMIC CHARGES
-----------------------
   0 C :    0.539408
   1 C :   -0.316374
   2 C :    0.379889
   3 H :    0.003581
   4 H :   -0.054609
   5 O :   -0.654102
   6 O :   -0.690922
   7 H :   -0.090388
   8 H :   -0.032277
   9 H :   -0.084204
Sum of atomic charges:   -1.0000000

LOEWDIN ATOMIC CHARGES
----------------------
   0 C :    0.098541
   1 C :   -0.046118
   2 C :   -0.326700
   3 H :    0.005671
   4 H :   -0.002801
   5 O :   -0.316885
   6 O :   -0.312160
   7 H :   -0.046233
   8 H :   -0.029989
   9 H :   -0.023326

  Mayer bond orders larger than 0.100000
B(  0-C ,  1-C ) :   1.3255 B(  0-C ,  4-H ) :   0.1012 B(  0-C ,  7-H ) :   0.8483
B(  0-C ,  8-H ) :   0.8275 B(  0-C ,  9-H ) :   0.8496 B(  1-C ,  2-C ) :   1.0753
B(  1-C ,  3-H ) :   0.8788 B(  1-C ,  4-H ) :   0.9735 B(  1-C ,  7-H ) :   0.1696
B(  1-C ,  8-H ) :   0.2028 B(  1-C ,  9-H ) :   0.1784 B(  2-C ,  4-H ) :   0.1751
B(  2-C ,  5-O ) :   1.4475 B(  2-C ,  6-O ) :   1.4782

Dispersion correction           -0.006554504
FINAL SINGLE POINT ENERGY      -267.356750569191

DIPOLE MOMENT
-------------
                                X             Y             Z
Electronic contribution:      1.76874      -5.36531      -1.70400
Nuclear contribution   :     -2.46071       7.20791       1.95694
                        -----------------------------------------
Total Dipole Moment    :     -0.69198       1.84260       0.25293
                        -----------------------------------------
Magnitude (a.u.)       :      1.98444
Magnitude (Debye)      :      5.04404

Rotational constants in cm-1:     0.309435     0.135317     0.107436
Rotational constants in MHz :  9276.637721  4056.700783  3220.846587

                             ****ORCA TERMINATED NORMALLY****
TOTAL RUN TIME: 0 days 0 hours 0 minutes 7 seconds 404 msec
