                         Program Version 5.0.0 -  RELEASE  -
|  1> !PBE D3BJ RIJCOSX def2-SVPD def2/J TightSCF
|  2> *xyz 1 1
|  3> C          0.81607       -2.10149       -2.18655
|  4> H          1.69623       -2.36869       -1.60046
|  5> N          1.10055       -2.46749       -3.59927
|  6> C          0.51624       -0.61363       -2.03937
|  7> H         -0.02007       -2.71285       -1.84084
|  8> H          1.70061       -1.75723       -4.07838
|  9> H          0.29386       -2.35977       -4.25632
| 10> H          1.50132       -3.42848       -3.69491
| 11> H         -0.34841       -0.36504       -2.61858
| 12> H          1.35358       -0.04503       -2.38643
| 13> H          0.33317       -0.38682       -1.00984
| 14> *
| 15> %MaxCore 64000
| 16>
| 17> %pal nprocs 4
| 18> end
| 19>
| 20> %scf
| 21>   MaxIter 150
| 22> end
| 23>
| 24>
| 25>                          ****END OF INPUT****

CARTESIAN COORDINATES (ANGSTROEM)
---------------------------------
  C      0.816070   -2.101490   -2.186550
  H      1.696230   -2.368690   -1.600460
  N      1.100550   -2.467490   -3.599270
  C      0.516240   -0.613630   -2.039370
  H     -0.020070   -2.712850   -1.840840
  H      1.700610   -1.757230   -4.078380
  H      0.293860   -2.359770   -4.256320
  H      1.501320   -3.428480   -3.694910
  H     -0.348410   -0.365040   -2.618580
  H      1.353580   -0.045030   -2.386430
  H      0.333170   -0.386820   -1.009840

 Total Charge           Charge          ....    1
 Multiplicity           Mult            ....    1
 Number of Electrons    NEL             ....   26
 Basis Dimension        Dim             ....  124

ORBITAL ENERGIES
----------------

  NO   OCC          E(Eh)            E(eV)
   0   2.0000     -14.337387      -390.1401
   1   2.0000     -10.150573      -276.2111
   2   2.0000     -10.073886      -274.1244
   3   2.0000      -1.124216       -30.5915
   4   2.0000      -0.893356       -24.3095
   5   2.0000      -0.789650       -21.4875
   6   2.0000      -0.738187       -20.0871
   7   2.0000      -0.722691       -19.6654
   8   2.0000      -0.656049       -17.8520
   9   2.0000      -0.592046       -16.1104
  10   2.0000      -0.541928       -14.7466
  11   2.0000      -0.527680       -14.3589
  12   2.0000      -0.508874       -13.8472
  13   0.0000      -0.220541        -6.0012
  14   0.0000      -0.166296        -4.5252
  15   0.0000      -0.161991        -4.4080
  16   0.0000      -0.147379        -4.0104
  17   0.0000      -0.111227        -3.0267

MULLIKEN ATOMIC CHARGES
-----------------------
   0 C :    0.310192
   1 H :   -0.074035
   2 N :   -0.916312
   3 C :    0.620806
   4 H :   -0.091850
   5 H :    0.426298
   6 H :    0.383911
   7 H :    0.388719
   8 H :    0.012488
   9 H :   -0.020713
  10 H :   -0.039504
Sum of atomic charges:    1.0000000

LOEWDIN ATOMIC CHARGES
----------------------
   0 C :    0.045081
   1 H :    0.054213
   2 N :    0.309569
   3 C :    0.173371
   4 H :    0.055364
   5 H :    0.109699
   6 H :    0.114610
   7 H :    0.119736
   8 H :    0.001460
   9 H :    0.000290
  10 H :    0.016608

  Mayer bond orders larger than 0.100000
B(  0-C ,  1-H ) :   0.8931 B(  0-C ,  2-N ) :   0.6864 B(  0-C ,  3-C ) :   1.3600
B(  0-C ,  4-H ) :   0.9093 B(  0-C ,  8-H ) :   0.1485 B(  0-C ,  9-H ) :   0.1581
B(  0-C , 10-H ) :   0.1964 B(  1-H ,  2-N ) :   0.1062 B(  2-N ,  4-H ) :   0.1217
B(  2-N ,  5-H ) :   0.6475 B(  2-N ,  6-H ) :   0.7266 B(  2-N ,  7-H ) :   0.6759
B(  3-C ,  8-H ) :   0.8178 B(  3-C ,  9-H ) :   0.8359 B(  3-C , 10-H ) :   0.8150

Dispersion correction           -0.006143002
FINAL SINGLE POINT ENERGY      -135.255821500348

DIPOLE MOMENT
-------------
                                X             Y             Z
Electronic contribution:      0.41542      -1.42304      -1.05780
Nuclear contribution   :     -0.07506       0.54337      -0.16191
                        -----------------------------------------
Total Dipole Moment    :      0.34036      -0.87967      -1.21971
                        -----------------------------------------
Magnitude (a.u.)       :      1.54187
Magnitude (Debye)      :      3.91913

Rotational constants in cm-1:     0.999557     0.280801     0.246932
Rotational constants in MHz : 29965.963633  8418.199581  7402.841054

                             ****ORCA TERMINATED NORMALLY****
TOTAL RUN TIME: 0 days 0 hours 0 minutes 7 seconds 620 msec
