                         Program Version 5.0.0 -  RELEASE  -
|  1> !PBE D3BJ RIJCOSX def2-SVPD def2/J TightSCF
|  2> *xyz 0 1
|  3> C         -0.10608        1.76991       -4.08984
|  4> C         -0.25875        1.00432       -5.40983
|  5> C          0.39596       -0.37070       -5.33994
|  6> H          0.23915        1.56939       -6.20125
|  7> H         -1.30936        0.88869       -5.68245
|  8> F         -0.32633       -1.39040       -5.49128
|  9> O          1.61941       -0.40073       -5.03683
| 10> H         -0.57627        2.72718       -4.17630
| 11> H          0.93321        1.90140       -3.87192
| 12> H         -0.56868        1.21534       -3.30031
| 13> *
| 14> %MaxCore 64000
| 15>
| 16> %pal nprocs 4
| 17> end
| 18>
| 19> %scf
| 20>   MaxIter 150
| 21> end
| 22>
| 23>
| 24>                          ****END OF INPUT****

CARTESIAN COORDINATES (ANGSTROEM)
---------------------------------
  C     -0.106080    1.769910   -4.089840
  C     -0.258750    1.004320   -5.409830
  C      0.395960   -0.370700   -5.339940
  H      0.239150    1.569390   -6.201250
  H     -1.309360    0.888690   -5.682450
  F     -0.326330   -1.390400   -5.491280
  O      1.619410   -0.400730   -5.036830
  H     -0.576270    2.727180   -4.176300
  H      0.933210    1.901400   -3.871920
  H     -0.568680    1.215340   -3.300310

 Total Charge           Charge          ....    0
 Multiplicity           Mult            ....    1
 Number of Electrons    NEL             ....   40
 Basis Dimension        Dim             ....  146

ORBITAL ENERGIES
----------------

  NO   OCC          E(Eh)            E(eV)
   0   2.0000     -24.345096      -662.4637
   1   2.0000     -18.772132      -510.8157
   2   2.0000     -10.067245      -273.9437
   3   2.0000      -9.930090      -270.2115
   4   2.0000      -9.903354      -269.4840
   5   2.0000      -1.203041       -32.7364
   6   2.0000      -0.936799       -25.4916
   7   2.0000      -0.724769       -19.7220
   8   2.0000      -0.620611       -16.8877
   9   2.0000      -0.575979       -15.6732
  10   2.0000      -0.492255       -13.3949
  11   2.0000      -0.476125       -12.9560
  12   2.0000      -0.451044       -12.2735
  13   2.0000      -0.417721       -11.3668
  14   2.0000      -0.385935       -10.5018
  15   2.0000      -0.358311        -9.7501
  16   2.0000      -0.334933        -9.1140
  17   2.0000      -0.331642        -9.0244
  18   2.0000      -0.309098        -8.4110
  19   2.0000      -0.247039        -6.7223
  20   0.0000      -0.074164        -2.0181
  21   0.0000      -0.004113        -0.1119
  22   0.0000       0.028580         0.7777
  23   0.0000       0.040203         1.0940
  24   0.0000       0.053123         1.4456

MULLIKEN ATOMIC CHARGES
-----------------------
   0 C :    0.585045
   1 C :   -0.344444
   2 C :    0.686315
   3 H :    0.057360
   4 H :   -0.033350
   5 F :   -0.325969
   6 O :   -0.480930
   7 H :   -0.057199
   8 H :   -0.022741
   9 H :   -0.064087
Sum of atomic charges:    0.0000000

LOEWDIN ATOMIC CHARGES
----------------------
   0 C :    0.142454
   1 C :   -0.001465
   2 C :   -0.035931
   3 H :    0.040123
   4 H :    0.022234
   5 F :   -0.017347
   6 O :   -0.120488
   7 H :   -0.012480
   8 H :   -0.008788
   9 H :   -0.008311

  Mayer bond orders larger than 0.100000
B(  0-C ,  1-C ) :   1.3582 B(  0-C ,  7-H ) :   0.8399 B(  0-C ,  8-H ) :   0.8242
B(  0-C ,  9-H ) :   0.8436 B(  1-C ,  2-C ) :   1.1021 B(  1-C ,  3-H ) :   0.8565
B(  1-C ,  4-H ) :   0.9607 B(  1-C ,  7-H ) :   0.1585 B(  1-C ,  8-H ) :   0.1827
B(  1-C ,  9-H ) :   0.1641 B(  2-C ,  5-F ) :   0.7747 B(  2-C ,  6-O ) :   1.7893
B(  5-F ,  6-O ) :   0.1033

Dispersion correction           -0.006229910
FINAL SINGLE POINT ENERGY      -291.873890786075

DIPOLE MOMENT
-------------
                                X             Y             Z
Electronic contribution:      0.87387      -8.19830      -2.56175
Nuclear contribution   :     -1.80992       8.85192       2.42184
                        -----------------------------------------
Total Dipole Moment    :     -0.93605       0.65362      -0.13990
                        -----------------------------------------
Magnitude (a.u.)       :      1.15021
Magnitude (Debye)      :      2.92361

Rotational constants in cm-1:     0.298360     0.128849     0.102271
Rotational constants in MHz :  8944.606599  3862.796179  3066.020510

                             ****ORCA TERMINATED NORMALLY****
TOTAL RUN TIME: 0 days 0 hours 0 minutes 9 seconds 315 msec
