                         Program Version 5.0.0 -  RELEASE  -
|  1> !PBE D3BJ RIJCOSX def2-SVPD def2/J TightSCF
|  2> *xyz 0 1
|  3> C          0.81607       -2.10149       -2.18655
|  4> H          1.69623       -2.36869       -1.60046
|  5> C          1.10055       -2.46749       -3.59927
|  6> C          0.51624       -0.61363       -2.03937
|  7> H         -0.02007       -2.71285       -1.84084
|  8> H          1.70061       -1.75723       -4.07838
|  9> H          0.29386       -2.35977       -4.25632
| 10> H          1.50132       -3.42848       -3.69491
| 11> H         -0.34841       -0.36504       -2.61858
| 12> H          1.35358       -0.04503       -2.38643
| 13> H          0.33317       -0.38682       -1.00984
| 14> *
| 15> %MaxCore 64000
| 16>
| 17> %pal nprocs 4
| 18> end
| 19>
| 20> %scf
| 21>   MaxIter 150
| 22> end
| 23>
| 24>
| 25>                          ****END OF INPUT****

CARTESIAN COORDINATES (ANGSTROEM)
---------------------------------
  C      0.816070   -2.101490   -2.186550
  H      1.696230   -2.368690   -1.600460
  C      1.100550   -2.467490   -3.599270
  C      0.516240   -0.613630   -2.039370
  H     -0.020070   -2.712850   -1.840840
  H      1.700610   -1.757230   -4.078380
  H      0.293860   -2.359770   -4.256320
  H      1.501320   -3.428480   -3.694910
  H     -0.348410   -0.365040   -2.618580
  H      1.353580   -0.045030   -2.386430
  H      0.333170   -0.386820   -1.009840

 Total Charge           Charge          ....    0
 Multiplicity           Mult            ....    1
 Number of Electrons    NEL             ....   26
 Basis Dimension        Dim             ....  124

ORBITAL ENERGIES
----------------

  NO   OCC          E(Eh)            E(eV)
   0   2.0000      -9.886424      -269.0233
   1   2.0000      -9.876172      -268.7443
   2   2.0000      -9.864362      -268.4229
   3   2.0000      -0.711997       -19.3744
   4   2.0000      -0.616399       -16.7731
   5   2.0000      -0.525417       -14.2973
   6   2.0000      -0.411547       -11.1988
   7   2.0000      -0.398441       -10.8421
   8   2.0000      -0.367624       -10.0036
   9   2.0000      -0.331721        -9.0266
  10   2.0000      -0.300789        -8.1849
  11   2.0000      -0.297190        -8.0870
  12   2.0000      -0.279059        -7.5936
  13   0.0000       0.009065         0.2467
  14   0.0000       0.039419         1.0726
  15   0.0000       0.044146         1.2013
  16   0.0000       0.064565         1.7569
  17   0.0000       0.085002         2.3130

MULLIKEN ATOMIC CHARGES
-----------------------
   0 C :   -0.533797
   1 H :   -0.073231
   2 C :    0.808836
   3 C :    0.628700
   4 H :   -0.101943
   5 H :   -0.192397
   6 H :   -0.177795
   7 H :   -0.171569
   8 H :   -0.043121
   9 H :   -0.033584
  10 H :   -0.110098
Sum of atomic charges:   -0.0000000

LOEWDIN ATOMIC CHARGES
----------------------
   0 C :   -0.123165
   1 H :    0.021764
   2 C :    0.100477
   3 C :    0.115578
   4 H :    0.022414
   5 H :   -0.030739
   6 H :   -0.027944
   7 H :   -0.023311
   8 H :   -0.015680
   9 H :   -0.017116
  10 H :   -0.022277

  Mayer bond orders larger than 0.100000
B(  0-C ,  1-H ) :   0.9131 B(  0-C ,  2-C ) :   1.3331 B(  0-C ,  3-C ) :   1.3222
B(  0-C ,  4-H ) :   0.9380 B(  0-C ,  5-H ) :   0.1872 B(  0-C ,  6-H ) :   0.1893
B(  0-C ,  7-H ) :   0.1981 B(  0-C ,  8-H ) :   0.1918 B(  0-C ,  9-H ) :   0.1756
B(  0-C , 10-H ) :   0.1927 B(  1-H ,  2-C ) :   0.1030 B(  2-C ,  4-H ) :   0.1186
B(  2-C ,  5-H ) :   0.7229 B(  2-C ,  6-H ) :   0.6995 B(  2-C ,  7-H ) :   0.7747
B(  3-C ,  8-H ) :   0.8218 B(  3-C ,  9-H ) :   0.8301 B(  3-C , 10-H ) :   0.8275
B(  5-H ,  6-H ) :   0.3111

Dispersion correction           -0.006140592
FINAL SINGLE POINT ENERGY      -118.867594436943

DIPOLE MOMENT
-------------
                                X             Y             Z
Electronic contribution:     -0.01812      -0.31055       0.46518
Nuclear contribution   :      0.01737       0.30387      -0.47422
                        -----------------------------------------
Total Dipole Moment    :     -0.00074      -0.00668      -0.00904
                        -----------------------------------------
Magnitude (a.u.)       :      0.01126
Magnitude (Debye)      :      0.02863

Rotational constants in cm-1:     1.006891     0.295208     0.258491
Rotational constants in MHz : 30185.831813  8850.104914  7749.351732

                             ****ORCA TERMINATED NORMALLY****
TOTAL RUN TIME: 0 days 0 hours 0 minutes 7 seconds 795 msec
