                         Program Version 5.0.0 -  RELEASE  -
|  1> !PBE D3BJ RIJCOSX def2-SVPD def2/J TightSCF
|  2> *xyz 0 1
|  3> C         -0.10608        1.76991       -4.08984
|  4> C         -0.25875        1.00432       -5.40983
|  5> C          0.39596       -0.37070       -5.33994
|  6> H          0.23915        1.56939       -6.20125
|  7> H         -1.30936        0.88869       -5.68245
|  8> O         -0.32633       -1.39040       -5.49128
|  9> F          1.61941       -0.40073       -5.03683
| 10> H         -0.57627        2.72718       -4.17630
| 11> H          0.93321        1.90140       -3.87192
| 12> H         -0.56868        1.21534       -3.30031
| 13> *
| 14> %MaxCore 64000
| 15>
| 16> %pal nprocs 4
| 17> end
| 18>
| 19> %scf
| 20>   MaxIter 150
| 21> end
| 22>
| 23>
| 24>                          ****END OF INPUT****

CARTESIAN COORDINATES (ANGSTROEM)
---------------------------------
  C     -0.106080    1.769910   -4.089840
  C     -0.258750    1.004320   -5.409830
  C      0.395960   -0.370700   -5.339940
  H      0.239150    1.569390   -6.201250
  H     -1.309360    0.888690   -5.682450
  O     -0.326330   -1.390400   -5.491280
  F      1.619410   -0.400730   -5.036830
  H     -0.576270    2.727180   -4.176300
  H      0.933210    1.901400   -3.871920
  H     -0.568680    1.215340   -3.300310

 Total Charge           Charge          ....    0
 Multiplicity           Mult            ....    1
 Number of Electrons    NEL             ....   40
 Basis Dimension        Dim             ....  146

ORBITAL ENERGIES
----------------

  NO   OCC          E(Eh)            E(eV)
   0   2.0000     -24.343802      -662.4285
   1   2.0000     -18.772561      -510.8273
   2   2.0000     -10.066485      -273.9230
   3   2.0000      -9.929887      -270.2060
   4   2.0000      -9.908338      -269.6196
   5   2.0000      -1.201606       -32.6974
   6   2.0000      -0.936625       -25.4869
   7   2.0000      -0.729250       -19.8439
   8   2.0000      -0.617927       -16.8146
   9   2.0000      -0.579291       -15.7633
  10   2.0000      -0.493185       -13.4202
  11   2.0000      -0.479499       -13.0478
  12   2.0000      -0.445731       -12.1290
  13   2.0000      -0.417381       -11.3575
  14   2.0000      -0.387629       -10.5479
  15   2.0000      -0.360670        -9.8143
  16   2.0000      -0.339084        -9.2270
  17   2.0000      -0.335585        -9.1317
  18   2.0000      -0.314577        -8.5601
  19   2.0000      -0.243908        -6.6371
  20   0.0000      -0.071142        -1.9359
  21   0.0000      -0.006387        -0.1738
  22   0.0000       0.029390         0.7998
  23   0.0000       0.039459         1.0737
  24   0.0000       0.053990         1.4691

MULLIKEN ATOMIC CHARGES
-----------------------
   0 C :    0.572368
   1 C :   -0.319652
   2 C :    0.702820
   3 H :    0.045550
   4 H :   -0.045094
   5 O :   -0.454591
   6 F :   -0.351329
   7 H :   -0.055210
   8 H :   -0.032889
   9 H :   -0.061974
Sum of atomic charges:   -0.0000000

LOEWDIN ATOMIC CHARGES
----------------------
   0 C :    0.137687
   1 C :    0.003476
   2 C :   -0.040978
   3 H :    0.034843
   4 H :    0.034963
   5 O :   -0.118946
   6 F :   -0.018616
   7 H :   -0.012010
   8 H :   -0.013758
   9 H :   -0.006661

  Mayer bond orders larger than 0.100000
B(  0-C ,  1-C ) :   1.3365 B(  0-C ,  7-H ) :   0.8478 B(  0-C ,  8-H ) :   0.8188
B(  0-C ,  9-H ) :   0.8556 B(  1-C ,  2-C ) :   1.0765 B(  1-C ,  3-H ) :   0.8576
B(  1-C ,  4-H ) :   0.9793 B(  1-C ,  7-H ) :   0.1581 B(  1-C ,  8-H ) :   0.1758
B(  1-C ,  9-H ) :   0.1584 B(  2-C ,  4-H ) :   0.1263 B(  2-C ,  5-O ) :   1.7866
B(  2-C ,  6-F ) :   0.7488 B(  5-O ,  6-F ) :   0.1122

Dispersion correction           -0.006191723
FINAL SINGLE POINT ENERGY      -291.875151291284

DIPOLE MOMENT
-------------
                                X             Y             Z
Electronic contribution:      4.07514      -6.53521      -1.80645
Nuclear contribution   :     -3.93139       7.77287       1.92635
                        -----------------------------------------
Total Dipole Moment    :      0.14375       1.23766       0.11990
                        -----------------------------------------
Magnitude (a.u.)       :      1.25174
Magnitude (Debye)      :      3.18166

Rotational constants in cm-1:     0.286068     0.133630     0.103472
Rotational constants in MHz :  8576.109806  4006.118234  3102.010802

                             ****ORCA TERMINATED NORMALLY****
TOTAL RUN TIME: 0 days 0 hours 0 minutes 9 seconds 321 msec
