                         Program Version 5.0.0 -  RELEASE  -
|  1> !wB97X-D3 RIJCOSX def2-TZVPD def2/J TightSCF
|  2> *xyz -1 1
|  3> C          0.61188        1.65763       -4.50029
|  4> C          1.69499        1.54179       -5.57045
|  5> H          2.69733        1.73466       -5.18400
|  6> H          1.50666        2.27224       -6.35808
|  7> S          1.78029       -0.03313       -6.42874
|  8> O          2.56929        0.21366       -7.60736
|  9> O          0.41688       -0.46297       -6.61859
| 10> O          2.50513       -0.93326       -5.48257
| 11> H         -0.34424        1.45871       -4.93752
| 12> H          0.61845        2.64655       -4.09174
| 13> H          0.80247        0.94882       -3.72173
| 14> *
| 15> %MaxCore 64000
| 16>
| 17> %pal nprocs 4
| 18> end
| 19>
| 20> %scf
| 21>   MaxIter 150
| 22> end
| 23>
| 24>
| 25>                          ****END OF INPUT****

CARTESIAN COORDINATES (ANGSTROEM)
---------------------------------
  C      0.611880    1.657630   -4.500290
  C      1.694990    1.541790   -5.570450
  H      2.697330    1.734660   -5.184000
  H      1.506660    2.272240   -6.358080
  S      1.780290   -0.033130   -6.428740
  O      2.569290    0.213660   -7.607360
  O      0.416880   -0.462970   -6.618590
  O      2.505130   -0.933260   -5.482570
  H     -0.344240    1.458710   -4.937520
  H      0.618450    2.646550   -4.091740
  H      0.802470    0.948820   -3.721730

 Total Charge           Charge          ....   -1
 Multiplicity           Mult            ....    1
 Number of Electrons    NEL             ....   58
 Basis Dimension        Dim             ....  285

ORBITAL ENERGIES
----------------

  NO   OCC          E(Eh)            E(eV)
   0   2.0000     -88.933641     -2420.0074
   1   2.0000     -19.012352      -517.3524
   2   2.0000     -19.011638      -517.3330
   3   2.0000     -18.992926      -516.8238
   4   2.0000     -10.136682      -275.8331
   5   2.0000     -10.129824      -275.6465
   6   2.0000      -7.996753      -217.6027
   7   2.0000      -5.950996      -161.9348
   8   2.0000      -5.949808      -161.9025
   9   2.0000      -5.949401      -161.8914
  10   2.0000      -1.040632       -28.3170
  11   2.0000      -0.912454       -24.8291
  12   2.0000      -0.878783       -23.9129
  13   2.0000      -0.749457       -20.3938
  14   2.0000      -0.620055       -16.8726
  15   2.0000      -0.487565       -13.2673
  16   2.0000      -0.420432       -11.4405
  17   2.0000      -0.417481       -11.3602
  18   2.0000      -0.376375       -10.2417
  19   2.0000      -0.361382        -9.8337
  20   2.0000      -0.354149        -9.6369
  21   2.0000      -0.325450        -8.8559
  22   2.0000      -0.309792        -8.4299
  23   2.0000      -0.249625        -6.7926
  24   2.0000      -0.248401        -6.7593
  25   2.0000      -0.213877        -5.8199
  26   2.0000      -0.203140        -5.5277
  27   2.0000      -0.189030        -5.1438
  28   2.0000      -0.156522        -4.2592
  29   0.0000       0.175166         4.7665
  30   0.0000       0.185455         5.0465
  31   0.0000       0.186954         5.0873
  32   0.0000       0.194112         5.2821
  33   0.0000       0.221071         6.0156

MULLIKEN ATOMIC CHARGES
-----------------------
   0 C :   -1.158462
   1 C :   -0.368765
   2 H :    0.280044
   3 H :    0.282048
   4 S :    1.184805
   5 O :   -0.692387
   6 O :   -0.701895
   7 O :   -0.748402
   8 H :    0.298430
   9 H :    0.322028
  10 H :    0.302556
Sum of atomic charges:   -1.0000000

LOEWDIN ATOMIC CHARGES
----------------------
   0 C :   -0.146361
   1 C :   -0.330510
   2 H :    0.085504
   3 H :    0.079827
   4 S :    0.349433
   5 O :   -0.390475
   6 O :   -0.384513
   7 O :   -0.433466
   8 H :    0.056935
   9 H :    0.049879
  10 H :    0.063748

  Mayer bond orders larger than 0.100000
B(  0-C ,  1-C ) :   0.7109 B(  0-C ,  8-H ) :   0.9826 B(  0-C ,  9-H ) :   0.9179
B(  0-C , 10-H ) :   0.9695 B(  1-C ,  2-H ) :   0.9549 B(  1-C ,  3-H ) :   0.9512
B(  1-C ,  4-S ) :   0.8497 B(  1-C ,  5-O ) :   0.1376 B(  1-C ,  7-O ) :   0.1273
B(  4-S ,  5-O ) :   1.5249 B(  4-S ,  6-O ) :   1.5286 B(  4-S ,  7-O ) :   1.4767

Dispersion correction           -0.002885916
FINAL SINGLE POINT ENERGY      -703.222133429250

DIPOLE MOMENT
-------------
                                X             Y             Z
Electronic contribution:      2.22441      -5.59706      -4.98426
Nuclear contribution   :     -2.69163       7.29476       5.86550
                        -----------------------------------------
Total Dipole Moment    :     -0.46722       1.69770       0.88124
                        -----------------------------------------
Magnitude (a.u.)       :      1.96903
Magnitude (Debye)      :      5.00487

Rotational constants in cm-1:     0.163060     0.082831     0.081111
Rotational constants in MHz :  4888.419330  2483.225008  2431.646841

                             ****ORCA TERMINATED NORMALLY****
TOTAL RUN TIME: 0 days 0 hours 1 minutes 6 seconds 881 msec
