                         Program Version 5.0.0 -  RELEASE  -
|  1> !wB97X-D3 RIJCOSX def2-TZVPD def2/J TightSCF
|  2> *xyz 1 1
|  3> C          1.96337       -1.74915       -1.89689
|  4> N          2.73849       -2.01517       -3.09711
|  5> C          4.04974       -2.15472       -3.15204
|  6> N          4.65821       -1.98629       -4.31866
|  7> N          4.76423       -2.45444       -2.05049
|  8> H          4.28736       -2.77626       -1.21750
|  9> H          5.75082       -2.65835       -2.12599
| 10> H          2.34518       -1.69027       -3.97145
| 11> H          4.10900       -1.59268       -5.07176
| 12> H          5.64910       -2.15646       -4.42724
| 13> C          2.08852       -0.30091       -1.41520
| 14> H          2.23127       -2.45162       -1.10264
| 15> H          0.93025       -1.97780       -2.15544
| 16> H          1.82118        0.36368       -2.21003
| 17> H          3.09792       -0.11068       -1.11551
| 18> H          1.43391       -0.14382       -0.58352
| 19> *
| 20> %MaxCore 64000
| 21>
| 22> %pal nprocs 4
| 23> end
| 24>
| 25> %scf
| 26>   MaxIter 150
| 27> end
| 28>
| 29>
| 30>                          ****END OF INPUT****

CARTESIAN COORDINATES (ANGSTROEM)
---------------------------------
  C      1.963370   -1.749150   -1.896890
  N      2.738490   -2.015170   -3.097110
  C      4.049740   -2.154720   -3.152040
  N      4.658210   -1.986290   -4.318660
  N      4.764230   -2.454440   -2.050490
  H      4.287360   -2.776260   -1.217500
  H      5.750820   -2.658350   -2.125990
  H      2.345180   -1.690270   -3.971450
  H      4.109000   -1.592680   -5.071760
  H      5.649100   -2.156460   -4.427240
  C      2.088520   -0.300910   -1.415200
  H      2.231270   -2.451620   -1.102640
  H      0.930250   -1.977800   -2.155440
  H      1.821180    0.363680   -2.210030
  H      3.097920   -0.110680   -1.115510
  H      1.433910   -0.143820   -0.583520

 Total Charge           Charge          ....    1
 Multiplicity           Mult            ....    1
 Number of Electrons    NEL             ....   48
 Basis Dimension        Dim             ....  312

ORBITAL ENERGIES
----------------

  NO   OCC          E(Eh)            E(eV)
   0   2.0000     -14.646022      -398.5385
   1   2.0000     -14.645566      -398.5261
   2   2.0000     -14.643939      -398.4818
   3   2.0000     -10.613427      -288.8060
   4   2.0000     -10.482395      -285.2405
   5   2.0000     -10.408404      -283.2271
   6   2.0000      -1.336301       -36.3626
   7   2.0000      -1.222144       -33.2562
   8   2.0000      -1.208916       -32.8963
   9   2.0000      -1.045456       -28.4483
  10   2.0000      -0.951776       -25.8991
  11   2.0000      -0.913129       -24.8475
  12   2.0000      -0.887628       -24.1536
  13   2.0000      -0.849245       -23.1091
  14   2.0000      -0.793521       -21.5928
  15   2.0000      -0.785327       -21.3698
  16   2.0000      -0.758535       -20.6408
  17   2.0000      -0.727696       -19.8016
  18   2.0000      -0.700102       -19.0507
  19   2.0000      -0.661713       -18.0061
  20   2.0000      -0.627913       -17.0864
  21   2.0000      -0.607202       -16.5228
  22   2.0000      -0.572164       -15.5694
  23   2.0000      -0.541911       -14.7462
  24   0.0000      -0.090988        -2.4759
  25   0.0000      -0.088390        -2.4052
  26   0.0000      -0.058196        -1.5836
  27   0.0000      -0.050311        -1.3690
  28   0.0000      -0.023000        -0.6259

MULLIKEN ATOMIC CHARGES
-----------------------
   0 C :   -0.574216
   1 N :   -0.186288
   2 C :    0.846840
   3 N :   -0.412734
   4 N :   -0.365904
   5 H :    0.214683
   6 H :    0.206813
   7 H :    0.231727
   8 H :    0.208228
   9 H :    0.209107
  10 C :   -1.063814
  11 H :    0.332034
  12 H :    0.327390
  13 H :    0.333228
  14 H :    0.319155
  15 H :    0.373752
Sum of atomic charges:    1.0000000

LOEWDIN ATOMIC CHARGES
----------------------
   0 C :   -0.202478
   1 N :    0.075571
   2 C :   -0.430129
   3 N :    0.204059
   4 N :    0.212635
   5 H :    0.129199
   6 H :    0.138387
   7 H :    0.166065
   8 H :    0.141299
   9 H :    0.143872
  10 C :   -0.058561
  11 H :    0.118785
  12 H :    0.130020
  13 H :    0.077740
  14 H :    0.070638
  15 H :    0.082897

  Mayer bond orders larger than 0.100000
B(  0-C ,  1-N ) :   0.8870 B(  0-C , 10-C ) :   0.7497 B(  0-C , 11-H ) :   0.8803
B(  0-C , 12-H ) :   0.9208 B(  1-N ,  2-C ) :   1.2347 B(  1-N ,  3-N ) :   0.1143
B(  1-N ,  7-H ) :   0.9746 B(  2-C ,  3-N ) :   1.0081 B(  2-C ,  4-N ) :   1.1100
B(  3-N ,  8-H ) :   0.9971 B(  3-N ,  9-H ) :   1.0296 B(  4-N ,  5-H ) :   0.9473
B(  4-N ,  6-H ) :   1.0305 B( 10-C , 13-H ) :   0.9630 B( 10-C , 14-H ) :   0.9449
B( 10-C , 15-H ) :   0.9310

Dispersion correction           -0.003864095
FINAL SINGLE POINT ENERGY      -284.431022826111

DIPOLE MOMENT
-------------
                                X             Y             Z
Electronic contribution:      3.02189      -2.70950      -3.09423
Nuclear contribution   :     -2.17768       2.37118       2.44574
                        -----------------------------------------
Total Dipole Moment    :      0.84421      -0.33832      -0.64849
                        -----------------------------------------
Magnitude (a.u.)       :      1.11700
Magnitude (Debye)      :      2.83920

Rotational constants in cm-1:     0.215650     0.075183     0.066454
Rotational constants in MHz :  6465.033740  2253.919004  1992.232519

                             ****ORCA TERMINATED NORMALLY****
TOTAL RUN TIME: 0 days 0 hours 1 minutes 26 seconds 558 msec
