                         Program Version 5.0.0 -  RELEASE  -
|  1> !wB97X-D3 RIJCOSX def2-TZVPD def2/J TightSCF xyzfile
|  2>
|  3> *xyzfile 0 1 B.xyz
|  4>
|  5> %MaxCore 64000
|  6>
|  7> %pal nprocs 18
|  8> end
|  9>
| 10> %scf
| 11>   MaxIter 150
| 12> end
| 13>
| 14>
| 15>                          ****END OF INPUT****

CARTESIAN COORDINATES (ANGSTROEM)
---------------------------------
  C      1.963365   -1.749150   -1.896887
  N      2.738490   -2.015170   -3.097113
  C      0.611877    1.657634   -4.500288
  C      1.694991    1.541794   -5.570447
  H      2.697326    1.734659   -5.183996
  H      1.506656    2.272239   -6.358076
  S      1.780287   -0.033128   -6.428739
  C      4.049736   -2.154717   -3.152044
  N      4.658206   -1.986293   -4.318655
  N      4.764231   -2.454435   -2.050491
  H      4.287363   -2.776259   -1.217496
  H      5.750825   -2.658351   -2.125988
  H      2.345176   -1.690274   -3.971447
  H      4.109004   -1.592677   -5.071760
  H      5.649095   -2.156462   -4.427237
  O      2.569287    0.213657   -7.607360
  O      0.416880   -0.462969   -6.618595
  C      2.088520   -0.300912   -1.415204
  H      2.231272   -2.451616   -1.102643
  H      0.930249   -1.977801   -2.155438
  C      0.680356    0.655418   -3.348038
  H     -0.356865    1.549231   -4.991128
  H      0.650228    2.675438   -4.096000
  C      1.968993    0.733582   -2.535654
  H      3.051356   -0.168602   -0.911868
  H      1.316501   -0.136231   -0.657252
  O      2.505129   -0.933263   -5.482570
  H      2.824195    0.624726   -3.208464
  H      2.058919    1.730331   -2.093112
  H      0.542252   -0.344731   -3.766662
  H     -0.174219    0.829692   -2.685182

 Total Charge           Charge          ....    0
 Multiplicity           Mult            ....    1
 Number of Electrons    NEL             ....  120
 Basis Dimension        Dim             ....  689

ORBITAL ENERGIES
----------------

  NO   OCC          E(Eh)            E(eV)
   0   2.0000     -89.081321     -2424.0260
   1   2.0000     -19.170054      -521.6437
   2   2.0000     -19.149913      -521.0956
   3   2.0000     -19.148586      -521.0595
   4   2.0000     -14.509709      -394.8292
   5   2.0000     -14.480726      -394.0406
   6   2.0000     -14.477607      -393.9557
   7   2.0000     -10.462096      -284.6881
   8   2.0000     -10.348761      -281.6041
   9   2.0000     -10.298467      -280.2355
  10   2.0000     -10.278982      -279.7053
  11   2.0000     -10.267038      -279.3803
  12   2.0000     -10.264167      -279.3022
  13   2.0000     -10.263103      -279.2732
  14   2.0000      -8.144723      -221.6292
  15   2.0000      -6.099278      -165.9698
  16   2.0000      -6.098039      -165.9361
  17   2.0000      -6.096709      -165.8999
  18   2.0000      -1.190449       -32.3938
  19   2.0000      -1.183604       -32.2075
  20   2.0000      -1.074455       -29.2374
  21   2.0000      -1.060126       -28.8475
  22   2.0000      -1.049668       -28.5629
  23   2.0000      -1.048418       -28.5289
  24   2.0000      -0.939938       -25.5770
  25   2.0000      -0.899645       -24.4806
  26   2.0000      -0.849984       -23.1292
  27   2.0000      -0.808929       -22.0121
  28   2.0000      -0.780310       -21.2333
  29   2.0000      -0.743022       -20.2187
  30   2.0000      -0.736101       -20.0303
  31   2.0000      -0.702039       -19.1035
  32   2.0000      -0.681516       -18.5450
  33   2.0000      -0.659061       -17.9340
  34   2.0000      -0.642324       -17.4785
  35   2.0000      -0.624695       -16.9988
  36   2.0000      -0.608063       -16.5462
  37   2.0000      -0.582722       -15.8567
  38   2.0000      -0.578845       -15.7512
  39   2.0000      -0.572167       -15.5694
  40   2.0000      -0.556616       -15.1463
  41   2.0000      -0.540414       -14.7054
  42   2.0000      -0.527410       -14.3516
  43   2.0000      -0.516973       -14.0676
  44   2.0000      -0.500626       -13.6227
  45   2.0000      -0.492499       -13.4016
  46   2.0000      -0.474225       -12.9043
  47   2.0000      -0.466355       -12.6902
  48   2.0000      -0.459747       -12.5104
  49   2.0000      -0.432281       -11.7630
  50   2.0000      -0.429317       -11.6823
  51   2.0000      -0.422975       -11.5097
  52   2.0000      -0.406649       -11.0655
  53   2.0000      -0.402374       -10.9492
  54   2.0000      -0.395159       -10.7528
  55   2.0000      -0.388204       -10.5636
  56   2.0000      -0.358500        -9.7553
  57   2.0000      -0.348981        -9.4963
  58   2.0000      -0.338741        -9.2176
  59   2.0000      -0.313976        -8.5437
  60   0.0000       0.024481         0.6662
  61   0.0000       0.049432         1.3451
  62   0.0000       0.053592         1.4583
  63   0.0000       0.072921         1.9843
  64   0.0000       0.075281         2.0485

MULLIKEN ATOMIC CHARGES
-----------------------
   0 C :   -1.094499
   1 N :   -0.004615
   2 C :   -0.694742
   3 C :   -0.709562
   4 H :    0.316528
   5 H :    0.355925
   6 S :    1.048720
   7 C :    0.661066
   8 N :   -0.301327
   9 N :   -0.358252
  10 H :    0.213050
  11 H :    0.188440
  12 H :    0.438079
  13 H :    0.346448
  14 H :    0.139946
  15 O :   -0.713002
  16 O :   -0.704925
  17 C :   -0.346103
  18 H :    0.350220
  19 H :    0.397275
  20 C :   -0.538377
  21 H :    0.297084
  22 H :    0.302080
  23 C :   -0.398533
  24 H :    0.257396
  25 H :    0.353663
  26 O :   -0.911852
  27 H :    0.200282
  28 H :    0.346937
  29 H :    0.239023
  30 H :    0.323627
Sum of atomic charges:    0.0000000

LOEWDIN ATOMIC CHARGES
----------------------
   0 C :   -0.166642
   1 N :    0.089512
   2 C :   -0.227801
   3 C :   -0.251164
   4 H :    0.094115
   5 H :    0.100455
   6 S :    0.443533
   7 C :   -0.435544
   8 N :    0.202415
   9 N :    0.184193
  10 H :    0.114678
  11 H :    0.123065
  12 H :    0.085240
  13 H :    0.081328
  14 H :    0.132203
  15 O :   -0.337328
  16 O :   -0.327587
  17 C :   -0.181958
  18 H :    0.110646
  19 H :    0.126879
  20 C :   -0.214973
  21 H :    0.111107
  22 H :    0.112695
  23 C :   -0.208563
  24 H :    0.105870
  25 H :    0.116117
  26 O :   -0.421028
  27 H :    0.101139
  28 H :    0.120094
  29 H :    0.097694
  30 H :    0.119608

  Mayer bond orders larger than 0.100000
B(  0-C ,  1-N ) :   1.0112 B(  0-C ,  7-C ) :  -0.1460 B(  0-C ,  9-N ) :   0.1130
B(  0-C , 12-H ) :  -0.1687 B(  0-C , 17-C ) :   0.7247 B(  0-C , 18-H ) :   0.8264
B(  0-C , 19-H ) :   0.8569 B(  0-C , 20-C ) :   0.2215 B(  1-N ,  7-C ) :   1.2601
B(  1-N , 12-H ) :   0.7699 B(  2-C ,  3-C ) :   0.9760 B(  2-C ,  6-S ) :   0.1274
B(  2-C , 20-C ) :   1.0416 B(  2-C , 21-H ) :   0.9180 B(  2-C , 22-H ) :   0.9233
B(  2-C , 23-C ) :   0.3403 B(  3-C ,  4-H ) :   0.8769 B(  3-C ,  5-H ) :   0.8805
B(  3-C ,  6-S ) :   0.7566 B(  3-C , 15-O ) :   0.1774 B(  3-C , 16-O ) :   0.1115
B(  3-C , 23-C ) :   0.1372 B(  3-C , 26-O ) :   0.1089 B(  6-S , 15-O ) :   1.4113
B(  6-S , 16-O ) :   1.5151 B(  6-S , 26-O ) :   1.6612 B(  7-C ,  8-N ) :   1.0920
B(  7-C ,  9-N ) :   1.0745 B(  8-N , 13-H ) :   0.8617 B(  8-N , 14-H ) :   1.0870
B(  9-N , 10-H ) :   0.9358 B(  9-N , 11-H ) :   1.0424 B( 17-C , 20-C ) :   0.2572
B( 17-C , 23-C ) :   0.9893 B( 17-C , 24-H ) :   0.9359 B( 17-C , 25-H ) :   0.9196
B( 20-C , 23-C ) :   0.3034 B( 20-C , 29-H ) :   1.0083 B( 20-C , 30-H ) :   0.8239
B( 23-C , 27-H ) :   1.0598 B( 23-C , 28-H ) :   0.8432 B( 23-C , 29-H ) :  -0.1450

Dispersion correction           -0.016453463
FINAL SINGLE POINT ENERGY     -1065.249787309804

DIPOLE MOMENT
-------------
                                X             Y             Z
Electronic contribution:      2.26716      -4.97900     -14.18107
Nuclear contribution   :      0.44641       3.59123      19.13564
                        -----------------------------------------
Total Dipole Moment    :      2.71357      -1.38776       4.95457
                        -----------------------------------------
Magnitude (a.u.)       :      5.81697
Magnitude (Debye)      :     14.78556

Rotational constants in cm-1:     0.029186     0.014646     0.011115
Rotational constants in MHz :   874.975540   439.070287   333.231642

                             ****ORCA TERMINATED NORMALLY****
TOTAL RUN TIME: 0 days 0 hours 2 minutes 47 seconds 894 msec
