                         Program Version 5.0.0 -  RELEASE  -
|  1> !wB97X-D3 RIJCOSX def2-TZVPD def2/J TightSCF
|  2> *xyz 0 1
|  3> C          0.61188        1.65763       -4.50029
|  4> C          1.69499        1.54179       -5.57045
|  5> H          2.69733        1.73466       -5.18400
|  6> H          1.50666        2.27224       -6.35808
|  7> S          1.78029       -0.03313       -6.42874
|  8> F          2.56929        0.21366       -7.60736
|  9> O          0.41688       -0.46297       -6.61859
| 10> O          2.50513       -0.93326       -5.48257
| 11> H         -0.34424        1.45871       -4.93752
| 12> H          0.61845        2.64655       -4.09174
| 13> H          0.80247        0.94882       -3.72173
| 14> *
| 15> %MaxCore 64000
| 16>
| 17> %pal nprocs 4
| 18> end
| 19>
| 20> %scf
| 21>   MaxIter 150
| 22> end
| 23>
| 24>
| 25>                          ****END OF INPUT****

CARTESIAN COORDINATES (ANGSTROEM)
---------------------------------
  C      0.611880    1.657630   -4.500290
  C      1.694990    1.541790   -5.570450
  H      2.697330    1.734660   -5.184000
  H      1.506660    2.272240   -6.358080
  S      1.780290   -0.033130   -6.428740
  F      2.569290    0.213660   -7.607360
  O      0.416880   -0.462970   -6.618590
  O      2.505130   -0.933260   -5.482570
  H     -0.344240    1.458710   -4.937520
  H      0.618450    2.646550   -4.091740
  H      0.802470    0.948820   -3.721730

 Total Charge           Charge          ....    0
 Multiplicity           Mult            ....    1
 Number of Electrons    NEL             ....   58
 Basis Dimension        Dim             ....  285

ORBITAL ENERGIES
----------------

  NO   OCC          E(Eh)            E(eV)
   0   2.0000     -89.196691     -2427.1654
   1   2.0000     -24.910523      -677.8498
   2   2.0000     -19.246877      -523.7341
   3   2.0000     -19.227319      -523.2020
   4   2.0000     -10.338752      -281.3317
   5   2.0000     -10.292884      -280.0836
   6   2.0000      -8.260298      -224.7741
   7   2.0000      -6.217569      -169.1886
   8   2.0000      -6.211348      -169.0194
   9   2.0000      -6.210915      -169.0076
  10   2.0000      -1.504786       -40.9473
  11   2.0000      -1.220369       -33.2079
  12   2.0000      -1.114712       -30.3328
  13   2.0000      -0.940158       -25.5830
  14   2.0000      -0.850601       -23.1460
  15   2.0000      -0.787370       -21.4254
  16   2.0000      -0.695712       -18.9313
  17   2.0000      -0.695146       -18.9159
  18   2.0000      -0.661784       -18.0080
  19   2.0000      -0.597602       -16.2616
  20   2.0000      -0.584637       -15.9088
  21   2.0000      -0.541178       -14.7262
  22   2.0000      -0.529701       -14.4139
  23   2.0000      -0.506611       -13.7856
  24   2.0000      -0.486007       -13.2249
  25   2.0000      -0.482115       -13.1190
  26   2.0000      -0.431597       -11.7444
  27   2.0000      -0.412680       -11.2296
  28   2.0000      -0.398705       -10.8493
  29   0.0000       0.048518         1.3203
  30   0.0000       0.062891         1.7114
  31   0.0000       0.068207         1.8560
  32   0.0000       0.073431         1.9982
  33   0.0000       0.097989         2.6664

MULLIKEN ATOMIC CHARGES
-----------------------
   0 C :   -1.206558
   1 C :   -0.391783
   2 H :    0.345801
   3 H :    0.354971
   4 S :    1.190342
   5 F :   -0.115555
   6 O :   -0.580115
   7 O :   -0.615198
   8 H :    0.340963
   9 H :    0.335318
  10 H :    0.341814
Sum of atomic charges:   -0.0000000

LOEWDIN ATOMIC CHARGES
----------------------
   0 C :   -0.102589
   1 C :   -0.287026
   2 H :    0.103518
   3 H :    0.096382
   4 S :    0.600779
   5 F :   -0.049202
   6 O :   -0.273351
   7 O :   -0.316247
   8 H :    0.072465
   9 H :    0.075659
  10 H :    0.079611

  Mayer bond orders larger than 0.100000
B(  0-C ,  1-C ) :   0.7880 B(  0-C ,  8-H ) :   0.9414 B(  0-C ,  9-H ) :   0.9186
B(  0-C , 10-H ) :   0.9355 B(  1-C ,  2-H ) :   0.8957 B(  1-C ,  3-H ) :   0.8656
B(  1-C ,  4-S ) :   0.8406 B(  1-C ,  7-O ) :   0.1035 B(  4-S ,  5-F ) :   1.0063
B(  4-S ,  6-O ) :   1.6886 B(  4-S ,  7-O ) :   1.6272

Dispersion correction           -0.002888223
FINAL SINGLE POINT ENERGY      -727.738018130511

DIPOLE MOMENT
-------------
                                X             Y             Z
Electronic contribution:      3.86973      -5.62868      -7.54962
Nuclear contribution   :     -3.66946       7.33549       7.42434
                        -----------------------------------------
Total Dipole Moment    :      0.20027       1.70681      -0.12527
                        -----------------------------------------
Magnitude (a.u.)       :      1.72308
Magnitude (Debye)      :      4.37972

Rotational constants in cm-1:     0.158379     0.080294     0.077843
Rotational constants in MHz :  4748.076444  2407.152850  2333.668303

                             ****ORCA TERMINATED NORMALLY****
TOTAL RUN TIME: 0 days 0 hours 1 minutes 9 seconds 826 msec
