                         Program Version 5.0.0 -  RELEASE  -
|  1> !wB97X-D3 RIJCOSX def2-TZVPD def2/J TightSCF
|  2> *xyz 0 1
|  3> C          1.96337       -1.74915       -1.89689
|  4> C          2.73849       -2.01517       -3.09711
|  5> C          4.04974       -2.15472       -3.15204
|  6> N          4.65821       -1.98629       -4.31866
|  7> N          4.76423       -2.45444       -2.05049
|  8> H          4.28736       -2.77626       -1.21750
|  9> H          5.75082       -2.65835       -2.12599
| 10> H          2.34518       -1.69027       -3.97145
| 11> H          4.10900       -1.59268       -5.07176
| 12> H          5.64910       -2.15646       -4.42724
| 13> C          2.08852       -0.30091       -1.41520
| 14> H          2.23127       -2.45162       -1.10264
| 15> H          0.93025       -1.97780       -2.15544
| 16> H          1.82118        0.36368       -2.21003
| 17> H          3.09792       -0.11068       -1.11551
| 18> H          1.43391       -0.14382       -0.58352
| 19> *
| 20> %MaxCore 64000
| 21>
| 22> %pal nprocs 4
| 23> end
| 24>
| 25> %scf
| 26>   MaxIter 150
| 27> end
| 28>
| 29>
| 30>                          ****END OF INPUT****

CARTESIAN COORDINATES (ANGSTROEM)
---------------------------------
  C      1.963370   -1.749150   -1.896890
  C      2.738490   -2.015170   -3.097110
  C      4.049740   -2.154720   -3.152040
  N      4.658210   -1.986290   -4.318660
  N      4.764230   -2.454440   -2.050490
  H      4.287360   -2.776260   -1.217500
  H      5.750820   -2.658350   -2.125990
  H      2.345180   -1.690270   -3.971450
  H      4.109000   -1.592680   -5.071760
  H      5.649100   -2.156460   -4.427240
  C      2.088520   -0.300910   -1.415200
  H      2.231270   -2.451620   -1.102640
  H      0.930250   -1.977800   -2.155440
  H      1.821180    0.363680   -2.210030
  H      3.097920   -0.110680   -1.115510
  H      1.433910   -0.143820   -0.583520

 Total Charge           Charge          ....    0
 Multiplicity           Mult            ....    1
 Number of Electrons    NEL             ....   48
 Basis Dimension        Dim             ....  312

ORBITAL ENERGIES
----------------

  NO   OCC          E(Eh)            E(eV)
   0   2.0000     -14.422879      -392.4665
   1   2.0000     -14.420182      -392.3931
   2   2.0000     -10.319285      -280.8020
   3   2.0000     -10.248168      -278.8668
   4   2.0000     -10.235920      -278.5335
   5   2.0000     -10.191423      -277.3227
   6   2.0000      -1.077834       -29.3294
   7   2.0000      -0.986301       -26.8386
   8   2.0000      -0.889440       -24.2029
   9   2.0000      -0.806982       -21.9591
  10   2.0000      -0.726649       -19.7731
  11   2.0000      -0.684850       -18.6357
  12   2.0000      -0.644545       -17.5390
  13   2.0000      -0.612915       -16.6783
  14   2.0000      -0.571023       -15.5383
  15   2.0000      -0.538158       -14.6440
  16   2.0000      -0.520337       -14.1591
  17   2.0000      -0.485264       -13.2047
  18   2.0000      -0.477293       -12.9878
  19   2.0000      -0.450593       -12.2613
  20   2.0000      -0.421277       -11.4635
  21   2.0000      -0.410800       -11.1784
  22   2.0000      -0.360543        -9.8109
  23   2.0000      -0.245348        -6.6762
  24   0.0000       0.063491         1.7277
  25   0.0000       0.089401         2.4327
  26   0.0000       0.093063         2.5324
  27   0.0000       0.101942         2.7740
  28   0.0000       0.119151         3.2423

MULLIKEN ATOMIC CHARGES
-----------------------
   0 C :   -0.341255
   1 C :   -0.654151
   2 C :    0.420062
   3 N :   -0.437969
   4 N :   -0.405050
   5 H :    0.194100
   6 H :    0.152410
   7 H :    0.342413
   8 H :    0.192080
   9 H :    0.163011
  10 C :   -1.140889
  11 H :    0.346606
  12 H :    0.225102
  13 H :    0.327887
  14 H :    0.296054
  15 H :    0.319588
Sum of atomic charges:    0.0000000

LOEWDIN ATOMIC CHARGES
----------------------
   0 C :   -0.284785
   1 C :   -0.161031
   2 C :   -0.545023
   3 N :    0.103880
   4 N :    0.124541
   5 H :    0.102762
   6 H :    0.099246
   7 H :    0.066519
   8 H :    0.112519
   9 H :    0.103245
  10 C :   -0.103112
  11 H :    0.094422
  12 H :    0.100950
  13 H :    0.066427
  14 H :    0.061886
  15 H :    0.057553

  Mayer bond orders larger than 0.100000
B(  0-C ,  1-C ) :   0.7329 B(  0-C ,  2-C ) :   0.1327 B(  0-C , 10-C ) :   0.5649
B(  0-C , 11-H ) :   0.9242 B(  0-C , 12-H ) :   1.0917 B(  1-C ,  2-C ) :   1.4077
B(  1-C ,  7-H ) :   1.0006 B(  1-C , 10-C ) :   0.1724 B(  2-C ,  3-N ) :   1.0671
B(  2-C ,  4-N ) :   0.9985 B(  2-C ,  7-H ) :  -0.2200 B(  3-N ,  8-H ) :   0.9897
B(  3-N ,  9-H ) :   1.0586 B(  4-N ,  5-H ) :   0.9544 B(  4-N ,  6-H ) :   1.0725
B( 10-C , 13-H ) :   0.9733 B( 10-C , 14-H ) :   0.9785 B( 10-C , 15-H ) :   0.9411

Dispersion correction           -0.003858102
FINAL SINGLE POINT ENERGY      -267.943721150790

DIPOLE MOMENT
-------------
                                X             Y             Z
Electronic contribution:      3.29492      -2.42787      -2.52044
Nuclear contribution   :     -2.31778       2.31977       2.35294
                        -----------------------------------------
Total Dipole Moment    :      0.97714      -0.10810      -0.16750
                        -----------------------------------------
Magnitude (a.u.)       :      0.99727
Magnitude (Debye)      :      2.53486

Rotational constants in cm-1:     0.219415     0.075373     0.066689
Rotational constants in MHz :  6577.897266  2259.621393  1999.290981

                             ****ORCA TERMINATED NORMALLY****
TOTAL RUN TIME: 0 days 0 hours 1 minutes 31 seconds 849 msec
