                         Program Version 5.0.0 -  RELEASE  -
|  1> !wB97X-D3 RIJCOSX def2-TZVPD def2/J TightSCF
|  2> *xyz 0 1
|  3> C          0.61188        1.65763       -4.50029
|  4> C          1.69499        1.54179       -5.57045
|  5> H          2.69733        1.73466       -5.18400
|  6> H          1.50666        2.27224       -6.35808
|  7> S          1.78029       -0.03313       -6.42874
|  8> O          2.56929        0.21366       -7.60736
|  9> F          0.41688       -0.46297       -6.61859
| 10> O          2.50513       -0.93326       -5.48257
| 11> H         -0.34424        1.45871       -4.93752
| 12> H          0.61845        2.64655       -4.09174
| 13> H          0.80247        0.94882       -3.72173
| 14> *
| 15> %MaxCore 64000
| 16>
| 17> %pal nprocs 4
| 18> end
| 19>
| 20> %scf
| 21>   MaxIter 150
| 22> end
| 23>
| 24>
| 25>                          ****END OF INPUT****

CARTESIAN COORDINATES (ANGSTROEM)
---------------------------------
  C      0.611880    1.657630   -4.500290
  C      1.694990    1.541790   -5.570450
  H      2.697330    1.734660   -5.184000
  H      1.506660    2.272240   -6.358080
  S      1.780290   -0.033130   -6.428740
  O      2.569290    0.213660   -7.607360
  F      0.416880   -0.462970   -6.618590
  O      2.505130   -0.933260   -5.482570
  H     -0.344240    1.458710   -4.937520
  H      0.618450    2.646550   -4.091740
  H      0.802470    0.948820   -3.721730

 Total Charge           Charge          ....    0
 Multiplicity           Mult            ....    1
 Number of Electrons    NEL             ....   58
 Basis Dimension        Dim             ....  285

ORBITAL ENERGIES
----------------

  NO   OCC          E(Eh)            E(eV)
   0   2.0000     -89.196381     -2427.1569
   1   2.0000     -24.909957      -677.8344
   2   2.0000     -19.246461      -523.7228
   3   2.0000     -19.227466      -523.2059
   4   2.0000     -10.338565      -281.3267
   5   2.0000     -10.298465      -280.2355
   6   2.0000      -8.260010      -224.7663
   7   2.0000      -6.217474      -169.1861
   8   2.0000      -6.210911      -169.0075
   9   2.0000      -6.210592      -168.9988
  10   2.0000      -1.503203       -40.9042
  11   2.0000      -1.221357       -33.2348
  12   2.0000      -1.114493       -30.3269
  13   2.0000      -0.944116       -25.6907
  14   2.0000      -0.846400       -23.0317
  15   2.0000      -0.792900       -21.5759
  16   2.0000      -0.706284       -19.2190
  17   2.0000      -0.693982       -18.8842
  18   2.0000      -0.651885       -17.7387
  19   2.0000      -0.598607       -16.2889
  20   2.0000      -0.578671       -15.7464
  21   2.0000      -0.551662       -15.0115
  22   2.0000      -0.536694       -14.6042
  23   2.0000      -0.510739       -13.8979
  24   2.0000      -0.493537       -13.4298
  25   2.0000      -0.479430       -13.0460
  26   2.0000      -0.430176       -11.7057
  27   2.0000      -0.412807       -11.2331
  28   2.0000      -0.398884       -10.8542
  29   0.0000       0.049778         1.3545
  30   0.0000       0.061679         1.6784
  31   0.0000       0.069354         1.8872
  32   0.0000       0.072691         1.9780
  33   0.0000       0.098882         2.6907

MULLIKEN ATOMIC CHARGES
-----------------------
   0 C :   -1.223699
   1 C :   -0.348990
   2 H :    0.331540
   3 H :    0.343839
   4 S :    1.187039
   5 O :   -0.567805
   6 F :   -0.135732
   7 O :   -0.616958
   8 H :    0.352822
   9 H :    0.332122
  10 H :    0.345823
Sum of atomic charges:   -0.0000000

LOEWDIN ATOMIC CHARGES
----------------------
   0 C :   -0.113247
   1 C :   -0.278494
   2 H :    0.113317
   3 H :    0.099569
   4 S :    0.598438
   5 O :   -0.275000
   6 F :   -0.048280
   7 O :   -0.315465
   8 H :    0.067937
   9 H :    0.074727
  10 H :    0.076499

  Mayer bond orders larger than 0.100000
B(  0-C ,  1-C ) :   0.7122 B(  0-C ,  8-H ) :   0.9138 B(  0-C ,  9-H ) :   0.9366
B(  0-C , 10-H ) :   0.9509 B(  1-C ,  2-H ) :   0.9054 B(  1-C ,  3-H ) :   0.9085
B(  1-C ,  4-S ) :   0.8343 B(  1-C ,  5-O ) :   0.1117 B(  4-S ,  5-O ) :   1.6867
B(  4-S ,  6-F ) :   1.0111 B(  4-S ,  7-O ) :   1.6353

Dispersion correction           -0.002869916
FINAL SINGLE POINT ENERGY      -727.737894931198

DIPOLE MOMENT
-------------
                                X             Y             Z
Electronic contribution:      0.22760      -6.76004      -5.85143
Nuclear contribution   :     -1.42658       8.04056       6.39401
                        -----------------------------------------
Total Dipole Moment    :     -1.19898       1.28052       0.54259
                        -----------------------------------------
Magnitude (a.u.)       :      1.83622
Magnitude (Debye)      :      4.66729

Rotational constants in cm-1:     0.153659     0.082363     0.078978
Rotational constants in MHz :  4606.587369  2469.179541  2367.702074

                             ****ORCA TERMINATED NORMALLY****
TOTAL RUN TIME: 0 days 0 hours 1 minutes 7 seconds 901 msec
