                         Program Version 5.0.0 -  RELEASE  -
|  1> !wB97X-D3 RIJCOSX def2-TZVPD def2/J TightSCF
|  2> *xyz 0 1
|  3> C          1.96337       -1.74915       -1.89689
|  4> N          2.73849       -2.01517       -3.09711
|  5> C          4.04974       -2.15472       -3.15204
|  6> C          4.65821       -1.98629       -4.31866
|  7> N          4.76423       -2.45444       -2.05049
|  8> H          4.28736       -2.77626       -1.21750
|  9> H          5.75082       -2.65835       -2.12599
| 10> H          2.34518       -1.69027       -3.97145
| 11> H          4.10900       -1.59268       -5.07176
| 12> H          5.64910       -2.15646       -4.42724
| 13> C          2.08852       -0.30091       -1.41520
| 14> H          2.23127       -2.45162       -1.10264
| 15> H          0.93025       -1.97780       -2.15544
| 16> H          1.82118        0.36368       -2.21003
| 17> H          3.09792       -0.11068       -1.11551
| 18> H          1.43391       -0.14382       -0.58352
| 19> *
| 20> %MaxCore 64000
| 21>
| 22> %pal nprocs 4
| 23> end
| 24>
| 25> %scf
| 26>   MaxIter 150
| 27> end
| 28>
| 29>
| 30>                          ****END OF INPUT****

CARTESIAN COORDINATES (ANGSTROEM)
---------------------------------
  C      1.963370   -1.749150   -1.896890
  N      2.738490   -2.015170   -3.097110
  C      4.049740   -2.154720   -3.152040
  C      4.658210   -1.986290   -4.318660
  N      4.764230   -2.454440   -2.050490
  H      4.287360   -2.776260   -1.217500
  H      5.750820   -2.658350   -2.125990
  H      2.345180   -1.690270   -3.971450
  H      4.109000   -1.592680   -5.071760
  H      5.649100   -2.156460   -4.427240
  C      2.088520   -0.300910   -1.415200
  H      2.231270   -2.451620   -1.102640
  H      0.930250   -1.977800   -2.155440
  H      1.821180    0.363680   -2.210030
  H      3.097920   -0.110680   -1.115510
  H      1.433910   -0.143820   -0.583520

 Total Charge           Charge          ....    0
 Multiplicity           Mult            ....    1
 Number of Electrons    NEL             ....   48
 Basis Dimension        Dim             ....  312

ORBITAL ENERGIES
----------------

  NO   OCC          E(Eh)            E(eV)
   0   2.0000     -14.421349      -392.4249
   1   2.0000     -14.420624      -392.4051
   2   2.0000     -10.321030      -280.8495
   3   2.0000     -10.315173      -280.6901
   4   2.0000     -10.261411      -279.2272
   5   2.0000     -10.183177      -277.0983
   6   2.0000      -1.086632       -29.5688
   7   2.0000      -0.999202       -27.1897
   8   2.0000      -0.886643       -24.1268
   9   2.0000      -0.815398       -22.1881
  10   2.0000      -0.740623       -20.1534
  11   2.0000      -0.704670       -19.1750
  12   2.0000      -0.638801       -17.3827
  13   2.0000      -0.597912       -16.2700
  14   2.0000      -0.578360       -15.7380
  15   2.0000      -0.537203       -14.6180
  16   2.0000      -0.533510       -14.5175
  17   2.0000      -0.499590       -13.5945
  18   2.0000      -0.480157       -13.0657
  19   2.0000      -0.469888       -12.7863
  20   2.0000      -0.456512       -12.4223
  21   2.0000      -0.451547       -12.2872
  22   2.0000      -0.347717        -9.4619
  23   2.0000      -0.250001        -6.8029
  24   0.0000       0.063735         1.7343
  25   0.0000       0.087572         2.3830
  26   0.0000       0.090628         2.4661
  27   0.0000       0.094753         2.5783
  28   0.0000       0.121225         3.2987

MULLIKEN ATOMIC CHARGES
-----------------------
   0 C :   -0.558288
   1 N :   -0.174906
   2 C :    1.091901
   3 C :   -1.645860
   4 N :   -0.404565
   5 H :    0.167559
   6 H :    0.174149
   7 H :    0.203923
   8 H :    0.309574
   9 H :    0.316475
  10 C :   -1.035643
  11 H :    0.297610
  12 H :    0.299393
  13 H :    0.292999
  14 H :    0.301061
  15 H :    0.364617
Sum of atomic charges:   -0.0000000

LOEWDIN ATOMIC CHARGES
----------------------
   0 C :   -0.239453
   1 N :    0.004043
   2 C :   -0.567705
   3 C :   -0.005694
   4 N :    0.119557
   5 H :    0.092498
   6 H :    0.110449
   7 H :    0.143002
   8 H :    0.009642
   9 H :    0.008710
  10 C :   -0.084718
  11 H :    0.103605
  12 H :    0.110930
  13 H :    0.067795
  14 H :    0.064341
  15 H :    0.062996

  Mayer bond orders larger than 0.100000
B(  0-C ,  1-N ) :   0.9010 B(  0-C , 10-C ) :   0.7131 B(  0-C , 11-H ) :   0.9054
B(  0-C , 12-H ) :   0.9516 B(  1-N ,  2-C ) :   1.1460 B(  1-N ,  7-H ) :   0.9118
B(  2-C ,  3-C ) :   0.6688 B(  2-C ,  4-N ) :   0.9503 B(  2-C ,  9-H ) :  -0.1245
B(  3-C ,  8-H ) :   0.9576 B(  3-C ,  9-H ) :   1.0578 B(  4-N ,  5-H ) :   1.0024
B(  4-N ,  6-H ) :   1.0241 B( 10-C , 13-H ) :   0.9875 B( 10-C , 14-H ) :   0.9719
B( 10-C , 15-H ) :   0.9311

Dispersion correction           -0.003890877
FINAL SINGLE POINT ENERGY      -267.939195437613

DIPOLE MOMENT
-------------
                                X             Y             Z
Electronic contribution:      1.39241      -2.33010      -1.19301
Nuclear contribution   :     -1.91052       2.32590       2.09379
                        -----------------------------------------
Total Dipole Moment    :     -0.51811      -0.00420       0.90078
                        -----------------------------------------
Magnitude (a.u.)       :      1.03917
Magnitude (Debye)      :      2.64135

Rotational constants in cm-1:     0.219448     0.077923     0.068804
Rotational constants in MHz :  6578.886179  2336.083179  2062.700476

                             ****ORCA TERMINATED NORMALLY****
TOTAL RUN TIME: 0 days 0 hours 1 minutes 28 seconds 430 msec
