                         Program Version 5.0.0 -  RELEASE  -
|  1> !wB97X-D3 RIJCOSX def2-TZVPD def2/J TightSCF
|  2> *xyz 0 1
|  3> C          0.61188        1.65763       -4.50029
|  4> C          1.69499        1.54179       -5.57045
|  5> H          2.69733        1.73466       -5.18400
|  6> H          1.50666        2.27224       -6.35808
|  7> S          1.78029       -0.03313       -6.42874
|  8> O          2.56929        0.21366       -7.60736
|  9> O          0.41688       -0.46297       -6.61859
| 10> F          2.50513       -0.93326       -5.48257
| 11> H         -0.34424        1.45871       -4.93752
| 12> H          0.61845        2.64655       -4.09174
| 13> H          0.80247        0.94882       -3.72173
| 14> *
| 15> %MaxCore 64000
| 16>
| 17> %pal nprocs 4
| 18> end
| 19>
| 20> %scf
| 21>   MaxIter 150
| 22> end
| 23>
| 24>
| 25>                          ****END OF INPUT****

CARTESIAN COORDINATES (ANGSTROEM)
---------------------------------
  C      0.611880    1.657630   -4.500290
  C      1.694990    1.541790   -5.570450
  H      2.697330    1.734660   -5.184000
  H      1.506660    2.272240   -6.358080
  S      1.780290   -0.033130   -6.428740
  O      2.569290    0.213660   -7.607360
  O      0.416880   -0.462970   -6.618590
  F      2.505130   -0.933260   -5.482570
  H     -0.344240    1.458710   -4.937520
  H      0.618450    2.646550   -4.091740
  H      0.802470    0.948820   -3.721730

 Total Charge           Charge          ....    0
 Multiplicity           Mult            ....    1
 Number of Electrons    NEL             ....   58
 Basis Dimension        Dim             ....  285

ORBITAL ENERGIES
----------------

  NO   OCC          E(Eh)            E(eV)
   0   2.0000     -89.193763     -2427.0857
   1   2.0000     -24.881737      -677.0665
   2   2.0000     -19.246502      -523.7240
   3   2.0000     -19.245773      -523.7041
   4   2.0000     -10.337449      -281.2963
   5   2.0000     -10.293397      -280.0976
   6   2.0000      -8.257355      -224.6941
   7   2.0000      -6.214869      -169.1152
   8   2.0000      -6.208568      -168.9437
   9   2.0000      -6.207769      -168.9220
  10   2.0000      -1.459366       -39.7114
  11   2.0000      -1.233109       -33.5546
  12   2.0000      -1.142338       -31.0846
  13   2.0000      -0.940541       -25.5934
  14   2.0000      -0.832180       -22.6448
  15   2.0000      -0.779264       -21.2048
  16   2.0000      -0.680085       -18.5061
  17   2.0000      -0.662999       -18.0411
  18   2.0000      -0.652966       -17.7681
  19   2.0000      -0.596612       -16.2346
  20   2.0000      -0.580217       -15.7885
  21   2.0000      -0.558464       -15.1966
  22   2.0000      -0.532576       -14.4921
  23   2.0000      -0.503812       -13.7094
  24   2.0000      -0.501228       -13.6391
  25   2.0000      -0.479447       -13.0464
  26   2.0000      -0.439129       -11.9493
  27   2.0000      -0.428935       -11.6719
  28   2.0000      -0.419777       -11.4227
  29   0.0000       0.052938         1.4405
  30   0.0000       0.064144         1.7455
  31   0.0000       0.069813         1.8997
  32   0.0000       0.071122         1.9353
  33   0.0000       0.100676         2.7395

MULLIKEN ATOMIC CHARGES
-----------------------
   0 C :   -1.189847
   1 C :   -0.394622
   2 H :    0.364547
   3 H :    0.339067
   4 S :    1.205369
   5 O :   -0.579486
   6 O :   -0.584570
   7 F :   -0.177424
   8 H :    0.339358
   9 H :    0.335920
  10 H :    0.341689
Sum of atomic charges:   -0.0000000

LOEWDIN ATOMIC CHARGES
----------------------
   0 C :   -0.112450
   1 C :   -0.279036
   2 H :    0.102672
   3 H :    0.107911
   4 S :    0.600789
   5 O :   -0.276521
   6 O :   -0.271832
   7 F :   -0.090978
   8 H :    0.071584
   9 H :    0.073988
  10 H :    0.073872

  Mayer bond orders larger than 0.100000
B(  0-C ,  1-C ) :   0.7428 B(  0-C ,  8-H ) :   0.9650 B(  0-C ,  9-H ) :   0.9301
B(  0-C , 10-H ) :   0.9175 B(  1-C ,  2-H ) :   0.8733 B(  1-C ,  3-H ) :   0.9025
B(  1-C ,  4-S ) :   0.8401 B(  1-C ,  5-O ) :   0.1186 B(  4-S ,  5-O ) :   1.6742
B(  4-S ,  6-O ) :   1.6837 B(  4-S ,  7-F ) :   0.9456

Dispersion correction           -0.002849988
FINAL SINGLE POINT ENERGY      -727.761653067196

DIPOLE MOMENT
-------------
                                X             Y             Z
Electronic contribution:      3.78246      -7.59807      -3.90979
Nuclear contribution   :     -3.60260       8.53062       5.21025
                        -----------------------------------------
Total Dipole Moment    :      0.17986       0.93255       1.30045
                        -----------------------------------------
Magnitude (a.u.)       :      1.61033
Magnitude (Debye)      :      4.09314

Rotational constants in cm-1:     0.154011     0.080858     0.079602
Rotational constants in MHz :  4617.134198  2424.070332  2386.404775

                             ****ORCA TERMINATED NORMALLY****
TOTAL RUN TIME: 0 days 0 hours 1 minutes 5 seconds 292 msec
