                         Program Version 5.0.0 -  RELEASE  -
|  1> !wB97X-D3 RIJCOSX def2-TZVPD def2/J TightSCF
|  2> *xyz 0 1
|  3> C          1.96337       -1.74915       -1.89689
|  4> N          2.73849       -2.01517       -3.09711
|  5> C          4.04974       -2.15472       -3.15204
|  6> N          4.65821       -1.98629       -4.31866
|  7> C          4.76423       -2.45444       -2.05049
|  8> H          4.28736       -2.77626       -1.21750
|  9> H          5.75082       -2.65835       -2.12599
| 10> H          2.34518       -1.69027       -3.97145
| 11> H          4.10900       -1.59268       -5.07176
| 12> H          5.64910       -2.15646       -4.42724
| 13> C          2.08852       -0.30091       -1.41520
| 14> H          2.23127       -2.45162       -1.10264
| 15> H          0.93025       -1.97780       -2.15544
| 16> H          1.82118        0.36368       -2.21003
| 17> H          3.09792       -0.11068       -1.11551
| 18> H          1.43391       -0.14382       -0.58352
| 19> *
| 20> %MaxCore 64000
| 21>
| 22> %pal nprocs 4
| 23> end
| 24>
| 25> %scf
| 26>   MaxIter 150
| 27> end
| 28>
| 29>
| 30>                          ****END OF INPUT****

CARTESIAN COORDINATES (ANGSTROEM)
---------------------------------
  C      1.963370   -1.749150   -1.896890
  N      2.738490   -2.015170   -3.097110
  C      4.049740   -2.154720   -3.152040
  N      4.658210   -1.986290   -4.318660
  C      4.764230   -2.454440   -2.050490
  H      4.287360   -2.776260   -1.217500
  H      5.750820   -2.658350   -2.125990
  H      2.345180   -1.690270   -3.971450
  H      4.109000   -1.592680   -5.071760
  H      5.649100   -2.156460   -4.427240
  C      2.088520   -0.300910   -1.415200
  H      2.231270   -2.451620   -1.102640
  H      0.930250   -1.977800   -2.155440
  H      1.821180    0.363680   -2.210030
  H      3.097920   -0.110680   -1.115510
  H      1.433910   -0.143820   -0.583520

 Total Charge           Charge          ....    0
 Multiplicity           Mult            ....    1
 Number of Electrons    NEL             ....   48
 Basis Dimension        Dim             ....  312

ORBITAL ENERGIES
----------------

  NO   OCC          E(Eh)            E(eV)
   0   2.0000     -14.425096      -392.5268
   1   2.0000     -14.423389      -392.4804
   2   2.0000     -10.322955      -280.9019
   3   2.0000     -10.308717      -280.5144
   4   2.0000     -10.254677      -279.0439
   5   2.0000     -10.183531      -277.1080
   6   2.0000      -1.092550       -29.7298
   7   2.0000      -1.003513       -27.3070
   8   2.0000      -0.869384       -23.6572
   9   2.0000      -0.820755       -22.3339
  10   2.0000      -0.753740       -20.5103
  11   2.0000      -0.668407       -18.1883
  12   2.0000      -0.649533       -17.6747
  13   2.0000      -0.627372       -17.0717
  14   2.0000      -0.567743       -15.4491
  15   2.0000      -0.539781       -14.6882
  16   2.0000      -0.517033       -14.0692
  17   2.0000      -0.495760       -13.4903
  18   2.0000      -0.477475       -12.9928
  19   2.0000      -0.464621       -12.6430
  20   2.0000      -0.459765       -12.5108
  21   2.0000      -0.441001       -12.0002
  22   2.0000      -0.344785        -9.3821
  23   2.0000      -0.251634        -6.8473
  24   0.0000       0.064150         1.7456
  25   0.0000       0.084849         2.3089
  26   0.0000       0.093611         2.5473
  27   0.0000       0.095624         2.6021
  28   0.0000       0.122222         3.3258

MULLIKEN ATOMIC CHARGES
-----------------------
   0 C :   -0.503889
   1 N :   -0.229558
   2 C :    1.022323
   3 N :   -0.424305
   4 C :   -1.560641
   5 H :    0.300262
   6 H :    0.352226
   7 H :    0.202150
   8 H :    0.164167
   9 H :    0.183033
  10 C :   -1.104113
  11 H :    0.303463
  12 H :    0.306889
  13 H :    0.297101
  14 H :    0.323680
  15 H :    0.367212
Sum of atomic charges:    0.0000000

LOEWDIN ATOMIC CHARGES
----------------------
   0 C :   -0.234549
   1 N :    0.002537
   2 C :   -0.569636
   3 N :    0.110934
   4 C :    0.001618
   5 H :    0.002184
   6 H :    0.005312
   7 H :    0.135668
   8 H :    0.102434
   9 H :    0.115912
  10 C :   -0.083808
  11 H :    0.109145
  12 H :    0.110387
  13 H :    0.064456
  14 H :    0.063315
  15 H :    0.064091

  Mayer bond orders larger than 0.100000
B(  0-C ,  1-N ) :   0.8577 B(  0-C ,  4-C ) :   0.1321 B(  0-C , 10-C ) :   0.7118
B(  0-C , 11-H ) :   0.8936 B(  0-C , 12-H ) :   0.9061 B(  1-N ,  2-C ) :   1.0552
B(  1-N ,  7-H ) :   0.9805 B(  2-C ,  3-N ) :   0.9091 B(  2-C ,  4-C ) :   0.9533
B(  3-N ,  4-C ) :   0.1173 B(  3-N ,  8-H ) :   1.0342 B(  3-N ,  9-H ) :   1.0182
B(  4-C ,  5-H ) :   0.9582 B(  4-C ,  6-H ) :   0.9760 B( 10-C , 13-H ) :   0.9777
B( 10-C , 14-H ) :   0.9855 B( 10-C , 15-H ) :   0.9120

Dispersion correction           -0.003853453
FINAL SINGLE POINT ENERGY      -267.938595591371

DIPOLE MOMENT
-------------
                                X             Y             Z
Electronic contribution:      1.32670      -1.81815      -3.42778
Nuclear contribution   :     -1.88803       2.22658       2.57497
                        -----------------------------------------
Total Dipole Moment    :     -0.56133       0.40843      -0.85281
                        -----------------------------------------
Magnitude (a.u.)       :      1.09963
Magnitude (Debye)      :      2.79505

Rotational constants in cm-1:     0.226509     0.075782     0.067928
Rotational constants in MHz :  6790.555051  2271.890226  2036.439218

                             ****ORCA TERMINATED NORMALLY****
TOTAL RUN TIME: 0 days 0 hours 1 minutes 31 seconds 332 msec
