                         Program Version 5.0.0 -  RELEASE  -
|  1> !wB97X-D3 RIJCOSX def2-TZVPD def2/J TightSCF xyzfile
|  2>
|  3> *xyzfile 0 1 D3.xyz
|  4>
|  5> %MaxCore 64000
|  6>
|  7> %pal nprocs 18
|  8> end
|  9>
| 10> %scf
| 11>   MaxIter 150
| 12> end
| 13>
| 14>
| 15>                          ****END OF INPUT****

CARTESIAN COORDINATES (ANGSTROEM)
---------------------------------
  C      1.963365   -1.749150   -1.896887
  N      2.738490   -2.015170   -3.097113
  C      0.611877    1.657634   -4.500288
  C      1.694991    1.541794   -5.570447
  H      2.697326    1.734659   -5.183996
  H      1.506656    2.272239   -6.358076
  S      1.780287   -0.033128   -6.428739
  C      4.049736   -2.154717   -3.152044
  N      4.658206   -1.986293   -4.318655
  C      4.764231   -2.454435   -2.050491
  H      4.287363   -2.776259   -1.217496
  H      5.750825   -2.658351   -2.125988
  H      2.345176   -1.690274   -3.971447
  H      4.109004   -1.592677   -5.071760
  H      5.649095   -2.156462   -4.427237
  F      2.569287    0.213657   -7.607360
  O      0.416880   -0.462969   -6.618595
  C      2.088520   -0.300912   -1.415204
  H      2.231272   -2.451616   -1.102643
  H      0.930249   -1.977801   -2.155438
  C      0.680356    0.655418   -3.348038
  H     -0.356865    1.549231   -4.991128
  H      0.650228    2.675438   -4.096000
  C      1.968993    0.733582   -2.535654
  H      3.051356   -0.168602   -0.911868
  H      1.316501   -0.136231   -0.657252
  O      2.505129   -0.933263   -5.482570
  H      2.824195    0.624726   -3.208464
  H      2.058919    1.730331   -2.093112
  H      0.542252   -0.344731   -3.766662
  H     -0.174219    0.829692   -2.685182

 Total Charge           Charge          ....    0
 Multiplicity           Mult            ....    1
 Number of Electrons    NEL             ....  120
 Basis Dimension        Dim             ....  689

ORBITAL ENERGIES
----------------

  NO   OCC          E(Eh)            E(eV)
   0   2.0000     -89.225959     -2427.9618
   1   2.0000     -24.935010      -678.5161
   2   2.0000     -19.272421      -524.4292
   3   2.0000     -19.263746      -524.1932
   4   2.0000     -14.389896      -391.5690
   5   2.0000     -14.389305      -391.5529
   6   2.0000     -10.354028      -281.7474
   7   2.0000     -10.313963      -280.6572
   8   2.0000     -10.299431      -280.2618
   9   2.0000     -10.291519      -280.0465
  10   2.0000     -10.285269      -279.8764
  11   2.0000     -10.273125      -279.5459
  12   2.0000     -10.261932      -279.2414
  13   2.0000     -10.161574      -276.5105
  14   2.0000      -8.289763      -225.5759
  15   2.0000      -6.246915      -169.9872
  16   2.0000      -6.240904      -169.8236
  17   2.0000      -6.240404      -169.8100
  18   2.0000      -1.529419       -41.6176
  19   2.0000      -1.250922       -34.0393
  20   2.0000      -1.153492       -31.3881
  21   2.0000      -1.064826       -28.9754
  22   2.0000      -0.979278       -26.6475
  23   2.0000      -0.967683       -26.3320
  24   2.0000      -0.913467       -24.8567
  25   2.0000      -0.875499       -23.8236
  26   2.0000      -0.837958       -22.8020
  27   2.0000      -0.802907       -21.8482
  28   2.0000      -0.791820       -21.5465
  29   2.0000      -0.749303       -20.3896
  30   2.0000      -0.723391       -19.6845
  31   2.0000      -0.712692       -19.3933
  32   2.0000      -0.698111       -18.9966
  33   2.0000      -0.678913       -18.4742
  34   2.0000      -0.645648       -17.5690
  35   2.0000      -0.627869       -17.0852
  36   2.0000      -0.620153       -16.8752
  37   2.0000      -0.610689       -16.6177
  38   2.0000      -0.598582       -16.2882
  39   2.0000      -0.581248       -15.8166
  40   2.0000      -0.562842       -15.3157
  41   2.0000      -0.556938       -15.1551
  42   2.0000      -0.541003       -14.7214
  43   2.0000      -0.523724       -14.2512
  44   2.0000      -0.519107       -14.1256
  45   2.0000      -0.514687       -14.0054
  46   2.0000      -0.487435       -13.2638
  47   2.0000      -0.482726       -13.1356
  48   2.0000      -0.468989       -12.7618
  49   2.0000      -0.463319       -12.6075
  50   2.0000      -0.459641       -12.5075
  51   2.0000      -0.447265       -12.1707
  52   2.0000      -0.444676       -12.1002
  53   2.0000      -0.436986       -11.8910
  54   2.0000      -0.430697       -11.7199
  55   2.0000      -0.423606       -11.5269
  56   2.0000      -0.419059       -11.4032
  57   2.0000      -0.407178       -11.0799
  58   2.0000      -0.317328        -8.6349
  59   2.0000      -0.228660        -6.2222
  60   0.0000       0.032578         0.8865
  61   0.0000       0.051917         1.4127
  62   0.0000       0.055071         1.4986
  63   0.0000       0.069400         1.8885
  64   0.0000       0.079562         2.1650

MULLIKEN ATOMIC CHARGES
-----------------------
   0 C :   -1.065443
   1 N :   -0.048607
   2 C :   -0.710405
   3 C :   -0.711913
   4 H :    0.410955
   5 H :    0.416670
   6 S :    1.035365
   7 C :    0.993680
   8 N :   -0.315511
   9 C :   -1.764726
  10 H :    0.326266
  11 H :    0.382627
  12 H :    0.446569
  13 H :    0.306675
  14 H :    0.119176
  15 F :   -0.115292
  16 O :   -0.614595
  17 C :   -0.424820
  18 H :    0.334992
  19 H :    0.356293
  20 C :   -0.504325
  21 H :    0.298921
  22 H :    0.322340
  23 C :   -0.469084
  24 H :    0.291195
  25 H :    0.347025
  26 O :   -0.779568
  27 H :    0.266984
  28 H :    0.324472
  29 H :    0.201400
  30 H :    0.342684
Sum of atomic charges:    0.0000000

LOEWDIN ATOMIC CHARGES
----------------------
   0 C :   -0.183434
   1 N :    0.020262
   2 C :   -0.213164
   3 C :   -0.221660
   4 H :    0.109127
   5 H :    0.105200
   6 S :    0.667860
   7 C :   -0.557560
   8 N :    0.116367
   9 C :   -0.004776
  10 H :   -0.003590
  11 H :   -0.000328
  12 H :    0.072262
  13 H :    0.052942
  14 H :    0.114501
  15 F :   -0.029847
  16 O :   -0.242813
  17 C :   -0.180905
  18 H :    0.112240
  19 H :    0.113612
  20 C :   -0.210645
  21 H :    0.114041
  22 H :    0.124945
  23 C :   -0.207774
  24 H :    0.108630
  25 H :    0.110563
  26 O :   -0.330285
  27 H :    0.102535
  28 H :    0.117193
  29 H :    0.099714
  30 H :    0.124787

  Mayer bond orders larger than 0.100000
B(  0-C ,  1-N ) :   0.9612 B(  0-C ,  9-C ) :   0.1548 B(  0-C , 12-H ) :  -0.1765
B(  0-C , 17-C ) :   0.7254 B(  0-C , 18-H ) :   0.8683 B(  0-C , 19-H ) :   0.8613
B(  0-C , 20-C ) :   0.1863 B(  1-N ,  7-C ) :   1.0069 B(  1-N , 12-H ) :   0.7166
B(  2-C ,  3-C ) :   1.0270 B(  2-C ,  6-S ) :   0.1283 B(  2-C , 20-C ) :   1.0029
B(  2-C , 21-H ) :   0.9191 B(  2-C , 22-H ) :   0.9026 B(  2-C , 23-C ) :   0.3233
B(  3-C ,  4-H ) :   0.8161 B(  3-C ,  5-H ) :   0.7815 B(  3-C ,  6-S ) :   0.7477
B(  3-C , 16-O ) :   0.1142 B(  3-C , 23-C ) :   0.1637 B(  6-S , 15-F ) :   0.9336
B(  6-S , 16-O ) :   1.6658 B(  6-S , 26-O ) :   1.8329 B(  7-C ,  8-N ) :   0.9687
B(  7-C ,  9-C ) :   0.7708 B(  7-C , 11-H ) :  -0.1083 B(  8-N ,  9-C ) :   0.1153
B(  8-N , 13-H ) :   0.8988 B(  8-N , 14-H ) :   1.0637 B(  9-C , 10-H ) :   0.9311
B(  9-C , 11-H ) :   0.9729 B( 17-C , 20-C ) :   0.2957 B( 17-C , 23-C ) :   1.0867
B( 17-C , 24-H ) :   0.9127 B( 17-C , 25-H ) :   0.9200 B( 20-C , 23-C ) :   0.2938
B( 20-C , 29-H ) :   1.0438 B( 20-C , 30-H ) :   0.8278 B( 23-C , 27-H ) :   1.0384
B( 23-C , 28-H ) :   0.8475 B( 23-C , 29-H ) :  -0.1241

Dispersion correction           -0.016403738
FINAL SINGLE POINT ENERGY     -1073.113923021229

DIPOLE MOMENT
-------------
                                X             Y             Z
Electronic contribution:     -1.14212      -0.20819     -24.56680
Nuclear contribution   :      0.44707       2.53104      23.12246
                        -----------------------------------------
Total Dipole Moment    :     -0.69506       2.32286      -1.44433
                        -----------------------------------------
Magnitude (a.u.)       :      2.82221
Magnitude (Debye)      :      7.17349

Rotational constants in cm-1:     0.028906     0.014696     0.011110
Rotational constants in MHz :   866.591909   440.585554   333.081943

                             ****ORCA TERMINATED NORMALLY****
TOTAL RUN TIME: 0 days 0 hours 3 minutes 13 seconds 290 msec
