                         Program Version 5.0.0 -  RELEASE  -
|  1> !wB97X-D3 RIJCOSX def2-TZVPD def2/J TightSCF xyzfile
|  2>
|  3> *xyzfile 0 1 D5.xyz
|  4>
|  5> %MaxCore 64000
|  6>
|  7> %pal nprocs 18
|  8> end
|  9>
| 10> %scf
| 11>   MaxIter 150
| 12> end
| 13>
| 14>
| 15>                          ****END OF INPUT****

CARTESIAN COORDINATES (ANGSTROEM)
---------------------------------
  C      1.963365   -1.749150   -1.896887
  N      2.738490   -2.015170   -3.097113
  C      0.611877    1.657634   -4.500288
  C      1.694991    1.541794   -5.570447
  H      2.697326    1.734659   -5.183996
  H      1.506656    2.272239   -6.358076
  S      1.780287   -0.033128   -6.428739
  C      4.049736   -2.154717   -3.152044
  C      4.658206   -1.986293   -4.318655
  N      4.764231   -2.454435   -2.050491
  H      4.287363   -2.776259   -1.217496
  H      5.750825   -2.658351   -2.125988
  H      2.345176   -1.690274   -3.971447
  H      4.109004   -1.592677   -5.071760
  H      5.649095   -2.156462   -4.427237
  O      2.569287    0.213657   -7.607360
  F      0.416880   -0.462969   -6.618595
  C      2.088520   -0.300912   -1.415204
  H      2.231272   -2.451616   -1.102643
  H      0.930249   -1.977801   -2.155438
  C      0.680356    0.655418   -3.348038
  H     -0.356865    1.549231   -4.991128
  H      0.650228    2.675438   -4.096000
  C      1.968993    0.733582   -2.535654
  H      3.051356   -0.168602   -0.911868
  H      1.316501   -0.136231   -0.657252
  O      2.505129   -0.933263   -5.482570
  H      2.824195    0.624726   -3.208464
  H      2.058919    1.730331   -2.093112
  H      0.542252   -0.344731   -3.766662
  H     -0.174219    0.829692   -2.685182

 Total Charge           Charge          ....    0
 Multiplicity           Mult            ....    1
 Number of Electrons    NEL             ....  120
 Basis Dimension        Dim             ....  689

ORBITAL ENERGIES
----------------

  NO   OCC          E(Eh)            E(eV)
   0   2.0000     -89.208084     -2427.4754
   1   2.0000     -24.919522      -678.0947
   2   2.0000     -19.256391      -523.9930
   3   2.0000     -19.242618      -523.6182
   4   2.0000     -14.402346      -391.9078
   5   2.0000     -14.388375      -391.5276
   6   2.0000     -10.342379      -281.4304
   7   2.0000     -10.312247      -280.6105
   8   2.0000     -10.300980      -280.3039
   9   2.0000     -10.296825      -280.1909
  10   2.0000     -10.290504      -280.0188
  11   2.0000     -10.276723      -279.6438
  12   2.0000     -10.270630      -279.4781
  13   2.0000     -10.152572      -276.2655
  14   2.0000      -8.272036      -225.0936
  15   2.0000      -6.229497      -169.5132
  16   2.0000      -6.223061      -169.3381
  17   2.0000      -6.222463      -169.3218
  18   2.0000      -1.513070       -41.1727
  19   2.0000      -1.234345       -33.5882
  20   2.0000      -1.134140       -30.8615
  21   2.0000      -1.063978       -28.9523
  22   2.0000      -0.980985       -26.6940
  23   2.0000      -0.965471       -26.2718
  24   2.0000      -0.912230       -24.8230
  25   2.0000      -0.873855       -23.7788
  26   2.0000      -0.837408       -22.7870
  27   2.0000      -0.814157       -22.1543
  28   2.0000      -0.773796       -21.0561
  29   2.0000      -0.740064       -20.1382
  30   2.0000      -0.713113       -19.4048
  31   2.0000      -0.710657       -19.3380
  32   2.0000      -0.696691       -18.9579
  33   2.0000      -0.678538       -18.4640
  34   2.0000      -0.654140       -17.8001
  35   2.0000      -0.620883       -16.8951
  36   2.0000      -0.605888       -16.4870
  37   2.0000      -0.597846       -16.2682
  38   2.0000      -0.581175       -15.8146
  39   2.0000      -0.575568       -15.6620
  40   2.0000      -0.569235       -15.4897
  41   2.0000      -0.559451       -15.2234
  42   2.0000      -0.544761       -14.8237
  43   2.0000      -0.530063       -14.4238
  44   2.0000      -0.523494       -14.2450
  45   2.0000      -0.497296       -13.5321
  46   2.0000      -0.494533       -13.4569
  47   2.0000      -0.483412       -13.1543
  48   2.0000      -0.474640       -12.9156
  49   2.0000      -0.462506       -12.5854
  50   2.0000      -0.456763       -12.4291
  51   2.0000      -0.446575       -12.1519
  52   2.0000      -0.435019       -11.8375
  53   2.0000      -0.427823       -11.6416
  54   2.0000      -0.424119       -11.5409
  55   2.0000      -0.419503       -11.4153
  56   2.0000      -0.413198       -11.2437
  57   2.0000      -0.404316       -11.0020
  58   2.0000      -0.325918        -8.8687
  59   2.0000      -0.225956        -6.1486
  60   0.0000       0.042131         1.1465
  61   0.0000       0.056656         1.5417
  62   0.0000       0.064228         1.7477
  63   0.0000       0.069244         1.8842
  64   0.0000       0.080302         2.1851

MULLIKEN ATOMIC CHARGES
-----------------------
   0 C :   -1.065790
   1 N :   -0.022687
   2 C :   -0.739067
   3 C :   -0.646823
   4 H :    0.392882
   5 H :    0.366216
   6 S :    1.029294
   7 C :    1.021380
   8 C :   -1.884767
   9 N :   -0.384521
  10 H :    0.172223
  11 H :    0.180374
  12 H :    0.336011
  13 H :    0.645367
  14 H :    0.344427
  15 O :   -0.615372
  16 F :   -0.158583
  17 C :   -0.406476
  18 H :    0.346214
  19 H :    0.340208
  20 C :   -0.407424
  21 H :    0.304816
  22 H :    0.316557
  23 C :   -0.517613
  24 H :    0.291119
  25 H :    0.341105
  26 O :   -0.716022
  27 H :    0.304231
  28 H :    0.337432
  29 H :    0.164989
  30 H :    0.330300
Sum of atomic charges:   -0.0000000

LOEWDIN ATOMIC CHARGES
----------------------
   0 C :   -0.190579
   1 N :    0.017854
   2 C :   -0.223864
   3 C :   -0.213921
   4 H :    0.118729
   5 H :    0.106821
   6 S :    0.659680
   7 C :   -0.552751
   8 C :    0.006436
   9 N :    0.116004
  10 H :    0.088235
  11 H :    0.107080
  12 H :    0.072641
  13 H :   -0.020509
  14 H :    0.012691
  15 O :   -0.250049
  16 F :   -0.031922
  17 C :   -0.184591
  18 H :    0.106820
  19 H :    0.112088
  20 C :   -0.215688
  21 H :    0.109471
  22 H :    0.122543
  23 C :   -0.204510
  24 H :    0.109119
  25 H :    0.108737
  26 O :   -0.329510
  27 H :    0.105558
  28 H :    0.118254
  29 H :    0.096092
  30 H :    0.123038

  Mayer bond orders larger than 0.100000
B(  0-C ,  1-N ) :   1.0303 B(  0-C ,  7-C ) :  -0.1155 B(  0-C ,  9-N ) :   0.1264
B(  0-C , 12-H ) :  -0.1388 B(  0-C , 17-C ) :   0.6725 B(  0-C , 18-H ) :   0.8424
B(  0-C , 19-H ) :   0.9210 B(  0-C , 20-C ) :   0.1769 B(  1-N ,  7-C ) :   1.0523
B(  1-N , 12-H ) :   0.7739 B(  2-C ,  3-C ) :   0.9413 B(  2-C ,  6-S ) :   0.1263
B(  2-C , 20-C ) :   0.9242 B(  2-C , 21-H ) :   0.9445 B(  2-C , 22-H ) :   0.9099
B(  2-C , 23-C ) :   0.3353 B(  3-C ,  4-H ) :   0.8435 B(  3-C ,  5-H ) :   0.8920
B(  3-C ,  6-S ) :   0.7556 B(  3-C , 15-O ) :   0.1456 B(  3-C , 23-C ) :   0.1690
B(  6-S , 15-O ) :   1.5610 B(  6-S , 16-F ) :   0.9536 B(  6-S , 26-O ) :   1.8633
B(  7-C ,  8-C ) :   0.7209 B(  7-C ,  9-N ) :   1.0000 B(  7-C , 14-H ) :  -0.1827
B(  8-C , 13-H ) :   0.6322 B(  8-C , 14-H ) :   1.0447 B(  8-C , 26-O ) :   0.2101
B(  9-N , 10-H ) :   0.9896 B(  9-N , 11-H ) :   1.0203 B( 13-H , 26-O ) :  -0.2032
B( 17-C , 20-C ) :   0.2953 B( 17-C , 23-C ) :   1.0796 B( 17-C , 24-H ) :   0.9166
B( 17-C , 25-H ) :   0.9487 B( 20-C , 23-C ) :   0.3718 B( 20-C , 29-H ) :   1.0146
B( 20-C , 30-H ) :   0.8571 B( 23-C , 27-H ) :   1.0163 B( 23-C , 28-H ) :   0.8311
B( 23-C , 29-H ) :  -0.1020

Dispersion correction           -0.016430318
FINAL SINGLE POINT ENERGY     -1073.101748080006

DIPOLE MOMENT
-------------
                                X             Y             Z
Electronic contribution:     -4.65402      -1.97411     -20.72165
Nuclear contribution   :      2.89225       3.36404      21.70199
                        -----------------------------------------
Total Dipole Moment    :     -1.76177       1.38993       0.98034
                        -----------------------------------------
Magnitude (a.u.)       :      2.44884
Magnitude (Debye)      :      6.22445

Rotational constants in cm-1:     0.029431     0.014408     0.011084
Rotational constants in MHz :   882.306106   431.946714   332.288152

                             ****ORCA TERMINATED NORMALLY****
TOTAL RUN TIME: 0 days 0 hours 3 minutes 42 seconds 889 msec
