                         Program Version 5.0.0 -  RELEASE  -
|  1> !wB97X-D3 RIJCOSX def2-TZVPD def2/J TightSCF xyzfile
|  2>
|  3> *xyzfile 0 1 D9.xyz
|  4>
|  5> %MaxCore 64000
|  6>
|  7> %pal nprocs 18
|  8> end
|  9>
| 10> %scf
| 11>   MaxIter 150
| 12> end
| 13>
| 14>
| 15>                          ****END OF INPUT****

CARTESIAN COORDINATES (ANGSTROEM)
---------------------------------
  C      1.963365   -1.749150   -1.896887
  N      2.738490   -2.015170   -3.097113
  C      0.611877    1.657634   -4.500288
  C      1.694991    1.541794   -5.570447
  H      2.697326    1.734659   -5.183996
  H      1.506656    2.272239   -6.358076
  S      1.780287   -0.033128   -6.428739
  C      4.049736   -2.154717   -3.152044
  N      4.658206   -1.986293   -4.318655
  C      4.764231   -2.454435   -2.050491
  H      4.287363   -2.776259   -1.217496
  H      5.750825   -2.658351   -2.125988
  H      2.345176   -1.690274   -3.971447
  H      4.109004   -1.592677   -5.071760
  H      5.649095   -2.156462   -4.427237
  O      2.569287    0.213657   -7.607360
  O      0.416880   -0.462969   -6.618595
  C      2.088520   -0.300912   -1.415204
  H      2.231272   -2.451616   -1.102643
  H      0.930249   -1.977801   -2.155438
  C      0.680356    0.655418   -3.348038
  H     -0.356865    1.549231   -4.991128
  H      0.650228    2.675438   -4.096000
  C      1.968993    0.733582   -2.535654
  H      3.051356   -0.168602   -0.911868
  H      1.316501   -0.136231   -0.657252
  F      2.505129   -0.933263   -5.482570
  H      2.824195    0.624726   -3.208464
  H      2.058919    1.730331   -2.093112
  H      0.542252   -0.344731   -3.766662
  H     -0.174219    0.829692   -2.685182

 Total Charge           Charge          ....    0
 Multiplicity           Mult            ....    1
 Number of Electrons    NEL             ....  120
 Basis Dimension        Dim             ....  689

ORBITAL ENERGIES
----------------

  NO   OCC          E(Eh)            E(eV)
   0   2.0000     -89.211688     -2427.5735
   1   2.0000     -24.915952      -677.9975
   2   2.0000     -19.263943      -524.1985
   3   2.0000     -19.263522      -524.1871
   4   2.0000     -14.419954      -392.3869
   5   2.0000     -14.419193      -392.3662
   6   2.0000     -10.347363      -281.5661
   7   2.0000     -10.322436      -280.8878
   8   2.0000     -10.311009      -280.5768
   9   2.0000     -10.309963      -280.5484
  10   2.0000     -10.295227      -280.1474
  11   2.0000     -10.286228      -279.9025
  12   2.0000     -10.276080      -279.6264
  13   2.0000     -10.183152      -277.0977
  14   2.0000      -8.275897      -225.1986
  15   2.0000      -6.233819      -169.6308
  16   2.0000      -6.226731      -169.4380
  17   2.0000      -6.226021      -169.4187
  18   2.0000      -1.497696       -40.7544
  19   2.0000      -1.252632       -34.0858
  20   2.0000      -1.159732       -31.5579
  21   2.0000      -1.092882       -29.7388
  22   2.0000      -1.004738       -27.3403
  23   2.0000      -0.968558       -26.3558
  24   2.0000      -0.918890       -25.0043
  25   2.0000      -0.878251       -23.8984
  26   2.0000      -0.849032       -23.1033
  27   2.0000      -0.812908       -22.1204
  28   2.0000      -0.807628       -21.9767
  29   2.0000      -0.751733       -20.4557
  30   2.0000      -0.716544       -19.4981
  31   2.0000      -0.710078       -19.3222
  32   2.0000      -0.693281       -18.8651
  33   2.0000      -0.674665       -18.3586
  34   2.0000      -0.655708       -17.8427
  35   2.0000      -0.644362       -17.5340
  36   2.0000      -0.623449       -16.9649
  37   2.0000      -0.611336       -16.6353
  38   2.0000      -0.604972       -16.4621
  39   2.0000      -0.586256       -15.9528
  40   2.0000      -0.575525       -15.6608
  41   2.0000      -0.564376       -15.3575
  42   2.0000      -0.548073       -14.9138
  43   2.0000      -0.539007       -14.6671
  44   2.0000      -0.527712       -14.3598
  45   2.0000      -0.512065       -13.9340
  46   2.0000      -0.500936       -13.6312
  47   2.0000      -0.498831       -13.5739
  48   2.0000      -0.479355       -13.0439
  49   2.0000      -0.471270       -12.8239
  50   2.0000      -0.468826       -12.7574
  51   2.0000      -0.462698       -12.5907
  52   2.0000      -0.455557       -12.3963
  53   2.0000      -0.443960       -12.0808
  54   2.0000      -0.438247       -11.9253
  55   2.0000      -0.435235       -11.8434
  56   2.0000      -0.431304       -11.7364
  57   2.0000      -0.421017       -11.4565
  58   2.0000      -0.343619        -9.3503
  59   2.0000      -0.251190        -6.8352
  60   0.0000       0.047311         1.2874
  61   0.0000       0.058441         1.5903
  62   0.0000       0.059398         1.6163
  63   0.0000       0.067399         1.8340
  64   0.0000       0.083766         2.2794

MULLIKEN ATOMIC CHARGES
-----------------------
   0 C :   -1.067485
   1 N :   -0.096829
   2 C :   -0.649880
   3 C :   -0.671009
   4 H :    0.404900
   5 H :    0.382319
   6 S :    1.024749
   7 C :    1.006156
   8 N :   -0.332332
   9 C :   -1.766703
  10 H :    0.333289
  11 H :    0.385109
  12 H :    0.489739
  13 H :    0.282723
  14 H :    0.122247
  15 O :   -0.611918
  16 O :   -0.606692
  17 C :   -0.424284
  18 H :    0.338816
  19 H :    0.352156
  20 C :   -0.505104
  21 H :    0.299506
  22 H :    0.333881
  23 C :   -0.420032
  24 H :    0.290147
  25 H :    0.350672
  26 F :   -0.301224
  27 H :    0.227754
  28 H :    0.328578
  29 H :    0.179034
  30 H :    0.321713
Sum of atomic charges:   -0.0000000

LOEWDIN ATOMIC CHARGES
----------------------
   0 C :   -0.180613
   1 N :    0.020019
   2 C :   -0.221102
   3 C :   -0.218440
   4 H :    0.107334
   5 H :    0.115643
   6 S :    0.627507
   7 C :   -0.555263
   8 N :    0.123703
   9 C :    0.006916
  10 H :    0.002015
  11 H :    0.005688
  12 H :    0.089950
  13 H :    0.073707
  14 H :    0.121425
  15 O :   -0.258161
  16 O :   -0.248892
  17 C :   -0.179416
  18 H :    0.114929
  19 H :    0.115422
  20 C :   -0.213495
  21 H :    0.114140
  22 H :    0.122991
  23 C :   -0.208543
  24 H :    0.109977
  25 H :    0.112965
  26 F :   -0.142696
  27 H :    0.100197
  28 H :    0.119965
  29 H :    0.096411
  30 H :    0.125716

  Mayer bond orders larger than 0.100000
B(  0-C ,  1-N ) :   1.0009 B(  0-C ,  9-C ) :   0.1552 B(  0-C , 12-H ) :  -0.1871
B(  0-C , 17-C ) :   0.7269 B(  0-C , 18-H ) :   0.8586 B(  0-C , 19-H ) :   0.8623
B(  0-C , 20-C ) :   0.1603 B(  1-N ,  7-C ) :   0.9747 B(  1-N , 12-H ) :   0.6865
B(  2-C ,  3-C ) :   0.9518 B(  2-C ,  6-S ) :   0.1353 B(  2-C , 20-C ) :   1.0345
B(  2-C , 21-H ) :   0.9374 B(  2-C , 22-H ) :   0.9064 B(  2-C , 23-C ) :   0.2834
B(  3-C ,  4-H ) :   0.8220 B(  3-C ,  5-H ) :   0.8316 B(  3-C ,  6-S ) :   0.7761
B(  3-C , 15-O ) :   0.1284 B(  3-C , 20-C ) :   0.1177 B(  3-C , 23-C ) :   0.1659
B(  6-S , 15-O ) :   1.5223 B(  6-S , 16-O ) :   1.6195 B(  6-S , 26-F ) :   1.1930
B(  7-C ,  8-N ) :   0.8966 B(  7-C ,  9-C ) :   0.7611 B(  7-C , 11-H ) :  -0.1126
B(  8-N ,  9-C ) :   0.1150 B(  8-N , 13-H ) :   0.9233 B(  8-N , 14-H ) :   1.0691
B(  9-C , 10-H ) :   0.9228 B(  9-C , 11-H ) :   0.9667 B( 17-C , 20-C ) :   0.3010
B( 17-C , 23-C ) :   1.1068 B( 17-C , 24-H ) :   0.9201 B( 17-C , 25-H ) :   0.9220
B( 20-C , 23-C ) :   0.2064 B( 20-C , 27-H ) :  -0.1124 B( 20-C , 29-H ) :   1.0854
B( 20-C , 30-H ) :   0.8288 B( 23-C , 27-H ) :   1.0918 B( 23-C , 28-H ) :   0.8332
B( 23-C , 29-H ) :  -0.2007

Dispersion correction           -0.016329189
FINAL SINGLE POINT ENERGY     -1073.122382425084

DIPOLE MOMENT
-------------
                                X             Y             Z
Electronic contribution:     -1.06234      -2.37457     -20.34238
Nuclear contribution   :      0.52036       3.84122      20.69523
                        -----------------------------------------
Total Dipole Moment    :     -0.54198       1.46665       0.35285
                        -----------------------------------------
Magnitude (a.u.)       :      1.60291
Magnitude (Debye)      :      4.07427

Rotational constants in cm-1:     0.029184     0.014996     0.011314
Rotational constants in MHz :   874.907122   449.569665   339.178205

                             ****ORCA TERMINATED NORMALLY****
TOTAL RUN TIME: 0 days 0 hours 2 minutes 57 seconds 240 msec
