                         Program Version 5.0.0 -  RELEASE  -
|  1> !PBE D3BJ RIJCOSX def2-TZVPD def2/J TightSCF
|  2> *xyz -1 1
|  3> C          0.70466        1.44313       -4.50363
|  4> C          1.72854        1.42432       -5.63944
|  5> H          2.64672        1.95379       -5.38105
|  6> H          1.29992        1.93061       -6.50361
|  7> S          2.25263       -0.18811       -6.27184
|  8> O          3.56261       -0.44446       -5.63155
|  9> O          2.34494       -0.03374       -7.69650
| 10> O          1.26606       -1.15918       -5.80536
| 11> H         -0.17385        0.91270       -4.80656
| 12> H          0.44778        2.45562       -4.27173
| 13> H          1.12367        0.97423       -3.63791
| 14> *
| 15>
| 16> %MaxCore 64000
| 17>
| 18> %pal nprocs 4
| 19> end
| 20>
| 21> %scf
| 22>   MaxIter 150
| 23> end
| 24>
| 25>
| 26>                          ****END OF INPUT****

CARTESIAN COORDINATES (ANGSTROEM)
---------------------------------
  C      0.704660    1.443130   -4.503630
  C      1.728540    1.424320   -5.639440
  H      2.646720    1.953790   -5.381050
  H      1.299920    1.930610   -6.503610
  S      2.252630   -0.188110   -6.271840
  O      3.562610   -0.444460   -5.631550
  O      2.344940   -0.033740   -7.696500
  O      1.266060   -1.159180   -5.805360
  H     -0.173850    0.912700   -4.806560
  H      0.447780    2.455620   -4.271730
  H      1.123670    0.974230   -3.637910

 Total Charge           Charge          ....   -1
 Multiplicity           Mult            ....    1
 Number of Electrons    NEL             ....   58
 Basis Dimension        Dim             ....  285

ORBITAL ENERGIES
----------------

  NO   OCC          E(Eh)            E(eV)
   0   2.0000     -88.010313     -2394.8824
   1   2.0000     -18.532587      -504.2973
   2   2.0000     -18.526332      -504.1271
   3   2.0000     -18.518075      -503.9024
   4   2.0000      -9.740155      -265.0431
   5   2.0000      -9.736254      -264.9369
   6   2.0000      -7.605541      -206.9573
   7   2.0000      -5.626522      -153.1055
   8   2.0000      -5.625398      -153.0749
   9   2.0000      -5.625125      -153.0674
  10   2.0000      -0.831725       -22.6324
  11   2.0000      -0.706406       -19.2223
  12   2.0000      -0.684579       -18.6284
  13   2.0000      -0.558612       -15.2006
  14   2.0000      -0.441755       -12.0208
  15   2.0000      -0.322251        -8.7689
  16   2.0000      -0.267769        -7.2864
  17   2.0000      -0.259370        -7.0578
  18   2.0000      -0.225233        -6.1289
  19   2.0000      -0.206795        -5.6272
  20   2.0000      -0.204853        -5.5743
  21   2.0000      -0.180981        -4.9247
  22   2.0000      -0.172448        -4.6925
  23   2.0000      -0.102925        -2.8007
  24   2.0000      -0.100933        -2.7465
  25   2.0000      -0.070981        -1.9315
  26   2.0000      -0.065816        -1.7909
  27   2.0000      -0.053491        -1.4556
  28   2.0000      -0.018081        -0.4920
  29   0.0000       0.108518         2.9529
  30   0.0000       0.134036         3.6473
  31   0.0000       0.140927         3.8348
  32   0.0000       0.148802         4.0491
  33   0.0000       0.165684         4.5085

MULLIKEN ATOMIC CHARGES
-----------------------
   0 C :   -0.765990
   1 C :   -0.311285
   2 H :    0.199502
   3 H :    0.191908
   4 S :    1.029159
   5 O :   -0.687708
   6 O :   -0.640783
   7 O :   -0.667799
   8 H :    0.222867
   9 H :    0.220512
  10 H :    0.209617
Sum of atomic charges:   -1.0000000

LOEWDIN ATOMIC CHARGES
----------------------
   0 C :   -0.150447
   1 C :   -0.326320
   2 H :    0.077668
   3 H :    0.071949
   4 S :    0.301869
   5 O :   -0.400018
   6 O :   -0.364346
   7 O :   -0.374073
   8 H :    0.055578
   9 H :    0.047070
  10 H :    0.061069

  Mayer bond orders larger than 0.100000
B(  0-C ,  1-C ) :   0.7788 B(  0-C ,  8-H ) :   0.9851 B(  0-C ,  9-H ) :   0.9648
B(  0-C , 10-H ) :   0.9883 B(  1-C ,  2-H ) :   0.9830 B(  1-C ,  3-H ) :   0.9840
B(  1-C ,  4-S ) :   0.8672 B(  1-C ,  5-O ) :   0.1385 B(  1-C ,  6-O ) :   0.1460
B(  4-S ,  5-O ) :   1.5229 B(  4-S ,  6-O ) :   1.5675 B(  4-S ,  7-O ) :   1.5344

Dispersion correction           -0.009551711
FINAL SINGLE POINT ENERGY      -702.811868264845

DIPOLE MOMENT
-------------
                                X             Y             Z
Electronic contribution:      3.69105      -5.71431      -4.34004
Nuclear contribution   :     -4.50297       7.24642       5.01775
                        -----------------------------------------
Total Dipole Moment    :     -0.81192       1.53210       0.67771
                        -----------------------------------------
Magnitude (a.u.)       :      1.86168
Magnitude (Debye)      :      4.73202

Rotational constants in cm-1:     0.162459     0.081286     0.079601
Rotational constants in MHz :  4870.394399  2436.893583  2386.374948

                             ****ORCA TERMINATED NORMALLY****
TOTAL RUN TIME: 0 days 0 hours 0 minutes 16 seconds 264 msec
