                         Program Version 5.0.0 -  RELEASE  -
|  1> !PBE D3BJ RIJCOSX def2-TZVPD def2/J TightSCF
|  2> *xyz 1 1
|  3> C          2.91632       -1.24259       -1.54313
|  4> C          3.46659       -1.59097       -2.88908
|  5> N          4.65227       -1.14316       -3.25969
|  6> N          2.75226       -2.29204       -3.72803
|  7> H          1.77836       -2.48960       -3.51274
|  8> H          2.94861       -2.20854       -4.71681
|  9> H          5.14672       -0.51251       -2.63385
| 10> H          4.78303       -1.00720       -4.25350
| 11> C          2.80408        0.29070       -1.35924
| 12> H          1.94047       -1.71653       -1.44116
| 13> H          3.55857       -1.66343       -0.76637
| 14> H          2.17393        0.69633       -2.12297
| 15> H          3.77707        0.73043       -1.42880
| 16> H          2.38369        0.50492       -0.39889
| 17> *
| 18>
| 19> %MaxCore 64000
| 20>
| 21> %pal nprocs 4
| 22> end
| 23>
| 24> %scf
| 25>   MaxIter 150
| 26> end
| 27>
| 28>
| 29>                          ****END OF INPUT****

CARTESIAN COORDINATES (ANGSTROEM)
---------------------------------
  C      2.916320   -1.242590   -1.543130
  C      3.466590   -1.590970   -2.889080
  N      4.652270   -1.143160   -3.259690
  N      2.752260   -2.292040   -3.728030
  H      1.778360   -2.489600   -3.512740
  H      2.948610   -2.208540   -4.716810
  H      5.146720   -0.512510   -2.633850
  H      4.783030   -1.007200   -4.253500
  C      2.804080    0.290700   -1.359240
  H      1.940470   -1.716530   -1.441160
  H      3.558570   -1.663430   -0.766370
  H      2.173930    0.696330   -2.122970
  H      3.777070    0.730430   -1.428800
  H      2.383690    0.504920   -0.398890

 Total Charge           Charge          ....    1
 Multiplicity           Mult            ....    1
 Number of Electrons    NEL             ....   40
 Basis Dimension        Dim             ....  266

ORBITAL ENERGIES
----------------

  NO   OCC          E(Eh)            E(eV)
   0   2.0000     -14.232357      -387.2821
   1   2.0000     -14.227422      -387.1478
   2   2.0000     -10.196102      -277.4500
   3   2.0000     -10.083804      -274.3943
   4   2.0000     -10.042830      -273.2793
   5   2.0000      -1.128060       -30.6961
   6   2.0000      -1.035360       -28.1736
   7   2.0000      -0.900385       -24.5007
   8   2.0000      -0.802881       -21.8475
   9   2.0000      -0.759662       -20.6714
  10   2.0000      -0.717435       -19.5224
  11   2.0000      -0.699601       -19.0371
  12   2.0000      -0.650890       -17.7116
  13   2.0000      -0.616623       -16.7792
  14   2.0000      -0.579074       -15.7574
  15   2.0000      -0.555492       -15.1157
  16   2.0000      -0.512312       -13.9407
  17   2.0000      -0.500917       -13.6306
  18   2.0000      -0.488510       -13.2930
  19   2.0000      -0.460496       -12.5307
  20   0.0000      -0.256214        -6.9719
  21   0.0000      -0.190323        -5.1789
  22   0.0000      -0.149040        -4.0556
  23   0.0000      -0.146032        -3.9737
  24   0.0000      -0.115164        -3.1338

MULLIKEN ATOMIC CHARGES
-----------------------
   0 C :   -0.095157
   1 C :    0.365800
   2 N :   -0.198716
   3 N :   -0.148459
   4 H :    0.226103
   5 H :    0.193337
   6 H :    0.220547
   7 H :    0.191731
   8 C :   -0.907530
   9 H :    0.179158
  10 H :    0.190901
  11 H :    0.283978
  12 H :    0.293134
  13 H :    0.205172
Sum of atomic charges:    1.0000000

LOEWDIN ATOMIC CHARGES
----------------------
   0 C :   -0.137527
   1 C :   -0.384368
   2 N :    0.238655
   3 N :    0.242439
   4 H :    0.150414
   5 H :    0.145691
   6 H :    0.143112
   7 H :    0.145085
   8 C :   -0.046528
   9 H :    0.123180
  10 H :    0.138839
  11 H :    0.084597
  12 H :    0.068809
  13 H :    0.087604

  Mayer bond orders larger than 0.100000
B(  0-C ,  1-C ) :   0.9640 B(  0-C ,  8-C ) :   0.7627 B(  0-C ,  9-H ) :   0.9477
B(  0-C , 10-H ) :   0.9372 B(  1-C ,  2-N ) :   1.3060 B(  1-C ,  3-N ) :   1.3838
B(  1-C ,  8-C ) :   0.1241 B(  2-N ,  3-N ) :   0.1058 B(  2-N ,  6-H ) :   0.9163
B(  2-N ,  7-H ) :   0.9735 B(  3-N ,  4-H ) :   0.9289 B(  3-N ,  5-H ) :   0.9546
B(  8-C , 11-H ) :   0.9651 B(  8-C , 12-H ) :   0.8956 B(  8-C , 13-H ) :   1.0133

Dispersion correction           -0.010225062
FINAL SINGLE POINT ENERGY      -228.822929802924

DIPOLE MOMENT
-------------
                                X             Y             Z
Electronic contribution:      1.31953      -2.85159      -2.76468
Nuclear contribution   :     -1.30215       2.77761       1.84194
                        -----------------------------------------
Total Dipole Moment    :      0.01738      -0.07398      -0.92274
                        -----------------------------------------
Magnitude (a.u.)       :      0.92587
Magnitude (Debye)      :      2.35336

Rotational constants in cm-1:     0.267442     0.127541     0.099068
Rotational constants in MHz :  8017.703171  3823.592522  2969.992494

                             ****ORCA TERMINATED NORMALLY****
TOTAL RUN TIME: 0 days 0 hours 0 minutes 13 seconds 73 msec
