                         Program Version 5.0.0 -  RELEASE  -
|  1> !PBE D3BJ RIJCOSX def2-TZVPD def2/J TightSCF xyzfile
|  2>
|  3> *xyzfile 0 1 B.xyz
|  4>
|  5> %MaxCore 64000
|  6>
|  7> %pal nprocs 4
|  8> end
|  9>
| 10> %scf
| 11>   MaxIter 150
| 12> end
| 13>
| 14>
| 15>                          ****END OF INPUT****

CARTESIAN COORDINATES (ANGSTROEM)
---------------------------------
  C      2.916324   -1.242589   -1.543125
  C      0.704661    1.443129   -4.503630
  C      1.728539    1.424320   -5.639443
  H      2.646718    1.953794   -5.381054
  H      1.299916    1.930613   -6.503614
  S      2.252625   -0.188115   -6.271840
  C      3.466585   -1.590971   -2.889082
  N      4.652275   -1.143164   -3.259692
  N      2.752264   -2.292043   -3.728029
  H      1.778364   -2.489604   -3.512738
  H      2.948612   -2.208544   -4.716813
  H      5.146723   -0.512508   -2.633852
  H      4.783030   -1.007203   -4.253498
  O      3.562607   -0.444464   -5.631552
  O      2.344944   -0.033742   -7.696501
  C      2.804084    0.290698   -1.359243
  C      1.052550    0.695659   -3.214915
  H     -0.232483    1.032925   -4.884449
  H      0.511700    2.495794   -4.267966
  C      2.388380    1.093669   -2.597108
  H      3.763425    0.674718   -0.999889
  H      2.094788    0.461222   -0.545756
  O      1.266058   -1.159177   -5.805365
  H      3.167316    1.013242   -3.359430
  H      2.357690    2.149375   -2.310997
  H      1.039284   -0.368429   -3.449329
  H      0.250787    0.865605   -2.488283
  H      1.940472   -1.716529   -1.441161
  H      3.558569   -1.663433   -0.766371

 Total Charge           Charge          ....    0
 Multiplicity           Mult            ....    1
 Number of Electrons    NEL             ....  112
 Basis Dimension        Dim             ....  643

ORBITAL ENERGIES
----------------

  NO   OCC          E(Eh)            E(eV)
   0   2.0000     -88.166442     -2399.1309
   1   2.0000     -18.691731      -508.6279
   2   2.0000     -18.685119      -508.4479
   3   2.0000     -18.676148      -508.2038
   4   2.0000     -14.056530      -382.4976
   5   2.0000     -14.055350      -382.4655
   6   2.0000     -10.030265      -272.9374
   7   2.0000      -9.944667      -270.6081
   8   2.0000      -9.924668      -270.0639
   9   2.0000      -9.896659      -269.3018
  10   2.0000      -9.884116      -268.9605
  11   2.0000      -9.879906      -268.8459
  12   2.0000      -9.876772      -268.7606
  13   2.0000      -7.762064      -211.2165
  14   2.0000      -5.782969      -157.3626
  15   2.0000      -5.782417      -157.3476
  16   2.0000      -5.781105      -157.3119
  17   2.0000      -0.990881       -26.9632
  18   2.0000      -0.957687       -26.0600
  19   2.0000      -0.865955       -23.5638
  20   2.0000      -0.858292       -23.3553
  21   2.0000      -0.855075       -23.2678
  22   2.0000      -0.772930       -21.0325
  23   2.0000      -0.728065       -19.8117
  24   2.0000      -0.684488       -18.6259
  25   2.0000      -0.635956       -17.3052
  26   2.0000      -0.612795       -16.6750
  27   2.0000      -0.578648       -15.7458
  28   2.0000      -0.548918       -14.9368
  29   2.0000      -0.535677       -14.5765
  30   2.0000      -0.524634       -14.2760
  31   2.0000      -0.486145       -13.2287
  32   2.0000      -0.475157       -12.9297
  33   2.0000      -0.461293       -12.5524
  34   2.0000      -0.447732       -12.1834
  35   2.0000      -0.423387       -11.5210
  36   2.0000      -0.414725       -11.2853
  37   2.0000      -0.397808       -10.8249
  38   2.0000      -0.388019       -10.5585
  39   2.0000      -0.384050       -10.4505
  40   2.0000      -0.378988       -10.3128
  41   2.0000      -0.367611       -10.0032
  42   2.0000      -0.355159        -9.6644
  43   2.0000      -0.342919        -9.3313
  44   2.0000      -0.334186        -9.0937
  45   2.0000      -0.330177        -8.9846
  46   2.0000      -0.305227        -8.3056
  47   2.0000      -0.299408        -8.1473
  48   2.0000      -0.287052        -7.8111
  49   2.0000      -0.285564        -7.7706
  50   2.0000      -0.262107        -7.1323
  51   2.0000      -0.257313        -7.0018
  52   2.0000      -0.224575        -6.1110
  53   2.0000      -0.220353        -5.9961
  54   2.0000      -0.213271        -5.8034
  55   2.0000      -0.181959        -4.9514
  56   0.0000      -0.092517        -2.5175
  57   0.0000      -0.047087        -1.2813
  58   0.0000      -0.024161        -0.6575
  59   0.0000      -0.009571        -0.2605
  60   0.0000      -0.003603        -0.0980

MULLIKEN ATOMIC CHARGES
-----------------------
   0 C :   -0.201825
   1 C :   -0.280326
   2 C :   -0.664971
   3 H :    0.287542
   4 H :    0.171784
   5 S :    1.114588
   6 C :    0.082535
   7 N :   -0.132322
   8 N :   -0.110707
   9 H :    0.233486
  10 H :    0.227050
  11 H :    0.216015
  12 H :    0.277766
  13 O :   -0.797900
  14 O :   -0.583851
  15 C :   -0.363509
  16 C :   -0.142421
  17 H :    0.197715
  18 H :    0.151061
  19 C :   -0.273234
  20 H :    0.277062
  21 H :    0.135461
  22 O :   -0.733841
  23 H :    0.286837
  24 H :    0.119049
  25 H :    0.089893
  26 H :    0.138978
  27 H :    0.185358
  28 H :    0.092727
Sum of atomic charges:    0.0000000

LOEWDIN ATOMIC CHARGES
----------------------
   0 C :   -0.106072
   1 C :   -0.224902
   2 C :   -0.245922
   3 H :    0.090795
   4 H :    0.094062
   5 S :    0.386530
   6 C :   -0.404035
   7 N :    0.219186
   8 N :    0.230117
   9 H :    0.134409
  10 H :    0.092664
  11 H :    0.135817
  12 H :    0.094441
  13 O :   -0.382065
  14 O :   -0.298003
  15 C :   -0.181421
  16 C :   -0.209278
  17 H :    0.113002
  18 H :    0.112535
  19 C :   -0.205976
  20 H :    0.107444
  21 H :    0.115710
  22 O :   -0.335760
  23 H :    0.095753
  24 H :    0.122789
  25 H :    0.082413
  26 H :    0.119127
  27 H :    0.119888
  28 H :    0.126752

  Mayer bond orders larger than 0.100000
B(  0-C ,  6-C ) :   1.0262 B(  0-C , 15-C ) :   0.9014 B(  0-C , 16-C ) :   0.1101
B(  0-C , 19-C ) :  -0.1079 B(  0-C , 27-H ) :   0.9216 B(  0-C , 28-H ) :   0.9874
B(  1-C ,  2-C ) :   0.9665 B(  1-C , 16-C ) :   1.0429 B(  1-C , 17-H ) :   0.8640
B(  1-C , 18-H ) :   0.9136 B(  1-C , 19-C ) :   0.2244 B(  1-C , 25-H ) :   0.1688
B(  2-C ,  3-H ) :   0.8655 B(  2-C ,  4-H ) :   1.0055 B(  2-C ,  5-S ) :   0.8431
B(  2-C , 13-O ) :   0.1933 B(  2-C , 14-O ) :   0.2131 B(  2-C , 19-C ) :   0.1453
B(  5-S , 13-O ) :   1.4837 B(  5-S , 14-O ) :   1.4599 B(  5-S , 22-O ) :   1.3984
B(  6-C ,  7-N ) :   1.3965 B(  6-C ,  8-N ) :   1.4654 B(  6-C , 15-C ) :   0.1742
B(  6-C , 19-C ) :   0.1435 B(  7-N ,  8-N ) :   0.1129 B(  7-N , 11-H ) :   0.8657
B(  7-N , 12-H ) :   0.8479 B(  8-N ,  9-H ) :   0.8549 B(  8-N , 10-H ) :   0.8313
B( 13-O , 22-O ) :   0.1416 B( 15-C , 16-C ) :   0.2722 B( 15-C , 19-C ) :   1.0350
B( 15-C , 20-H ) :   0.8331 B( 15-C , 21-H ) :   0.9131 B( 16-C , 19-C ) :   0.6930
B( 16-C , 25-H ) :   1.0332 B( 16-C , 26-H ) :   0.8832 B( 19-C , 23-H ) :   0.9439
B( 19-C , 24-H ) :   0.9625

Dispersion correction           -0.036776482
FINAL SINGLE POINT ENERGY     -1009.158216756900

DIPOLE MOMENT
-------------
                                X             Y             Z
Electronic contribution:      2.76082      -6.32834     -13.47690
Nuclear contribution   :     -1.90023       6.18953      17.82209
                        -----------------------------------------
Total Dipole Moment    :      0.86059      -0.13881       4.34519
                        -----------------------------------------
Magnitude (a.u.)       :      4.43176
Magnitude (Debye)      :     11.26465

Rotational constants in cm-1:     0.036337     0.018755     0.015005
Rotational constants in MHz :  1089.341704   562.266628   449.834770

                             ****ORCA TERMINATED NORMALLY****
TOTAL RUN TIME: 0 days 0 hours 1 minutes 25 seconds 163 msec
