                         Program Version 5.0.0 -  RELEASE  -
|  1> !PBE D3BJ RIJCOSX def2-TZVPD def2/J TightSCF
|  2> *xyz 0 1
|  3> C          0.70466        1.44313       -4.50363
|  4> C          1.72854        1.42432       -5.63944
|  5> H          2.64672        1.95379       -5.38105
|  6> H          1.29992        1.93061       -6.50361
|  7> S          2.25263       -0.18811       -6.27184
|  8> F          3.56261       -0.44446       -5.63155
|  9> O          2.34494       -0.03374       -7.69650
| 10> O          1.26606       -1.15918       -5.80536
| 11> H         -0.17385        0.91270       -4.80656
| 12> H          0.44778        2.45562       -4.27173
| 13> H          1.12367        0.97423       -3.63791
| 14> *
| 15>
| 16> %MaxCore 64000
| 17>
| 18> %pal nprocs 4
| 19> end
| 20>
| 21> %scf
| 22>   MaxIter 150
| 23> end
| 24>
| 25>
| 26>                          ****END OF INPUT****

CARTESIAN COORDINATES (ANGSTROEM)
---------------------------------
  C      0.704660    1.443130   -4.503630
  C      1.728540    1.424320   -5.639440
  H      2.646720    1.953790   -5.381050
  H      1.299920    1.930610   -6.503610
  S      2.252630   -0.188110   -6.271840
  F      3.562610   -0.444460   -5.631550
  O      2.344940   -0.033740   -7.696500
  O      1.266060   -1.159180   -5.805360
  H     -0.173850    0.912700   -4.806560
  H      0.447780    2.455620   -4.271730
  H      1.123670    0.974230   -3.637910

 Total Charge           Charge          ....    0
 Multiplicity           Mult            ....    1
 Number of Electrons    NEL             ....   58
 Basis Dimension        Dim             ....  285

ORBITAL ENERGIES
----------------

  NO   OCC          E(Eh)            E(eV)
   0   2.0000     -88.266835     -2401.8627
   1   2.0000     -24.354430      -662.7177
   2   2.0000     -18.765192      -510.6268
   3   2.0000     -18.758441      -510.4431
   4   2.0000      -9.940078      -270.4833
   5   2.0000      -9.897821      -269.3334
   6   2.0000      -7.862695      -213.9548
   7   2.0000      -5.887099      -160.1961
   8   2.0000      -5.880707      -160.0222
   9   2.0000      -5.880115      -160.0061
  10   2.0000      -1.246019       -33.9059
  11   2.0000      -1.021880       -27.8068
  12   2.0000      -0.933145       -25.3922
  13   2.0000      -0.746865       -20.3232
  14   2.0000      -0.656929       -17.8759
  15   2.0000      -0.605686       -16.4815
  16   2.0000      -0.514394       -13.9974
  17   2.0000      -0.497461       -13.5366
  18   2.0000      -0.491516       -13.3748
  19   2.0000      -0.441516       -12.0143
  20   2.0000      -0.427052       -11.6207
  21   2.0000      -0.403630       -10.9833
  22   2.0000      -0.384271       -10.4565
  23   2.0000      -0.359208        -9.7745
  24   2.0000      -0.353028        -9.6064
  25   2.0000      -0.337828        -9.1928
  26   2.0000      -0.292511        -7.9596
  27   2.0000      -0.288373        -7.8470
  28   2.0000      -0.272311        -7.4100
  29   0.0000      -0.029946        -0.8149
  30   0.0000      -0.011356        -0.3090
  31   0.0000       0.004824         0.1313
  32   0.0000       0.012523         0.3408
  33   0.0000       0.019948         0.5428

MULLIKEN ATOMIC CHARGES
-----------------------
   0 C :   -0.764096
   1 C :   -0.283089
   2 H :    0.271045
   3 H :    0.218621
   4 S :    0.989983
   5 F :   -0.121829
   6 O :   -0.499704
   7 O :   -0.521671
   8 H :    0.251018
   9 H :    0.219464
  10 H :    0.240258
Sum of atomic charges:    0.0000000

LOEWDIN ATOMIC CHARGES
----------------------
   0 C :   -0.109654
   1 C :   -0.278679
   2 H :    0.095537
   3 H :    0.099121
   4 S :    0.550082
   5 F :   -0.069234
   6 O :   -0.246828
   7 O :   -0.258554
   8 H :    0.072038
   9 H :    0.073098
  10 H :    0.073073

  Mayer bond orders larger than 0.100000
B(  0-C ,  1-C ) :   0.8541 B(  0-C ,  8-H ) :   0.9693 B(  0-C ,  9-H ) :   0.9670
B(  0-C , 10-H ) :   0.9527 B(  1-C ,  2-H ) :   0.8955 B(  1-C ,  3-H ) :   0.9658
B(  1-C ,  4-S ) :   0.8667 B(  1-C ,  6-O ) :   0.1244 B(  4-S ,  5-F ) :   1.0468
B(  4-S ,  6-O ) :   1.7623 B(  4-S ,  7-O ) :   1.7303 B(  6-O ,  7-O ) :   0.1267

Dispersion correction           -0.009128552
FINAL SINGLE POINT ENERGY      -727.333722581391

DIPOLE MOMENT
-------------
                                X             Y             Z
Electronic contribution:      6.28757      -6.55516      -3.74826
Nuclear contribution   :     -6.09914       7.80989       4.64238
                        -----------------------------------------
Total Dipole Moment    :      0.18844       1.25473       0.89413
                        -----------------------------------------
Magnitude (a.u.)       :      1.55220
Magnitude (Debye)      :      3.94538

Rotational constants in cm-1:     0.154372     0.078826     0.078033
Rotational constants in MHz :  4627.943144  2363.154585  2339.382767

                             ****ORCA TERMINATED NORMALLY****
TOTAL RUN TIME: 0 days 0 hours 0 minutes 15 seconds 273 msec
