                         Program Version 5.0.0 -  RELEASE  -
|  1> !PBE D3BJ RIJCOSX def2-TZVPD def2/J TightSCF
|  2> *xyz 0 1
|  3> C          2.91632       -1.24259       -1.54313
|  4> C          3.46659       -1.59097       -2.88908
|  5> C          4.65227       -1.14316       -3.25969
|  6> N          2.75226       -2.29204       -3.72803
|  7> H          1.77836       -2.48960       -3.51274
|  8> H          2.94861       -2.20854       -4.71681
|  9> H          5.14672       -0.51251       -2.63385
| 10> H          4.78303       -1.00720       -4.25350
| 11> C          2.80408        0.29070       -1.35924
| 12> H          1.94047       -1.71653       -1.44116
| 13> H          3.55857       -1.66343       -0.76637
| 14> H          2.17393        0.69633       -2.12297
| 15> H          3.77707        0.73043       -1.42880
| 16> H          2.38369        0.50492       -0.39889
| 17> *
| 18>
| 19> %MaxCore 64000
| 20>
| 21> %pal nprocs 4
| 22> end
| 23>
| 24> %scf
| 25>   MaxIter 150
| 26> end
| 27>
| 28>
| 29>                          ****END OF INPUT****

CARTESIAN COORDINATES (ANGSTROEM)
---------------------------------
  C      2.916320   -1.242590   -1.543130
  C      3.466590   -1.590970   -2.889080
  C      4.652270   -1.143160   -3.259690
  N      2.752260   -2.292040   -3.728030
  H      1.778360   -2.489600   -3.512740
  H      2.948610   -2.208540   -4.716810
  H      5.146720   -0.512510   -2.633850
  H      4.783030   -1.007200   -4.253500
  C      2.804080    0.290700   -1.359240
  H      1.940470   -1.716530   -1.441160
  H      3.558570   -1.663430   -0.766370
  H      2.173930    0.696330   -2.122970
  H      3.777070    0.730430   -1.428800
  H      2.383690    0.504920   -0.398890

 Total Charge           Charge          ....    0
 Multiplicity           Mult            ....    1
 Number of Electrons    NEL             ....   40
 Basis Dimension        Dim             ....  266

ORBITAL ENERGIES
----------------

  NO   OCC          E(Eh)            E(eV)
   0   2.0000     -13.990267      -380.6945
   1   2.0000      -9.898616      -269.3550
   2   2.0000      -9.884936      -268.9828
   3   2.0000      -9.867117      -268.4979
   4   2.0000      -9.810304      -266.9519
   5   2.0000      -0.858986       -23.3742
   6   2.0000      -0.710347       -19.3295
   7   2.0000      -0.644331       -17.5331
   8   2.0000      -0.581831       -15.8324
   9   2.0000      -0.511540       -13.9197
  10   2.0000      -0.472827       -12.8663
  11   2.0000      -0.429854       -11.6969
  12   2.0000      -0.402198       -10.9444
  13   2.0000      -0.363974        -9.9042
  14   2.0000      -0.346071        -9.4171
  15   2.0000      -0.333443        -9.0735
  16   2.0000      -0.315012        -8.5719
  17   2.0000      -0.301746        -8.2109
  18   2.0000      -0.285670        -7.7735
  19   2.0000      -0.160865        -4.3774
  20   0.0000      -0.015055        -0.4097
  21   0.0000      -0.004068        -0.1107
  22   0.0000       0.016363         0.4453
  23   0.0000       0.022748         0.6190
  24   0.0000       0.034197         0.9306

MULLIKEN ATOMIC CHARGES
-----------------------
   0 C :   -0.050076
   1 C :    0.433546
   2 C :   -1.018408
   3 N :   -0.237830
   4 H :    0.168744
   5 H :    0.143301
   6 H :    0.253966
   7 H :    0.203081
   8 C :   -0.885126
   9 H :    0.156215
  10 H :    0.145895
  11 H :    0.231281
  12 H :    0.255545
  13 H :    0.199865
Sum of atomic charges:    0.0000000

LOEWDIN ATOMIC CHARGES
----------------------
   0 C :   -0.190157
   1 C :   -0.512492
   2 C :    0.011453
   3 N :    0.115135
   4 H :    0.103475
   5 H :    0.109244
   6 H :    0.020790
   7 H :    0.022924
   8 C :   -0.086179
   9 H :    0.099687
  10 H :    0.115276
  11 H :    0.071043
  12 H :    0.059193
  13 H :    0.060606

  Mayer bond orders larger than 0.100000
B(  0-C ,  1-C ) :   0.8518 B(  0-C ,  8-C ) :   0.7027 B(  0-C ,  9-H ) :   1.0391
B(  0-C , 10-H ) :   0.9147 B(  1-C ,  2-C ) :   1.4130 B(  1-C ,  3-N ) :   1.1688
B(  1-C ,  8-C ) :   0.1542 B(  2-C ,  3-N ) :   0.1510 B(  2-C ,  6-H ) :   0.9577
B(  2-C ,  7-H ) :   1.0648 B(  3-N ,  4-H ) :   0.9808 B(  3-N ,  5-H ) :   0.9663
B(  8-C , 11-H ) :   0.9843 B(  8-C , 12-H ) :   0.9652 B(  8-C , 13-H ) :   0.9923

Dispersion correction           -0.010613096
FINAL SINGLE POINT ENERGY      -212.352004113807

DIPOLE MOMENT
-------------
                                X             Y             Z
Electronic contribution:      0.11112      -2.74763      -1.82510
Nuclear contribution   :     -0.99366       2.78648       1.68526
                        -----------------------------------------
Total Dipole Moment    :     -0.88253       0.03885      -0.13983
                        -----------------------------------------
Magnitude (a.u.)       :      0.89439
Magnitude (Debye)      :      2.27335

Rotational constants in cm-1:     0.282898     0.128664     0.101801
Rotational constants in MHz :  8481.061354  3857.240210  3051.924245

                             ****ORCA TERMINATED NORMALLY****
TOTAL RUN TIME: 0 days 0 hours 0 minutes 15 seconds 383 msec
