                         Program Version 5.0.0 -  RELEASE  -
|  1> !PBE D3BJ RIJCOSX def2-TZVPD def2/J TightSCF
|  2> *xyz 0 1
|  3> C          0.70466        1.44313       -4.50363
|  4> C          1.72854        1.42432       -5.63944
|  5> H          2.64672        1.95379       -5.38105
|  6> H          1.29992        1.93061       -6.50361
|  7> S          2.25263       -0.18811       -6.27184
|  8> O          3.56261       -0.44446       -5.63155
|  9> F          2.34494       -0.03374       -7.69650
| 10> O          1.26606       -1.15918       -5.80536
| 11> H         -0.17385        0.91270       -4.80656
| 12> H          0.44778        2.45562       -4.27173
| 13> H          1.12367        0.97423       -3.63791
| 14> *
| 15>
| 16> %MaxCore 64000
| 17>
| 18> %pal nprocs 4
| 19> end
| 20>
| 21> %scf
| 22>   MaxIter 150
| 23> end
| 24>
| 25>
| 26>                          ****END OF INPUT****

CARTESIAN COORDINATES (ANGSTROEM)
---------------------------------
  C      0.704660    1.443130   -4.503630
  C      1.728540    1.424320   -5.639440
  H      2.646720    1.953790   -5.381050
  H      1.299920    1.930610   -6.503610
  S      2.252630   -0.188110   -6.271840
  O      3.562610   -0.444460   -5.631550
  F      2.344940   -0.033740   -7.696500
  O      1.266060   -1.159180   -5.805360
  H     -0.173850    0.912700   -4.806560
  H      0.447780    2.455620   -4.271730
  H      1.123670    0.974230   -3.637910

 Total Charge           Charge          ....    0
 Multiplicity           Mult            ....    1
 Number of Electrons    NEL             ....   58
 Basis Dimension        Dim             ....  285

ORBITAL ENERGIES
----------------

  NO   OCC          E(Eh)            E(eV)
   0   2.0000     -88.269497     -2401.9351
   1   2.0000     -24.377110      -663.3349
   2   2.0000     -18.758691      -510.4499
   3   2.0000     -18.750940      -510.2390
   4   2.0000      -9.941130      -270.5119
   5   2.0000      -9.898642      -269.3557
   6   2.0000      -7.865206      -214.0231
   7   2.0000      -5.889506      -160.2616
   8   2.0000      -5.883093      -160.0871
   9   2.0000      -5.882742      -160.0776
  10   2.0000      -1.282648       -34.9026
  11   2.0000      -1.008382       -27.4395
  12   2.0000      -0.914308       -24.8796
  13   2.0000      -0.747794       -20.3485
  14   2.0000      -0.670954       -18.2576
  15   2.0000      -0.613149       -16.6846
  16   2.0000      -0.527103       -14.3432
  17   2.0000      -0.523693       -14.2504
  18   2.0000      -0.497424       -13.5356
  19   2.0000      -0.442485       -12.0406
  20   2.0000      -0.428770       -11.6674
  21   2.0000      -0.395305       -10.7568
  22   2.0000      -0.382068       -10.3966
  23   2.0000      -0.361571        -9.8388
  24   2.0000      -0.346080        -9.4173
  25   2.0000      -0.334741        -9.1088
  26   2.0000      -0.286717        -7.8020
  27   2.0000      -0.276610        -7.5269
  28   2.0000      -0.256904        -6.9907
  29   0.0000      -0.030406        -0.8274
  30   0.0000      -0.015639        -0.4256
  31   0.0000       0.004429         0.1205
  32   0.0000       0.012205         0.3321
  33   0.0000       0.019386         0.5275

MULLIKEN ATOMIC CHARGES
-----------------------
   0 C :   -0.785295
   1 C :   -0.275701
   2 H :    0.238298
   3 H :    0.243298
   4 S :    0.986590
   5 O :   -0.528615
   6 F :   -0.079621
   7 O :   -0.518035
   8 H :    0.252005
   9 H :    0.221203
  10 H :    0.245872
Sum of atomic charges:   -0.0000000

LOEWDIN ATOMIC CHARGES
----------------------
   0 C :   -0.103960
   1 C :   -0.283493
   2 H :    0.099161
   3 H :    0.089494
   4 S :    0.548267
   5 O :   -0.278026
   6 F :   -0.034923
   7 O :   -0.259534
   8 H :    0.070915
   9 H :    0.074272
  10 H :    0.077827

  Mayer bond orders larger than 0.100000
B(  0-C ,  1-C ) :   0.8691 B(  0-C ,  8-H ) :   0.9554 B(  0-C ,  9-H ) :   0.9571
B(  0-C , 10-H ) :   0.9658 B(  1-C ,  2-H ) :   0.9603 B(  1-C ,  3-H ) :   0.9056
B(  1-C ,  4-S ) :   0.8643 B(  1-C ,  5-O ) :   0.1107 B(  4-S ,  5-O ) :   1.7187
B(  4-S ,  6-F ) :   1.1007 B(  4-S ,  7-O ) :   1.7348 B(  5-O ,  7-O ) :   0.1242

Dispersion correction           -0.009140731
FINAL SINGLE POINT ENERGY      -727.314951987827

DIPOLE MOMENT
-------------
                                X             Y             Z
Electronic contribution:      4.23526      -5.87254      -7.18256
Nuclear contribution   :     -4.83029       7.38191       6.79413
                        -----------------------------------------
Total Dipole Moment    :     -0.59502       1.50937      -0.38843
                        -----------------------------------------
Magnitude (a.u.)       :      1.66827
Magnitude (Debye)      :      4.24040

Rotational constants in cm-1:     0.156575     0.079070     0.076729
Rotational constants in MHz :  4694.010604  2370.444114  2300.280155

                             ****ORCA TERMINATED NORMALLY****
TOTAL RUN TIME: 0 days 0 hours 0 minutes 15 seconds 74 msec
