                         Program Version 5.0.0 -  RELEASE  -
|  1> !PBE D3BJ RIJCOSX def2-TZVPD def2/J TightSCF
|  2> *xyz 0 1
|  3> C          2.91632       -1.24259       -1.54313
|  4> C          3.46659       -1.59097       -2.88908
|  5> N          4.65227       -1.14316       -3.25969
|  6> C          2.75226       -2.29204       -3.72803
|  7> H          1.77836       -2.48960       -3.51274
|  8> H          2.94861       -2.20854       -4.71681
|  9> H          5.14672       -0.51251       -2.63385
| 10> H          4.78303       -1.00720       -4.25350
| 11> C          2.80408        0.29070       -1.35924
| 12> H          1.94047       -1.71653       -1.44116
| 13> H          3.55857       -1.66343       -0.76637
| 14> H          2.17393        0.69633       -2.12297
| 15> H          3.77707        0.73043       -1.42880
| 16> H          2.38369        0.50492       -0.39889
| 17> *
| 18>
| 19> %MaxCore 64000
| 20>
| 21> %pal nprocs 4
| 22> end
| 23>
| 24> %scf
| 25>   MaxIter 150
| 26> end
| 27>
| 28>
| 29>                          ****END OF INPUT****

CARTESIAN COORDINATES (ANGSTROEM)
---------------------------------
  C      2.916320   -1.242590   -1.543130
  C      3.466590   -1.590970   -2.889080
  N      4.652270   -1.143160   -3.259690
  C      2.752260   -2.292040   -3.728030
  H      1.778360   -2.489600   -3.512740
  H      2.948610   -2.208540   -4.716810
  H      5.146720   -0.512510   -2.633850
  H      4.783030   -1.007200   -4.253500
  C      2.804080    0.290700   -1.359240
  H      1.940470   -1.716530   -1.441160
  H      3.558570   -1.663430   -0.766370
  H      2.173930    0.696330   -2.122970
  H      3.777070    0.730430   -1.428800
  H      2.383690    0.504920   -0.398890

 Total Charge           Charge          ....    0
 Multiplicity           Mult            ....    1
 Number of Electrons    NEL             ....   40
 Basis Dimension        Dim             ....  266

ORBITAL ENERGIES
----------------

  NO   OCC          E(Eh)            E(eV)
   0   2.0000     -13.986495      -380.5919
   1   2.0000      -9.897429      -269.3227
   2   2.0000      -9.883161      -268.9345
   3   2.0000      -9.872098      -268.6334
   4   2.0000      -9.813432      -267.0371
   5   2.0000      -0.854013       -23.2389
   6   2.0000      -0.708065       -19.2674
   7   2.0000      -0.654663       -17.8143
   8   2.0000      -0.574579       -15.6351
   9   2.0000      -0.511030       -13.9058
  10   2.0000      -0.476708       -12.9719
  11   2.0000      -0.426727       -11.6118
  12   2.0000      -0.391108       -10.6426
  13   2.0000      -0.387203       -10.5363
  14   2.0000      -0.342936        -9.3318
  15   2.0000      -0.337476        -9.1832
  16   2.0000      -0.315180        -8.5765
  17   2.0000      -0.301116        -8.1938
  18   2.0000      -0.280271        -7.6266
  19   2.0000      -0.167058        -4.5459
  20   0.0000      -0.016961        -0.4615
  21   0.0000      -0.001673        -0.0455
  22   0.0000       0.020508         0.5581
  23   0.0000       0.022551         0.6136
  24   0.0000       0.031830         0.8661

MULLIKEN ATOMIC CHARGES
-----------------------
   0 C :   -0.113570
   1 C :    0.525144
   2 N :   -0.295823
   3 C :   -0.986593
   4 H :    0.217544
   5 H :    0.226031
   6 H :    0.160306
   7 H :    0.145425
   8 C :   -0.860834
   9 H :    0.128094
  10 H :    0.163140
  11 H :    0.253212
  12 H :    0.245639
  13 H :    0.192287
Sum of atomic charges:   -0.0000000

LOEWDIN ATOMIC CHARGES
----------------------
   0 C :   -0.192493
   1 C :   -0.513321
   2 N :    0.115593
   3 C :    0.016024
   4 H :    0.024315
   5 H :    0.023696
   6 H :    0.100031
   7 H :    0.109119
   8 C :   -0.087726
   9 H :    0.107263
  10 H :    0.110714
  11 H :    0.072152
  12 H :    0.052159
  13 H :    0.062472

  Mayer bond orders larger than 0.100000
B(  0-C ,  1-C ) :   0.9443 B(  0-C ,  8-C ) :   0.7558 B(  0-C ,  9-H ) :   0.9601
B(  0-C , 10-H ) :   0.9269 B(  1-C ,  2-N ) :   1.0745 B(  1-C ,  3-C ) :   1.4132
B(  2-N ,  3-C ) :   0.1232 B(  2-N ,  6-H ) :   0.9568 B(  2-N ,  7-H ) :   0.9829
B(  3-C ,  4-H ) :   1.0093 B(  3-C ,  5-H ) :   1.0430 B(  8-C , 11-H ) :   1.0068
B(  8-C , 12-H ) :   0.9361 B(  8-C , 13-H ) :   1.0105

Dispersion correction           -0.010589082
FINAL SINGLE POINT ENERGY      -212.355197681313

DIPOLE MOMENT
-------------
                                X             Y             Z
Electronic contribution:      1.74286      -1.74870      -1.41721
Nuclear contribution   :     -1.43372       2.52039       1.57679
                        -----------------------------------------
Total Dipole Moment    :      0.30915       0.77169       0.15958
                        -----------------------------------------
Magnitude (a.u.)       :      0.84648
Magnitude (Debye)      :      2.15159

Rotational constants in cm-1:     0.274962     0.131786     0.102554
Rotational constants in MHz :  8243.150005  3950.846092  3074.493018

                             ****ORCA TERMINATED NORMALLY****
TOTAL RUN TIME: 0 days 0 hours 0 minutes 17 seconds 94 msec
