                         Program Version 5.0.0 -  RELEASE  -
|  1> !PBE D3BJ RIJCOSX def2-TZVPD def2/J TightSCF
|  2> *xyz 0 1
|  3> C          0.70466        1.44313       -4.50363
|  4> C          1.72854        1.42432       -5.63944
|  5> H          2.64672        1.95379       -5.38105
|  6> H          1.29992        1.93061       -6.50361
|  7> S          2.25263       -0.18811       -6.27184
|  8> O          3.56261       -0.44446       -5.63155
|  9> O          2.34494       -0.03374       -7.69650
| 10> F          1.26606       -1.15918       -5.80536
| 11> H         -0.17385        0.91270       -4.80656
| 12> H          0.44778        2.45562       -4.27173
| 13> H          1.12367        0.97423       -3.63791
| 14> *
| 15>
| 16> %MaxCore 64000
| 17>
| 18> %pal nprocs 4
| 19> end
| 20>
| 21> %scf
| 22>   MaxIter 150
| 23> end
| 24>
| 25>
| 26>                          ****END OF INPUT****

CARTESIAN COORDINATES (ANGSTROEM)
---------------------------------
  C      0.704660    1.443130   -4.503630
  C      1.728540    1.424320   -5.639440
  H      2.646720    1.953790   -5.381050
  H      1.299920    1.930610   -6.503610
  S      2.252630   -0.188110   -6.271840
  O      3.562610   -0.444460   -5.631550
  O      2.344940   -0.033740   -7.696500
  F      1.266060   -1.159180   -5.805360
  H     -0.173850    0.912700   -4.806560
  H      0.447780    2.455620   -4.271730
  H      1.123670    0.974230   -3.637910

 Total Charge           Charge          ....    0
 Multiplicity           Mult            ....    1
 Number of Electrons    NEL             ....   58
 Basis Dimension        Dim             ....  285

ORBITAL ENERGIES
----------------

  NO   OCC          E(Eh)            E(eV)
   0   2.0000     -88.267859     -2401.8905
   1   2.0000     -24.365062      -663.0070
   2   2.0000     -18.765273      -510.6290
   3   2.0000     -18.750533      -510.2280
   4   2.0000      -9.940049      -270.4825
   5   2.0000      -9.905105      -269.5316
   6   2.0000      -7.863668      -213.9813
   7   2.0000      -5.888137      -160.2244
   8   2.0000      -5.881420      -160.0416
   9   2.0000      -5.881249      -160.0369
  10   2.0000      -1.262155       -34.3450
  11   2.0000      -1.018000       -27.7012
  12   2.0000      -0.922000       -25.0889
  13   2.0000      -0.750630       -20.4257
  14   2.0000      -0.660548       -17.9744
  15   2.0000      -0.614157       -16.7121
  16   2.0000      -0.527590       -14.3564
  17   2.0000      -0.509605       -13.8671
  18   2.0000      -0.486878       -13.2486
  19   2.0000      -0.445628       -12.1261
  20   2.0000      -0.422029       -11.4840
  21   2.0000      -0.401857       -10.9351
  22   2.0000      -0.393821       -10.7164
  23   2.0000      -0.367618       -10.0034
  24   2.0000      -0.351654        -9.5690
  25   2.0000      -0.338757        -9.2180
  26   2.0000      -0.292581        -7.9615
  27   2.0000      -0.277299        -7.5457
  28   2.0000      -0.263313        -7.1651
  29   0.0000      -0.038112        -1.0371
  30   0.0000      -0.002033        -0.0553
  31   0.0000       0.008184         0.2227
  32   0.0000       0.011072         0.3013
  33   0.0000       0.016741         0.4556

MULLIKEN ATOMIC CHARGES
-----------------------
   0 C :   -0.836273
   1 C :   -0.200041
   2 H :    0.224858
   3 H :    0.229604
   4 S :    0.989063
   5 O :   -0.534720
   6 O :   -0.495234
   7 F :   -0.114491
   8 H :    0.267615
   9 H :    0.214336
  10 H :    0.255284
Sum of atomic charges:    0.0000000

LOEWDIN ATOMIC CHARGES
----------------------
   0 C :   -0.112799
   1 C :   -0.274964
   2 H :    0.105475
   3 H :    0.095211
   4 S :    0.547848
   5 O :   -0.279178
   6 O :   -0.246255
   7 F :   -0.050607
   8 H :    0.067847
   9 H :    0.073556
  10 H :    0.073867

  Mayer bond orders larger than 0.100000
B(  0-C ,  1-C ) :   0.8091 B(  0-C ,  8-H ) :   0.9372 B(  0-C ,  9-H ) :   0.9776
B(  0-C , 10-H ) :   0.9689 B(  1-C ,  2-H ) :   0.9547 B(  1-C ,  3-H ) :   0.9551
B(  1-C ,  4-S ) :   0.8456 B(  1-C ,  5-O ) :   0.1050 B(  1-C ,  6-O ) :   0.1188
B(  4-S ,  5-O ) :   1.7152 B(  4-S ,  6-O ) :   1.7673 B(  4-S ,  7-F ) :   1.0729
B(  5-O ,  6-O ) :   0.1228

Dispersion correction           -0.009086514
FINAL SINGLE POINT ENERGY      -727.324262567184

DIPOLE MOMENT
-------------
                                X             Y             Z
Electronic contribution:      2.44700      -7.70773      -4.03943
Nuclear contribution   :     -3.70606       8.55465       4.82350
                        -----------------------------------------
Total Dipole Moment    :     -1.25906       0.84692       0.78407
                        -----------------------------------------
Magnitude (a.u.)       :      1.70800
Magnitude (Debye)      :      4.34139

Rotational constants in cm-1:     0.153201     0.080978     0.077494
Rotational constants in MHz :  4592.852844  2427.650814  2323.207507

                             ****ORCA TERMINATED NORMALLY****
TOTAL RUN TIME: 0 days 0 hours 0 minutes 15 seconds 392 msec
