                         Program Version 5.0.0 -  RELEASE  -
|  1> !PBE D3BJ RIJCOSX def2-TZVPD def2/J TightSCF xyzfile
|  2>
|  3> *xyzfile 0 1 D1.xyz
|  4>
|  5> %MaxCore 64000
|  6>
|  7> %pal nprocs 4
|  8> end
|  9>
| 10> %scf
| 11>   MaxIter 150
| 12> end
| 13>
| 14>
| 15>                          ****END OF INPUT****

CARTESIAN COORDINATES (ANGSTROEM)
---------------------------------
  C      2.916324   -1.242589   -1.543125
  C      0.704661    1.443129   -4.503630
  C      1.728539    1.424320   -5.639443
  H      2.646718    1.953794   -5.381054
  H      1.299916    1.930613   -6.503614
  S      2.252625   -0.188115   -6.271840
  C      3.466585   -1.590971   -2.889082
  C      4.652275   -1.143164   -3.259692
  N      2.752264   -2.292043   -3.728029
  H      1.778364   -2.489604   -3.512738
  H      2.948612   -2.208544   -4.716813
  H      5.146723   -0.512508   -2.633852
  H      4.783030   -1.007203   -4.253498
  F      3.562607   -0.444464   -5.631552
  O      2.344944   -0.033742   -7.696501
  C      2.804084    0.290698   -1.359243
  C      1.052550    0.695659   -3.214915
  H     -0.232483    1.032925   -4.884449
  H      0.511700    2.495794   -4.267966
  C      2.388380    1.093669   -2.597108
  H      3.763425    0.674718   -0.999889
  H      2.094788    0.461222   -0.545756
  O      1.266058   -1.159177   -5.805365
  H      3.167316    1.013242   -3.359430
  H      2.357690    2.149375   -2.310997
  H      1.039284   -0.368429   -3.449329
  H      0.250787    0.865605   -2.488283
  H      1.940472   -1.716529   -1.441161
  H      3.558569   -1.663433   -0.766371

 Total Charge           Charge          ....    0
 Multiplicity           Mult            ....    1
 Number of Electrons    NEL             ....  112
 Basis Dimension        Dim             ....  643

ORBITAL ENERGIES
----------------

  NO   OCC          E(Eh)            E(eV)
   0   2.0000     -88.274283     -2402.0654
   1   2.0000     -24.363087      -662.9533
   2   2.0000     -18.772067      -510.8139
   3   2.0000     -18.768812      -510.7253
   4   2.0000     -13.982470      -380.4823
   5   2.0000      -9.942112      -270.5386
   6   2.0000      -9.910336      -269.6740
   7   2.0000      -9.897566      -269.3265
   8   2.0000      -9.888902      -269.0907
   9   2.0000      -9.887297      -269.0470
  10   2.0000      -9.885711      -269.0039
  11   2.0000      -9.884577      -268.9730
  12   2.0000      -9.808501      -266.9029
  13   2.0000      -7.870560      -214.1688
  14   2.0000      -5.895044      -160.4123
  15   2.0000      -5.888459      -160.2331
  16   2.0000      -5.887912      -160.2182
  17   2.0000      -1.257785       -34.2261
  18   2.0000      -1.031159       -28.0593
  19   2.0000      -0.943828       -25.6829
  20   2.0000      -0.856016       -23.2934
  21   2.0000      -0.765918       -20.8417
  22   2.0000      -0.731788       -19.9130
  23   2.0000      -0.694066       -18.8865
  24   2.0000      -0.665959       -18.1217
  25   2.0000      -0.634306       -17.2603
  26   2.0000      -0.622795       -16.9471
  27   2.0000      -0.573474       -15.6050
  28   2.0000      -0.538953       -14.6657
  29   2.0000      -0.517526       -14.0826
  30   2.0000      -0.510059       -13.8794
  31   2.0000      -0.506063       -13.7707
  32   2.0000      -0.494254       -13.4493
  33   2.0000      -0.465491       -12.6666
  34   2.0000      -0.448673       -12.2090
  35   2.0000      -0.442360       -12.0372
  36   2.0000      -0.429139       -11.6775
  37   2.0000      -0.423309       -11.5188
  38   2.0000      -0.410577       -11.1724
  39   2.0000      -0.397538       -10.8176
  40   2.0000      -0.387751       -10.5512
  41   2.0000      -0.378032       -10.2868
  42   2.0000      -0.354414        -9.6441
  43   2.0000      -0.350044        -9.5252
  44   2.0000      -0.343176        -9.3383
  45   2.0000      -0.338524        -9.2117
  46   2.0000      -0.332308        -9.0426
  47   2.0000      -0.316404        -8.6098
  48   2.0000      -0.310001        -8.4356
  49   2.0000      -0.299323        -8.1450
  50   2.0000      -0.297887        -8.1059
  51   2.0000      -0.287842        -7.8326
  52   2.0000      -0.284430        -7.7397
  53   2.0000      -0.278733        -7.5847
  54   2.0000      -0.276914        -7.5352
  55   2.0000      -0.158456        -4.3118
  56   0.0000      -0.030497        -0.8299
  57   0.0000      -0.019043        -0.5182
  58   0.0000      -0.012492        -0.3399
  59   0.0000      -0.006641        -0.1807
  60   0.0000      -0.005063        -0.1378

MULLIKEN ATOMIC CHARGES
-----------------------
   0 C :   -0.353079
   1 C :   -0.228964
   2 C :   -0.630776
   3 H :    0.379409
   4 H :    0.175592
   5 S :    1.001471
   6 C :    0.253530
   7 C :   -1.129973
   8 N :   -0.179233
   9 H :    0.230362
  10 H :    0.130127
  11 H :    0.317600
  12 H :    0.393798
  13 F :   -0.141325
  14 O :   -0.494560
  15 C :   -0.331336
  16 C :   -0.195474
  17 H :    0.190753
  18 H :    0.172008
  19 C :   -0.321892
  20 H :    0.243528
  21 H :    0.162321
  22 O :   -0.597544
  23 H :    0.262409
  24 H :    0.124646
  25 H :    0.145052
  26 H :    0.137794
  27 H :    0.201318
  28 H :    0.082438
Sum of atomic charges:   -0.0000000

LOEWDIN ATOMIC CHARGES
----------------------
   0 C :   -0.134690
   1 C :   -0.216729
   2 C :   -0.218142
   3 H :    0.101672
   4 H :    0.105351
   5 S :    0.576306
   6 C :   -0.502034
   7 C :    0.008407
   8 N :    0.126774
   9 H :    0.108987
  10 H :    0.075843
  11 H :    0.034991
  12 H :    0.010622
  13 F :   -0.093343
  14 O :   -0.231477
  15 C :   -0.184678
  16 C :   -0.206125
  17 H :    0.115441
  18 H :    0.120698
  19 C :   -0.208422
  20 H :    0.108932
  21 H :    0.108153
  22 O :   -0.253238
  23 H :    0.092092
  24 H :    0.118490
  25 H :    0.085701
  26 H :    0.122547
  27 H :    0.107909
  28 H :    0.119965

  Mayer bond orders larger than 0.100000
B(  0-C ,  6-C ) :   1.0244 B(  0-C ,  7-C ) :  -0.1250 B(  0-C , 15-C ) :   0.9669
B(  0-C , 16-C ) :   0.1408 B(  0-C , 27-H ) :   0.9113 B(  0-C , 28-H ) :   0.9804
B(  1-C ,  2-C ) :   0.9483 B(  1-C , 16-C ) :   1.0080 B(  1-C , 17-H ) :   0.8863
B(  1-C , 18-H ) :   0.9085 B(  1-C , 19-C ) :   0.1870 B(  1-C , 25-H ) :   0.1227
B(  2-C ,  3-H ) :   0.7826 B(  2-C ,  4-H ) :   0.9973 B(  2-C ,  5-S ) :   0.8592
B(  2-C , 14-O ) :   0.1669 B(  2-C , 19-C ) :   0.1748 B(  5-S , 13-F ) :   1.1254
B(  5-S , 14-O ) :   1.5892 B(  5-S , 22-O ) :   1.6293 B(  6-C ,  7-C ) :   1.5163
B(  6-C ,  8-N ) :   0.9970 B(  6-C , 11-H ) :  -0.1035 B(  6-C , 19-C ) :   0.1589
B(  7-C ,  8-N ) :   0.1299 B(  7-C , 11-H ) :   0.9738 B(  7-C , 12-H ) :   0.8380
B(  7-C , 15-C ) :   0.1493 B(  8-N ,  9-H ) :   0.8078 B(  8-N , 10-H ) :   0.8800
B( 13-F , 22-O ) :   0.1051 B( 15-C , 16-C ) :   0.2629 B( 15-C , 19-C ) :   1.1779
B( 15-C , 20-H ) :   0.8244 B( 15-C , 21-H ) :   0.8987 B( 15-C , 23-H ) :   0.1246
B( 16-C , 19-C ) :   0.6783 B( 16-C , 25-H ) :   1.0947 B( 16-C , 26-H ) :   0.8613
B( 19-C , 23-H ) :   0.9300 B( 19-C , 24-H ) :   0.9296

Dispersion correction           -0.036536314
FINAL SINGLE POINT ENERGY     -1017.032454667705

DIPOLE MOMENT
-------------
                                X             Y             Z
Electronic contribution:      2.15017      -5.03516     -18.63204
Nuclear contribution   :     -2.89481       6.29550      19.36835
                        -----------------------------------------
Total Dipole Moment    :     -0.74465       1.26034       0.73631
                        -----------------------------------------
Magnitude (a.u.)       :      1.63863
Magnitude (Debye)      :      4.16507

Rotational constants in cm-1:     0.036515     0.018832     0.015081
Rotational constants in MHz :  1094.679513   564.567051   452.109105

                             ****ORCA TERMINATED NORMALLY****
TOTAL RUN TIME: 0 days 0 hours 1 minutes 18 seconds 292 msec
