                         Program Version 5.0.0 -  RELEASE  -
|  1> !PBE D3BJ RIJCOSX def2-TZVPD def2/J TightSCF xyzfile
|  2>
|  3> *xyzfile 0 1 D2.xyz
|  4>
|  5> %MaxCore 64000
|  6>
|  7> %pal nprocs 4
|  8> end
|  9>
| 10> %scf
| 11>   MaxIter 150
| 12> end
| 13>
| 14>
| 15>                          ****END OF INPUT****

CARTESIAN COORDINATES (ANGSTROEM)
---------------------------------
  C      2.916324   -1.242589   -1.543125
  C      0.704661    1.443129   -4.503630
  C      1.728539    1.424320   -5.639443
  H      2.646718    1.953794   -5.381054
  H      1.299916    1.930613   -6.503614
  S      2.252625   -0.188115   -6.271840
  C      3.466585   -1.590971   -2.889082
  N      4.652275   -1.143164   -3.259692
  C      2.752264   -2.292043   -3.728029
  H      1.778364   -2.489604   -3.512738
  H      2.948612   -2.208544   -4.716813
  H      5.146723   -0.512508   -2.633852
  H      4.783030   -1.007203   -4.253498
  F      3.562607   -0.444464   -5.631552
  O      2.344944   -0.033742   -7.696501
  C      2.804084    0.290698   -1.359243
  C      1.052550    0.695659   -3.214915
  H     -0.232483    1.032925   -4.884449
  H      0.511700    2.495794   -4.267966
  C      2.388380    1.093669   -2.597108
  H      3.763425    0.674718   -0.999889
  H      2.094788    0.461222   -0.545756
  O      1.266058   -1.159177   -5.805365
  H      3.167316    1.013242   -3.359430
  H      2.357690    2.149375   -2.310997
  H      1.039284   -0.368429   -3.449329
  H      0.250787    0.865605   -2.488283
  H      1.940472   -1.716529   -1.441161
  H      3.558569   -1.663433   -0.766371

 Total Charge           Charge          ....    0
 Multiplicity           Mult            ....    1
 Number of Electrons    NEL             ....  112
 Basis Dimension        Dim             ....  643

ORBITAL ENERGIES
----------------

  NO   OCC          E(Eh)            E(eV)
   0   2.0000     -88.268221     -2401.9004
   1   2.0000     -24.360970      -662.8957
   2   2.0000     -18.767134      -510.6797
   3   2.0000     -18.758042      -510.4323
   4   2.0000     -13.985264      -380.5584
   5   2.0000      -9.938686      -270.4454
   6   2.0000      -9.906364      -269.5659
   7   2.0000      -9.894320      -269.2381
   8   2.0000      -9.890299      -269.1287
   9   2.0000      -9.887919      -269.0640
  10   2.0000      -9.883402      -268.9411
  11   2.0000      -9.883064      -268.9318
  12   2.0000      -9.809723      -266.9361
  13   2.0000      -7.864411      -214.0015
  14   2.0000      -5.889060      -160.2495
  15   2.0000      -5.882183      -160.0623
  16   2.0000      -5.881709      -160.0494
  17   2.0000      -1.255255       -34.1572
  18   2.0000      -1.024320       -27.8732
  19   2.0000      -0.935032       -25.4435
  20   2.0000      -0.855231       -23.2720
  21   2.0000      -0.762583       -20.7509
  22   2.0000      -0.729929       -19.8624
  23   2.0000      -0.692095       -18.8329
  24   2.0000      -0.666412       -18.1340
  25   2.0000      -0.643544       -17.5117
  26   2.0000      -0.616236       -16.7686
  27   2.0000      -0.567523       -15.4431
  28   2.0000      -0.537760       -14.6332
  29   2.0000      -0.513180       -13.9643
  30   2.0000      -0.508304       -13.8317
  31   2.0000      -0.501918       -13.6579
  32   2.0000      -0.492969       -13.4144
  33   2.0000      -0.473849       -12.8941
  34   2.0000      -0.443048       -12.0560
  35   2.0000      -0.441428       -12.0119
  36   2.0000      -0.428180       -11.6514
  37   2.0000      -0.415794       -11.3143
  38   2.0000      -0.404866       -11.0170
  39   2.0000      -0.396502       -10.7894
  40   2.0000      -0.388656       -10.5759
  41   2.0000      -0.372632       -10.1398
  42   2.0000      -0.360364        -9.8060
  43   2.0000      -0.344632        -9.3779
  44   2.0000      -0.341856        -9.3024
  45   2.0000      -0.338818        -9.2197
  46   2.0000      -0.325621        -8.8606
  47   2.0000      -0.315173        -8.5763
  48   2.0000      -0.305680        -8.3180
  49   2.0000      -0.294660        -8.0181
  50   2.0000      -0.289957        -7.8901
  51   2.0000      -0.287608        -7.8262
  52   2.0000      -0.280286        -7.6270
  53   2.0000      -0.275107        -7.4860
  54   2.0000      -0.270257        -7.3541
  55   2.0000      -0.164842        -4.4856
  56   0.0000      -0.032698        -0.8898
  57   0.0000      -0.018648        -0.5074
  58   0.0000      -0.014327        -0.3899
  59   0.0000      -0.009444        -0.2570
  60   0.0000       0.006481         0.1764

MULLIKEN ATOMIC CHARGES
-----------------------
   0 C :   -0.360041
   1 C :   -0.231035
   2 C :   -0.646892
   3 H :    0.362665
   4 H :    0.179301
   5 S :    1.030620
   6 C :    0.340246
   7 N :   -0.175672
   8 C :   -1.252523
   9 H :    0.303869
  10 H :    0.450905
  11 H :    0.212875
  12 H :    0.204090
  13 F :   -0.159975
  14 O :   -0.507068
  15 C :   -0.379496
  16 C :   -0.176395
  17 H :    0.213457
  18 H :    0.170115
  19 C :   -0.232089
  20 H :    0.260683
  21 H :    0.098599
  22 O :   -0.561237
  23 H :    0.250222
  24 H :    0.124326
  25 H :    0.117988
  26 H :    0.117811
  27 H :    0.169752
  28 H :    0.074899
Sum of atomic charges:   -0.0000000

LOEWDIN ATOMIC CHARGES
----------------------
   0 C :   -0.136702
   1 C :   -0.216339
   2 C :   -0.220201
   3 H :    0.098594
   4 H :    0.104800
   5 S :    0.576957
   6 C :   -0.499996
   7 N :    0.123879
   8 C :    0.003191
   9 H :    0.040762
  10 H :    0.006277
  11 H :    0.110832
  12 H :    0.087255
  13 F :   -0.097886
  14 O :   -0.233313
  15 C :   -0.188694
  16 C :   -0.203450
  17 H :    0.116311
  18 H :    0.119356
  19 C :   -0.209769
  20 H :    0.102727
  21 H :    0.109298
  22 O :   -0.242764
  23 H :    0.089770
  24 H :    0.117686
  25 H :    0.089282
  26 H :    0.122740
  27 H :    0.114632
  28 H :    0.114769

  Mayer bond orders larger than 0.100000
B(  0-C ,  6-C ) :   1.0126 B(  0-C , 15-C ) :   0.9276 B(  0-C , 16-C ) :   0.1599
B(  0-C , 19-C ) :  -0.1083 B(  0-C , 27-H ) :   0.9228 B(  0-C , 28-H ) :   0.9806
B(  1-C ,  2-C ) :   0.9627 B(  1-C , 16-C ) :   0.9756 B(  1-C , 17-H ) :   0.8628
B(  1-C , 18-H ) :   0.9143 B(  1-C , 19-C ) :   0.1922 B(  1-C , 25-H ) :   0.1568
B(  2-C ,  3-H ) :   0.7914 B(  2-C ,  4-H ) :   0.9981 B(  2-C ,  5-S ) :   0.8604
B(  2-C , 14-O ) :   0.1710 B(  2-C , 19-C ) :   0.1915 B(  5-S , 13-F ) :   1.1391
B(  5-S , 14-O ) :   1.5749 B(  5-S , 22-O ) :   1.6750 B(  6-C ,  7-N ) :   1.0715
B(  6-C ,  8-C ) :   1.5247 B(  6-C ,  9-H ) :  -0.1012 B(  6-C , 10-H ) :  -0.1488
B(  6-C , 19-C ) :   0.1501 B(  7-N , 11-H ) :   0.8182 B(  7-N , 12-H ) :   0.8688
B(  8-C ,  9-H ) :   0.9504 B(  8-C , 10-H ) :   0.8521 B(  9-H , 10-H ) :   0.1012
B( 15-C , 16-C ) :   0.2746 B( 15-C , 19-C ) :   1.1043 B( 15-C , 20-H ) :   0.8541
B( 15-C , 21-H ) :   0.9184 B( 15-C , 23-H ) :   0.1130 B( 16-C , 19-C ) :   0.6526
B( 16-C , 25-H ) :   1.1762 B( 16-C , 26-H ) :   0.8417 B( 19-C , 23-H ) :   0.9443
B( 19-C , 24-H ) :   0.9526

Dispersion correction           -0.036591106
FINAL SINGLE POINT ENERGY     -1017.031965778039

DIPOLE MOMENT
-------------
                                X             Y             Z
Electronic contribution:      3.45819      -4.34119     -18.30062
Nuclear contribution   :     -3.13969       6.14743      19.30799
                        -----------------------------------------
Total Dipole Moment    :      0.31851       1.80624       1.00737
                        -----------------------------------------
Magnitude (a.u.)       :      2.09255
Magnitude (Debye)      :      5.31883

Rotational constants in cm-1:     0.036460     0.018762     0.015014
Rotational constants in MHz :  1093.039020   562.475626   450.105862

                             ****ORCA TERMINATED NORMALLY****
TOTAL RUN TIME: 0 days 0 hours 1 minutes 53 seconds 358 msec
