                         Program Version 5.0.0 -  RELEASE  -
|  1> !PBE D3BJ RIJCOSX def2-TZVPD def2/J TightSCF xyzfile
|  2>
|  3> *xyzfile 0 1 D3.xyz
|  4>
|  5> %MaxCore 64000
|  6>
|  7> %pal nprocs 4
|  8> end
|  9>
| 10> %scf
| 11>   MaxIter 150
| 12> end
| 13>
| 14>
| 15>                          ****END OF INPUT****

CARTESIAN COORDINATES (ANGSTROEM)
---------------------------------
  C      2.916324   -1.242589   -1.543125
  C      0.704661    1.443129   -4.503630
  C      1.728539    1.424320   -5.639443
  H      2.646718    1.953794   -5.381054
  H      1.299916    1.930613   -6.503614
  S      2.252625   -0.188115   -6.271840
  C      3.466585   -1.590971   -2.889082
  C      4.652275   -1.143164   -3.259692
  N      2.752264   -2.292043   -3.728029
  H      1.778364   -2.489604   -3.512738
  H      2.948612   -2.208544   -4.716813
  H      5.146723   -0.512508   -2.633852
  H      4.783030   -1.007203   -4.253498
  O      3.562607   -0.444464   -5.631552
  F      2.344944   -0.033742   -7.696501
  C      2.804084    0.290698   -1.359243
  C      1.052550    0.695659   -3.214915
  H     -0.232483    1.032925   -4.884449
  H      0.511700    2.495794   -4.267966
  C      2.388380    1.093669   -2.597108
  H      3.763425    0.674718   -0.999889
  H      2.094788    0.461222   -0.545756
  O      1.266058   -1.159177   -5.805365
  H      3.167316    1.013242   -3.359430
  H      2.357690    2.149375   -2.310997
  H      1.039284   -0.368429   -3.449329
  H      0.250787    0.865605   -2.488283
  H      1.940472   -1.716529   -1.441161
  H      3.558569   -1.663433   -0.766371

 Total Charge           Charge          ....    0
 Multiplicity           Mult            ....    1
 Number of Electrons    NEL             ....  112
 Basis Dimension        Dim             ....  643

ORBITAL ENERGIES
----------------

  NO   OCC          E(Eh)            E(eV)
   0   2.0000     -88.280745     -2402.2412
   1   2.0000     -24.386068      -663.5786
   2   2.0000     -18.772637      -510.8294
   3   2.0000     -18.764191      -510.5996
   4   2.0000     -13.960461      -379.8835
   5   2.0000      -9.945608      -270.6338
   6   2.0000      -9.911920      -269.7171
   7   2.0000      -9.883119      -268.9333
   8   2.0000      -9.876199      -268.7450
   9   2.0000      -9.875622      -268.7293
  10   2.0000      -9.873487      -268.6712
  11   2.0000      -9.871249      -268.6103
  12   2.0000      -9.784523      -266.2504
  13   2.0000      -7.876956      -214.3429
  14   2.0000      -5.901190      -160.5796
  15   2.0000      -5.894861      -160.4073
  16   2.0000      -5.894453      -160.3962
  17   2.0000      -1.291944       -35.1556
  18   2.0000      -1.024777       -27.8856
  19   2.0000      -0.930931       -25.3319
  20   2.0000      -0.834288       -22.7021
  21   2.0000      -0.765181       -20.8216
  22   2.0000      -0.723696       -19.6928
  23   2.0000      -0.693668       -18.8757
  24   2.0000      -0.660817       -17.9817
  25   2.0000      -0.632463       -17.2102
  26   2.0000      -0.608597       -16.5608
  27   2.0000      -0.572117       -15.5681
  28   2.0000      -0.538401       -14.6506
  29   2.0000      -0.533197       -14.5090
  30   2.0000      -0.513582       -13.9753
  31   2.0000      -0.506919       -13.7940
  32   2.0000      -0.483252       -13.1499
  33   2.0000      -0.453812       -12.3488
  34   2.0000      -0.445954       -12.1350
  35   2.0000      -0.443070       -12.0566
  36   2.0000      -0.426881       -11.6160
  37   2.0000      -0.418902       -11.3989
  38   2.0000      -0.401229       -10.9180
  39   2.0000      -0.390708       -10.6317
  40   2.0000      -0.380916       -10.3653
  41   2.0000      -0.367543       -10.0014
  42   2.0000      -0.354187        -9.6379
  43   2.0000      -0.342225        -9.3124
  44   2.0000      -0.335281        -9.1235
  45   2.0000      -0.321171        -8.7395
  46   2.0000      -0.315623        -8.5885
  47   2.0000      -0.308995        -8.4082
  48   2.0000      -0.297765        -8.1026
  49   2.0000      -0.294138        -8.0039
  50   2.0000      -0.286535        -7.7970
  51   2.0000      -0.277160        -7.5419
  52   2.0000      -0.274896        -7.4803
  53   2.0000      -0.267160        -7.2698
  54   2.0000      -0.260027        -7.0757
  55   2.0000      -0.136966        -3.7270
  56   0.0000      -0.037032        -1.0077
  57   0.0000      -0.024380        -0.6634
  58   0.0000      -0.005833        -0.1587
  59   0.0000      -0.001590        -0.0433
  60   0.0000       0.000289         0.0079

MULLIKEN ATOMIC CHARGES
-----------------------
   0 C :   -0.361134
   1 C :   -0.250175
   2 C :   -0.657348
   3 H :    0.312871
   4 H :    0.255339
   5 S :    1.017514
   6 C :    0.226084
   7 C :   -1.171540
   8 N :   -0.198694
   9 H :    0.227622
  10 H :    0.189117
  11 H :    0.296805
  12 H :    0.473182
  13 O :   -0.577736
  14 F :   -0.050135
  15 C :   -0.317226
  16 C :   -0.159011
  17 H :    0.183355
  18 H :    0.160398
  19 C :   -0.397234
  20 H :    0.242325
  21 H :    0.162955
  22 O :   -0.598406
  23 H :    0.326384
  24 H :    0.121743
  25 H :    0.121706
  26 H :    0.143710
  27 H :    0.197515
  28 H :    0.080016
Sum of atomic charges:   -0.0000000

LOEWDIN ATOMIC CHARGES
----------------------
   0 C :   -0.138130
   1 C :   -0.214108
   2 C :   -0.221372
   3 H :    0.105100
   4 H :    0.096222
   5 S :    0.597132
   6 C :   -0.503662
   7 C :    0.006515
   8 N :    0.123734
   9 H :    0.104055
  10 H :    0.072365
  11 H :    0.032283
  12 H :    0.002152
  13 O :   -0.283475
  14 F :   -0.022774
  15 C :   -0.186576
  16 C :   -0.202812
  17 H :    0.113623
  18 H :    0.121839
  19 C :   -0.206611
  20 H :    0.108125
  21 H :    0.105663
  22 O :   -0.254410
  23 H :    0.095899
  24 H :    0.116500
  25 H :    0.087518
  26 H :    0.122045
  27 H :    0.105550
  28 H :    0.117610

  Mayer bond orders larger than 0.100000
B(  0-C ,  6-C ) :   1.0173 B(  0-C ,  7-C ) :  -0.1294 B(  0-C , 15-C ) :   0.9684
B(  0-C , 16-C ) :   0.1483 B(  0-C , 27-H ) :   0.9168 B(  0-C , 28-H ) :   0.9819
B(  1-C ,  2-C ) :   1.0040 B(  1-C , 16-C ) :   0.9985 B(  1-C , 17-H ) :   0.8796
B(  1-C , 18-H ) :   0.8978 B(  1-C , 19-C ) :   0.2155 B(  1-C , 25-H ) :   0.1221
B(  2-C ,  3-H ) :   0.8845 B(  2-C ,  4-H ) :   0.8878 B(  2-C ,  5-S ) :   0.8581
B(  2-C , 13-O ) :   0.1695 B(  2-C , 14-F ) :   0.1019 B(  2-C , 19-C ) :   0.1673
B(  5-S , 13-O ) :   1.7555 B(  5-S , 14-F ) :   0.9951 B(  5-S , 22-O ) :   1.6511
B(  6-C ,  7-C ) :   1.5621 B(  6-C ,  8-N ) :   1.0185 B(  6-C , 11-H ) :  -0.1107
B(  6-C , 19-C ) :   0.1690 B(  7-C ,  8-N ) :   0.1352 B(  7-C , 11-H ) :   1.0037
B(  7-C , 12-H ) :   0.7633 B(  7-C , 15-C ) :   0.1500 B(  8-N ,  9-H ) :   0.8086
B(  8-N , 10-H ) :   0.8295 B( 13-O , 22-O ) :   0.1721 B( 15-C , 16-C ) :   0.2695
B( 15-C , 19-C ) :   1.1624 B( 15-C , 20-H ) :   0.8228 B( 15-C , 21-H ) :   0.9036
B( 15-C , 23-H ) :   0.1101 B( 16-C , 19-C ) :   0.6890 B( 16-C , 25-H ) :   1.1034
B( 16-C , 26-H ) :   0.8681 B( 19-C , 23-H ) :   0.8952 B( 19-C , 24-H ) :   0.9409

Dispersion correction           -0.036918150
FINAL SINGLE POINT ENERGY     -1017.016465490363

DIPOLE MOMENT
-------------
                                X             Y             Z
Electronic contribution:      0.09125      -4.25603     -22.50656
Nuclear contribution   :     -1.50273       5.82595      21.72909
                        -----------------------------------------
Total Dipole Moment    :     -1.41148       1.56991      -0.77747
                        -----------------------------------------
Magnitude (a.u.)       :      2.24975
Magnitude (Debye)      :      5.71841

Rotational constants in cm-1:     0.036883     0.018294     0.014745
Rotational constants in MHz :  1105.724679   548.429785   442.050481

                             ****ORCA TERMINATED NORMALLY****
TOTAL RUN TIME: 0 days 0 hours 1 minutes 15 seconds 619 msec
