                         Program Version 5.0.0 -  RELEASE  -
|  1> !PBE D3BJ RIJCOSX def2-TZVPD def2/J TightSCF xyzfile
|  2>
|  3> *xyzfile 0 1 D4.xyz
|  4>
|  5> %MaxCore 64000
|  6>
|  7> %pal nprocs 4
|  8> end
|  9>
| 10> %scf
| 11>   MaxIter 150
| 12> end
| 13>
| 14>
| 15>                          ****END OF INPUT****

CARTESIAN COORDINATES (ANGSTROEM)
---------------------------------
  C      2.916324   -1.242589   -1.543125
  C      0.704661    1.443129   -4.503630
  C      1.728539    1.424320   -5.639443
  H      2.646718    1.953794   -5.381054
  H      1.299916    1.930613   -6.503614
  S      2.252625   -0.188115   -6.271840
  C      3.466585   -1.590971   -2.889082
  N      4.652275   -1.143164   -3.259692
  C      2.752264   -2.292043   -3.728029
  H      1.778364   -2.489604   -3.512738
  H      2.948612   -2.208544   -4.716813
  H      5.146723   -0.512508   -2.633852
  H      4.783030   -1.007203   -4.253498
  O      3.562607   -0.444464   -5.631552
  F      2.344944   -0.033742   -7.696501
  C      2.804084    0.290698   -1.359243
  C      1.052550    0.695659   -3.214915
  H     -0.232483    1.032925   -4.884449
  H      0.511700    2.495794   -4.267966
  C      2.388380    1.093669   -2.597108
  H      3.763425    0.674718   -0.999889
  H      2.094788    0.461222   -0.545756
  O      1.266058   -1.159177   -5.805365
  H      3.167316    1.013242   -3.359430
  H      2.357690    2.149375   -2.310997
  H      1.039284   -0.368429   -3.449329
  H      0.250787    0.865605   -2.488283
  H      1.940472   -1.716529   -1.441161
  H      3.558569   -1.663433   -0.766371

 Total Charge           Charge          ....    0
 Multiplicity           Mult            ....    1
 Number of Electrons    NEL             ....  112
 Basis Dimension        Dim             ....  643

ORBITAL ENERGIES
----------------

  NO   OCC          E(Eh)            E(eV)
   0   2.0000     -88.276792     -2402.1336
   1   2.0000     -24.382392      -663.4786
   2   2.0000     -18.764005      -510.5945
   3   2.0000     -18.761044      -510.5140
   4   2.0000     -13.959734      -379.8637
   5   2.0000      -9.942379      -270.5459
   6   2.0000      -9.908161      -269.6148
   7   2.0000      -9.878712      -268.8134
   8   2.0000      -9.877371      -268.7769
   9   2.0000      -9.876563      -268.7550
  10   2.0000      -9.874200      -268.6906
  11   2.0000      -9.869063      -268.5509
  12   2.0000      -9.787831      -266.3404
  13   2.0000      -7.872667      -214.2262
  14   2.0000      -5.896906      -160.4630
  15   2.0000      -5.890527      -160.2894
  16   2.0000      -5.890274      -160.2825
  17   2.0000      -1.288132       -35.0519
  18   2.0000      -1.018065       -27.7030
  19   2.0000      -0.925346       -25.1799
  20   2.0000      -0.830943       -22.6111
  21   2.0000      -0.761667       -20.7260
  22   2.0000      -0.722424       -19.6581
  23   2.0000      -0.689098       -18.7513
  24   2.0000      -0.660519       -17.9736
  25   2.0000      -0.638484       -17.3740
  26   2.0000      -0.606698       -16.5091
  27   2.0000      -0.564887       -15.3714
  28   2.0000      -0.535368       -14.5681
  29   2.0000      -0.529353       -14.4044
  30   2.0000      -0.510597       -13.8940
  31   2.0000      -0.506082       -13.7712
  32   2.0000      -0.481589       -13.1047
  33   2.0000      -0.457076       -12.4377
  34   2.0000      -0.444647       -12.0995
  35   2.0000      -0.442400       -12.0383
  36   2.0000      -0.418971       -11.4008
  37   2.0000      -0.407426       -11.0866
  38   2.0000      -0.400856       -10.9078
  39   2.0000      -0.394576       -10.7370
  40   2.0000      -0.380504       -10.3540
  41   2.0000      -0.362715        -9.8700
  42   2.0000      -0.354402        -9.6438
  43   2.0000      -0.339121        -9.2280
  44   2.0000      -0.333644        -9.0789
  45   2.0000      -0.325497        -8.8572
  46   2.0000      -0.315542        -8.5863
  47   2.0000      -0.308761        -8.4018
  48   2.0000      -0.294647        -8.0178
  49   2.0000      -0.286942        -7.8081
  50   2.0000      -0.282347        -7.6830
  51   2.0000      -0.277368        -7.5476
  52   2.0000      -0.270663        -7.3651
  53   2.0000      -0.263032        -7.1575
  54   2.0000      -0.255855        -6.9622
  55   2.0000      -0.143755        -3.9118
  56   0.0000      -0.033953        -0.9239
  57   0.0000      -0.021932        -0.5968
  58   0.0000      -0.008749        -0.2381
  59   0.0000       0.000430         0.0117
  60   0.0000       0.002466         0.0671

MULLIKEN ATOMIC CHARGES
-----------------------
   0 C :   -0.366756
   1 C :   -0.246934
   2 C :   -0.673265
   3 H :    0.296858
   4 H :    0.258386
   5 S :    1.007693
   6 C :    0.321514
   7 N :   -0.176057
   8 C :   -1.264964
   9 H :    0.336112
  10 H :    0.456095
  11 H :    0.209419
  12 H :    0.249535
  13 O :   -0.601807
  14 F :   -0.052680
  15 C :   -0.359735
  16 C :   -0.115187
  17 H :    0.205849
  18 H :    0.158523
  19 C :   -0.285117
  20 H :    0.259760
  21 H :    0.094084
  22 O :   -0.564488
  23 H :    0.304321
  24 H :    0.116082
  25 H :    0.079288
  26 H :    0.115990
  27 H :    0.167216
  28 H :    0.070266
Sum of atomic charges:   -0.0000000

LOEWDIN ATOMIC CHARGES
----------------------
   0 C :   -0.139992
   1 C :   -0.213713
   2 C :   -0.223288
   3 H :    0.102186
   4 H :    0.095754
   5 S :    0.598446
   6 C :   -0.501077
   7 N :    0.124139
   8 C :   -0.002047
   9 H :    0.035996
  10 H :    0.002959
  11 H :    0.107143
  12 H :    0.076629
  13 O :   -0.291130
  14 F :   -0.023042
  15 C :   -0.190303
  16 C :   -0.200245
  17 H :    0.114449
  18 H :    0.120548
  19 C :   -0.208005
  20 H :    0.102002
  21 H :    0.106923
  22 O :   -0.241673
  23 H :    0.093532
  24 H :    0.115716
  25 H :    0.090881
  26 H :    0.122213
  27 H :    0.112358
  28 H :    0.112640

  Mayer bond orders larger than 0.100000
B(  0-C ,  6-C ) :   1.0167 B(  0-C ,  8-C ) :   0.1009 B(  0-C , 15-C ) :   0.9337
B(  0-C , 16-C ) :   0.1618 B(  0-C , 19-C ) :  -0.1084 B(  0-C , 27-H ) :   0.9193
B(  0-C , 28-H ) :   0.9802 B(  1-C ,  2-C ) :   1.0264 B(  1-C , 16-C ) :   0.9648
B(  1-C , 17-H ) :   0.8561 B(  1-C , 18-H ) :   0.8994 B(  1-C , 19-C ) :   0.2215
B(  1-C , 25-H ) :   0.1537 B(  2-C ,  3-H ) :   0.8880 B(  2-C ,  4-H ) :   0.8924
B(  2-C ,  5-S ) :   0.8463 B(  2-C , 13-O ) :   0.1731 B(  2-C , 14-F ) :   0.1062
B(  2-C , 19-C ) :   0.1712 B(  5-S , 13-O ) :   1.7786 B(  5-S , 14-F ) :   0.9919
B(  5-S , 22-O ) :   1.6844 B(  6-C ,  7-N ) :   1.0708 B(  6-C ,  8-C ) :   1.5587
B(  6-C ,  9-H ) :  -0.1028 B(  6-C , 10-H ) :  -0.1316 B(  6-C , 19-C ) :   0.1508
B(  7-N , 11-H ) :   0.8130 B(  7-N , 12-H ) :   0.8395 B(  8-C ,  9-H ) :   0.9305
B(  8-C , 10-H ) :   0.8543 B(  9-H , 10-H ) :   0.1009 B( 13-O , 22-O ) :   0.1813
B( 15-C , 16-C ) :   0.2739 B( 15-C , 19-C ) :   1.0899 B( 15-C , 20-H ) :   0.8497
B( 15-C , 21-H ) :   0.9225 B( 15-C , 23-H ) :   0.1006 B( 16-C , 19-C ) :   0.6679
B( 16-C , 25-H ) :   1.1815 B( 16-C , 26-H ) :   0.8527 B( 19-C , 23-H ) :   0.9148
B( 19-C , 24-H ) :   0.9701

Dispersion correction           -0.036971258
FINAL SINGLE POINT ENERGY     -1017.018694314571

DIPOLE MOMENT
-------------
                                X             Y             Z
Electronic contribution:      1.37519      -3.55744     -22.18419
Nuclear contribution   :     -1.74760       5.67788      21.66873
                        -----------------------------------------
Total Dipole Moment    :     -0.37241       2.12044      -0.51547
                        -----------------------------------------
Magnitude (a.u.)       :      2.21374
Magnitude (Debye)      :      5.62688

Rotational constants in cm-1:     0.036818     0.018222     0.014682
Rotational constants in MHz :  1103.783048   546.296792   440.157914

                             ****ORCA TERMINATED NORMALLY****
TOTAL RUN TIME: 0 days 0 hours 1 minutes 22 seconds 653 msec
