                         Program Version 5.0.0 -  RELEASE  -
|  1> !PBE D3BJ RIJCOSX def2-TZVPD def2/J TightSCF xyzfile
|  2>
|  3> *xyzfile 0 1 D5.xyz
|  4>
|  5> %MaxCore 64000
|  6>
|  7> %pal nprocs 4
|  8> end
|  9>
| 10> %scf
| 11>   MaxIter 150
| 12> end
| 13>
| 14>
| 15>                          ****END OF INPUT****

CARTESIAN COORDINATES (ANGSTROEM)
---------------------------------
  C      2.916324   -1.242589   -1.543125
  C      0.704661    1.443129   -4.503630
  C      1.728539    1.424320   -5.639443
  H      2.646718    1.953794   -5.381054
  H      1.299916    1.930613   -6.503614
  S      2.252625   -0.188115   -6.271840
  C      3.466585   -1.590971   -2.889082
  C      4.652275   -1.143164   -3.259692
  N      2.752264   -2.292043   -3.728029
  H      1.778364   -2.489604   -3.512738
  H      2.948612   -2.208544   -4.716813
  H      5.146723   -0.512508   -2.633852
  H      4.783030   -1.007203   -4.253498
  O      3.562607   -0.444464   -5.631552
  O      2.344944   -0.033742   -7.696501
  C      2.804084    0.290698   -1.359243
  C      1.052550    0.695659   -3.214915
  H     -0.232483    1.032925   -4.884449
  H      0.511700    2.495794   -4.267966
  C      2.388380    1.093669   -2.597108
  H      3.763425    0.674718   -0.999889
  H      2.094788    0.461222   -0.545756
  F      1.266058   -1.159177   -5.805365
  H      3.167316    1.013242   -3.359430
  H      2.357690    2.149375   -2.310997
  H      1.039284   -0.368429   -3.449329
  H      0.250787    0.865605   -2.488283
  H      1.940472   -1.716529   -1.441161
  H      3.558569   -1.663433   -0.766371

 Total Charge           Charge          ....    0
 Multiplicity           Mult            ....    1
 Number of Electrons    NEL             ....  112
 Basis Dimension        Dim             ....  643

ORBITAL ENERGIES
----------------

  NO   OCC          E(Eh)            E(eV)
   0   2.0000     -88.276725     -2402.1318
   1   2.0000     -24.376560      -663.3199
   2   2.0000     -18.773534      -510.8538
   3   2.0000     -18.761075      -510.5148
   4   2.0000     -13.976991      -380.3332
   5   2.0000      -9.943194      -270.5681
   6   2.0000      -9.916244      -269.8347
   7   2.0000      -9.894528      -269.2438
   8   2.0000      -9.885731      -269.0044
   9   2.0000      -9.882831      -268.9255
  10   2.0000      -9.881040      -268.8768
  11   2.0000      -9.879868      -268.8449
  12   2.0000      -9.793431      -266.4928
  13   2.0000      -7.873013      -214.2356
  14   2.0000      -5.897527      -160.4799
  15   2.0000      -5.890739      -160.2952
  16   2.0000      -5.890414      -160.2863
  17   2.0000      -1.275101       -34.6973
  18   2.0000      -1.028351       -27.9828
  19   2.0000      -0.935502       -25.4563
  20   2.0000      -0.848909       -23.1000
  21   2.0000      -0.769860       -20.9490
  22   2.0000      -0.729065       -19.8389
  23   2.0000      -0.693832       -18.8801
  24   2.0000      -0.660723       -17.9792
  25   2.0000      -0.639508       -17.4019
  26   2.0000      -0.614939       -16.7333
  27   2.0000      -0.577784       -15.7223
  28   2.0000      -0.541684       -14.7400
  29   2.0000      -0.528956       -14.3936
  30   2.0000      -0.518117       -14.0987
  31   2.0000      -0.501455       -13.6453
  32   2.0000      -0.491206       -13.3664
  33   2.0000      -0.462627       -12.5887
  34   2.0000      -0.448026       -12.1914
  35   2.0000      -0.444146       -12.0858
  36   2.0000      -0.426014       -11.5924
  37   2.0000      -0.421800       -11.4778
  38   2.0000      -0.407420       -11.0865
  39   2.0000      -0.401782       -10.9330
  40   2.0000      -0.386598       -10.5199
  41   2.0000      -0.373528       -10.1642
  42   2.0000      -0.356385        -9.6977
  43   2.0000      -0.345882        -9.4119
  44   2.0000      -0.343857        -9.3568
  45   2.0000      -0.334055        -9.0901
  46   2.0000      -0.326650        -8.8886
  47   2.0000      -0.311528        -8.4771
  48   2.0000      -0.307458        -8.3664
  49   2.0000      -0.297453        -8.0941
  50   2.0000      -0.291309        -7.9269
  51   2.0000      -0.286679        -7.8009
  52   2.0000      -0.281851        -7.6695
  53   2.0000      -0.270744        -7.3673
  54   2.0000      -0.263948        -7.1824
  55   2.0000      -0.148229        -4.0335
  56   0.0000      -0.043364        -1.1800
  57   0.0000      -0.016393        -0.4461
  58   0.0000      -0.014580        -0.3967
  59   0.0000      -0.004155        -0.1131
  60   0.0000       0.004495         0.1223

MULLIKEN ATOMIC CHARGES
-----------------------
   0 C :   -0.357692
   1 C :   -0.352039
   2 C :   -0.539511
   3 H :    0.337873
   4 H :    0.192044
   5 S :    1.000724
   6 C :    0.259551
   7 C :   -1.152991
   8 N :   -0.232733
   9 H :    0.239824
  10 H :    0.170691
  11 H :    0.299240
  12 H :    0.458980
  13 O :   -0.574049
  14 O :   -0.496094
  15 C :   -0.319354
  16 C :   -0.102625
  17 H :    0.189098
  18 H :    0.167658
  19 C :   -0.363608
  20 H :    0.244833
  21 H :    0.166420
  22 F :   -0.159444
  23 H :    0.306558
  24 H :    0.126789
  25 H :    0.080073
  26 H :    0.134766
  27 H :    0.199600
  28 H :    0.075418
Sum of atomic charges:   -0.0000000

LOEWDIN ATOMIC CHARGES
----------------------
   0 C :   -0.138013
   1 C :   -0.222671
   2 C :   -0.213101
   3 H :    0.111074
   4 H :    0.101632
   5 S :    0.585738
   6 C :   -0.505050
   7 C :    0.014144
   8 N :    0.114372
   9 H :    0.101989
  10 H :    0.073428
  11 H :    0.035364
  12 H :    0.004954
  13 O :   -0.279919
  14 O :   -0.229432
  15 C :   -0.185598
  16 C :   -0.207361
  17 H :    0.111454
  18 H :    0.120825
  19 C :   -0.204866
  20 H :    0.109243
  21 H :    0.106346
  22 F :   -0.050421
  23 H :    0.096820
  24 H :    0.118535
  25 H :    0.084521
  26 H :    0.122241
  27 H :    0.105078
  28 H :    0.118676

  Mayer bond orders larger than 0.100000
B(  0-C ,  6-C ) :   1.0216 B(  0-C ,  7-C ) :  -0.1285 B(  0-C , 15-C ) :   0.9685
B(  0-C , 16-C ) :   0.1421 B(  0-C , 27-H ) :   0.9146 B(  0-C , 28-H ) :   0.9799
B(  1-C ,  2-C ) :   0.9959 B(  1-C , 16-C ) :   0.9404 B(  1-C , 17-H ) :   0.9266
B(  1-C , 18-H ) :   0.8982 B(  1-C , 19-C ) :   0.2178 B(  2-C ,  3-H ) :   0.8423
B(  2-C ,  4-H ) :   1.0135 B(  2-C ,  5-S ) :   0.8320 B(  2-C , 13-O ) :   0.1619
B(  2-C , 14-O ) :   0.1660 B(  2-C , 19-C ) :   0.1588 B(  5-S , 13-O ) :   1.7619
B(  5-S , 14-O ) :   1.6199 B(  5-S , 22-F ) :   1.0600 B(  6-C ,  7-C ) :   1.5755
B(  6-C ,  8-N ) :   0.9970 B(  6-C , 11-H ) :  -0.1026 B(  6-C , 19-C ) :   0.1685
B(  7-C ,  8-N ) :   0.1365 B(  7-C , 11-H ) :   0.9972 B(  7-C , 12-H ) :   0.7787
B(  7-C , 15-C ) :   0.1456 B(  8-N ,  9-H ) :   0.8121 B(  8-N , 10-H ) :   0.8221
B( 15-C , 16-C ) :   0.2868 B( 15-C , 19-C ) :   1.1567 B( 15-C , 20-H ) :   0.8210
B( 15-C , 21-H ) :   0.9024 B( 15-C , 23-H ) :   0.1083 B( 16-C , 19-C ) :   0.6953
B( 16-C , 25-H ) :   1.0921 B( 16-C , 26-H ) :   0.8869 B( 19-C , 23-H ) :   0.9163
B( 19-C , 24-H ) :   0.9308

Dispersion correction           -0.036622405
FINAL SINGLE POINT ENERGY     -1017.021064599651

DIPOLE MOMENT
-------------
                                X             Y             Z
Electronic contribution:     -1.64148      -6.12985     -19.06843
Nuclear contribution   :     -0.26930       7.11259      19.56706
                        -----------------------------------------
Total Dipole Moment    :     -1.91078       0.98274       0.49863
                        -----------------------------------------
Magnitude (a.u.)       :      2.20579
Magnitude (Debye)      :      5.60667

Rotational constants in cm-1:     0.036519     0.018683     0.015073
Rotational constants in MHz :  1094.801738   560.111127   451.890222

                             ****ORCA TERMINATED NORMALLY****
TOTAL RUN TIME: 0 days 0 hours 1 minutes 22 seconds 944 msec
