                         Program Version 5.0.0 -  RELEASE  -
|  1> !PBE D3BJ RIJCOSX def2-TZVPD def2/J TightSCF xyzfile
|  2>
|  3> *xyzfile 0 1 D6.xyz
|  4>
|  5> %MaxCore 64000
|  6>
|  7> %pal nprocs 4
|  8> end
|  9>
| 10> %scf
| 11>   MaxIter 150
| 12> end
| 13>
| 14>
| 15>                          ****END OF INPUT****

CARTESIAN COORDINATES (ANGSTROEM)
---------------------------------
  C      2.916324   -1.242589   -1.543125
  C      0.704661    1.443129   -4.503630
  C      1.728539    1.424320   -5.639443
  H      2.646718    1.953794   -5.381054
  H      1.299916    1.930613   -6.503614
  S      2.252625   -0.188115   -6.271840
  C      3.466585   -1.590971   -2.889082
  N      4.652275   -1.143164   -3.259692
  C      2.752264   -2.292043   -3.728029
  H      1.778364   -2.489604   -3.512738
  H      2.948612   -2.208544   -4.716813
  H      5.146723   -0.512508   -2.633852
  H      4.783030   -1.007203   -4.253498
  O      3.562607   -0.444464   -5.631552
  O      2.344944   -0.033742   -7.696501
  C      2.804084    0.290698   -1.359243
  C      1.052550    0.695659   -3.214915
  H     -0.232483    1.032925   -4.884449
  H      0.511700    2.495794   -4.267966
  C      2.388380    1.093669   -2.597108
  H      3.763425    0.674718   -0.999889
  H      2.094788    0.461222   -0.545756
  F      1.266058   -1.159177   -5.805365
  H      3.167316    1.013242   -3.359430
  H      2.357690    2.149375   -2.310997
  H      1.039284   -0.368429   -3.449329
  H      0.250787    0.865605   -2.488283
  H      1.940472   -1.716529   -1.441161
  H      3.558569   -1.663433   -0.766371

 Total Charge           Charge          ....    0
 Multiplicity           Mult            ....    1
 Number of Electrons    NEL             ....  112
 Basis Dimension        Dim             ....  643

ORBITAL ENERGIES
----------------

  NO   OCC          E(Eh)            E(eV)
   0   2.0000     -88.273883     -2402.0545
   1   2.0000     -24.366144      -663.0365
   2   2.0000     -18.769975      -510.7570
   3   2.0000     -18.757457      -510.4164
   4   2.0000     -13.968471      -380.1014
   5   2.0000      -9.940365      -270.4911
   6   2.0000      -9.912618      -269.7360
   7   2.0000      -9.888645      -269.0837
   8   2.0000      -9.887627      -269.0560
   9   2.0000      -9.886822      -269.0341
  10   2.0000      -9.884363      -268.9672
  11   2.0000      -9.878744      -268.8143
  12   2.0000      -9.802717      -266.7455
  13   2.0000      -7.869694      -214.1453
  14   2.0000      -5.894058      -160.3855
  15   2.0000      -5.887638      -160.2108
  16   2.0000      -5.887194      -160.1987
  17   2.0000      -1.264539       -34.4099
  18   2.0000      -1.024278       -27.8720
  19   2.0000      -0.931887       -25.3579
  20   2.0000      -0.840364       -22.8675
  21   2.0000      -0.766627       -20.8610
  22   2.0000      -0.727699       -19.8017
  23   2.0000      -0.688579       -18.7372
  24   2.0000      -0.662819       -18.0362
  25   2.0000      -0.641425       -17.4541
  26   2.0000      -0.613414       -16.6918
  27   2.0000      -0.570228       -15.5167
  28   2.0000      -0.537199       -14.6179
  29   2.0000      -0.519128       -14.1262
  30   2.0000      -0.512798       -13.9539
  31   2.0000      -0.503827       -13.7098
  32   2.0000      -0.487088       -13.2543
  33   2.0000      -0.458973       -12.4893
  34   2.0000      -0.444640       -12.0993
  35   2.0000      -0.441412       -12.0114
  36   2.0000      -0.424416       -11.5489
  37   2.0000      -0.414806       -11.2875
  38   2.0000      -0.408635       -11.1195
  39   2.0000      -0.395708       -10.7678
  40   2.0000      -0.390765       -10.6333
  41   2.0000      -0.370811       -10.0903
  42   2.0000      -0.359516        -9.7829
  43   2.0000      -0.348104        -9.4724
  44   2.0000      -0.341114        -9.2822
  45   2.0000      -0.338161        -9.2018
  46   2.0000      -0.323015        -8.7897
  47   2.0000      -0.317208        -8.6317
  48   2.0000      -0.306629        -8.3438
  49   2.0000      -0.293286        -7.9807
  50   2.0000      -0.288915        -7.8618
  51   2.0000      -0.284623        -7.7450
  52   2.0000      -0.281319        -7.6551
  53   2.0000      -0.266312        -7.2467
  54   2.0000      -0.262325        -7.1382
  55   2.0000      -0.156623        -4.2619
  56   0.0000      -0.037883        -1.0308
  57   0.0000      -0.015825        -0.4306
  58   0.0000      -0.010290        -0.2800
  59   0.0000      -0.003924        -0.1068
  60   0.0000       0.006683         0.1819

MULLIKEN ATOMIC CHARGES
-----------------------
   0 C :   -0.344563
   1 C :   -0.341056
   2 C :   -0.563271
   3 H :    0.320026
   4 H :    0.199929
   5 S :    1.030534
   6 C :    0.350581
   7 N :   -0.168484
   8 C :   -1.394202
   9 H :    0.370491
  10 H :    0.491011
  11 H :    0.209833
  12 H :    0.241482
  13 O :   -0.606830
  14 O :   -0.500819
  15 C :   -0.366695
  16 C :   -0.065836
  17 H :    0.209815
  18 H :    0.166692
  19 C :   -0.256792
  20 H :    0.262579
  21 H :    0.096252
  22 F :   -0.141367
  23 H :    0.286646
  24 H :    0.120872
  25 H :    0.050517
  26 H :    0.108733
  27 H :    0.168667
  28 H :    0.065254
Sum of atomic charges:   -0.0000000

LOEWDIN ATOMIC CHARGES
----------------------
   0 C :   -0.138076
   1 C :   -0.222059
   2 C :   -0.214388
   3 H :    0.108439
   4 H :    0.101273
   5 S :    0.588950
   6 C :   -0.500479
   7 N :    0.130261
   8 C :   -0.010100
   9 H :    0.032648
  10 H :    0.002229
  11 H :    0.109779
  12 H :    0.079501
  13 O :   -0.288412
  14 O :   -0.229700
  15 C :   -0.188709
  16 C :   -0.205104
  17 H :    0.112371
  18 H :    0.119559
  19 C :   -0.206395
  20 H :    0.103365
  21 H :    0.107861
  22 F :   -0.041892
  23 H :    0.094383
  24 H :    0.117762
  25 H :    0.087876
  26 H :    0.122338
  27 H :    0.112256
  28 H :    0.114464

  Mayer bond orders larger than 0.100000
B(  0-C ,  6-C ) :   1.0238 B(  0-C , 15-C ) :   0.9295 B(  0-C , 16-C ) :   0.1649
B(  0-C , 19-C ) :  -0.1134 B(  0-C , 27-H ) :   0.9209 B(  0-C , 28-H ) :   0.9690
B(  1-C ,  2-C ) :   1.0109 B(  1-C , 16-C ) :   0.9065 B(  1-C , 17-H ) :   0.9000
B(  1-C , 18-H ) :   0.8992 B(  1-C , 19-C ) :   0.2224 B(  1-C , 25-H ) :   0.1274
B(  2-C ,  3-H ) :   0.8516 B(  2-C ,  4-H ) :   1.0163 B(  2-C ,  5-S ) :   0.8329
B(  2-C , 13-O ) :   0.1742 B(  2-C , 14-O ) :   0.1725 B(  2-C , 19-C ) :   0.1659
B(  5-S , 13-O ) :   1.7699 B(  5-S , 14-O ) :   1.6010 B(  5-S , 22-F ) :   1.0799
B(  6-C ,  7-N ) :   1.1035 B(  6-C ,  8-C ) :   1.5210 B(  6-C ,  9-H ) :  -0.1014
B(  6-C , 10-H ) :  -0.1015 B(  6-C , 13-O ) :  -0.1073 B(  6-C , 19-C ) :   0.1500
B(  7-N ,  8-C ) :   0.1067 B(  7-N , 11-H ) :   0.8134 B(  7-N , 12-H ) :   0.8333
B(  8-C ,  9-H ) :   0.9131 B(  8-C , 10-H ) :   0.7866 B( 15-C , 16-C ) :   0.2857
B( 15-C , 19-C ) :   1.0941 B( 15-C , 20-H ) :   0.8491 B( 15-C , 21-H ) :   0.9213
B( 16-C , 19-C ) :   0.6686 B( 16-C , 25-H ) :   1.1670 B( 16-C , 26-H ) :   0.8717
B( 19-C , 23-H ) :   0.9338 B( 19-C , 24-H ) :   0.9578

Dispersion correction           -0.036669350
FINAL SINGLE POINT ENERGY     -1017.029730924224

DIPOLE MOMENT
-------------
                                X             Y             Z
Electronic contribution:     -0.35895      -5.41003     -18.71887
Nuclear contribution   :     -0.51418       6.96452      19.50670
                        -----------------------------------------
Total Dipole Moment    :     -0.87312       1.55449       0.78784
                        -----------------------------------------
Magnitude (a.u.)       :      1.94922
Magnitude (Debye)      :      4.95453

Rotational constants in cm-1:     0.036455     0.018603     0.015008
Rotational constants in MHz :  1092.895336   557.693628   449.926016

                             ****ORCA TERMINATED NORMALLY****
TOTAL RUN TIME: 0 days 0 hours 1 minutes 19 seconds 34 msec
