                         Program Version 5.0.0 -  RELEASE  -
|  1> !PBE D3BJ RIJCOSX def2-SVP def2/J TightSCF
|  2> *xyz -1 1
|  3> C          4.08422        1.74208       -2.11472
|  4> C          4.26524        2.50052       -0.79589
|  5> H          4.86853        3.39267       -0.98113
|  6> H          3.30764        2.82457       -0.38781
|  7> C          4.98224        1.65026        0.24742
|  8> O          4.36806        1.38927        1.31371
|  9> O          6.12892        1.23351       -0.04562
| 10> H          3.57911        2.36849       -2.81997
| 11> H          3.50424        0.85965       -1.94198
| 12> H          5.04288        1.46841       -2.50327
| 13> *
| 14> %MaxCore 64000
| 15> %pal nprocs 8
| 16> end
| 17> %scf
| 18>   MaxIter 150
| 19> end
| 20>
| 21>
| 22>                          ****END OF INPUT****

CARTESIAN COORDINATES (ANGSTROEM)
---------------------------------
  C      4.084220    1.742080   -2.114720
  C      4.265240    2.500520   -0.795890
  H      4.868530    3.392670   -0.981130
  H      3.307640    2.824570   -0.387810
  C      4.982240    1.650260    0.247420
  O      4.368060    1.389270    1.313710
  O      6.128920    1.233510   -0.045620
  H      3.579110    2.368490   -2.819970
  H      3.504240    0.859650   -1.941980
  H      5.042880    1.468410   -2.503270

 Total Charge           Charge          ....   -1
 Multiplicity           Mult            ....    1
 Number of Electrons    NEL             ....   40
 Basis Dimension        Dim             ....   95

ORBITAL ENERGIES
----------------

  NO   OCC          E(Eh)            E(eV)
   0   2.0000     -18.457026      -502.2412
   1   2.0000     -18.455419      -502.1975
   2   2.0000      -9.732454      -264.8335
   3   2.0000      -9.721195      -264.5272
   4   2.0000      -9.699250      -263.9300
   5   2.0000      -0.683494       -18.5988
   6   2.0000      -0.593305       -16.1446
   7   2.0000      -0.510569       -13.8933
   8   2.0000      -0.386244       -10.5102
   9   2.0000      -0.244185        -6.6446
  10   2.0000      -0.226540        -6.1645
  11   2.0000      -0.182911        -4.9773
  12   2.0000      -0.161721        -4.4006
  13   2.0000      -0.143927        -3.9165
  14   2.0000      -0.126921        -3.4537
  15   2.0000      -0.095091        -2.5876
  16   2.0000      -0.088440        -2.4066
  17   2.0000       0.029497         0.8026
  18   2.0000       0.040719         1.1080
  19   2.0000       0.060942         1.6583
  20   0.0000       0.197136         5.3643
  21   0.0000       0.245033         6.6677
  22   0.0000       0.252730         6.8771
  23   0.0000       0.260352         7.0845
  24   0.0000       0.264815         7.2060

MULLIKEN ATOMIC CHARGES
-----------------------
   0 C :    0.009470
   1 C :    0.015914
   2 H :   -0.046606
   3 H :   -0.065672
   4 C :   -0.054543
   5 O :   -0.388419
   6 O :   -0.391778
   7 H :   -0.049966
   8 H :   -0.014114
   9 H :   -0.014286
Sum of atomic charges:   -1.0000000

LOEWDIN ATOMIC CHARGES
----------------------
   0 C :   -0.069012
   1 C :   -0.098915
   2 H :    0.001206
   3 H :   -0.008479
   4 C :   -0.097474
   5 O :   -0.367147
   6 O :   -0.368560
   7 H :   -0.008127
   8 H :    0.009737
   9 H :    0.006770

  Mayer bond orders larger than 0.100000
B(  0-C ,  1-C ) :   1.1073 B(  0-C ,  7-H ) :   0.9558 B(  0-C ,  8-H ) :   0.9672
B(  0-C ,  9-H ) :   0.9521 B(  1-C ,  2-H ) :   0.9196 B(  1-C ,  3-H ) :   0.9177
B(  1-C ,  4-C ) :   0.9124 B(  4-C ,  5-O ) :   1.8844 B(  4-C ,  6-O ) :   1.8432
B(  5-O ,  6-O ) :   0.1387

Dispersion correction           -0.006551424
FINAL SINGLE POINT ENERGY      -267.309041574240

DIPOLE MOMENT
-------------
                                X             Y             Z
Electronic contribution:      2.59815      -1.65420       5.40262
Nuclear contribution   :     -3.31311       2.28398      -6.76358
                        -----------------------------------------
Total Dipole Moment    :     -0.71496       0.62979      -1.36096
                        -----------------------------------------
Magnitude (a.u.)       :      1.66133
Magnitude (Debye)      :      4.22276

Rotational constants in cm-1:     0.309287     0.135287     0.107346
Rotational constants in MHz :  9272.201029  4055.789113  3218.155789

                             ****ORCA TERMINATED NORMALLY****
TOTAL RUN TIME: 0 days 0 hours 0 minutes 2 seconds 770 msec
