                         Program Version 5.0.0 -  RELEASE  -
|  1> !PBE D3BJ RIJCOSX def2-SVP def2/J TightSCF
|  2> *xyz 1 1
|  3> C          3.91385       -1.65829        3.01513
|  4> N          5.03927       -0.90115        2.49282
|  5> C          6.21038       -1.41726        2.17824
|  6> N          6.53591       -2.67712        2.55608
|  7> N          7.07675       -0.70082        1.47891
|  8> H          7.95464       -1.12155        1.20755
|  9> H          6.75616        0.10664        0.96028
| 10> H          4.84217        0.01761        2.11519
| 11> H          5.99388       -3.12692        3.28278
| 12> C          3.13916       -2.37657        1.91061
| 13> H          3.26723       -0.93940        3.52069
| 14> H          4.24720       -2.35509        3.79006
| 15> H          7.49844       -2.97548        2.46878
| 16> H          2.82969       -1.66654        1.17238
| 17> H          2.27790       -2.85264        2.33072
| 18> H          3.76754       -3.11338        1.45548
| 19> *
| 20> %MaxCore 64000
| 21> %pal nprocs 8
| 22> end
| 23> %scf
| 24>   MaxIter 150
| 25> end
| 26>
| 27>
| 28>                          ****END OF INPUT****

CARTESIAN COORDINATES (ANGSTROEM)
---------------------------------
  C      3.913850   -1.658290    3.015130
  N      5.039270   -0.901150    2.492820
  C      6.210380   -1.417260    2.178240
  N      6.535910   -2.677120    2.556080
  N      7.076750   -0.700820    1.478910
  H      7.954640   -1.121550    1.207550
  H      6.756160    0.106640    0.960280
  H      4.842170    0.017610    2.115190
  H      5.993880   -3.126920    3.282780
  C      3.139160   -2.376570    1.910610
  H      3.267230   -0.939400    3.520690
  H      4.247200   -2.355090    3.790060
  H      7.498440   -2.975480    2.468780
  H      2.829690   -1.666540    1.172380
  H      2.277900   -2.852640    2.330720
  H      3.767540   -3.113380    1.455480

 Total Charge           Charge          ....    1
 Multiplicity           Mult            ....    1
 Number of Electrons    NEL             ....   48
 Basis Dimension        Dim             ....  134

ORBITAL ENERGIES
----------------

  NO   OCC          E(Eh)            E(eV)
   0   2.0000     -14.220605      -386.9623
   1   2.0000     -14.219417      -386.9300
   2   2.0000     -14.216330      -386.8460
   3   2.0000     -10.214591      -277.9532
   4   2.0000     -10.101771      -274.8832
   5   2.0000     -10.031003      -272.9575
   6   2.0000      -1.121834       -30.5266
   7   2.0000      -1.019683       -27.7470
   8   2.0000      -1.003051       -27.2944
   9   2.0000      -0.855409       -23.2769
  10   2.0000      -0.775091       -21.0913
  11   2.0000      -0.739128       -20.1127
  12   2.0000      -0.729929       -19.8624
  13   2.0000      -0.686760       -18.6877
  14   2.0000      -0.641666       -17.4606
  15   2.0000      -0.635801       -17.3010
  16   2.0000      -0.604897       -16.4601
  17   2.0000      -0.579385       -15.7659
  18   2.0000      -0.552302       -15.0289
  19   2.0000      -0.515831       -14.0365
  20   2.0000      -0.485368       -13.2075
  21   2.0000      -0.467020       -12.7083
  22   2.0000      -0.431907       -11.7528
  23   2.0000      -0.409075       -11.1315
  24   0.0000      -0.191621        -5.2143
  25   0.0000      -0.161271        -4.3884
  26   0.0000      -0.131176        -3.5695
  27   0.0000      -0.120532        -3.2798
  28   0.0000      -0.102522        -2.7898

MULLIKEN ATOMIC CHARGES
-----------------------
   0 C :   -0.016489
   1 N :   -0.069751
   2 C :   -0.011680
   3 N :   -0.023490
   4 N :    0.016661
   5 H :    0.164801
   6 H :    0.166181
   7 H :    0.157602
   8 H :    0.158398
   9 C :   -0.002166
  10 H :    0.076390
  11 H :    0.059646
  12 H :    0.162604
  13 H :    0.048064
  14 H :    0.073197
  15 H :    0.040031
Sum of atomic charges:    1.0000000

LOEWDIN ATOMIC CHARGES
----------------------
   0 C :    0.029858
   1 N :    0.055704
   2 C :    0.107733
   3 N :    0.049009
   4 N :    0.065825
   5 H :    0.109858
   6 H :    0.110139
   7 H :    0.106478
   8 H :    0.102698
   9 C :   -0.053748
  10 H :    0.052865
  11 H :    0.036154
  12 H :    0.108173
  13 H :    0.036610
  14 H :    0.051698
  15 H :    0.030944

  Mayer bond orders larger than 0.100000
B(  0-C ,  1-N ) :   0.9651 B(  0-C ,  9-C ) :   1.1053 B(  0-C , 10-H ) :   0.9370
B(  0-C , 11-H ) :   0.9399 B(  1-N ,  2-C ) :   1.3842 B(  1-N ,  7-H ) :   0.9064
B(  2-C ,  3-N ) :   1.3693 B(  2-C ,  4-N ) :   1.4001 B(  3-N ,  8-H ) :   0.9227
B(  3-N , 12-H ) :   0.9253 B(  4-N ,  5-H ) :   0.9254 B(  4-N ,  6-H ) :   0.9244
B(  9-C , 13-H ) :   0.9643 B(  9-C , 14-H ) :   0.9565 B(  9-C , 15-H ) :   0.9629

Dispersion correction           -0.012423308
FINAL SINGLE POINT ENERGY      -283.842198326403

DIPOLE MOMENT
-------------
                                X             Y             Z
Electronic contribution:      4.78036       1.92204       0.05711
Nuclear contribution   :     -3.67981      -1.62355      -0.28562
                        -----------------------------------------
Total Dipole Moment    :      1.10055       0.29850      -0.22850
                        -----------------------------------------
Magnitude (a.u.)       :      1.16298
Magnitude (Debye)      :      2.95606

Rotational constants in cm-1:     0.222027     0.074735     0.065694
Rotational constants in MHz :  6656.200457  2240.503315  1969.451902

                             ****ORCA TERMINATED NORMALLY****
TOTAL RUN TIME: 0 days 0 hours 0 minutes 3 seconds 745 msec
