                         Program Version 5.0.0 -  RELEASE  -
|  1> !PBE D3BJ RIJCOSX def2-SVP def2/J TightSCF
|  2> *xyz 0 1
|  3> C          4.08422        1.74208       -2.11472
|  4> C          4.26524        2.50052       -0.79589
|  5> H          4.86853        3.39267       -0.98113
|  6> H          3.30764        2.82457       -0.38781
|  7> C          4.98224        1.65026        0.24742
|  8> F          4.36806        1.38927        1.31371
|  9> O          6.12892        1.23351       -0.04562
| 10> H          3.57911        2.36849       -2.81997
| 11> H          3.50424        0.85965       -1.94198
| 12> H          5.04288        1.46841       -2.50327
| 13> *
| 14> %MaxCore 64000
| 15> %pal nprocs 8
| 16> end
| 17> %scf
| 18>   MaxIter 150
| 19> end
| 20>
| 21>
| 22>                          ****END OF INPUT****

CARTESIAN COORDINATES (ANGSTROEM)
---------------------------------
  C      4.084220    1.742080   -2.114720
  C      4.265240    2.500520   -0.795890
  H      4.868530    3.392670   -0.981130
  H      3.307640    2.824570   -0.387810
  C      4.982240    1.650260    0.247420
  F      4.368060    1.389270    1.313710
  O      6.128920    1.233510   -0.045620
  H      3.579110    2.368490   -2.819970
  H      3.504240    0.859650   -1.941980
  H      5.042880    1.468410   -2.503270

 Total Charge           Charge          ....    0
 Multiplicity           Mult            ....    1
 Number of Electrons    NEL             ....   40
 Basis Dimension        Dim             ....   95

ORBITAL ENERGIES
----------------

  NO   OCC          E(Eh)            E(eV)
   0   2.0000     -24.323837      -661.8853
   1   2.0000     -18.753225      -510.3012
   2   2.0000     -10.050259      -273.4815
   3   2.0000      -9.920141      -269.9408
   4   2.0000      -9.898754      -269.3588
   5   2.0000      -1.187678       -32.3184
   6   2.0000      -0.925175       -25.1753
   7   2.0000      -0.717180       -19.5155
   8   2.0000      -0.610116       -16.6021
   9   2.0000      -0.563384       -15.3305
  10   2.0000      -0.479549       -13.0492
  11   2.0000      -0.464138       -12.6298
  12   2.0000      -0.437993       -11.9184
  13   2.0000      -0.408729       -11.1221
  14   2.0000      -0.375662       -10.2223
  15   2.0000      -0.349613        -9.5135
  16   2.0000      -0.327285        -8.9059
  17   2.0000      -0.321146        -8.7388
  18   2.0000      -0.297377        -8.0920
  19   2.0000      -0.232261        -6.3202
  20   0.0000      -0.056438        -1.5358
  21   0.0000       0.041382         1.1261
  22   0.0000       0.082593         2.2475
  23   0.0000       0.085906         2.3376
  24   0.0000       0.103135         2.8064

MULLIKEN ATOMIC CHARGES
-----------------------
   0 C :   -0.010694
   1 C :   -0.076443
   2 H :    0.060887
   3 H :    0.022268
   4 C :    0.161953
   5 F :   -0.035940
   6 O :   -0.223948
   7 H :    0.028773
   8 H :    0.027432
   9 H :    0.045710
Sum of atomic charges:    0.0000000

LOEWDIN ATOMIC CHARGES
----------------------
   0 C :   -0.043508
   1 C :   -0.078331
   2 H :    0.052103
   3 H :    0.026954
   4 C :    0.060486
   5 F :    0.065208
   6 O :   -0.172239
   7 H :    0.029512
   8 H :    0.027433
   9 H :    0.032382

  Mayer bond orders larger than 0.100000
B(  0-C ,  1-C ) :   1.1047 B(  0-C ,  7-H ) :   0.9630 B(  0-C ,  8-H ) :   0.9730
B(  0-C ,  9-H ) :   0.9651 B(  1-C ,  2-H ) :   0.9224 B(  1-C ,  3-H ) :   0.9270
B(  1-C ,  4-C ) :   1.0039 B(  4-C ,  5-F ) :   1.2337 B(  4-C ,  6-O ) :   2.0748

Dispersion correction           -0.006226004
FINAL SINGLE POINT ENERGY      -291.851273430790

DIPOLE MOMENT
-------------
                                X             Y             Z
Electronic contribution:      2.02457      -2.12237       8.22206
Nuclear contribution   :     -2.87511       2.61564      -8.50037
                        -----------------------------------------
Total Dipole Moment    :     -0.85054       0.49327      -0.27831
                        -----------------------------------------
Magnitude (a.u.)       :      1.02185
Magnitude (Debye)      :      2.59734

Rotational constants in cm-1:     0.297822     0.128965     0.102219
Rotational constants in MHz :  8928.481997  3866.271686  3064.463504

                             ****ORCA TERMINATED NORMALLY****
TOTAL RUN TIME: 0 days 0 hours 0 minutes 2 seconds 716 msec
