                         Program Version 5.0.0 -  RELEASE  -
|  1> !PBE D3BJ RIJCOSX def2-SVP def2/J TightSCF
|  2> *xyz 0 1
|  3> C          3.91385       -1.65829        3.01513
|  4> C          5.03927       -0.90115        2.49282
|  5> C          6.21038       -1.41726        2.17824
|  6> N          6.53591       -2.67712        2.55608
|  7> N          7.07675       -0.70082        1.47891
|  8> H          7.95464       -1.12155        1.20755
|  9> H          6.75616        0.10664        0.96028
| 10> H          4.84217        0.01761        2.11519
| 11> H          5.99388       -3.12692        3.28278
| 12> C          3.13916       -2.37657        1.91061
| 13> H          3.26723       -0.93940        3.52069
| 14> H          4.24720       -2.35509        3.79006
| 15> H          7.49844       -2.97548        2.46878
| 16> H          2.82969       -1.66654        1.17238
| 17> H          2.27790       -2.85264        2.33072
| 18> H          3.76754       -3.11338        1.45548
| 19> *
| 20> %MaxCore 64000
| 21> %pal nprocs 8
| 22> end
| 23> %scf
| 24>   MaxIter 150
| 25> end
| 26>
| 27>
| 28>                          ****END OF INPUT****

CARTESIAN COORDINATES (ANGSTROEM)
---------------------------------
  C      3.913850   -1.658290    3.015130
  C      5.039270   -0.901150    2.492820
  C      6.210380   -1.417260    2.178240
  N      6.535910   -2.677120    2.556080
  N      7.076750   -0.700820    1.478910
  H      7.954640   -1.121550    1.207550
  H      6.756160    0.106640    0.960280
  H      4.842170    0.017610    2.115190
  H      5.993880   -3.126920    3.282780
  C      3.139160   -2.376570    1.910610
  H      3.267230   -0.939400    3.520690
  H      4.247200   -2.355090    3.790060
  H      7.498440   -2.975480    2.468780
  H      2.829690   -1.666540    1.172380
  H      2.277900   -2.852640    2.330720
  H      3.767540   -3.113380    1.455480

 Total Charge           Charge          ....    0
 Multiplicity           Mult            ....    1
 Number of Electrons    NEL             ....   48
 Basis Dimension        Dim             ....  134

ORBITAL ENERGIES
----------------

  NO   OCC          E(Eh)            E(eV)
   0   2.0000     -13.990002      -380.6873
   1   2.0000     -13.988791      -380.6544
   2   2.0000      -9.921513      -269.9781
   3   2.0000      -9.864374      -268.4233
   4   2.0000      -9.854550      -268.1559
   5   2.0000      -9.807041      -266.8631
   6   2.0000      -0.860172       -23.4065
   7   2.0000      -0.776122       -21.1194
   8   2.0000      -0.685972       -18.6662
   9   2.0000      -0.611705       -16.6453
  10   2.0000      -0.543794       -14.7974
  11   2.0000      -0.510524       -13.8921
  12   2.0000      -0.479662       -13.0523
  13   2.0000      -0.447946       -12.1892
  14   2.0000      -0.417456       -11.3595
  15   2.0000      -0.381706       -10.3867
  16   2.0000      -0.362045        -9.8518
  17   2.0000      -0.331003        -9.0070
  18   2.0000      -0.326868        -8.8945
  19   2.0000      -0.303551        -8.2601
  20   2.0000      -0.277237        -7.5440
  21   2.0000      -0.268908        -7.3174
  22   2.0000      -0.210553        -5.7294
  23   2.0000      -0.116664        -3.1746
  24   0.0000       0.021684         0.5901
  25   0.0000       0.053012         1.4425
  26   0.0000       0.059343         1.6148
  27   0.0000       0.080077         2.1790
  28   0.0000       0.084129         2.2893

MULLIKEN ATOMIC CHARGES
-----------------------
   0 C :    0.025197
   1 C :   -0.150407
   2 C :   -0.098572
   3 N :   -0.056241
   4 N :   -0.024180
   5 H :    0.090373
   6 H :    0.114206
   7 H :   -0.108263
   8 H :    0.107698
   9 C :    0.047538
  10 H :   -0.009953
  11 H :   -0.024378
  12 H :    0.093054
  13 H :   -0.002295
  14 H :   -0.005948
  15 H :    0.002172
Sum of atomic charges:   -0.0000000

LOEWDIN ATOMIC CHARGES
----------------------
   0 C :   -0.045152
   1 C :   -0.213468
   2 C :   -0.000393
   3 N :   -0.021343
   4 N :   -0.006050
   5 H :    0.061812
   6 H :    0.080718
   7 H :   -0.009497
   8 H :    0.074030
   9 C :   -0.061364
  10 H :    0.024448
  11 H :    0.008384
  12 H :    0.061742
  13 H :    0.018387
  14 H :    0.011352
  15 H :    0.016394

  Mayer bond orders larger than 0.100000
B(  0-C ,  1-C ) :   1.1047 B(  0-C ,  9-C ) :   1.0967 B(  0-C , 10-H ) :   0.9065
B(  0-C , 11-H ) :   0.9191 B(  1-C ,  2-C ) :   1.6788 B(  1-C ,  7-H ) :   0.9272
B(  2-C ,  3-N ) :   1.2470 B(  2-C ,  4-N ) :   1.2466 B(  3-N ,  8-H ) :   0.9371
B(  3-N , 12-H ) :   0.9447 B(  4-N ,  5-H ) :   0.9466 B(  4-N ,  6-H ) :   0.9376
B(  9-C , 13-H ) :   0.9611 B(  9-C , 14-H ) :   0.9545 B(  9-C , 15-H ) :   0.9673

Dispersion correction           -0.012882584
FINAL SINGLE POINT ENERGY      -267.371573246785

DIPOLE MOMENT
-------------
                                X             Y             Z
Electronic contribution:      4.82405       1.19626      -0.07403
Nuclear contribution   :     -3.74303      -1.46908      -0.23637
                        -----------------------------------------
Total Dipole Moment    :      1.08103      -0.27282      -0.31041
                        -----------------------------------------
Magnitude (a.u.)       :      1.15732
Magnitude (Debye)      :      2.94169

Rotational constants in cm-1:     0.225937     0.074877     0.065953
Rotational constants in MHz :  6773.424301  2244.750632  1977.214101

                             ****ORCA TERMINATED NORMALLY****
TOTAL RUN TIME: 0 days 0 hours 0 minutes 3 seconds 853 msec
