                         Program Version 5.0.0 -  RELEASE  -
|  1> !PBE D3BJ RIJCOSX def2-SVP def2/J TightSCF
|  2> *xyz 0 1
|  3> C          4.08422        1.74208       -2.11472
|  4> C          4.26524        2.50052       -0.79589
|  5> H          4.86853        3.39267       -0.98113
|  6> H          3.30764        2.82457       -0.38781
|  7> C          4.98224        1.65026        0.24742
|  8> O          4.36806        1.38927        1.31371
|  9> F          6.12892        1.23351       -0.04562
| 10> H          3.57911        2.36849       -2.81997
| 11> H          3.50424        0.85965       -1.94198
| 12> H          5.04288        1.46841       -2.50327
| 13> *
| 14> %MaxCore 64000
| 15> %pal nprocs 8
| 16> end
| 17> %scf
| 18>   MaxIter 150
| 19> end
| 20>
| 21>
| 22>                          ****END OF INPUT****

CARTESIAN COORDINATES (ANGSTROEM)
---------------------------------
  C      4.084220    1.742080   -2.114720
  C      4.265240    2.500520   -0.795890
  H      4.868530    3.392670   -0.981130
  H      3.307640    2.824570   -0.387810
  C      4.982240    1.650260    0.247420
  O      4.368060    1.389270    1.313710
  F      6.128920    1.233510   -0.045620
  H      3.579110    2.368490   -2.819970
  H      3.504240    0.859650   -1.941980
  H      5.042880    1.468410   -2.503270

 Total Charge           Charge          ....    0
 Multiplicity           Mult            ....    1
 Number of Electrons    NEL             ....   40
 Basis Dimension        Dim             ....   95

ORBITAL ENERGIES
----------------

  NO   OCC          E(Eh)            E(eV)
   0   2.0000     -24.325607      -661.9334
   1   2.0000     -18.751752      -510.2611
   2   2.0000     -10.049582      -273.4630
   3   2.0000      -9.919423      -269.9212
   4   2.0000      -9.903095      -269.4769
   5   2.0000      -1.190609       -32.3981
   6   2.0000      -0.921511       -25.0756
   7   2.0000      -0.721007       -19.6196
   8   2.0000      -0.607892       -16.5416
   9   2.0000      -0.568325       -15.4649
  10   2.0000      -0.482441       -13.1279
  11   2.0000      -0.468742       -12.7551
  12   2.0000      -0.433954       -11.8085
  13   2.0000      -0.407346       -11.0845
  14   2.0000      -0.378698       -10.3049
  15   2.0000      -0.351582        -9.5670
  16   2.0000      -0.329735        -8.9725
  17   2.0000      -0.324408        -8.8276
  18   2.0000      -0.300331        -8.1724
  19   2.0000      -0.226921        -6.1748
  20   0.0000      -0.053283        -1.4499
  21   0.0000       0.037092         1.0093
  22   0.0000       0.080757         2.1975
  23   0.0000       0.087106         2.3703
  24   0.0000       0.107527         2.9259

MULLIKEN ATOMIC CHARGES
-----------------------
   0 C :   -0.031707
   1 C :   -0.067771
   2 H :    0.044147
   3 H :    0.048446
   4 C :    0.159626
   5 O :   -0.220061
   6 F :   -0.037617
   7 H :    0.034223
   8 H :    0.038543
   9 H :    0.032172
Sum of atomic charges:    0.0000000

LOEWDIN ATOMIC CHARGES
----------------------
   0 C :   -0.051738
   1 C :   -0.074892
   2 H :    0.041267
   3 H :    0.043849
   4 C :    0.059044
   5 O :   -0.171849
   6 F :    0.066724
   7 H :    0.031802
   8 H :    0.029795
   9 H :    0.025998

  Mayer bond orders larger than 0.100000
B(  0-C ,  1-C ) :   1.0880 B(  0-C ,  7-H ) :   0.9627 B(  0-C ,  8-H ) :   0.9727
B(  0-C ,  9-H ) :   0.9687 B(  1-C ,  2-H ) :   0.9177 B(  1-C ,  3-H ) :   0.9403
B(  1-C ,  4-C ) :   1.0130 B(  4-C ,  5-O ) :   2.0943 B(  4-C ,  6-F ) :   1.2213

Dispersion correction           -0.006190232
FINAL SINGLE POINT ENERGY      -291.850254471704

DIPOLE MOMENT
-------------
                                X             Y             Z
Electronic contribution:      4.88501      -2.37309       5.99041
Nuclear contribution   :     -4.79499       2.78546      -7.01827
                        -----------------------------------------
Total Dipole Moment    :      0.09002       0.41238      -1.02786
                        -----------------------------------------
Magnitude (a.u.)       :      1.11115
Magnitude (Debye)      :      2.82432

Rotational constants in cm-1:     0.286098     0.133492     0.103343
Rotational constants in MHz :  8577.003657  4001.981591  3098.148068

                             ****ORCA TERMINATED NORMALLY****
TOTAL RUN TIME: 0 days 0 hours 0 minutes 2 seconds 900 msec
