                         Program Version 5.0.0 -  RELEASE  -
|  1> !PBE D3BJ RIJCOSX def2-SVP def2/J TightSCF
|  2> *xyz 0 1
|  3> C          3.91385       -1.65829        3.01513
|  4> N          5.03927       -0.90115        2.49282
|  5> C          6.21038       -1.41726        2.17824
|  6> C          6.53591       -2.67712        2.55608
|  7> N          7.07675       -0.70082        1.47891
|  8> H          7.95464       -1.12155        1.20755
|  9> H          6.75616        0.10664        0.96028
| 10> H          4.84217        0.01761        2.11519
| 11> H          5.99388       -3.12692        3.28278
| 12> C          3.13916       -2.37657        1.91061
| 13> H          3.26723       -0.93940        3.52069
| 14> H          4.24720       -2.35509        3.79006
| 15> H          7.49844       -2.97548        2.46878
| 16> H          2.82969       -1.66654        1.17238
| 17> H          2.27790       -2.85264        2.33072
| 18> H          3.76754       -3.11338        1.45548
| 19> *
| 20> %MaxCore 64000
| 21> %pal nprocs 8
| 22> end
| 23> %scf
| 24>   MaxIter 150
| 25> end
| 26>
| 27>
| 28>                          ****END OF INPUT****

CARTESIAN COORDINATES (ANGSTROEM)
---------------------------------
  C      3.913850   -1.658290    3.015130
  N      5.039270   -0.901150    2.492820
  C      6.210380   -1.417260    2.178240
  C      6.535910   -2.677120    2.556080
  N      7.076750   -0.700820    1.478910
  H      7.954640   -1.121550    1.207550
  H      6.756160    0.106640    0.960280
  H      4.842170    0.017610    2.115190
  H      5.993880   -3.126920    3.282780
  C      3.139160   -2.376570    1.910610
  H      3.267230   -0.939400    3.520690
  H      4.247200   -2.355090    3.790060
  H      7.498440   -2.975480    2.468780
  H      2.829690   -1.666540    1.172380
  H      2.277900   -2.852640    2.330720
  H      3.767540   -3.113380    1.455480

 Total Charge           Charge          ....    0
 Multiplicity           Mult            ....    1
 Number of Electrons    NEL             ....   48
 Basis Dimension        Dim             ....  134

ORBITAL ENERGIES
----------------

  NO   OCC          E(Eh)            E(eV)
   0   2.0000     -13.995492      -380.8367
   1   2.0000     -13.992094      -380.7442
   2   2.0000      -9.926912      -270.1250
   3   2.0000      -9.922827      -270.0138
   4   2.0000      -9.874193      -268.6904
   5   2.0000      -9.799554      -266.6594
   6   2.0000      -0.874597       -23.7990
   7   2.0000      -0.796449       -21.6725
   8   2.0000      -0.672709       -18.3053
   9   2.0000      -0.622398       -16.9363
  10   2.0000      -0.570148       -15.5145
  11   2.0000      -0.499174       -13.5832
  12   2.0000      -0.491079       -13.3629
  13   2.0000      -0.460415       -12.5285
  14   2.0000      -0.413237       -11.2447
  15   2.0000      -0.385717       -10.4959
  16   2.0000      -0.364946        -9.9307
  17   2.0000      -0.343672        -9.3518
  18   2.0000      -0.327104        -8.9010
  19   2.0000      -0.312897        -8.5144
  20   2.0000      -0.310292        -8.4435
  21   2.0000      -0.296440        -8.0665
  22   2.0000      -0.200778        -5.4634
  23   2.0000      -0.120269        -3.2727
  24   0.0000       0.020515         0.5582
  25   0.0000       0.052398         1.4258
  26   0.0000       0.061794         1.6815
  27   0.0000       0.072227         1.9654
  28   0.0000       0.089975         2.4483

MULLIKEN ATOMIC CHARGES
-----------------------
   0 C :    0.048404
   1 N :   -0.106889
   2 C :   -0.097146
   3 C :   -0.080747
   4 N :   -0.035045
   5 H :    0.116163
   6 H :    0.090464
   7 H :    0.089865
   8 H :   -0.056813
   9 C :    0.010642
  10 H :    0.007218
  11 H :    0.036179
  12 H :   -0.069420
  13 H :    0.002001
  14 H :    0.012204
  15 H :    0.032920
Sum of atomic charges:    0.0000000

LOEWDIN ATOMIC CHARGES
----------------------
   0 C :    0.031591
   1 N :   -0.004046
   2 C :    0.007065
   3 C :   -0.270531
   4 N :   -0.002943
   5 H :    0.082813
   6 H :    0.060300
   7 H :    0.063306
   8 H :   -0.009734
   9 C :   -0.068883
  10 H :    0.021237
  11 H :    0.030383
  12 H :   -0.011058
  13 H :    0.017212
  14 H :    0.023784
  15 H :    0.029504

  Mayer bond orders larger than 0.100000
B(  0-C ,  1-N ) :   1.0315 B(  0-C ,  9-C ) :   1.1145 B(  0-C , 10-H ) :   0.9459
B(  0-C , 11-H ) :   0.9327 B(  1-N ,  2-C ) :   1.2078 B(  1-N ,  7-H ) :   0.9298
B(  2-C ,  3-C ) :   1.7024 B(  2-C ,  4-N ) :   1.2581 B(  3-C ,  8-H ) :   0.9279
B(  3-C , 12-H ) :   0.9281 B(  4-N ,  5-H ) :   0.9404 B(  4-N ,  6-H ) :   0.9455
B(  9-C , 13-H ) :   0.9631 B(  9-C , 14-H ) :   0.9567 B(  9-C , 15-H ) :   0.9597

Dispersion correction           -0.012845253
FINAL SINGLE POINT ENERGY      -267.363086619891

DIPOLE MOMENT
-------------
                                X             Y             Z
Electronic contribution:      3.13841       2.91428      -0.26128
Nuclear contribution   :     -3.42552      -1.84584      -0.22295
                        -----------------------------------------
Total Dipole Moment    :     -0.28711       1.06844      -0.48423
                        -----------------------------------------
Magnitude (a.u.)       :      1.20767
Magnitude (Debye)      :      3.06966

Rotational constants in cm-1:     0.233526     0.075277     0.067092
Rotational constants in MHz :  7000.931279  2256.752901  2011.361214

                             ****ORCA TERMINATED NORMALLY****
TOTAL RUN TIME: 0 days 0 hours 0 minutes 3 seconds 724 msec
