                         Program Version 5.0.0 -  RELEASE  -
|  1> !PBE D3BJ RIJCOSX def2-SVP def2/J TightSCF
|  2> *xyz 0 1
|  3> C          3.91385       -1.65829        3.01513
|  4> N          5.03927       -0.90115        2.49282
|  5> C          6.21038       -1.41726        2.17824
|  6> N          6.53591       -2.67712        2.55608
|  7> C          7.07675       -0.70082        1.47891
|  8> H          7.95464       -1.12155        1.20755
|  9> H          6.75616        0.10664        0.96028
| 10> H          4.84217        0.01761        2.11519
| 11> H          5.99388       -3.12692        3.28278
| 12> C          3.13916       -2.37657        1.91061
| 13> H          3.26723       -0.93940        3.52069
| 14> H          4.24720       -2.35509        3.79006
| 15> H          7.49844       -2.97548        2.46878
| 16> H          2.82969       -1.66654        1.17238
| 17> H          2.27790       -2.85264        2.33072
| 18> H          3.76754       -3.11338        1.45548
| 19> *
| 20> %MaxCore 64000
| 21> %pal nprocs 8
| 22> end
| 23> %scf
| 24>   MaxIter 150
| 25> end
| 26>
| 27>
| 28>                          ****END OF INPUT****

CARTESIAN COORDINATES (ANGSTROEM)
---------------------------------
  C      3.913850   -1.658290    3.015130
  N      5.039270   -0.901150    2.492820
  C      6.210380   -1.417260    2.178240
  N      6.535910   -2.677120    2.556080
  C      7.076750   -0.700820    1.478910
  H      7.954640   -1.121550    1.207550
  H      6.756160    0.106640    0.960280
  H      4.842170    0.017610    2.115190
  H      5.993880   -3.126920    3.282780
  C      3.139160   -2.376570    1.910610
  H      3.267230   -0.939400    3.520690
  H      4.247200   -2.355090    3.790060
  H      7.498440   -2.975480    2.468780
  H      2.829690   -1.666540    1.172380
  H      2.277900   -2.852640    2.330720
  H      3.767540   -3.113380    1.455480

 Total Charge           Charge          ....    0
 Multiplicity           Mult            ....    1
 Number of Electrons    NEL             ....   48
 Basis Dimension        Dim             ....  134

ORBITAL ENERGIES
----------------

  NO   OCC          E(Eh)            E(eV)
   0   2.0000     -13.992549      -380.7566
   1   2.0000     -13.989752      -380.6805
   2   2.0000      -9.932207      -270.2691
   3   2.0000      -9.924426      -270.0574
   4   2.0000      -9.882557      -268.9181
   5   2.0000      -9.799787      -266.6658
   6   2.0000      -0.870528       -23.6883
   7   2.0000      -0.789611       -21.4864
   8   2.0000      -0.689532       -18.7631
   9   2.0000      -0.620583       -16.8869
  10   2.0000      -0.557920       -15.1818
  11   2.0000      -0.535213       -14.5639
  12   2.0000      -0.475431       -12.9371
  13   2.0000      -0.440763       -11.9938
  14   2.0000      -0.423790       -11.5319
  15   2.0000      -0.388196       -10.5634
  16   2.0000      -0.377298       -10.2668
  17   2.0000      -0.351337        -9.5604
  18   2.0000      -0.328615        -8.9421
  19   2.0000      -0.320881        -8.7316
  20   2.0000      -0.311077        -8.4648
  21   2.0000      -0.305005        -8.2996
  22   2.0000      -0.203024        -5.5246
  23   2.0000      -0.121120        -3.2958
  24   0.0000       0.021308         0.5798
  25   0.0000       0.045043         1.2257
  26   0.0000       0.059604         1.6219
  27   0.0000       0.073276         1.9939
  28   0.0000       0.084893         2.3101

MULLIKEN ATOMIC CHARGES
-----------------------
   0 C :    0.018679
   1 N :   -0.090594
   2 C :   -0.080745
   3 N :   -0.068224
   4 C :   -0.062369
   5 H :   -0.067550
   6 H :   -0.063066
   7 H :    0.111620
   8 H :    0.090108
   9 C :    0.018524
  10 H :    0.014937
  11 H :    0.013420
  12 H :    0.114755
  13 H :    0.015914
  14 H :    0.010729
  15 H :    0.023862
Sum of atomic charges:    0.0000000

LOEWDIN ATOMIC CHARGES
----------------------
   0 C :    0.017945
   1 N :   -0.003992
   2 C :    0.011342
   3 N :   -0.018873
   4 C :   -0.251986
   5 H :   -0.009404
   6 H :   -0.009199
   7 H :    0.083330
   8 H :    0.057721
   9 C :   -0.071454
  10 H :    0.025078
  11 H :    0.017490
  12 H :    0.081291
  13 H :    0.023407
  14 H :    0.022388
  15 H :    0.024916

  Mayer bond orders larger than 0.100000
B(  0-C ,  1-N ) :   1.0485 B(  0-C ,  9-C ) :   1.0920 B(  0-C , 10-H ) :   0.9436
B(  0-C , 11-H ) :   0.9394 B(  1-N ,  2-C ) :   1.2227 B(  1-N ,  7-H ) :   0.9208
B(  2-C ,  3-N ) :   1.2220 B(  2-C ,  4-C ) :   1.7376 B(  3-N ,  8-H ) :   0.9455
B(  3-N , 12-H ) :   0.9406 B(  4-C ,  5-H ) :   0.9246 B(  4-C ,  6-H ) :   0.9279
B(  9-C , 13-H ) :   0.9639 B(  9-C , 14-H ) :   0.9536 B(  9-C , 15-H ) :   0.9616

Dispersion correction           -0.012776489
FINAL SINGLE POINT ENERGY      -267.363596010475

DIPOLE MOMENT
-------------
                                X             Y             Z
Electronic contribution:      2.58820       0.90187       1.00428
Nuclear contribution   :     -3.31079      -1.42658      -0.45147
                        -----------------------------------------
Total Dipole Moment    :     -0.72259      -0.52471       0.55281
                        -----------------------------------------
Magnitude (a.u.)       :      1.05027
Magnitude (Debye)      :      2.66957

Rotational constants in cm-1:     0.225507     0.077571     0.068070
Rotational constants in MHz :  6760.542142  2325.533779  2040.680522

                             ****ORCA TERMINATED NORMALLY****
TOTAL RUN TIME: 0 days 0 hours 0 minutes 3 seconds 845 msec
