                         Program Version 5.0.0 -  RELEASE  -
|  1> !PBE D3BJ RIJCOSX def2-TZVP def2/J TightSCF xyzfile
|  2>
|  3> *xyzfile 0 1 D1.xyz
|  4>
|  5> %MaxCore 64000
|  6>
|  7> %pal nprocs 18
|  8> end
|  9>
| 10> %scf
| 11>   MaxIter 150
| 12> end
| 13>
| 14>
| 15>                          ****END OF INPUT****

CARTESIAN COORDINATES (ANGSTROEM)
---------------------------------
  C      3.913853   -1.658291    3.015134
  C      5.039266   -0.901154    2.492821
  C      4.084215    1.742081   -2.114724
  C      4.265245    2.500518   -0.795890
  H      4.868534    3.392674   -0.981134
  H      3.307640    2.824571   -0.387809
  C      4.982240    1.650257    0.247422
  C      6.210384   -1.417261    2.178244
  N      6.535913   -2.677122    2.556078
  N      7.076754   -0.700820    1.478906
  H      7.954643   -1.121554    1.207554
  H      6.756161    0.106637    0.960278
  H      4.842168    0.017609    2.115191
  H      5.993876   -3.126918    3.282784
  H      7.498441   -2.975482    2.468776
  F      4.368065    1.389270    1.313706
  O      6.128919    1.233512   -0.045620
  C      3.139159   -2.376572    1.910609
  H      3.267235   -0.939401    3.520693
  H      4.247195   -2.355095    3.790065
  C      1.997274    0.430918   -1.399218
  C      3.412746    0.376886   -1.965497
  H      4.047407   -0.246590   -1.326706
  H      3.390774   -0.118719   -2.942839
  H      5.068475    1.598504   -2.565728
  H      3.503356    2.363939   -2.804565
  C      2.399946   -1.389579    1.009490
  H      2.440750   -3.087118    2.362976
  H      3.844475   -2.970462    1.318677
  C      2.070177   -1.936705   -0.372401
  H      1.481611   -1.061542    1.509912
  H      3.008628   -0.490001    0.897451
  C      1.322238   -0.935775   -1.256413
  H      1.472747   -2.850902   -0.283997
  H      3.003539   -2.234041   -0.862535
  H      1.376444    1.058920   -2.047420
  H      2.015341    0.929780   -0.426535
  H      0.316648   -0.787213   -0.848278
  H      1.185611   -1.379252   -2.248613

 Total Charge           Charge          ....    0
 Multiplicity           Mult            ....    1
 Number of Electrons    NEL             ....  126
 Basis Dimension        Dim             ....  634

ORBITAL ENERGIES
----------------

  NO   OCC          E(Eh)            E(eV)
   0   2.0000     -24.337895      -662.2678
   1   2.0000     -18.774705      -510.8857
   2   2.0000     -13.967032      -380.0623
   3   2.0000     -13.942926      -379.4063
   4   2.0000     -10.065922      -273.9077
   5   2.0000      -9.916899      -269.8525
   6   2.0000      -9.899010      -269.3658
   7   2.0000      -9.896265      -269.2911
   8   2.0000      -9.883246      -268.9368
   9   2.0000      -9.878126      -268.7975
  10   2.0000      -9.872159      -268.6351
  11   2.0000      -9.864311      -268.4216
  12   2.0000      -9.857470      -268.2354
  13   2.0000      -9.849092      -268.0074
  14   2.0000      -9.844361      -267.8787
  15   2.0000      -9.778290      -266.0808
  16   2.0000      -1.231112       -33.5003
  17   2.0000      -0.972209       -26.4551
  18   2.0000      -0.854494       -23.2520
  19   2.0000      -0.770208       -20.9584
  20   2.0000      -0.756692       -20.5906
  21   2.0000      -0.728508       -19.8237
  22   2.0000      -0.701342       -19.0845
  23   2.0000      -0.674726       -18.3602
  24   2.0000      -0.639725       -17.4078
  25   2.0000      -0.620552       -16.8861
  26   2.0000      -0.596001       -16.2180
  27   2.0000      -0.571914       -15.5626
  28   2.0000      -0.542746       -14.7689
  29   2.0000      -0.527062       -14.3421
  30   2.0000      -0.507015       -13.7966
  31   2.0000      -0.501312       -13.6414
  32   2.0000      -0.493273       -13.4227
  33   2.0000      -0.492768       -13.4089
  34   2.0000      -0.470297       -12.7974
  35   2.0000      -0.462557       -12.5868
  36   2.0000      -0.436325       -11.8730
  37   2.0000      -0.428842       -11.6694
  38   2.0000      -0.426832       -11.6147
  39   2.0000      -0.409234       -11.1358
  40   2.0000      -0.397819       -10.8252
  41   2.0000      -0.387942       -10.5564
  42   2.0000      -0.379194       -10.3184
  43   2.0000      -0.370916       -10.0931
  44   2.0000      -0.365126        -9.9356
  45   2.0000      -0.361302        -9.8315
  46   2.0000      -0.346068        -9.4170
  47   2.0000      -0.342379        -9.3166
  48   2.0000      -0.325925        -8.8689
  49   2.0000      -0.321944        -8.7605
  50   2.0000      -0.316854        -8.6220
  51   2.0000      -0.314598        -8.5606
  52   2.0000      -0.305507        -8.3133
  53   2.0000      -0.295139        -8.0311
  54   2.0000      -0.293478        -7.9860
  55   2.0000      -0.279074        -7.5940
  56   2.0000      -0.270630        -7.3642
  57   2.0000      -0.263726        -7.1763
  58   2.0000      -0.261685        -7.1208
  59   2.0000      -0.257786        -7.0147
  60   2.0000      -0.250355        -6.8125
  61   2.0000      -0.199959        -5.4412
  62   2.0000      -0.111723        -3.0401
  63   0.0000      -0.085143        -2.3169
  64   0.0000       0.007739         0.2106
  65   0.0000       0.016742         0.4556
  66   0.0000       0.027190         0.7399
  67   0.0000       0.029399         0.8000

MULLIKEN ATOMIC CHARGES
-----------------------
   0 C :   -0.179800
   1 C :   -0.393803
   2 C :   -0.137161
   3 C :   -0.195342
   4 H :    0.133196
   5 H :    0.125339
   6 C :    0.321568
   7 C :    0.251201
   8 N :   -0.431985
   9 N :   -0.413075
  10 H :    0.186649
  11 H :    0.227373
  12 H :    0.117364
  13 H :    0.219675
  14 H :    0.198888
  15 F :   -0.052231
  16 O :   -0.321398
  17 C :   -0.044878
  18 H :    0.064206
  19 H :    0.063153
  20 C :   -0.232773
  21 C :   -0.253560
  22 H :    0.140719
  23 H :    0.091339
  24 H :    0.113012
  25 H :    0.098666
  26 C :   -0.238072
  27 H :    0.062373
  28 H :    0.078734
  29 C :   -0.183202
  30 H :    0.074358
  31 H :    0.067742
  32 C :   -0.117468
  33 H :    0.087459
  34 H :    0.100554
  35 H :    0.088465
  36 H :    0.109860
  37 H :    0.086334
  38 H :    0.086521
Sum of atomic charges:    0.0000000

LOEWDIN ATOMIC CHARGES
----------------------
   0 C :   -0.293394
   1 C :   -0.293388
   2 C :   -0.257668
   3 C :   -0.234044
   4 H :    0.161003
   5 H :    0.144417
   6 C :   -0.510614
   7 C :   -0.474708
   8 N :   -0.020002
   9 N :   -0.001959
  10 H :    0.152739
  11 H :    0.140098
  12 H :    0.114658
  13 H :    0.166362
  14 H :    0.155223
  15 F :    0.369614
  16 O :    0.112162
  17 C :   -0.262759
  18 H :    0.141712
  19 H :    0.126606
  20 C :   -0.275768
  21 C :   -0.270283
  22 H :    0.145333
  23 H :    0.141967
  24 H :    0.146498
  25 H :    0.142507
  26 C :   -0.273599
  27 H :    0.125629
  28 H :    0.138922
  29 C :   -0.275946
  30 H :    0.134631
  31 H :    0.135101
  32 C :   -0.270932
  33 H :    0.137142
  34 H :    0.136516
  35 H :    0.137231
  36 H :    0.134749
  37 H :    0.137893
  38 H :    0.136350

  Mayer bond orders larger than 0.100000
B(  0-C ,  1-C ) :   1.0737 B(  0-C , 17-C ) :   0.9554 B(  0-C , 18-H ) :   0.9481
B(  0-C , 19-H ) :   0.9550 B(  1-C ,  7-C ) :   1.6483 B(  1-C , 12-H ) :   1.0030
B(  2-C ,  3-C ) :   0.9851 B(  2-C , 21-C ) :   1.0095 B(  2-C , 24-H ) :   0.9428
B(  2-C , 25-H ) :   0.9427 B(  3-C ,  4-H ) :   0.9247 B(  3-C ,  5-H ) :   0.9540
B(  3-C ,  6-C ) :   0.9995 B(  6-C , 15-F ) :   1.1724 B(  6-C , 16-O ) :   1.9263
B(  7-C ,  8-N ) :   1.1583 B(  7-C ,  9-N ) :   1.2251 B(  8-N , 13-H ) :   0.9126
B(  8-N , 14-H ) :   0.9217 B(  9-N , 10-H ) :   0.9266 B(  9-N , 11-H ) :   0.8485
B( 11-H , 16-O ) :   0.1441 B( 17-C , 26-C ) :   1.0487 B( 17-C , 27-H ) :   0.9298
B( 17-C , 28-H ) :   0.9466 B( 20-C , 21-C ) :   0.9945 B( 20-C , 32-C ) :   1.0051
B( 20-C , 35-H ) :   0.9425 B( 20-C , 36-H ) :   0.9585 B( 21-C , 22-H ) :   0.9542
B( 21-C , 23-H ) :   0.9455 B( 26-C , 29-C ) :   1.0125 B( 26-C , 30-H ) :   0.9383
B( 26-C , 31-H ) :   0.9680 B( 29-C , 32-C ) :   1.0045 B( 29-C , 33-H ) :   0.9487
B( 29-C , 34-H ) :   0.9569 B( 32-C , 37-H ) :   0.9495 B( 32-C , 38-H ) :   0.9486

Dispersion correction           -0.044678808
FINAL SINGLE POINT ENERGY      -755.028992083817

DIPOLE MOMENT
-------------
                                X             Y             Z
Electronic contribution:     11.47102       8.92515       5.92936
Nuclear contribution   :    -11.48003      -8.36271      -6.78621
                        -----------------------------------------
Total Dipole Moment    :     -0.00901       0.56244      -0.85685
                        -----------------------------------------
Magnitude (a.u.)       :      1.02500
Magnitude (Debye)      :      2.60533

Rotational constants in cm-1:     0.020055     0.013548     0.009477
Rotational constants in MHz :   601.234832   406.162779   284.104317

                             ****ORCA TERMINATED NORMALLY****
TOTAL RUN TIME: 0 days 0 hours 0 minutes 27 seconds 489 msec
