                         Program Version 5.0.0 -  RELEASE  -
|  1> !PBE D3BJ RIJCOSX def2-TZVP def2/J TightSCF xyzfile
|  2>
|  3> *xyzfile 0 1 D3.xyz
|  4>
|  5> %MaxCore 64000
|  6>
|  7> %pal nprocs 18
|  8> end
|  9>
| 10> %scf
| 11>   MaxIter 150
| 12> end
| 13>
| 14>
| 15>                          ****END OF INPUT****

CARTESIAN COORDINATES (ANGSTROEM)
---------------------------------
  C      3.913853   -1.658291    3.015134
  N      5.039266   -0.901154    2.492821
  C      4.084215    1.742081   -2.114724
  C      4.265245    2.500518   -0.795890
  H      4.868534    3.392674   -0.981134
  H      3.307640    2.824571   -0.387809
  C      4.982240    1.650257    0.247422
  C      6.210384   -1.417261    2.178244
  N      6.535913   -2.677122    2.556078
  C      7.076754   -0.700820    1.478906
  H      7.954643   -1.121554    1.207554
  H      6.756161    0.106637    0.960278
  H      4.842168    0.017609    2.115191
  H      5.993876   -3.126918    3.282784
  H      7.498441   -2.975482    2.468776
  F      4.368065    1.389270    1.313706
  O      6.128919    1.233512   -0.045620
  C      3.139159   -2.376572    1.910609
  H      3.267235   -0.939401    3.520693
  H      4.247195   -2.355095    3.790065
  C      1.997274    0.430918   -1.399218
  C      3.412746    0.376886   -1.965497
  H      4.047407   -0.246590   -1.326706
  H      3.390774   -0.118719   -2.942839
  H      5.068475    1.598504   -2.565728
  H      3.503356    2.363939   -2.804565
  C      2.399946   -1.389579    1.009490
  H      2.440750   -3.087118    2.362976
  H      3.844475   -2.970462    1.318677
  C      2.070177   -1.936705   -0.372401
  H      1.481611   -1.061542    1.509912
  H      3.008628   -0.490001    0.897451
  C      1.322238   -0.935775   -1.256413
  H      1.472747   -2.850902   -0.283997
  H      3.003539   -2.234041   -0.862535
  H      1.376444    1.058920   -2.047420
  H      2.015341    0.929780   -0.426535
  H      0.316648   -0.787213   -0.848278
  H      1.185611   -1.379252   -2.248613

 Total Charge           Charge          ....    0
 Multiplicity           Mult            ....    1
 Number of Electrons    NEL             ....  126
 Basis Dimension        Dim             ....  634

ORBITAL ENERGIES
----------------

  NO   OCC          E(Eh)            E(eV)
   0   2.0000     -24.345222      -662.4672
   1   2.0000     -18.758430      -510.4428
   2   2.0000     -13.966305      -380.0425
   3   2.0000     -13.965423      -380.0185
   4   2.0000     -10.053829      -273.5786
   5   2.0000      -9.912762      -269.7400
   6   2.0000      -9.908455      -269.6228
   7   2.0000      -9.897652      -269.3288
   8   2.0000      -9.896273      -269.2913
   9   2.0000      -9.883999      -268.9573
  10   2.0000      -9.882161      -268.9073
  11   2.0000      -9.879210      -268.8270
  12   2.0000      -9.875890      -268.7366
  13   2.0000      -9.875623      -268.7294
  14   2.0000      -9.872491      -268.6441
  15   2.0000      -9.757887      -265.5256
  16   2.0000      -1.237148       -33.6645
  17   2.0000      -0.957431       -26.0530
  18   2.0000      -0.869200       -23.6521
  19   2.0000      -0.790729       -21.5168
  20   2.0000      -0.757116       -20.6022
  21   2.0000      -0.733720       -19.9655
  22   2.0000      -0.706422       -19.2227
  23   2.0000      -0.671426       -18.2704
  24   2.0000      -0.647180       -17.6107
  25   2.0000      -0.623764       -16.9735
  26   2.0000      -0.601031       -16.3549
  27   2.0000      -0.580524       -15.7969
  28   2.0000      -0.547639       -14.9020
  29   2.0000      -0.540678       -14.7126
  30   2.0000      -0.523634       -14.2488
  31   2.0000      -0.508368       -13.8334
  32   2.0000      -0.502575       -13.6758
  33   2.0000      -0.484437       -13.1822
  34   2.0000      -0.473728       -12.8908
  35   2.0000      -0.456604       -12.4248
  36   2.0000      -0.439090       -11.9483
  37   2.0000      -0.431222       -11.7342
  38   2.0000      -0.424044       -11.5388
  39   2.0000      -0.411742       -11.2041
  40   2.0000      -0.410147       -11.1607
  41   2.0000      -0.394891       -10.7455
  42   2.0000      -0.383964       -10.4482
  43   2.0000      -0.381758       -10.3882
  44   2.0000      -0.369159       -10.0453
  45   2.0000      -0.355635        -9.6773
  46   2.0000      -0.350427        -9.5356
  47   2.0000      -0.343563        -9.3488
  48   2.0000      -0.328797        -8.9470
  49   2.0000      -0.324854        -8.8397
  50   2.0000      -0.321503        -8.7485
  51   2.0000      -0.320006        -8.7078
  52   2.0000      -0.311377        -8.4730
  53   2.0000      -0.304969        -8.2986
  54   2.0000      -0.300241        -8.1700
  55   2.0000      -0.295030        -8.0282
  56   2.0000      -0.288613        -7.8536
  57   2.0000      -0.279125        -7.5954
  58   2.0000      -0.276111        -7.5134
  59   2.0000      -0.273379        -7.4390
  60   2.0000      -0.223232        -6.0745
  61   2.0000      -0.198381        -5.3982
  62   2.0000      -0.112063        -3.0494
  63   0.0000      -0.076988        -2.0950
  64   0.0000       0.005975         0.1626
  65   0.0000       0.014630         0.3981
  66   0.0000       0.021839         0.5943
  67   0.0000       0.026368         0.7175

MULLIKEN ATOMIC CHARGES
-----------------------
   0 C :   -0.179795
   1 N :   -0.240204
   2 C :   -0.134379
   3 C :   -0.199035
   4 H :    0.133021
   5 H :    0.117045
   6 C :    0.295228
   7 C :    0.287067
   8 N :   -0.441282
   9 C :   -0.528271
  10 H :    0.058961
  11 H :    0.125795
  12 H :    0.210214
  13 H :    0.198141
  14 H :    0.224266
  15 F :   -0.097135
  16 O :   -0.264045
  17 C :   -0.048846
  18 H :    0.100730
  19 H :    0.099168
  20 C :   -0.232849
  21 C :   -0.257310
  22 H :    0.142936
  23 H :    0.092567
  24 H :    0.116270
  25 H :    0.096107
  26 C :   -0.267172
  27 H :    0.077818
  28 H :    0.096905
  29 C :   -0.185342
  30 H :    0.081786
  31 H :    0.059052
  32 C :   -0.118098
  33 H :    0.092250
  34 H :    0.111244
  35 H :    0.091353
  36 H :    0.106608
  37 H :    0.088210
  38 H :    0.091022
Sum of atomic charges:    0.0000000

LOEWDIN ATOMIC CHARGES
----------------------
   0 C :   -0.303131
   1 N :    0.133076
   2 C :   -0.257077
   3 C :   -0.238755
   4 H :    0.160487
   5 H :    0.140817
   6 C :   -0.528616
   7 C :   -0.482134
   8 N :   -0.018431
   9 C :   -0.337991
  10 H :    0.092836
  11 H :    0.085677
  12 H :    0.171692
  13 H :    0.151489
  14 H :    0.171440
  15 F :    0.348822
  16 O :    0.137470
  17 C :   -0.271580
  18 H :    0.134807
  19 H :    0.126361
  20 C :   -0.275677
  21 C :   -0.269996
  22 H :    0.145876
  23 H :    0.142282
  24 H :    0.148106
  25 H :    0.141587
  26 C :   -0.277248
  27 H :    0.133053
  28 H :    0.143888
  29 C :   -0.273996
  30 H :    0.136681
  31 H :    0.132194
  32 C :   -0.269978
  33 H :    0.138263
  34 H :    0.139645
  35 H :    0.138284
  36 H :    0.133664
  37 H :    0.137985
  38 H :    0.138128

  Mayer bond orders larger than 0.100000
B(  0-C ,  1-N ) :   1.0254 B(  0-C , 17-C ) :   0.9384 B(  0-C , 18-H ) :   0.9638
B(  0-C , 19-H ) :   0.9659 B(  1-N ,  7-C ) :   1.2365 B(  1-N , 12-H ) :   0.8984
B(  2-C ,  3-C ) :   0.9878 B(  2-C , 21-C ) :   1.0115 B(  2-C , 24-H ) :   0.9410
B(  2-C , 25-H ) :   0.9429 B(  3-C ,  4-H ) :   0.9274 B(  3-C ,  5-H ) :   0.9508
B(  3-C ,  6-C ) :   1.0022 B(  6-C , 15-F ) :   1.0926 B(  6-C , 16-O ) :   2.0042
B(  7-C ,  8-N ) :   1.1365 B(  7-C ,  9-C ) :   1.6316 B(  8-N , 13-H ) :   0.9145
B(  8-N , 14-H ) :   0.9202 B(  9-C , 10-H ) :   0.9893 B(  9-C , 11-H ) :   0.9862
B( 17-C , 26-C ) :   1.0177 B( 17-C , 27-H ) :   0.9313 B( 17-C , 28-H ) :   0.9450
B( 20-C , 21-C ) :   0.9918 B( 20-C , 32-C ) :   1.0004 B( 20-C , 35-H ) :   0.9427
B( 20-C , 36-H ) :   0.9610 B( 21-C , 22-H ) :   0.9535 B( 21-C , 23-H ) :   0.9461
B( 26-C , 29-C ) :   1.0133 B( 26-C , 30-H ) :   0.9374 B( 26-C , 31-H ) :   0.9763
B( 29-C , 32-C ) :   1.0046 B( 29-C , 33-H ) :   0.9498 B( 29-C , 34-H ) :   0.9562
B( 32-C , 37-H ) :   0.9511 B( 32-C , 38-H ) :   0.9484

Dispersion correction           -0.044513417
FINAL SINGLE POINT ENERGY      -755.006100344136

DIPOLE MOMENT
-------------
                                X             Y             Z
Electronic contribution:      9.59660       8.55483       6.79305
Nuclear contribution   :    -11.12616      -8.32792      -6.96231
                        -----------------------------------------
Total Dipole Moment    :     -1.52955       0.22691      -0.16927
                        -----------------------------------------
Magnitude (a.u.)       :      1.55553
Magnitude (Debye)      :      3.95384

Rotational constants in cm-1:     0.020226     0.013574     0.009520
Rotational constants in MHz :   606.360011   406.923773   285.390769

                             ****ORCA TERMINATED NORMALLY****
TOTAL RUN TIME: 0 days 0 hours 0 minutes 28 seconds 335 msec
