                         Program Version 5.0.0 -  RELEASE  -
|  1> !PBE D3BJ RIJCOSX def2-TZVP def2/J TightSCF xyzfile
|  2>
|  3> *xyzfile 0 1 D5.xyz
|  4>
|  5> %MaxCore 64000
|  6>
|  7> %pal nprocs 18
|  8> end
|  9>
| 10> %scf
| 11>   MaxIter 150
| 12> end
| 13>
| 14>
| 15>                          ****END OF INPUT****

CARTESIAN COORDINATES (ANGSTROEM)
---------------------------------
  C      3.913853   -1.658291    3.015134
  N      5.039266   -0.901154    2.492821
  C      4.084215    1.742081   -2.114724
  C      4.265245    2.500518   -0.795890
  H      4.868534    3.392674   -0.981134
  H      3.307640    2.824571   -0.387809
  C      4.982240    1.650257    0.247422
  C      6.210384   -1.417261    2.178244
  C      6.535913   -2.677122    2.556078
  N      7.076754   -0.700820    1.478906
  H      7.954643   -1.121554    1.207554
  H      6.756161    0.106637    0.960278
  H      4.842168    0.017609    2.115191
  H      5.993876   -3.126918    3.282784
  H      7.498441   -2.975482    2.468776
  O      4.368065    1.389270    1.313706
  F      6.128919    1.233512   -0.045620
  C      3.139159   -2.376572    1.910609
  H      3.267235   -0.939401    3.520693
  H      4.247195   -2.355095    3.790065
  C      1.997274    0.430918   -1.399218
  C      3.412746    0.376886   -1.965497
  H      4.047407   -0.246590   -1.326706
  H      3.390774   -0.118719   -2.942839
  H      5.068475    1.598504   -2.565728
  H      3.503356    2.363939   -2.804565
  C      2.399946   -1.389579    1.009490
  H      2.440750   -3.087118    2.362976
  H      3.844475   -2.970462    1.318677
  C      2.070177   -1.936705   -0.372401
  H      1.481611   -1.061542    1.509912
  H      3.008628   -0.490001    0.897451
  C      1.322238   -0.935775   -1.256413
  H      1.472747   -2.850902   -0.283997
  H      3.003539   -2.234041   -0.862535
  H      1.376444    1.058920   -2.047420
  H      2.015341    0.929780   -0.426535
  H      0.316648   -0.787213   -0.848278
  H      1.185611   -1.379252   -2.248613

 Total Charge           Charge          ....    0
 Multiplicity           Mult            ....    1
 Number of Electrons    NEL             ....  126
 Basis Dimension        Dim             ....  634

ORBITAL ENERGIES
----------------

  NO   OCC          E(Eh)            E(eV)
   0   2.0000     -24.363629      -662.9680
   1   2.0000     -18.785791      -511.1874
   2   2.0000     -13.961986      -379.9249
   3   2.0000     -13.956010      -379.7623
   4   2.0000     -10.074255      -274.1344
   5   2.0000      -9.925746      -270.0933
   6   2.0000      -9.909768      -269.6585
   7   2.0000      -9.902283      -269.4548
   8   2.0000      -9.893316      -269.2108
   9   2.0000      -9.892940      -269.2006
  10   2.0000      -9.883504      -268.9438
  11   2.0000      -9.877654      -268.7846
  12   2.0000      -9.870592      -268.5925
  13   2.0000      -9.864020      -268.4136
  14   2.0000      -9.860064      -268.3060
  15   2.0000      -9.778321      -266.0816
  16   2.0000      -1.256302       -34.1857
  17   2.0000      -0.981206       -26.7000
  18   2.0000      -0.868545       -23.6343
  19   2.0000      -0.792486       -21.5646
  20   2.0000      -0.767458       -20.8836
  21   2.0000      -0.734223       -19.9792
  22   2.0000      -0.700740       -19.0681
  23   2.0000      -0.672949       -18.3119
  24   2.0000      -0.640283       -17.4230
  25   2.0000      -0.628104       -17.0916
  26   2.0000      -0.614606       -16.7243
  27   2.0000      -0.587137       -15.9768
  28   2.0000      -0.557123       -15.1601
  29   2.0000      -0.534532       -14.5454
  30   2.0000      -0.525493       -14.2994
  31   2.0000      -0.523378       -14.2418
  32   2.0000      -0.498562       -13.5666
  33   2.0000      -0.493992       -13.4422
  34   2.0000      -0.481623       -13.1056
  35   2.0000      -0.454090       -12.3564
  36   2.0000      -0.450333       -12.2542
  37   2.0000      -0.438698       -11.9376
  38   2.0000      -0.435264       -11.8441
  39   2.0000      -0.417189       -11.3523
  40   2.0000      -0.400257       -10.8916
  41   2.0000      -0.397176       -10.8077
  42   2.0000      -0.382410       -10.4059
  43   2.0000      -0.375434       -10.2161
  44   2.0000      -0.368534       -10.0283
  45   2.0000      -0.366440        -9.9713
  46   2.0000      -0.355211        -9.6658
  47   2.0000      -0.346085        -9.4175
  48   2.0000      -0.342019        -9.3068
  49   2.0000      -0.332162        -9.0386
  50   2.0000      -0.324224        -8.8226
  51   2.0000      -0.317577        -8.6417
  52   2.0000      -0.312894        -8.5143
  53   2.0000      -0.307160        -8.3582
  54   2.0000      -0.299693        -8.1551
  55   2.0000      -0.295843        -8.0503
  56   2.0000      -0.284164        -7.7325
  57   2.0000      -0.275181        -7.4881
  58   2.0000      -0.271870        -7.3980
  59   2.0000      -0.268512        -7.3066
  60   2.0000      -0.259342        -7.0570
  61   2.0000      -0.189532        -5.1574
  62   2.0000      -0.118093        -3.2135
  63   0.0000      -0.094502        -2.5715
  64   0.0000      -0.004640        -0.1263
  65   0.0000       0.021049         0.5728
  66   0.0000       0.021259         0.5785
  67   0.0000       0.027739         0.7548

MULLIKEN ATOMIC CHARGES
-----------------------
   0 C :   -0.120190
   1 N :   -0.245344
   2 C :   -0.171658
   3 C :   -0.188872
   4 H :    0.129943
   5 H :    0.141545
   6 C :    0.318647
   7 C :    0.267585
   8 C :   -0.513186
   9 N :   -0.430776
  10 H :    0.223834
  11 H :    0.199694
  12 H :    0.201239
  13 H :    0.077393
  14 H :    0.068733
  15 O :   -0.325684
  16 F :   -0.084262
  17 C :   -0.068949
  18 H :    0.094916
  19 H :    0.109258
  20 C :   -0.235375
  21 C :   -0.231168
  22 H :    0.120948
  23 H :    0.096987
  24 H :    0.113489
  25 H :    0.105109
  26 C :   -0.293299
  27 H :    0.079918
  28 H :    0.104047
  29 C :   -0.180893
  30 H :    0.072645
  31 H :    0.096265
  32 C :   -0.121491
  33 H :    0.092604
  34 H :    0.102413
  35 H :    0.090390
  36 H :    0.125441
  37 H :    0.089034
  38 H :    0.089070
Sum of atomic charges:    0.0000000

LOEWDIN ATOMIC CHARGES
----------------------
   0 C :   -0.282424
   1 N :    0.139992
   2 C :   -0.264861
   3 C :   -0.232120
   4 H :    0.155526
   5 H :    0.156337
   6 C :   -0.526395
   7 C :   -0.483201
   8 C :   -0.360674
   9 N :   -0.005448
  10 H :    0.172402
  11 H :    0.138532
  12 H :    0.152636
  13 H :    0.095252
  14 H :    0.091306
  15 O :    0.102056
  16 F :    0.364924
  17 C :   -0.268676
  18 H :    0.134625
  19 H :    0.134966
  20 C :   -0.273768
  21 C :   -0.269464
  22 H :    0.141773
  23 H :    0.142967
  24 H :    0.142328
  25 H :    0.144600
  26 C :   -0.278545
  27 H :    0.134138
  28 H :    0.145921
  29 C :   -0.275320
  30 H :    0.135589
  31 H :    0.136522
  32 C :   -0.270082
  33 H :    0.138281
  34 H :    0.136886
  35 H :    0.137972
  36 H :    0.139691
  37 H :    0.138898
  38 H :    0.136860

  Mayer bond orders larger than 0.100000
B(  0-C ,  1-N ) :   1.0199 B(  0-C , 17-C ) :   0.9766 B(  0-C , 18-H ) :   0.9598
B(  0-C , 19-H ) :   0.9505 B(  1-N ,  7-C ) :   1.2517 B(  1-N , 12-H ) :   0.8590
B(  2-C ,  3-C ) :   0.9699 B(  2-C , 21-C ) :   0.9920 B(  2-C , 24-H ) :   0.9541
B(  2-C , 25-H ) :   0.9410 B(  3-C ,  4-H ) :   0.9231 B(  3-C ,  5-H ) :   0.9613
B(  3-C ,  6-C ) :   1.0113 B(  6-C , 15-O ) :   1.9181 B(  6-C , 16-F ) :   1.1078
B(  7-C ,  8-C ) :   1.6095 B(  7-C ,  9-N ) :   1.1880 B(  8-C , 13-H ) :   0.9907
B(  8-C , 14-H ) :   0.9795 B(  9-N , 10-H ) :   0.9221 B(  9-N , 11-H ) :   0.8955
B( 12-H , 15-O ) :   0.1251 B( 17-C , 26-C ) :   1.0145 B( 17-C , 27-H ) :   0.9389
B( 17-C , 28-H ) :   0.9406 B( 20-C , 21-C ) :   0.9942 B( 20-C , 32-C ) :   1.0011
B( 20-C , 35-H ) :   0.9412 B( 20-C , 36-H ) :   0.9586 B( 21-C , 22-H ) :   0.9562
B( 21-C , 23-H ) :   0.9457 B( 26-C , 29-C ) :   1.0047 B( 26-C , 30-H ) :   0.9360
B( 26-C , 31-H ) :   0.9796 B( 29-C , 32-C ) :   1.0035 B( 29-C , 33-H ) :   0.9501
B( 29-C , 34-H ) :   0.9576 B( 32-C , 37-H ) :   0.9496 B( 32-C , 38-H ) :   0.9499

Dispersion correction           -0.044594106
FINAL SINGLE POINT ENERGY      -755.026057878424

DIPOLE MOMENT
-------------
                                X             Y             Z
Electronic contribution:     12.90311      10.19418       3.39388
Nuclear contribution   :    -13.35170      -8.48261      -5.12969
                        -----------------------------------------
Total Dipole Moment    :     -0.44859       1.71157      -1.73581
                        -----------------------------------------
Magnitude (a.u.)       :      2.47865
Magnitude (Debye)      :      6.30024

Rotational constants in cm-1:     0.019886     0.013843     0.009504
Rotational constants in MHz :   596.157485   415.004628   284.931121

                             ****ORCA TERMINATED NORMALLY****
TOTAL RUN TIME: 0 days 0 hours 0 minutes 29 seconds 814 msec
