                         Program Version 5.0.0 -  RELEASE  -
|  1> !M062X D3Zero RIJCOSX def2-TZVP def2/J TightSCF
|  2> *xyz -1 1
|  3> C          4.08422        1.74208       -2.11472
|  4> C          4.26524        2.50052       -0.79589
|  5> H          4.86853        3.39267       -0.98113
|  6> H          3.30764        2.82457       -0.38781
|  7> C          4.98224        1.65026        0.24742
|  8> O          4.36806        1.38927        1.31371
|  9> O          6.12892        1.23351       -0.04562
| 10> H          3.57911        2.36849       -2.81997
| 11> H          3.50424        0.85965       -1.94198
| 12> H          5.04288        1.46841       -2.50327
| 13> *
| 14> %MaxCore 64000
| 15> %pal nprocs 8
| 16> end
| 17> %scf
| 18>   MaxIter 150
| 19> end
| 20>
| 21>
| 22>                          ****END OF INPUT****

CARTESIAN COORDINATES (ANGSTROEM)
---------------------------------
  C      4.084220    1.742080   -2.114720
  C      4.265240    2.500520   -0.795890
  H      4.868530    3.392670   -0.981130
  H      3.307640    2.824570   -0.387810
  C      4.982240    1.650260    0.247420
  O      4.368060    1.389270    1.313710
  O      6.128920    1.233510   -0.045620
  H      3.579110    2.368490   -2.819970
  H      3.504240    0.859650   -1.941980
  H      5.042880    1.468410   -2.503270

 Total Charge           Charge          ....   -1
 Multiplicity           Mult            ....    1
 Number of Electrons    NEL             ....   40
 Basis Dimension        Dim             ....  185

ORBITAL ENERGIES
----------------

  NO   OCC          E(Eh)            E(eV)
   0   2.0000     -19.349547      -526.5280
   1   2.0000     -19.349503      -526.5268
   2   2.0000     -10.413267      -283.3594
   3   2.0000     -10.368159      -282.1319
   4   2.0000     -10.355219      -281.7798
   5   2.0000      -0.934777       -25.4366
   6   2.0000      -0.835753       -22.7420
   7   2.0000      -0.699934       -19.0462
   8   2.0000      -0.559246       -15.2179
   9   2.0000      -0.395538       -10.7631
  10   2.0000      -0.359584        -9.7848
  11   2.0000      -0.332714        -9.0536
  12   2.0000      -0.296443        -8.0666
  13   2.0000      -0.280391        -7.6298
  14   2.0000      -0.275298        -7.4912
  15   2.0000      -0.240606        -6.5472
  16   2.0000      -0.225128        -6.1261
  17   2.0000      -0.105452        -2.8695
  18   2.0000      -0.104296        -2.8380
  19   2.0000      -0.097126        -2.6429
  20   0.0000       0.216826         5.9001
  21   0.0000       0.258029         7.0213
  22   0.0000       0.279829         7.6145
  23   0.0000       0.281783         7.6677
  24   0.0000       0.298121         8.1123

MULLIKEN ATOMIC CHARGES
-----------------------
   0 C :   -0.402783
   1 C :   -0.230646
   2 H :    0.075897
   3 H :    0.080031
   4 C :    0.277368
   5 O :   -0.561139
   6 O :   -0.564218
   7 H :    0.082696
   8 H :    0.116288
   9 H :    0.126507
Sum of atomic charges:   -1.0000000

LOEWDIN ATOMIC CHARGES
----------------------
   0 C :   -0.325571
   1 C :   -0.291251
   2 H :    0.123407
   3 H :    0.120021
   4 C :   -0.694715
   5 O :   -0.127388
   6 O :   -0.123300
   7 H :    0.094629
   8 H :    0.110337
   9 H :    0.113831

  Mayer bond orders larger than 0.100000
B(  0-C ,  1-C ) :   0.9326 B(  0-C ,  7-H ) :   0.9771 B(  0-C ,  8-H ) :   0.9813
B(  0-C ,  9-H ) :   0.9711 B(  1-C ,  2-H ) :   0.9677 B(  1-C ,  3-H ) :   0.9683
B(  1-C ,  4-C ) :   0.9370 B(  4-C ,  5-O ) :   1.8455 B(  4-C ,  6-O ) :   1.8111

Dispersion correction           -0.000085960
FINAL SINGLE POINT ENERGY      -267.826860965399

DIPOLE MOMENT
-------------
                                X             Y             Z
Electronic contribution:      2.43407      -1.47383       5.12849
Nuclear contribution   :     -3.31311       2.28398      -6.76358
                        -----------------------------------------
Total Dipole Moment    :     -0.87904       0.81016      -1.63509
                        -----------------------------------------
Magnitude (a.u.)       :      2.02548
Magnitude (Debye)      :      5.14836

Rotational constants in cm-1:     0.309287     0.135287     0.107346
Rotational constants in MHz :  9272.201029  4055.789113  3218.155789

                             ****ORCA TERMINATED NORMALLY****
TOTAL RUN TIME: 0 days 0 hours 0 minutes 16 seconds 781 msec
