                         Program Version 5.0.0 -  RELEASE  -
|  1> !M062X D3Zero RIJCOSX def2-TZVP def2/J TightSCF
|  2> *xyz 1 1
|  3> C          3.91385       -1.65829        3.01513
|  4> N          5.03927       -0.90115        2.49282
|  5> C          6.21038       -1.41726        2.17824
|  6> N          6.53591       -2.67712        2.55608
|  7> N          7.07675       -0.70082        1.47891
|  8> H          7.95464       -1.12155        1.20755
|  9> H          6.75616        0.10664        0.96028
| 10> H          4.84217        0.01761        2.11519
| 11> H          5.99388       -3.12692        3.28278
| 12> C          3.13916       -2.37657        1.91061
| 13> H          3.26723       -0.93940        3.52069
| 14> H          4.24720       -2.35509        3.79006
| 15> H          7.49844       -2.97548        2.46878
| 16> H          2.82969       -1.66654        1.17238
| 17> H          2.27790       -2.85264        2.33072
| 18> H          3.76754       -3.11338        1.45548
| 19> *
| 20> %MaxCore 64000
| 21> %pal nprocs 8
| 22> end
| 23> %scf
| 24>   MaxIter 150
| 25> end
| 26>
| 27>
| 28>                          ****END OF INPUT****

CARTESIAN COORDINATES (ANGSTROEM)
---------------------------------
  C      3.913850   -1.658290    3.015130
  N      5.039270   -0.901150    2.492820
  C      6.210380   -1.417260    2.178240
  N      6.535910   -2.677120    2.556080
  N      7.076750   -0.700820    1.478910
  H      7.954640   -1.121550    1.207550
  H      6.756160    0.106640    0.960280
  H      4.842170    0.017610    2.115190
  H      5.993880   -3.126920    3.282780
  C      3.139160   -2.376570    1.910610
  H      3.267230   -0.939400    3.520690
  H      4.247200   -2.355090    3.790060
  H      7.498440   -2.975480    2.468780
  H      2.829690   -1.666540    1.172380
  H      2.277900   -2.852640    2.330720
  H      3.767540   -3.113380    1.455480

 Total Charge           Charge          ....    1
 Multiplicity           Mult            ....    1
 Number of Electrons    NEL             ....   48
 Basis Dimension        Dim             ....  246

ORBITAL ENERGIES
----------------

  NO   OCC          E(Eh)            E(eV)
   0   2.0000     -14.973994      -407.4631
   1   2.0000     -14.971851      -407.4048
   2   2.0000     -14.969799      -407.3489
   3   2.0000     -10.877936      -296.0037
   4   2.0000     -10.745255      -292.3933
   5   2.0000     -10.669479      -290.3313
   6   2.0000      -1.331570       -36.2339
   7   2.0000      -1.214489       -33.0479
   8   2.0000      -1.196675       -32.5632
   9   2.0000      -1.027668       -27.9643
  10   2.0000      -0.929618       -25.2962
  11   2.0000      -0.886649       -24.1270
  12   2.0000      -0.864394       -23.5214
  13   2.0000      -0.821139       -22.3443
  14   2.0000      -0.763185       -20.7673
  15   2.0000      -0.757146       -20.6030
  16   2.0000      -0.727500       -19.7963
  17   2.0000      -0.702959       -19.1285
  18   2.0000      -0.670857       -18.2549
  19   2.0000      -0.628985       -17.1156
  20   2.0000      -0.596892       -16.2422
  21   2.0000      -0.576302       -15.6820
  22   2.0000      -0.544962       -14.8292
  23   2.0000      -0.511914       -13.9299
  24   0.0000      -0.128616        -3.4998
  25   0.0000      -0.121999        -3.3198
  26   0.0000      -0.091909        -2.5010
  27   0.0000      -0.082053        -2.2328
  28   0.0000      -0.059269        -1.6128

MULLIKEN ATOMIC CHARGES
-----------------------
   0 C :   -0.241482
   1 N :   -0.309337
   2 C :    0.584544
   3 N :   -0.482534
   4 N :   -0.476773
   5 H :    0.296252
   6 H :    0.295930
   7 H :    0.273461
   8 H :    0.296048
   9 C :   -0.355372
  10 H :    0.191526
  11 H :    0.153792
  12 H :    0.289573
  13 H :    0.154649
  14 H :    0.177874
  15 H :    0.151848
Sum of atomic charges:    1.0000000

LOEWDIN ATOMIC CHARGES
----------------------
   0 C :   -0.283595
   1 N :    0.170013
   2 C :   -0.397640
   3 N :    0.044677
   4 N :    0.062937
   5 H :    0.200678
   6 H :    0.201102
   7 H :    0.214173
   8 H :    0.195194
   9 C :   -0.282379
  10 H :    0.152868
  11 H :    0.138347
  12 H :    0.197184
  13 H :    0.126462
  14 H :    0.136413
  15 H :    0.123566

  Mayer bond orders larger than 0.100000
B(  0-C ,  1-N ) :   0.8616 B(  0-C ,  9-C ) :   0.9378 B(  0-C , 10-H ) :   0.9608
B(  0-C , 11-H ) :   0.9768 B(  1-N ,  2-C ) :   1.3782 B(  1-N ,  7-H ) :   0.9040
B(  2-C ,  3-N ) :   1.2692 B(  2-C ,  4-N ) :   1.2853 B(  3-N ,  8-H ) :   0.8884
B(  3-N , 12-H ) :   0.9007 B(  4-N ,  5-H ) :   0.8990 B(  4-N ,  6-H ) :   0.8986
B(  9-C , 13-H ) :   0.9645 B(  9-C , 14-H ) :   0.9695 B(  9-C , 15-H ) :   0.9555

Dispersion correction           -0.000318592
FINAL SINGLE POINT ENERGY      -284.370864738958

DIPOLE MOMENT
-------------
                                X             Y             Z
Electronic contribution:      4.70517       1.91235       0.07246
Nuclear contribution   :     -3.67981      -1.62355      -0.28562
                        -----------------------------------------
Total Dipole Moment    :      1.02536       0.28880      -0.21316
                        -----------------------------------------
Magnitude (a.u.)       :      1.08637
Magnitude (Debye)      :      2.76134

Rotational constants in cm-1:     0.222027     0.074735     0.065694
Rotational constants in MHz :  6656.200457  2240.503315  1969.451902

                             ****ORCA TERMINATED NORMALLY****
TOTAL RUN TIME: 0 days 0 hours 0 minutes 24 seconds 377 msec
