                         Program Version 5.0.0 -  RELEASE  -
|  1> !M062X D3Zero RIJCOSX def2-TZVP def2/J TightSCF
|  2> *xyz 0 1
|  3> C          4.08422        1.74208       -2.11472
|  4> C          4.26524        2.50052       -0.79589
|  5> H          4.86853        3.39267       -0.98113
|  6> H          3.30764        2.82457       -0.38781
|  7> C          4.98224        1.65026        0.24742
|  8> F          4.36806        1.38927        1.31371
|  9> O          6.12892        1.23351       -0.04562
| 10> H          3.57911        2.36849       -2.81997
| 11> H          3.50424        0.85965       -1.94198
| 12> H          5.04288        1.46841       -2.50327
| 13> *
| 14> %MaxCore 64000
| 15> %pal nprocs 8
| 16> end
| 17> %scf
| 18>   MaxIter 150
| 19> end
| 20>
| 21>
| 22>                          ****END OF INPUT****

CARTESIAN COORDINATES (ANGSTROEM)
---------------------------------
  C      4.084220    1.742080   -2.114720
  C      4.265240    2.500520   -0.795890
  H      4.868530    3.392670   -0.981130
  H      3.307640    2.824570   -0.387810
  C      4.982240    1.650260    0.247420
  F      4.368060    1.389270    1.313710
  O      6.128920    1.233510   -0.045620
  H      3.579110    2.368490   -2.819970
  H      3.504240    0.859650   -1.941980
  H      5.042880    1.468410   -2.503270

 Total Charge           Charge          ....    0
 Multiplicity           Mult            ....    1
 Number of Electrons    NEL             ....   40
 Basis Dimension        Dim             ....  185

ORBITAL ENERGIES
----------------

  NO   OCC          E(Eh)            E(eV)
   0   2.0000     -25.313692      -688.8206
   1   2.0000     -19.632974      -534.2404
   2   2.0000     -10.719299      -291.6869
   3   2.0000     -10.567657      -287.5606
   4   2.0000     -10.540162      -286.8124
   5   2.0000      -1.462473       -39.7959
   6   2.0000      -1.156106       -31.4592
   7   2.0000      -0.901376       -24.5277
   8   2.0000      -0.787103       -21.4181
   9   2.0000      -0.731185       -19.8965
  10   2.0000      -0.642717       -17.4892
  11   2.0000      -0.630210       -17.1489
  12   2.0000      -0.594384       -16.1740
  13   2.0000      -0.538212       -14.6455
  14   2.0000      -0.511048       -13.9063
  15   2.0000      -0.467526       -12.7220
  16   2.0000      -0.448956       -12.2167
  17   2.0000      -0.440160       -11.9774
  18   2.0000      -0.413541       -11.2530
  19   2.0000      -0.370775       -10.0893
  20   0.0000       0.014909         0.4057
  21   0.0000       0.066771         1.8169
  22   0.0000       0.104564         2.8453
  23   0.0000       0.119677         3.2566
  24   0.0000       0.130364         3.5474

MULLIKEN ATOMIC CHARGES
-----------------------
   0 C :   -0.409185
   1 C :   -0.279100
   2 H :    0.156955
   3 H :    0.138957
   4 C :    0.414858
   5 F :   -0.115389
   6 O :   -0.351202
   7 H :    0.141379
   8 H :    0.140487
   9 H :    0.162240
Sum of atomic charges:   -0.0000000

LOEWDIN ATOMIC CHARGES
----------------------
   0 C :   -0.286194
   1 C :   -0.260019
   2 H :    0.156339
   3 H :    0.139815
   4 C :   -0.488277
   5 F :    0.311886
   6 O :    0.058523
   7 H :    0.120112
   8 H :    0.120919
   9 H :    0.126897

  Mayer bond orders larger than 0.100000
B(  0-C ,  1-C ) :   0.9423 B(  0-C ,  7-H ) :   0.9729 B(  0-C ,  8-H ) :   0.9717
B(  0-C ,  9-H ) :   0.9659 B(  1-C ,  2-H ) :   0.9502 B(  1-C ,  3-H ) :   0.9655
B(  1-C ,  4-C ) :   0.9811 B(  4-C ,  5-F ) :   1.1410 B(  4-C ,  6-O ) :   2.0371

Dispersion correction           -0.000089185
FINAL SINGLE POINT ENERGY      -292.393417718389

DIPOLE MOMENT
-------------
                                X             Y             Z
Electronic contribution:      1.90900      -2.03068       8.12166
Nuclear contribution   :     -2.87511       2.61564      -8.50037
                        -----------------------------------------
Total Dipole Moment    :     -0.96610       0.58496      -0.37871
                        -----------------------------------------
Magnitude (a.u.)       :      1.19120
Magnitude (Debye)      :      3.02778

Rotational constants in cm-1:     0.297822     0.128965     0.102219
Rotational constants in MHz :  8928.481997  3866.271686  3064.463504

                             ****ORCA TERMINATED NORMALLY****
TOTAL RUN TIME: 0 days 0 hours 0 minutes 17 seconds 337 msec
