                         Program Version 5.0.0 -  RELEASE  -
|  1> !M062X D3Zero RIJCOSX def2-TZVP def2/J TightSCF
|  2> *xyz 0 1
|  3> C          3.91385       -1.65829        3.01513
|  4> C          5.03927       -0.90115        2.49282
|  5> C          6.21038       -1.41726        2.17824
|  6> N          6.53591       -2.67712        2.55608
|  7> N          7.07675       -0.70082        1.47891
|  8> H          7.95464       -1.12155        1.20755
|  9> H          6.75616        0.10664        0.96028
| 10> H          4.84217        0.01761        2.11519
| 11> H          5.99388       -3.12692        3.28278
| 12> C          3.13916       -2.37657        1.91061
| 13> H          3.26723       -0.93940        3.52069
| 14> H          4.24720       -2.35509        3.79006
| 15> H          7.49844       -2.97548        2.46878
| 16> H          2.82969       -1.66654        1.17238
| 17> H          2.27790       -2.85264        2.33072
| 18> H          3.76754       -3.11338        1.45548
| 19> *
| 20> %MaxCore 64000
| 21> %pal nprocs 8
| 22> end
| 23> %scf
| 24>   MaxIter 150
| 25> end
| 26>
| 27>
| 28>                          ****END OF INPUT****

CARTESIAN COORDINATES (ANGSTROEM)
---------------------------------
  C      3.913850   -1.658290    3.015130
  C      5.039270   -0.901150    2.492820
  C      6.210380   -1.417260    2.178240
  N      6.535910   -2.677120    2.556080
  N      7.076750   -0.700820    1.478910
  H      7.954640   -1.121550    1.207550
  H      6.756160    0.106640    0.960280
  H      4.842170    0.017610    2.115190
  H      5.993880   -3.126920    3.282780
  C      3.139160   -2.376570    1.910610
  H      3.267230   -0.939400    3.520690
  H      4.247200   -2.355090    3.790060
  H      7.498440   -2.975480    2.468780
  H      2.829690   -1.666540    1.172380
  H      2.277900   -2.852640    2.330720
  H      3.767540   -3.113380    1.455480

 Total Charge           Charge          ....    0
 Multiplicity           Mult            ....    1
 Number of Electrons    NEL             ....   48
 Basis Dimension        Dim             ....  246

ORBITAL ENERGIES
----------------

  NO   OCC          E(Eh)            E(eV)
   0   2.0000     -14.746190      -401.2642
   1   2.0000     -14.743736      -401.1974
   2   2.0000     -10.579070      -287.8711
   3   2.0000     -10.507790      -285.9315
   4   2.0000     -10.495507      -285.5973
   5   2.0000     -10.455414      -284.5063
   6   2.0000      -1.070347       -29.1256
   7   2.0000      -0.973275       -26.4842
   8   2.0000      -0.871935       -23.7266
   9   2.0000      -0.785656       -21.3788
  10   2.0000      -0.701187       -19.0803
  11   2.0000      -0.654397       -17.8070
  12   2.0000      -0.613408       -16.6917
  13   2.0000      -0.583641       -15.8817
  14   2.0000      -0.540313       -14.7027
  15   2.0000      -0.505558       -13.7569
  16   2.0000      -0.487014       -13.2523
  17   2.0000      -0.458203       -12.4683
  18   2.0000      -0.446738       -12.1564
  19   2.0000      -0.415266       -11.3000
  20   2.0000      -0.387793       -10.5524
  21   2.0000      -0.379394       -10.3238
  22   2.0000      -0.332986        -9.0610
  23   2.0000      -0.212049        -5.7701
  24   0.0000       0.049897         1.3578
  25   0.0000       0.081765         2.2249
  26   0.0000       0.088356         2.4043
  27   0.0000       0.112087         3.0500
  28   0.0000       0.116372         3.1667

MULLIKEN ATOMIC CHARGES
-----------------------
   0 C :   -0.326812
   1 C :   -0.331435
   2 C :    0.474908
   3 N :   -0.575028
   4 N :   -0.567211
   5 H :    0.231366
   6 H :    0.256595
   7 H :    0.108269
   8 H :    0.256318
   9 C :   -0.355011
  10 H :    0.128657
  11 H :    0.094495
  12 H :    0.229105
  13 H :    0.124214
  14 H :    0.120220
  15 H :    0.131350
Sum of atomic charges:    0.0000000

LOEWDIN ATOMIC CHARGES
----------------------
   0 C :   -0.310743
   1 C :   -0.280875
   2 C :   -0.454371
   3 N :   -0.035817
   4 N :   -0.020378
   5 H :    0.163629
   6 H :    0.179753
   7 H :    0.121746
   8 H :    0.173969
   9 C :   -0.303394
  10 H :    0.139952
  11 H :    0.126049
  12 H :    0.161752
  13 H :    0.114899
  14 H :    0.108607
  15 H :    0.115223

  Mayer bond orders larger than 0.100000
B(  0-C ,  1-C ) :   1.0109 B(  0-C ,  9-C ) :   0.9138 B(  0-C , 10-H ) :   0.9983
B(  0-C , 11-H ) :   0.9835 B(  1-C ,  2-C ) :   1.6779 B(  1-C ,  7-H ) :   1.0110
B(  2-C ,  3-N ) :   1.0557 B(  2-C ,  4-N ) :   1.0594 B(  3-N ,  8-H ) :   0.9184
B(  3-N , 12-H ) :   0.9335 B(  4-N ,  5-H ) :   0.9359 B(  4-N ,  6-H ) :   0.9258
B(  9-C , 13-H ) :   0.9781 B(  9-C , 14-H ) :   0.9809 B(  9-C , 15-H ) :   0.9730

Dispersion correction           -0.000316780
FINAL SINGLE POINT ENERGY      -267.890489198548

DIPOLE MOMENT
-------------
                                X             Y             Z
Electronic contribution:      4.65549       1.21663      -0.04460
Nuclear contribution   :     -3.74303      -1.46908      -0.23637
                        -----------------------------------------
Total Dipole Moment    :      0.91246      -0.25245      -0.28097
                        -----------------------------------------
Magnitude (a.u.)       :      0.98755
Magnitude (Debye)      :      2.51016

Rotational constants in cm-1:     0.225937     0.074877     0.065953
Rotational constants in MHz :  6773.424301  2244.750632  1977.214101

                             ****ORCA TERMINATED NORMALLY****
TOTAL RUN TIME: 0 days 0 hours 0 minutes 17 seconds 445 msec
