                         Program Version 5.0.0 -  RELEASE  -
|  1> !M062X D3Zero RIJCOSX def2-TZVP def2/J TightSCF
|  2> *xyz 0 1
|  3> C          4.08422        1.74208       -2.11472
|  4> C          4.26524        2.50052       -0.79589
|  5> H          4.86853        3.39267       -0.98113
|  6> H          3.30764        2.82457       -0.38781
|  7> C          4.98224        1.65026        0.24742
|  8> O          4.36806        1.38927        1.31371
|  9> F          6.12892        1.23351       -0.04562
| 10> H          3.57911        2.36849       -2.81997
| 11> H          3.50424        0.85965       -1.94198
| 12> H          5.04288        1.46841       -2.50327
| 13> *
| 14> %MaxCore 64000
| 15> %pal nprocs 8
| 16> end
| 17> %scf
| 18>   MaxIter 150
| 19> end
| 20>
| 21>
| 22>                          ****END OF INPUT****

CARTESIAN COORDINATES (ANGSTROEM)
---------------------------------
  C      4.084220    1.742080   -2.114720
  C      4.265240    2.500520   -0.795890
  H      4.868530    3.392670   -0.981130
  H      3.307640    2.824570   -0.387810
  C      4.982240    1.650260    0.247420
  O      4.368060    1.389270    1.313710
  F      6.128920    1.233510   -0.045620
  H      3.579110    2.368490   -2.819970
  H      3.504240    0.859650   -1.941980
  H      5.042880    1.468410   -2.503270

 Total Charge           Charge          ....    0
 Multiplicity           Mult            ....    1
 Number of Electrons    NEL             ....   40
 Basis Dimension        Dim             ....  185

ORBITAL ENERGIES
----------------

  NO   OCC          E(Eh)            E(eV)
   0   2.0000     -25.315038      -688.8572
   1   2.0000     -19.632461      -534.2264
   2   2.0000     -10.718739      -291.6717
   3   2.0000     -10.567389      -287.5533
   4   2.0000     -10.544652      -286.9346
   5   2.0000      -1.465190       -39.8698
   6   2.0000      -1.153033       -31.3756
   7   2.0000      -0.905435       -24.6381
   8   2.0000      -0.784655       -21.3515
   9   2.0000      -0.736656       -20.0454
  10   2.0000      -0.645870       -17.5750
  11   2.0000      -0.636392       -17.3171
  12   2.0000      -0.586773       -15.9669
  13   2.0000      -0.539032       -14.6678
  14   2.0000      -0.511131       -13.9086
  15   2.0000      -0.471644       -12.8341
  16   2.0000      -0.454343       -12.3633
  17   2.0000      -0.442485       -12.0406
  18   2.0000      -0.417010       -11.3474
  19   2.0000      -0.365657        -9.9500
  20   0.0000       0.019132         0.5206
  21   0.0000       0.062916         1.7120
  22   0.0000       0.103249         2.8095
  23   0.0000       0.120965         3.2916
  24   0.0000       0.134600         3.6627

MULLIKEN ATOMIC CHARGES
-----------------------
   0 C :   -0.410592
   1 C :   -0.278594
   2 H :    0.146816
   3 H :    0.159036
   4 C :    0.407262
   5 O :   -0.348478
   6 F :   -0.116381
   7 H :    0.145481
   8 H :    0.149711
   9 H :    0.145739
Sum of atomic charges:    0.0000000

LOEWDIN ATOMIC CHARGES
----------------------
   0 C :   -0.292575
   1 C :   -0.255564
   2 H :    0.149042
   3 H :    0.152326
   4 C :   -0.491952
   5 O :    0.053361
   6 F :    0.319014
   7 H :    0.122000
   8 H :    0.123224
   9 H :    0.121125

  Mayer bond orders larger than 0.100000
B(  0-C ,  1-C ) :   0.9319 B(  0-C ,  7-H ) :   0.9725 B(  0-C ,  8-H ) :   0.9689
B(  0-C ,  9-H ) :   0.9681 B(  1-C ,  2-H ) :   0.9484 B(  1-C ,  3-H ) :   0.9692
B(  1-C ,  4-C ) :   0.9999 B(  4-C ,  5-O ) :   2.0509 B(  4-C ,  6-F ) :   1.1343

Dispersion correction           -0.000092199
FINAL SINGLE POINT ENERGY      -292.392686294927

DIPOLE MOMENT
-------------
                                X             Y             Z
Electronic contribution:      4.82865      -2.27929       5.84051
Nuclear contribution   :     -4.79499       2.78546      -7.01827
                        -----------------------------------------
Total Dipole Moment    :      0.03366       0.50617      -1.17776
                        -----------------------------------------
Magnitude (a.u.)       :      1.28237
Magnitude (Debye)      :      3.25952

Rotational constants in cm-1:     0.286098     0.133492     0.103343
Rotational constants in MHz :  8577.003657  4001.981591  3098.148068

                             ****ORCA TERMINATED NORMALLY****
TOTAL RUN TIME: 0 days 0 hours 0 minutes 11 seconds 974 msec
