                         Program Version 5.0.0 -  RELEASE  -
|  1> !M062X D3Zero RIJCOSX def2-TZVP def2/J TightSCF
|  2> *xyz 0 1
|  3> C          3.91385       -1.65829        3.01513
|  4> N          5.03927       -0.90115        2.49282
|  5> C          6.21038       -1.41726        2.17824
|  6> C          6.53591       -2.67712        2.55608
|  7> N          7.07675       -0.70082        1.47891
|  8> H          7.95464       -1.12155        1.20755
|  9> H          6.75616        0.10664        0.96028
| 10> H          4.84217        0.01761        2.11519
| 11> H          5.99388       -3.12692        3.28278
| 12> C          3.13916       -2.37657        1.91061
| 13> H          3.26723       -0.93940        3.52069
| 14> H          4.24720       -2.35509        3.79006
| 15> H          7.49844       -2.97548        2.46878
| 16> H          2.82969       -1.66654        1.17238
| 17> H          2.27790       -2.85264        2.33072
| 18> H          3.76754       -3.11338        1.45548
| 19> *
| 20> %MaxCore 64000
| 21> %pal nprocs 8
| 22> end
| 23> %scf
| 24>   MaxIter 150
| 25> end
| 26>
| 27>
| 28>                          ****END OF INPUT****

CARTESIAN COORDINATES (ANGSTROEM)
---------------------------------
  C      3.913850   -1.658290    3.015130
  N      5.039270   -0.901150    2.492820
  C      6.210380   -1.417260    2.178240
  C      6.535910   -2.677120    2.556080
  N      7.076750   -0.700820    1.478910
  H      7.954640   -1.121550    1.207550
  H      6.756160    0.106640    0.960280
  H      4.842170    0.017610    2.115190
  H      5.993880   -3.126920    3.282780
  C      3.139160   -2.376570    1.910610
  H      3.267230   -0.939400    3.520690
  H      4.247200   -2.355090    3.790060
  H      7.498440   -2.975480    2.468780
  H      2.829690   -1.666540    1.172380
  H      2.277900   -2.852640    2.330720
  H      3.767540   -3.113380    1.455480

 Total Charge           Charge          ....    0
 Multiplicity           Mult            ....    1
 Number of Electrons    NEL             ....   48
 Basis Dimension        Dim             ....  246

ORBITAL ENERGIES
----------------

  NO   OCC          E(Eh)            E(eV)
   0   2.0000     -14.750558      -401.3831
   1   2.0000     -14.747622      -401.3032
   2   2.0000     -10.585921      -288.0575
   3   2.0000     -10.568564      -287.5853
   4   2.0000     -10.514136      -286.1042
   5   2.0000     -10.445528      -284.2373
   6   2.0000      -1.085054       -29.5258
   7   2.0000      -0.994698       -27.0671
   8   2.0000      -0.849806       -23.1244
   9   2.0000      -0.798770       -21.7356
  10   2.0000      -0.727711       -19.8020
  11   2.0000      -0.643900       -17.5214
  12   2.0000      -0.625142       -17.0110
  13   2.0000      -0.594794       -16.1852
  14   2.0000      -0.535615       -14.5748
  15   2.0000      -0.507879       -13.8201
  16   2.0000      -0.488045       -13.2804
  17   2.0000      -0.463318       -12.6075
  18   2.0000      -0.443888       -12.0788
  19   2.0000      -0.431302       -11.7363
  20   2.0000      -0.427939       -11.6448
  21   2.0000      -0.407177       -11.0798
  22   2.0000      -0.315214        -8.5774
  23   2.0000      -0.215775        -5.8715
  24   0.0000       0.049678         1.3518
  25   0.0000       0.080425         2.1885
  26   0.0000       0.094854         2.5811
  27   0.0000       0.106209         2.8901
  28   0.0000       0.120068         3.2672

MULLIKEN ATOMIC CHARGES
-----------------------
   0 C :   -0.198501
   1 N :   -0.382670
   2 C :    0.454544
   3 C :   -0.537223
   4 N :   -0.558321
   5 H :    0.261197
   6 H :    0.228724
   7 H :    0.213544
   8 H :    0.092786
   9 C :   -0.358232
  10 H :    0.138256
  11 H :    0.147597
  12 H :    0.091379
  13 H :    0.115699
  14 H :    0.129152
  15 H :    0.162069
Sum of atomic charges:   -0.0000000

LOEWDIN ATOMIC CHARGES
----------------------
   0 C :   -0.299042
   1 N :    0.112612
   2 C :   -0.465909
   3 C :   -0.360925
   4 N :   -0.015097
   5 H :    0.181342
   6 H :    0.162884
   7 H :    0.180839
   8 H :    0.095473
   9 C :   -0.305609
  10 H :    0.130313
  11 H :    0.136521
  12 H :    0.093564
  13 H :    0.112450
  14 H :    0.116502
  15 H :    0.124082

  Mayer bond orders larger than 0.100000
B(  0-C ,  1-N ) :   0.9113 B(  0-C ,  9-C ) :   0.9318 B(  0-C , 10-H ) :   0.9812
B(  0-C , 11-H ) :   0.9761 B(  1-N ,  2-C ) :   1.1547 B(  1-N ,  7-H ) :   0.9352
B(  2-C ,  3-C ) :   1.6390 B(  2-C ,  4-N ) :   1.0825 B(  3-C ,  8-H ) :   1.0132
B(  3-C , 12-H ) :   1.0008 B(  4-N ,  5-H ) :   0.9258 B(  4-N ,  6-H ) :   0.9288
B(  9-C , 13-H ) :   0.9741 B(  9-C , 14-H ) :   0.9763 B(  9-C , 15-H ) :   0.9646

Dispersion correction           -0.000314000
FINAL SINGLE POINT ENERGY      -267.882201842679

DIPOLE MOMENT
-------------
                                X             Y             Z
Electronic contribution:      3.06034       2.84319      -0.22771
Nuclear contribution   :     -3.42552      -1.84584      -0.22295
                        -----------------------------------------
Total Dipole Moment    :     -0.36519       0.99735      -0.45066
                        -----------------------------------------
Magnitude (a.u.)       :      1.15376
Magnitude (Debye)      :      2.93262

Rotational constants in cm-1:     0.233526     0.075277     0.067092
Rotational constants in MHz :  7000.931279  2256.752901  2011.361214

                             ****ORCA TERMINATED NORMALLY****
TOTAL RUN TIME: 0 days 0 hours 0 minutes 18 seconds 851 msec
