                         Program Version 5.0.0 -  RELEASE  -
|  1> !M062X D3Zero RIJCOSX def2-TZVP def2/J TightSCF
|  2> *xyz 0 1
|  3> C          3.91385       -1.65829        3.01513
|  4> N          5.03927       -0.90115        2.49282
|  5> C          6.21038       -1.41726        2.17824
|  6> N          6.53591       -2.67712        2.55608
|  7> C          7.07675       -0.70082        1.47891
|  8> H          7.95464       -1.12155        1.20755
|  9> H          6.75616        0.10664        0.96028
| 10> H          4.84217        0.01761        2.11519
| 11> H          5.99388       -3.12692        3.28278
| 12> C          3.13916       -2.37657        1.91061
| 13> H          3.26723       -0.93940        3.52069
| 14> H          4.24720       -2.35509        3.79006
| 15> H          7.49844       -2.97548        2.46878
| 16> H          2.82969       -1.66654        1.17238
| 17> H          2.27790       -2.85264        2.33072
| 18> H          3.76754       -3.11338        1.45548
| 19> *
| 20> %MaxCore 64000
| 21> %pal nprocs 8
| 22> end
| 23> %scf
| 24>   MaxIter 150
| 25> end
| 26>
| 27>
| 28>                          ****END OF INPUT****

CARTESIAN COORDINATES (ANGSTROEM)
---------------------------------
  C      3.913850   -1.658290    3.015130
  N      5.039270   -0.901150    2.492820
  C      6.210380   -1.417260    2.178240
  N      6.535910   -2.677120    2.556080
  C      7.076750   -0.700820    1.478910
  H      7.954640   -1.121550    1.207550
  H      6.756160    0.106640    0.960280
  H      4.842170    0.017610    2.115190
  H      5.993880   -3.126920    3.282780
  C      3.139160   -2.376570    1.910610
  H      3.267230   -0.939400    3.520690
  H      4.247200   -2.355090    3.790060
  H      7.498440   -2.975480    2.468780
  H      2.829690   -1.666540    1.172380
  H      2.277900   -2.852640    2.330720
  H      3.767540   -3.113380    1.455480

 Total Charge           Charge          ....    0
 Multiplicity           Mult            ....    1
 Number of Electrons    NEL             ....   48
 Basis Dimension        Dim             ....  246

ORBITAL ENERGIES
----------------

  NO   OCC          E(Eh)            E(eV)
   0   2.0000     -14.746986      -401.2859
   1   2.0000     -14.745959      -401.2580
   2   2.0000     -10.582734      -287.9708
   3   2.0000     -10.576707      -287.8068
   4   2.0000     -10.521682      -286.3095
   5   2.0000     -10.444524      -284.2100
   6   2.0000      -1.079776       -29.3822
   7   2.0000      -0.987128       -26.8611
   8   2.0000      -0.868096       -23.6221
   9   2.0000      -0.795346       -21.6425
  10   2.0000      -0.715778       -19.4773
  11   2.0000      -0.679512       -18.4905
  12   2.0000      -0.609814       -16.5939
  13   2.0000      -0.569803       -15.5051
  14   2.0000      -0.546470       -14.8702
  15   2.0000      -0.507602       -13.8125
  16   2.0000      -0.502410       -13.6713
  17   2.0000      -0.471577       -12.8323
  18   2.0000      -0.445914       -12.1339
  19   2.0000      -0.433870       -11.8062
  20   2.0000      -0.425726       -11.5846
  21   2.0000      -0.419069       -11.4034
  22   2.0000      -0.319543        -8.6952
  23   2.0000      -0.215647        -5.8681
  24   0.0000       0.052530         1.4294
  25   0.0000       0.077118         2.0985
  26   0.0000       0.089937         2.4473
  27   0.0000       0.105519         2.8713
  28   0.0000       0.120205         3.2709

MULLIKEN ATOMIC CHARGES
-----------------------
   0 C :   -0.229856
   1 N :   -0.370738
   2 C :    0.471652
   3 N :   -0.567849
   4 C :   -0.540204
   5 H :    0.087243
   6 H :    0.093852
   7 H :    0.240087
   8 H :    0.235188
   9 C :   -0.338706
  10 H :    0.144147
  11 H :    0.123210
  12 H :    0.254126
  13 H :    0.127493
  14 H :    0.127082
  15 H :    0.143273
Sum of atomic charges:   -0.0000000

LOEWDIN ATOMIC CHARGES
----------------------
   0 C :   -0.316837
   1 N :    0.115878
   2 C :   -0.458598
   3 N :   -0.031714
   4 C :   -0.341147
   5 H :    0.096416
   6 H :    0.096771
   7 H :    0.197371
   8 H :    0.160192
   9 C :   -0.306222
  10 H :    0.132778
  11 H :    0.125384
  12 H :    0.177801
  13 H :    0.116554
  14 H :    0.115638
  15 H :    0.119736

  Mayer bond orders larger than 0.100000
B(  0-C ,  1-N ) :   0.9399 B(  0-C ,  9-C ) :   0.9182 B(  0-C , 10-H ) :   0.9823
B(  0-C , 11-H ) :   0.9886 B(  1-N ,  2-C ) :   1.1611 B(  1-N ,  7-H ) :   0.9283
B(  2-C ,  3-N ) :   1.0622 B(  2-C ,  4-C ) :   1.6445 B(  3-N ,  8-H ) :   0.9202
B(  3-N , 12-H ) :   0.9276 B(  4-C ,  5-H ) :   1.0161 B(  4-C ,  6-H ) :   1.0105
B(  9-C , 13-H ) :   0.9728 B(  9-C , 14-H ) :   0.9740 B(  9-C , 15-H ) :   0.9651

Dispersion correction           -0.000312706
FINAL SINGLE POINT ENERGY      -267.882381496538

DIPOLE MOMENT
-------------
                                X             Y             Z
Electronic contribution:      2.52959       0.91613       0.96995
Nuclear contribution   :     -3.31079      -1.42658      -0.45147
                        -----------------------------------------
Total Dipole Moment    :     -0.78119      -0.51045       0.51849
                        -----------------------------------------
Magnitude (a.u.)       :      1.06754
Magnitude (Debye)      :      2.71348

Rotational constants in cm-1:     0.225507     0.077571     0.068070
Rotational constants in MHz :  6760.542142  2325.533779  2040.680522

                             ****ORCA TERMINATED NORMALLY****
TOTAL RUN TIME: 0 days 0 hours 0 minutes 19 seconds 525 msec
