                         Program Version 5.0.0 -  RELEASE  -
|  1> !wB97X-D3 RIJCOSX def2-TZVP def2/J TightSCF xyzfile
|  2>
|  3> *xyzfile 0 1 D4.xyz
|  4>
|  5> %MaxCore 64000
|  6>
|  7> %pal nprocs 18
|  8> end
|  9>
| 10> %scf
| 11>   MaxIter 150
| 12> end
| 13>
| 14>
| 15>                          ****END OF INPUT****

CARTESIAN COORDINATES (ANGSTROEM)
---------------------------------
  C      3.913853   -1.658291    3.015134
  C      5.039266   -0.901154    2.492821
  C      4.084215    1.742081   -2.114724
  C      4.265245    2.500518   -0.795890
  H      4.868534    3.392674   -0.981134
  H      3.307640    2.824571   -0.387809
  C      4.982240    1.650257    0.247422
  C      6.210384   -1.417261    2.178244
  N      6.535913   -2.677122    2.556078
  N      7.076754   -0.700820    1.478906
  H      7.954643   -1.121554    1.207554
  H      6.756161    0.106637    0.960278
  H      4.842168    0.017609    2.115191
  H      5.993876   -3.126918    3.282784
  H      7.498441   -2.975482    2.468776
  O      4.368065    1.389270    1.313706
  F      6.128919    1.233512   -0.045620
  C      3.139159   -2.376572    1.910609
  H      3.267235   -0.939401    3.520693
  H      4.247195   -2.355095    3.790065
  C      1.997274    0.430918   -1.399218
  C      3.412746    0.376886   -1.965497
  H      4.047407   -0.246590   -1.326706
  H      3.390774   -0.118719   -2.942839
  H      5.068475    1.598504   -2.565728
  H      3.503356    2.363939   -2.804565
  C      2.399946   -1.389579    1.009490
  H      2.440750   -3.087118    2.362976
  H      3.844475   -2.970462    1.318677
  C      2.070177   -1.936705   -0.372401
  H      1.481611   -1.061542    1.509912
  H      3.008628   -0.490001    0.897451
  C      1.322238   -0.935775   -1.256413
  H      1.472747   -2.850902   -0.283997
  H      3.003539   -2.234041   -0.862535
  H      1.376444    1.058920   -2.047420
  H      2.015341    0.929780   -0.426535
  H      0.316648   -0.787213   -0.848278
  H      1.185611   -1.379252   -2.248613

 Total Charge           Charge          ....    0
 Multiplicity           Mult            ....    1
 Number of Electrons    NEL             ....  126
 Basis Dimension        Dim             ....  634

ORBITAL ENERGIES
----------------

  NO   OCC          E(Eh)            E(eV)
   0   2.0000     -24.882968      -677.1000
   1   2.0000     -19.247500      -523.7511
   2   2.0000     -14.401840      -391.8940
   3   2.0000     -14.392863      -391.6497
   4   2.0000     -10.470323      -284.9120
   5   2.0000     -10.311648      -280.5942
   6   2.0000     -10.295806      -280.1631
   7   2.0000     -10.294238      -280.1205
   8   2.0000     -10.278546      -279.6935
   9   2.0000     -10.268002      -279.4065
  10   2.0000     -10.262030      -279.2440
  11   2.0000     -10.253006      -278.9985
  12   2.0000     -10.241564      -278.6871
  13   2.0000     -10.236712      -278.5551
  14   2.0000     -10.229843      -278.3682
  15   2.0000     -10.156244      -276.3655
  16   2.0000      -1.466703       -39.9110
  17   2.0000      -1.166061       -31.7301
  18   2.0000      -1.057023       -28.7631
  19   2.0000      -0.966494       -26.2996
  20   2.0000      -0.951120       -25.8813
  21   2.0000      -0.916670       -24.9439
  22   2.0000      -0.886657       -24.1272
  23   2.0000      -0.856931       -23.3183
  24   2.0000      -0.822509       -22.3816
  25   2.0000      -0.796564       -21.6756
  26   2.0000      -0.779554       -21.2127
  27   2.0000      -0.743395       -20.2288
  28   2.0000      -0.714144       -19.4328
  29   2.0000      -0.697034       -18.9673
  30   2.0000      -0.680958       -18.5298
  31   2.0000      -0.677467       -18.4348
  32   2.0000      -0.657528       -17.8923
  33   2.0000      -0.646392       -17.5892
  34   2.0000      -0.633926       -17.2500
  35   2.0000      -0.612595       -16.6695
  36   2.0000      -0.587158       -15.9774
  37   2.0000      -0.583218       -15.8702
  38   2.0000      -0.579547       -15.7703
  39   2.0000      -0.557732       -15.1767
  40   2.0000      -0.547750       -14.9050
  41   2.0000      -0.535333       -14.5671
  42   2.0000      -0.525282       -14.2937
  43   2.0000      -0.509487       -13.8638
  44   2.0000      -0.505581       -13.7576
  45   2.0000      -0.498458       -13.5637
  46   2.0000      -0.489278       -13.3139
  47   2.0000      -0.481394       -13.0994
  48   2.0000      -0.473983       -12.8977
  49   2.0000      -0.468026       -12.7356
  50   2.0000      -0.458237       -12.4693
  51   2.0000      -0.454686       -12.3726
  52   2.0000      -0.434699       -11.8288
  53   2.0000      -0.426061       -11.5937
  54   2.0000      -0.424357       -11.5473
  55   2.0000      -0.419148       -11.4056
  56   2.0000      -0.399440       -10.8693
  57   2.0000      -0.393139       -10.6979
  58   2.0000      -0.387875       -10.5546
  59   2.0000      -0.383179       -10.4268
  60   2.0000      -0.354295        -9.6409
  61   2.0000      -0.342131        -9.3099
  62   2.0000      -0.223305        -6.0764
  63   0.0000       0.042377         1.1531
  64   0.0000       0.103996         2.8299
  65   0.0000       0.117865         3.2073
  66   0.0000       0.128118         3.4863
  67   0.0000       0.130557         3.5526

MULLIKEN ATOMIC CHARGES
-----------------------
   0 C :   -0.197135
   1 C :   -0.417368
   2 C :   -0.203178
   3 C :   -0.220660
   4 H :    0.140099
   5 H :    0.160865
   6 C :    0.410244
   7 C :    0.337376
   8 N :   -0.513854
   9 N :   -0.514361
  10 H :    0.215048
  11 H :    0.238508
  12 H :    0.163982
  13 H :    0.242028
  14 H :    0.216072
  15 O :   -0.347476
  16 F :   -0.138289
  17 C :   -0.094409
  18 H :    0.088454
  19 H :    0.071078
  20 C :   -0.250982
  21 C :   -0.251400
  22 H :    0.132162
  23 H :    0.113003
  24 H :    0.123418
  25 H :    0.118413
  26 C :   -0.237855
  27 H :    0.078807
  28 H :    0.091573
  29 C :   -0.211217
  30 H :    0.092473
  31 H :    0.075245
  32 C :   -0.166852
  33 H :    0.102531
  34 H :    0.108309
  35 H :    0.103916
  36 H :    0.138123
  37 H :    0.103177
  38 H :    0.100132
Sum of atomic charges:   -0.0000000

LOEWDIN ATOMIC CHARGES
----------------------
   0 C :   -0.284220
   1 C :   -0.281216
   2 C :   -0.263272
   3 C :   -0.225875
   4 H :    0.151817
   5 H :    0.155547
   6 C :   -0.478121
   7 C :   -0.462450
   8 N :   -0.038462
   9 N :   -0.027906
  10 H :    0.157456
  11 H :    0.152518
  12 H :    0.113696
  13 H :    0.170336
  14 H :    0.156538
  15 O :    0.097246
  16 F :    0.339357
  17 C :   -0.259366
  18 H :    0.141927
  19 H :    0.122583
  20 C :   -0.269503
  21 C :   -0.265902
  22 H :    0.140119
  23 H :    0.140008
  24 H :    0.139529
  25 H :    0.142044
  26 C :   -0.266937
  27 H :    0.124604
  28 H :    0.135713
  29 C :   -0.273257
  30 H :    0.133828
  31 H :    0.138935
  32 C :   -0.267712
  33 H :    0.134659
  34 H :    0.132650
  35 H :    0.135015
  36 H :    0.138244
  37 H :    0.136414
  38 H :    0.133414

  Mayer bond orders larger than 0.100000
B(  0-C ,  1-C ) :   1.0029 B(  0-C , 17-C ) :   0.9287 B(  0-C , 18-H ) :   0.9847
B(  0-C , 19-H ) :   1.0024 B(  1-C ,  7-C ) :   1.6799 B(  1-C , 12-H ) :   1.0023
B(  2-C ,  3-C ) :   0.9416 B(  2-C , 21-C ) :   0.9648 B(  2-C , 24-H ) :   0.9815
B(  2-C , 25-H ) :   0.9713 B(  3-C ,  4-H ) :   0.9523 B(  3-C ,  5-H ) :   0.9827
B(  3-C ,  6-C ) :   0.9731 B(  6-C , 15-O ) :   1.9666 B(  6-C , 16-F ) :   1.0590
B(  7-C ,  8-N ) :   1.1335 B(  7-C ,  9-N ) :   1.1563 B(  8-N , 13-H ) :   0.9154
B(  8-N , 14-H ) :   0.9294 B(  9-N , 10-H ) :   0.9315 B(  9-N , 11-H ) :   0.9024
B( 17-C , 26-C ) :   0.9993 B( 17-C , 27-H ) :   0.9710 B( 17-C , 28-H ) :   0.9788
B( 20-C , 21-C ) :   0.9364 B( 20-C , 32-C ) :   0.9724 B( 20-C , 35-H ) :   0.9702
B( 20-C , 36-H ) :   0.9779 B( 21-C , 22-H ) :   0.9766 B( 21-C , 23-H ) :   0.9708
B( 26-C , 29-C ) :   0.9532 B( 26-C , 30-H ) :   0.9688 B( 26-C , 31-H ) :   0.9905
B( 29-C , 32-C ) :   0.9718 B( 29-C , 33-H ) :   0.9787 B( 29-C , 34-H ) :   0.9872
B( 32-C , 37-H ) :   0.9826 B( 32-C , 38-H ) :   0.9845

Dispersion correction           -0.020074327
FINAL SINGLE POINT ENERGY      -755.743056097231

DIPOLE MOMENT
-------------
                                X             Y             Z
Electronic contribution:     14.36712       8.75637       3.65605
Nuclear contribution   :    -13.61164      -8.17416      -5.14068
                        -----------------------------------------
Total Dipole Moment    :      0.75548       0.58221      -1.48462
                        -----------------------------------------
Magnitude (a.u.)       :      1.76460
Magnitude (Debye)      :      4.48527

Rotational constants in cm-1:     0.019858     0.013613     0.009401
Rotational constants in MHz :   595.331791   408.100423   281.843625

                             ****ORCA TERMINATED NORMALLY****
TOTAL RUN TIME: 0 days 0 hours 1 minutes 59 seconds 754 msec
