                         Program Version 5.0.0 -  RELEASE  -
|  1> !wB97X-D3 RIJCOSX def2-TZVP def2/J TightSCF
|  2> *xyz -1 1
|  3> C          4.93020       -7.37532       -2.64962
|  4> C          3.84189       -6.95161       -3.63283
|  5> H          3.45814       -5.95442       -3.40712
|  6> H          2.98848       -7.64361       -3.56708
|  7> S          4.31812       -6.91593       -5.36869
|  8> O          5.40615       -5.89948       -5.51297
|  9> O          3.11191       -6.44508       -6.04379
| 10> C          6.17399       -6.48552       -2.60631
| 11> H          4.46961       -7.40617       -1.65588
| 12> H          5.23013       -8.39868       -2.88591
| 13> O          4.76340       -8.23942       -5.69863
| 14> H          6.62449       -6.45478       -3.57637
| 15> H          6.87304       -6.88376       -1.90088
| 16> H          5.89434       -5.49571       -2.31140
| 17> *
| 18>
| 19> %MaxCore 64000
| 20>
| 21> %pal nprocs 8
| 22> end
| 23>
| 24> %scf
| 25>   MaxIter 150
| 26> end
| 27>
| 28>
| 29>                          ****END OF INPUT****

CARTESIAN COORDINATES (ANGSTROEM)
---------------------------------
  C      4.930200   -7.375320   -2.649620
  C      3.841890   -6.951610   -3.632830
  H      3.458140   -5.954420   -3.407120
  H      2.988480   -7.643610   -3.567080
  S      4.318120   -6.915930   -5.368690
  O      5.406150   -5.899480   -5.512970
  O      3.111910   -6.445080   -6.043790
  C      6.173990   -6.485520   -2.606310
  H      4.469610   -7.406170   -1.655880
  H      5.230130   -8.398680   -2.885910
  O      4.763400   -8.239420   -5.698630
  H      6.624490   -6.454780   -3.576370
  H      6.873040   -6.883760   -1.900880
  H      5.894340   -5.495710   -2.311400

 Total Charge           Charge          ....   -1
 Multiplicity           Mult            ....    1
 Number of Electrons    NEL             ....   66
 Basis Dimension        Dim             ....  265

ORBITAL ENERGIES
----------------

  NO   OCC          E(Eh)            E(eV)
   0   2.0000     -88.933001     -2419.9900
   1   2.0000     -19.010555      -517.3035
   2   2.0000     -19.000086      -517.0186
   3   2.0000     -18.993412      -516.8370
   4   2.0000     -10.144035      -276.0332
   5   2.0000     -10.138079      -275.8712
   6   2.0000     -10.121746      -275.4267
   7   2.0000      -7.995463      -217.5676
   8   2.0000      -5.949715      -161.9000
   9   2.0000      -5.948559      -161.8685
  10   2.0000      -5.948128      -161.8568
  11   2.0000      -1.034975       -28.1631
  12   2.0000      -0.904708       -24.6183
  13   2.0000      -0.876470       -23.8500
  14   2.0000      -0.772509       -21.0210
  15   2.0000      -0.678428       -18.4610
  16   2.0000      -0.579425       -15.7669
  17   2.0000      -0.486933       -13.2501
  18   2.0000      -0.432166       -11.7598
  19   2.0000      -0.417896       -11.3715
  20   2.0000      -0.388899       -10.5825
  21   2.0000      -0.375003       -10.2044
  22   2.0000      -0.356680        -9.7058
  23   2.0000      -0.347524        -9.4566
  24   2.0000      -0.316931        -8.6241
  25   2.0000      -0.306559        -8.3419
  26   2.0000      -0.295518        -8.0415
  27   2.0000      -0.245235        -6.6732
  28   2.0000      -0.244049        -6.6409
  29   2.0000      -0.208883        -5.6840
  30   2.0000      -0.196529        -5.3478
  31   2.0000      -0.189374        -5.1531
  32   2.0000      -0.153848        -4.1864
  33   0.0000       0.238897         6.5007
  34   0.0000       0.279784         7.6133
  35   0.0000       0.288438         7.8488
  36   0.0000       0.306310         8.3351
  37   0.0000       0.315341         8.5809

MULLIKEN ATOMIC CHARGES
-----------------------
   0 C :   -0.157862
   1 C :   -0.246340
   2 H :    0.088038
   3 H :    0.087705
   4 S :    0.854428
   5 O :   -0.605805
   6 O :   -0.579001
   7 C :   -0.326640
   8 H :    0.049516
   9 H :    0.092731
  10 O :   -0.549838
  11 H :    0.156196
  12 H :    0.064377
  13 H :    0.072495
Sum of atomic charges:   -1.0000000

LOEWDIN ATOMIC CHARGES
----------------------
   0 C :   -0.324439
   1 C :   -0.405451
   2 H :    0.122397
   3 H :    0.124392
   4 S :    0.432007
   5 O :   -0.437713
   6 O :   -0.401995
   7 C :   -0.318632
   8 H :    0.118370
   9 H :    0.131505
  10 O :   -0.368490
  11 H :    0.123282
  12 H :    0.097961
  13 H :    0.106804

  Mayer bond orders larger than 0.100000
B(  0-C ,  1-C ) :   0.9745 B(  0-C ,  7-C ) :   0.9843 B(  0-C ,  8-H ) :   0.9709
B(  0-C ,  9-H ) :   0.9733 B(  1-C ,  2-H ) :   0.9627 B(  1-C ,  3-H ) :   0.9634
B(  1-C ,  4-S ) :   0.8771 B(  4-S ,  5-O ) :   1.6996 B(  4-S ,  6-O ) :   1.7994
B(  4-S , 10-O ) :   1.7831 B(  7-C , 11-H ) :   0.9641 B(  7-C , 12-H ) :   0.9754
B(  7-C , 13-H ) :   0.9796

Dispersion correction           -0.004547932
FINAL SINGLE POINT ENERGY      -742.535064250193

DIPOLE MOMENT
-------------
                                X             Y             Z
Electronic contribution:     -3.10254      -0.30345     -10.24350
Nuclear contribution   :      3.14317       0.05805      12.49367
                        -----------------------------------------
Total Dipole Moment    :      0.04063      -0.24540       2.25018
                        -----------------------------------------
Magnitude (a.u.)       :      2.26388
Magnitude (Debye)      :      5.75434

Rotational constants in cm-1:     0.133431     0.055055     0.052069
Rotational constants in MHz :  4000.170974  1650.506165  1561.001383

                             ****ORCA TERMINATED NORMALLY****
TOTAL RUN TIME: 0 days 0 hours 0 minutes 28 seconds 256 msec
