                         Program Version 5.0.0 -  RELEASE  -
|  1> !wB97X-D3 RIJCOSX def2-TZVP def2/J TightSCF
|  2> *xyz 1 1
|  3> C          5.55821       -1.99291       -6.21505
|  4> C          4.18188       -2.58967       -6.29891
|  5> N          3.14587       -1.76843       -6.48675
|  6> N          4.01910       -3.86431       -6.22743
|  7> H          4.76849       -4.59115       -5.99077
|  8> H          3.12241       -4.33339       -6.31462
|  9> H          3.28164       -0.77779       -6.56655
| 10> H          2.21255       -2.13419       -6.56225
| 11> C          6.41926       -2.54294       -5.07763
| 12> C          5.89651       -2.16931       -3.69455
| 13> H          7.42888       -2.14367       -5.20808
| 14> H          6.50589       -3.62754       -5.17550
| 15> H          6.03683       -2.19819       -7.17685
| 16> H          5.46761       -0.90737       -6.12797
| 17> H          5.81870       -1.10488       -3.61824
| 18> H          6.57185       -2.53200       -2.94804
| 19> H          4.93221       -2.60892       -3.54698
| 20> *
| 21>
| 22> %MaxCore 64000
| 23>
| 24> %pal nprocs 8
| 25> end
| 26>
| 27> %scf
| 28>   MaxIter 150
| 29> end
| 30>
| 31>
| 32>                          ****END OF INPUT****

CARTESIAN COORDINATES (ANGSTROEM)
---------------------------------
  C      5.558210   -1.992910   -6.215050
  C      4.181880   -2.589670   -6.298910
  N      3.145870   -1.768430   -6.486750
  N      4.019100   -3.864310   -6.227430
  H      4.768490   -4.591150   -5.990770
  H      3.122410   -4.333390   -6.314620
  H      3.281640   -0.777790   -6.566550
  H      2.212550   -2.134190   -6.562250
  C      6.419260   -2.542940   -5.077630
  C      5.896510   -2.169310   -3.694550
  H      7.428880   -2.143670   -5.208080
  H      6.505890   -3.627540   -5.175500
  H      6.036830   -2.198190   -7.176850
  H      5.467610   -0.907370   -6.127970
  H      5.818700   -1.104880   -3.618240
  H      6.571850   -2.532000   -2.948040
  H      4.932210   -2.608920   -3.546980

 Total Charge           Charge          ....    1
 Multiplicity           Mult            ....    1
 Number of Electrons    NEL             ....   48
 Basis Dimension        Dim             ....  252

ORBITAL ENERGIES
----------------

  NO   OCC          E(Eh)            E(eV)
   0   2.0000     -14.669874      -399.1876
   1   2.0000     -14.658247      -398.8712
   2   2.0000     -10.598594      -288.4024
   3   2.0000     -10.467510      -284.8354
   4   2.0000     -10.434495      -283.9370
   5   2.0000     -10.395860      -282.8857
   6   2.0000      -1.318642       -35.8821
   7   2.0000      -1.218482       -33.1566
   8   2.0000      -1.089583       -29.6490
   9   2.0000      -1.001707       -27.2578
  10   2.0000      -0.944058       -25.6891
  11   2.0000      -0.886353       -24.1189
  12   2.0000      -0.871006       -23.7013
  13   2.0000      -0.835001       -22.7215
  14   2.0000      -0.793385       -21.5891
  15   2.0000      -0.755297       -20.5527
  16   2.0000      -0.725932       -19.7536
  17   2.0000      -0.685937       -18.6653
  18   2.0000      -0.671144       -18.2628
  19   2.0000      -0.657498       -17.8914
  20   2.0000      -0.594149       -16.1676
  21   2.0000      -0.592043       -16.1103
  22   2.0000      -0.586976       -15.9724
  23   2.0000      -0.581631       -15.8270
  24   0.0000      -0.118785        -3.2323
  25   0.0000      -0.072105        -1.9621
  26   0.0000      -0.036924        -1.0047
  27   0.0000      -0.024165        -0.6576
  28   0.0000      -0.004565        -0.1242

MULLIKEN ATOMIC CHARGES
-----------------------
   0 C :   -0.221080
   1 C :    0.347196
   2 N :   -0.399397
   3 N :   -0.400028
   4 H :    0.331808
   5 H :    0.300263
   6 H :    0.310054
   7 H :    0.290479
   8 C :   -0.231959
   9 C :   -0.339674
  10 H :    0.161605
  11 H :    0.099923
  12 H :    0.191915
  13 H :    0.151282
  14 H :    0.135707
  15 H :    0.161928
  16 H :    0.109977
Sum of atomic charges:    1.0000000

LOEWDIN ATOMIC CHARGES
----------------------
   0 C :   -0.199246
   1 C :   -0.288258
   2 N :    0.099978
   3 N :    0.111937
   4 H :    0.236954
   5 H :    0.202119
   6 H :    0.201389
   7 H :    0.193595
   8 C :   -0.274412
   9 C :   -0.283591
  10 H :    0.156117
  11 H :    0.133076
  12 H :    0.175851
  13 H :    0.160832
  14 H :    0.125303
  15 H :    0.132564
  16 H :    0.115792

  Mayer bond orders larger than 0.100000
B(  0-C ,  1-C ) :   0.9518 B(  0-C ,  8-C ) :   0.9679 B(  0-C , 12-H ) :   0.9235
B(  0-C , 13-H ) :   0.9796 B(  1-C ,  2-N ) :   1.4408 B(  1-C ,  3-N ) :   1.4743
B(  2-N ,  6-H ) :   0.8840 B(  2-N ,  7-H ) :   0.8912 B(  3-N ,  4-H ) :   0.8641
B(  3-N ,  5-H ) :   0.8842 B(  8-C ,  9-C ) :   0.9711 B(  8-C , 10-H ) :   0.9622
B(  8-C , 11-H ) :   0.9721 B(  9-C , 14-H ) :   0.9695 B(  9-C , 15-H ) :   0.9700
B(  9-C , 16-H ) :   0.9677

Dispersion correction           -0.004499177
FINAL SINGLE POINT ENERGY      -268.372441716873

DIPOLE MOMENT
-------------
                                X             Y             Z
Electronic contribution:     -4.02667      -0.94143      -3.73156
Nuclear contribution   :      2.70373       0.48594       2.85544
                        -----------------------------------------
Total Dipole Moment    :     -1.32294      -0.45549      -0.87613
                        -----------------------------------------
Magnitude (a.u.)       :      1.65083
Magnitude (Debye)      :      4.19608

Rotational constants in cm-1:     0.185545     0.074107     0.068805
Rotational constants in MHz :  5562.487769  2221.680591  2062.713441

                             ****ORCA TERMINATED NORMALLY****
TOTAL RUN TIME: 0 days 0 hours 0 minutes 28 seconds 847 msec
