                         Program Version 5.0.0 -  RELEASE  -
|  1> !wB97X-D3 RIJCOSX def2-TZVP def2/J TightSCF xyzfile
|  2>
|  3> *xyzfile 0 1 B.xyz
|  4>
|  5> %MaxCore 64000
|  6>
|  7> %pal nprocs 18
|  8> end
|  9>
| 10> %scf
| 11>   MaxIter 150
| 12> end
| 13>
| 14>
| 15>                          ****END OF INPUT****

CARTESIAN COORDINATES (ANGSTROEM)
---------------------------------
  C      5.558206   -1.992914   -6.215054
  C      4.930199   -7.375319   -2.649623
  C      3.841892   -6.951611   -3.632829
  H      3.458144   -5.954425   -3.407121
  H      2.988484   -7.643606   -3.567078
  S      4.318115   -6.915930   -5.368692
  C      4.181880   -2.589671   -6.298911
  N      3.145873   -1.768431   -6.486753
  N      4.019102   -3.864307   -6.227427
  H      4.768490   -4.591153   -5.990773
  H      3.122405   -4.333392   -6.314620
  H      3.281635   -0.777786   -6.566549
  H      2.212549   -2.134193   -6.562246
  O      5.406154   -5.899480   -5.512972
  O      3.111910   -6.445079   -6.043792
  C      6.419260   -2.542944   -5.077630
  C      5.872267   -5.002756   -2.427819
  C      6.173994   -6.485522   -2.606315
  H      6.734852   -6.613767   -3.534015
  H      6.821463   -6.831018   -1.793617
  H      4.469612   -7.406168   -1.655876
  H      5.230134   -8.398678   -2.885906
  C      5.896512   -2.169314   -3.694552
  H      7.428880   -2.143665   -5.208078
  H      6.505894   -3.627541   -5.175502
  C      6.807804   -2.623428   -2.551019
  H      4.894708   -2.589732   -3.557501
  H      5.778823   -1.081255   -3.635790
  C      7.111544   -4.122463   -2.520363
  H      7.751615   -2.071393   -2.614406
  H      6.345837   -2.326401   -1.604086
  H      5.362882   -4.828697   -1.471335
  H      5.174429   -4.702577   -3.211298
  H      7.778329   -4.329347   -1.677651
  H      7.673189   -4.402845   -3.417586
  O      4.763396   -8.239424   -5.698629
  H      6.036826   -2.198189   -7.176852
  H      5.467610   -0.907371   -6.127968

 Total Charge           Charge          ....    0
 Multiplicity           Mult            ....    1
 Number of Electrons    NEL             ....  136
 Basis Dimension        Dim             ....  634

ORBITAL ENERGIES
----------------

  NO   OCC          E(Eh)            E(eV)
   0   2.0000     -89.088095     -2424.2103
   1   2.0000     -19.172125      -521.7001
   2   2.0000     -19.160054      -521.3716
   3   2.0000     -19.153624      -521.1966
   4   2.0000     -14.511797      -394.8861
   5   2.0000     -14.473912      -393.8552
   6   2.0000     -10.437333      -284.0143
   7   2.0000     -10.334065      -281.2042
   8   2.0000     -10.300493      -280.2907
   9   2.0000     -10.288403      -279.9617
  10   2.0000     -10.276697      -279.6431
  11   2.0000     -10.268393      -279.4172
  12   2.0000     -10.264059      -279.2992
  13   2.0000     -10.256545      -279.0948
  14   2.0000     -10.255474      -279.0656
  15   2.0000     -10.247916      -278.8600
  16   2.0000      -8.151231      -221.8063
  17   2.0000      -6.105376      -166.1357
  18   2.0000      -6.104613      -166.1150
  19   2.0000      -6.103500      -166.0847
  20   2.0000      -1.194938       -32.5159
  21   2.0000      -1.157670       -31.5018
  22   2.0000      -1.063526       -28.9400
  23   2.0000      -1.054158       -28.6851
  24   2.0000      -1.048461       -28.5301
  25   2.0000      -0.959932       -26.1211
  26   2.0000      -0.923583       -25.1320
  27   2.0000      -0.899101       -24.4658
  28   2.0000      -0.858212       -23.3531
  29   2.0000      -0.821747       -22.3609
  30   2.0000      -0.787518       -21.4295
  31   2.0000      -0.765518       -20.8308
  32   2.0000      -0.737957       -20.0808
  33   2.0000      -0.712476       -19.3875
  34   2.0000      -0.703169       -19.1342
  35   2.0000      -0.684808       -18.6346
  36   2.0000      -0.669232       -18.2107
  37   2.0000      -0.644123       -17.5275
  38   2.0000      -0.617971       -16.8158
  39   2.0000      -0.606920       -16.5151
  40   2.0000      -0.590944       -16.0804
  41   2.0000      -0.574966       -15.6456
  42   2.0000      -0.567117       -15.4320
  43   2.0000      -0.553219       -15.0538
  44   2.0000      -0.546579       -14.8732
  45   2.0000      -0.538038       -14.6408
  46   2.0000      -0.529322       -14.4036
  47   2.0000      -0.523090       -14.2340
  48   2.0000      -0.508969       -13.8497
  49   2.0000      -0.496902       -13.5214
  50   2.0000      -0.492537       -13.4026
  51   2.0000      -0.490046       -13.3348
  52   2.0000      -0.469284       -12.7699
  53   2.0000      -0.462417       -12.5830
  54   2.0000      -0.456456       -12.4208
  55   2.0000      -0.438053       -11.9200
  56   2.0000      -0.428248       -11.6532
  57   2.0000      -0.422476       -11.4962
  58   2.0000      -0.420256       -11.4358
  59   2.0000      -0.410713       -11.1761
  60   2.0000      -0.405330       -11.0296
  61   2.0000      -0.401826       -10.9342
  62   2.0000      -0.394434       -10.7331
  63   2.0000      -0.391103       -10.6425
  64   2.0000      -0.358989        -9.7686
  65   2.0000      -0.356002        -9.6873
  66   2.0000      -0.342850        -9.3294
  67   2.0000      -0.321911        -8.7596
  68   0.0000       0.035045         0.9536
  69   0.0000       0.062227         1.6933
  70   0.0000       0.099558         2.7091
  71   0.0000       0.108864         2.9623
  72   0.0000       0.122270         3.3271

MULLIKEN ATOMIC CHARGES
-----------------------
   0 C :   -0.163881
   1 C :   -0.182180
   2 C :   -0.288451
   3 H :    0.109453
   4 H :    0.140919
   5 S :    0.909179
   6 C :    0.298315
   7 N :   -0.449389
   8 N :   -0.356605
   9 H :    0.325298
  10 H :    0.276804
  11 H :    0.275868
  12 H :    0.275502
  13 O :   -0.604889
  14 O :   -0.594814
  15 C :   -0.311591
  16 C :   -0.230980
  17 C :   -0.189559
  18 H :    0.142366
  19 H :    0.091523
  20 H :    0.092858
  21 H :    0.130816
  22 C :   -0.229257
  23 H :    0.122173
  24 H :    0.190203
  25 C :   -0.160263
  26 H :    0.126715
  27 H :    0.098991
  28 C :   -0.216107
  29 H :    0.107229
  30 H :    0.105574
  31 H :    0.092800
  32 H :    0.051705
  33 H :    0.106613
  34 H :    0.124210
  35 O :   -0.494360
  36 H :    0.163590
  37 H :    0.113625
Sum of atomic charges:   -0.0000000

LOEWDIN ATOMIC CHARGES
----------------------
   0 C :   -0.205188
   1 C :   -0.287492
   2 C :   -0.388414
   3 H :    0.122514
   4 H :    0.139113
   5 S :    0.471879
   6 C :   -0.320028
   7 N :    0.051173
   8 N :    0.119306
   9 H :    0.169884
  10 H :    0.186716
  11 H :    0.183368
  12 H :    0.183629
  13 O :   -0.377731
  14 O :   -0.380854
  15 C :   -0.251838
  16 C :   -0.271607
  17 C :   -0.271992
  18 H :    0.143208
  19 H :    0.132534
  20 H :    0.135478
  21 H :    0.144121
  22 C :   -0.270419
  23 H :    0.145410
  24 H :    0.151191
  25 C :   -0.265241
  26 H :    0.135587
  27 H :    0.133641
  28 C :   -0.267103
  29 H :    0.135923
  30 H :    0.137254
  31 H :    0.131852
  32 H :    0.128756
  33 H :    0.136207
  34 H :    0.139166
  35 O :   -0.312872
  36 H :    0.166514
  37 H :    0.146354

  Mayer bond orders larger than 0.100000
B(  0-C ,  6-C ) :   0.9611 B(  0-C , 15-C ) :   0.9666 B(  0-C , 36-H ) :   0.9381
B(  0-C , 37-H ) :   0.9881 B(  1-C ,  2-C ) :   0.9621 B(  1-C , 17-C ) :   0.9949
B(  1-C , 20-H ) :   0.9674 B(  1-C , 21-H ) :   0.9676 B(  2-C ,  3-H ) :   0.9568
B(  2-C ,  4-H ) :   0.9580 B(  2-C ,  5-S ) :   0.9055 B(  5-S , 13-O ) :   1.4718
B(  5-S , 14-O ) :   1.6751 B(  5-S , 35-O ) :   1.9008 B(  6-C ,  7-N ) :   1.3231
B(  6-C ,  8-N ) :   1.6239 B(  7-N , 11-H ) :   0.9028 B(  7-N , 12-H ) :   0.8991
B(  8-N ,  9-H ) :   0.7114 B(  8-N , 10-H ) :   0.8723 B(  9-H , 13-O ) :   0.2269
B( 15-C , 22-C ) :   0.9338 B( 15-C , 23-H ) :   0.9661 B( 15-C , 24-H ) :   0.9690
B( 16-C , 17-C ) :   0.9622 B( 16-C , 28-C ) :   0.9715 B( 16-C , 31-H ) :   0.9620
B( 16-C , 32-H ) :   0.9728 B( 17-C , 18-H ) :   0.9724 B( 17-C , 19-H ) :   0.9735
B( 22-C , 25-C ) :   0.9833 B( 22-C , 26-H ) :   0.9764 B( 22-C , 27-H ) :   0.9680
B( 25-C , 28-C ) :   0.9571 B( 25-C , 29-H ) :   0.9838 B( 25-C , 30-H ) :   0.9805
B( 28-C , 33-H ) :   0.9740 B( 28-C , 34-H ) :   0.9909

Dispersion correction           -0.020898093
FINAL SINGLE POINT ENERGY     -1127.829832469012

DIPOLE MOMENT
-------------
                                X             Y             Z
Electronic contribution:     -9.22299     -11.38307     -14.21856
Nuclear contribution   :      8.53517      16.50844      14.36520
                        -----------------------------------------
Total Dipole Moment    :     -0.68782       5.12537       0.14664
                        -----------------------------------------
Magnitude (a.u.)       :      5.17340
Magnitude (Debye)      :     13.14973

Rotational constants in cm-1:     0.017951     0.012436     0.008288
Rotational constants in MHz :   538.163255   372.824050   248.467077

                             ****ORCA TERMINATED NORMALLY****
TOTAL RUN TIME: 0 days 0 hours 1 minutes 54 seconds 987 msec
