                         Program Version 5.0.0 -  RELEASE  -
|  1> !wB97X-D3 RIJCOSX def2-TZVP def2/J TightSCF
|  2> *xyz 0 1
|  3> C          4.93020       -7.37532       -2.64962
|  4> C          3.84189       -6.95161       -3.63283
|  5> H          3.45814       -5.95442       -3.40712
|  6> H          2.98848       -7.64361       -3.56708
|  7> S          4.31812       -6.91593       -5.36869
|  8> F          5.40615       -5.89948       -5.51297
|  9> O          3.11191       -6.44508       -6.04379
| 10> C          6.17399       -6.48552       -2.60631
| 11> H          4.46961       -7.40617       -1.65588
| 12> H          5.23013       -8.39868       -2.88591
| 13> O          4.76340       -8.23942       -5.69863
| 14> H          6.62449       -6.45478       -3.57637
| 15> H          6.87304       -6.88376       -1.90088
| 16> H          5.89434       -5.49571       -2.31140
| 17> *
| 18>
| 19> %MaxCore 64000
| 20>
| 21> %pal nprocs 8
| 22> end
| 23>
| 24> %scf
| 25>   MaxIter 150
| 26> end
| 27>
| 28>
| 29>                          ****END OF INPUT****

CARTESIAN COORDINATES (ANGSTROEM)
---------------------------------
  C      4.930200   -7.375320   -2.649620
  C      3.841890   -6.951610   -3.632830
  H      3.458140   -5.954420   -3.407120
  H      2.988480   -7.643610   -3.567080
  S      4.318120   -6.915930   -5.368690
  F      5.406150   -5.899480   -5.512970
  O      3.111910   -6.445080   -6.043790
  C      6.173990   -6.485520   -2.606310
  H      4.469610   -7.406170   -1.655880
  H      5.230130   -8.398680   -2.885910
  O      4.763400   -8.239420   -5.698630
  H      6.624490   -6.454780   -3.576370
  H      6.873040   -6.883760   -1.900880
  H      5.894340   -5.495710   -2.311400

 Total Charge           Charge          ....    0
 Multiplicity           Mult            ....    1
 Number of Electrons    NEL             ....   66
 Basis Dimension        Dim             ....  265

ORBITAL ENERGIES
----------------

  NO   OCC          E(Eh)            E(eV)
   0   2.0000     -89.193034     -2427.0659
   1   2.0000     -24.882649      -677.0913
   2   2.0000     -19.246667      -523.7284
   3   2.0000     -19.236225      -523.4443
   4   2.0000     -10.337818      -281.3063
   5   2.0000     -10.305506      -280.4271
   6   2.0000     -10.279458      -279.7183
   7   2.0000      -8.256219      -224.6631
   8   2.0000      -6.213667      -169.0825
   9   2.0000      -6.207431      -168.9128
  10   2.0000      -6.206648      -168.8915
  11   2.0000      -1.458853       -39.6974
  12   2.0000      -1.227965       -33.4146
  13   2.0000      -1.133818       -30.8528
  14   2.0000      -0.951754       -25.8985
  15   2.0000      -0.865421       -23.5493
  16   2.0000      -0.806493       -21.9458
  17   2.0000      -0.747576       -20.3426
  18   2.0000      -0.675059       -18.3693
  19   2.0000      -0.663035       -18.0421
  20   2.0000      -0.650846       -17.7104
  21   2.0000      -0.595019       -16.1913
  22   2.0000      -0.579911       -15.7802
  23   2.0000      -0.563250       -15.3268
  24   2.0000      -0.551865       -15.0170
  25   2.0000      -0.534210       -14.5366
  26   2.0000      -0.493922       -13.4403
  27   2.0000      -0.482545       -13.1307
  28   2.0000      -0.468365       -12.7449
  29   2.0000      -0.459199       -12.4954
  30   2.0000      -0.435081       -11.8392
  31   2.0000      -0.419764       -11.4224
  32   2.0000      -0.412633       -11.2283
  33   0.0000       0.089967         2.4481
  34   0.0000       0.119321         3.2469
  35   0.0000       0.141753         3.8573
  36   0.0000       0.146934         3.9983
  37   0.0000       0.150956         4.1077

MULLIKEN ATOMIC CHARGES
-----------------------
   0 C :   -0.208410
   1 C :   -0.273920
   2 H :    0.154988
   3 H :    0.175196
   4 S :    0.880216
   5 F :   -0.133506
   6 O :   -0.442552
   7 C :   -0.352063
   8 H :    0.115095
   9 H :    0.135707
  10 O :   -0.414369
  11 H :    0.117893
  12 H :    0.128944
  13 H :    0.116782
Sum of atomic charges:   -0.0000000

LOEWDIN ATOMIC CHARGES
----------------------
   0 C :   -0.311916
   1 C :   -0.369272
   2 H :    0.141678
   3 H :    0.157098
   4 S :    0.559751
   5 F :    0.037897
   6 O :   -0.290845
   7 C :   -0.303692
   8 H :    0.142453
   9 H :    0.143496
  10 O :   -0.258320
  11 H :    0.113360
  12 H :    0.121001
  13 H :    0.117312

  Mayer bond orders larger than 0.100000
B(  0-C ,  1-C ) :   0.9671 B(  0-C ,  7-C ) :   0.9825 B(  0-C ,  8-H ) :   0.9607
B(  0-C ,  9-H ) :   0.9649 B(  1-C ,  2-H ) :   0.9480 B(  1-C ,  3-H ) :   0.9425
B(  1-C ,  4-S ) :   0.9062 B(  4-S ,  5-F ) :   1.0871 B(  4-S ,  6-O ) :   1.9186
B(  4-S , 10-O ) :   1.9212 B(  7-C , 11-H ) :   0.9704 B(  7-C , 12-H ) :   0.9776
B(  7-C , 13-H ) :   0.9767

Dispersion correction           -0.004510730
FINAL SINGLE POINT ENERGY      -767.072173266387

DIPOLE MOMENT
-------------
                                X             Y             Z
Electronic contribution:     -1.88651       1.41117     -11.78041
Nuclear contribution   :      2.27444      -1.01744      13.40618
                        -----------------------------------------
Total Dipole Moment    :      0.38793       0.39372       1.62577
                        -----------------------------------------
Magnitude (a.u.)       :      1.71716
Magnitude (Debye)      :      4.36468

Rotational constants in cm-1:     0.126966     0.054929     0.051005
Rotational constants in MHz :  3806.345018  1646.729702  1529.089209

                             ****ORCA TERMINATED NORMALLY****
TOTAL RUN TIME: 0 days 0 hours 0 minutes 32 seconds 687 msec
