                         Program Version 5.0.0 -  RELEASE  -
|  1> !wB97X-D3 RIJCOSX def2-TZVP def2/J TightSCF
|  2> *xyz 0 1
|  3> C          5.55821       -1.99291       -6.21505
|  4> C          4.18188       -2.58967       -6.29891
|  5> C          3.14587       -1.76843       -6.48675
|  6> N          4.01910       -3.86431       -6.22743
|  7> H          4.76849       -4.59115       -5.99077
|  8> H          3.12241       -4.33339       -6.31462
|  9> H          3.28164       -0.77779       -6.56655
| 10> H          2.21255       -2.13419       -6.56225
| 11> C          6.41926       -2.54294       -5.07763
| 12> C          5.89651       -2.16931       -3.69455
| 13> H          7.42888       -2.14367       -5.20808
| 14> H          6.50589       -3.62754       -5.17550
| 15> H          6.03683       -2.19819       -7.17685
| 16> H          5.46761       -0.90737       -6.12797
| 17> H          5.81870       -1.10488       -3.61824
| 18> H          6.57185       -2.53200       -2.94804
| 19> H          4.93221       -2.60892       -3.54698
| 20> *
| 21>
| 22> %MaxCore 64000
| 23>
| 24> %pal nprocs 8
| 25> end
| 26>
| 27> %scf
| 28>   MaxIter 150
| 29> end
| 30>
| 31>
| 32>                          ****END OF INPUT****

CARTESIAN COORDINATES (ANGSTROEM)
---------------------------------
  C      5.558210   -1.992910   -6.215050
  C      4.181880   -2.589670   -6.298910
  C      3.145870   -1.768430   -6.486750
  N      4.019100   -3.864310   -6.227430
  H      4.768490   -4.591150   -5.990770
  H      3.122410   -4.333390   -6.314620
  H      3.281640   -0.777790   -6.566550
  H      2.212550   -2.134190   -6.562250
  C      6.419260   -2.542940   -5.077630
  C      5.896510   -2.169310   -3.694550
  H      7.428880   -2.143670   -5.208080
  H      6.505890   -3.627540   -5.175500
  H      6.036830   -2.198190   -7.176850
  H      5.467610   -0.907370   -6.127970
  H      5.818700   -1.104880   -3.618240
  H      6.571850   -2.532000   -2.948040
  H      4.932210   -2.608920   -3.546980

 Total Charge           Charge          ....    0
 Multiplicity           Mult            ....    1
 Number of Electrons    NEL             ....   48
 Basis Dimension        Dim             ....  252

ORBITAL ENERGIES
----------------

  NO   OCC          E(Eh)            E(eV)
   0   2.0000     -14.427752      -392.5991
   1   2.0000     -10.297238      -280.2021
   2   2.0000     -10.272844      -279.5383
   3   2.0000     -10.271157      -279.4924
   4   2.0000     -10.252262      -278.9782
   5   2.0000     -10.198282      -277.5094
   6   2.0000      -1.050745       -28.5922
   7   2.0000      -0.910251       -24.7692
   8   2.0000      -0.847650       -23.0657
   9   2.0000      -0.792486       -21.5647
  10   2.0000      -0.710109       -19.3230
  11   2.0000      -0.683629       -18.6025
  12   2.0000      -0.620496       -16.8846
  13   2.0000      -0.566610       -15.4182
  14   2.0000      -0.555184       -15.1073
  15   2.0000      -0.546769       -14.8783
  16   2.0000      -0.491751       -13.3812
  17   2.0000      -0.485895       -13.2219
  18   2.0000      -0.469248       -12.7689
  19   2.0000      -0.463234       -12.6053
  20   2.0000      -0.431338       -11.7373
  21   2.0000      -0.418930       -11.3997
  22   2.0000      -0.413252       -11.2452
  23   2.0000      -0.271257        -7.3813
  24   0.0000       0.100598         2.7374
  25   0.0000       0.125394         3.4121
  26   0.0000       0.140071         3.8115
  27   0.0000       0.146426         3.9845
  28   0.0000       0.166760         4.5378

MULLIKEN ATOMIC CHARGES
-----------------------
   0 C :   -0.184016
   1 C :    0.219980
   2 C :   -0.456633
   3 N :   -0.505568
   4 H :    0.249452
   5 H :    0.248205
   6 H :    0.105893
   7 H :    0.095253
   8 C :   -0.186195
   9 C :   -0.332796
  10 H :    0.104434
  11 H :    0.070908
  12 H :    0.114247
  13 H :    0.113157
  14 H :    0.108487
  15 H :    0.112658
  16 H :    0.122534
Sum of atomic charges:    0.0000000

LOEWDIN ATOMIC CHARGES
----------------------
   0 C :   -0.214537
   1 C :   -0.376493
   2 C :   -0.281708
   3 N :    0.003392
   4 H :    0.189616
   5 H :    0.175048
   6 H :    0.098691
   7 H :    0.092718
   8 C :   -0.292044
   9 C :   -0.298321
  10 H :    0.134364
  11 H :    0.123225
  12 H :    0.145504
  13 H :    0.149639
  14 H :    0.117429
  15 H :    0.113978
  16 H :    0.119499

  Mayer bond orders larger than 0.100000
B(  0-C ,  1-C ) :   0.9525 B(  0-C ,  8-C ) :   0.9680 B(  0-C , 12-H ) :   0.9623
B(  0-C , 13-H ) :   0.9924 B(  1-C ,  2-C ) :   1.7362 B(  1-C ,  3-N ) :   1.1659
B(  2-C ,  6-H ) :   1.0001 B(  2-C ,  7-H ) :   1.0010 B(  3-N ,  4-H ) :   0.9105
B(  3-N ,  5-H ) :   0.9157 B(  8-C ,  9-C ) :   0.9752 B(  8-C , 10-H ) :   0.9787
B(  8-C , 11-H ) :   0.9812 B(  9-C , 14-H ) :   0.9762 B(  9-C , 15-H ) :   0.9796
B(  9-C , 16-H ) :   0.9768

Dispersion correction           -0.004522724
FINAL SINGLE POINT ENERGY      -251.893794747236

DIPOLE MOMENT
-------------
                                X             Y             Z
Electronic contribution:     -1.91377      -1.44421      -2.51296
Nuclear contribution   :      2.30279       0.65856       2.66048
                        -----------------------------------------
Total Dipole Moment    :      0.38903      -0.78564       0.14752
                        -----------------------------------------
Magnitude (a.u.)       :      0.88901
Magnitude (Debye)      :      2.25968

Rotational constants in cm-1:     0.189707     0.076319     0.071159
Rotational constants in MHz :  5687.269526  2287.988194  2133.283230

                             ****ORCA TERMINATED NORMALLY****
TOTAL RUN TIME: 0 days 0 hours 0 minutes 32 seconds 564 msec
