                         Program Version 5.0.0 -  RELEASE  -
|  1> !wB97X-D3 RIJCOSX def2-TZVP def2/J TightSCF
|  2> *xyz 0 1
|  3> C          4.93020       -7.37532       -2.64962
|  4> C          3.84189       -6.95161       -3.63283
|  5> H          3.45814       -5.95442       -3.40712
|  6> H          2.98848       -7.64361       -3.56708
|  7> S          4.31812       -6.91593       -5.36869
|  8> O          5.40615       -5.89948       -5.51297
|  9> F          3.11191       -6.44508       -6.04379
| 10> C          6.17399       -6.48552       -2.60631
| 11> H          4.46961       -7.40617       -1.65588
| 12> H          5.23013       -8.39868       -2.88591
| 13> O          4.76340       -8.23942       -5.69863
| 14> H          6.62449       -6.45478       -3.57637
| 15> H          6.87304       -6.88376       -1.90088
| 16> H          5.89434       -5.49571       -2.31140
| 17> *
| 18>
| 19> %MaxCore 64000
| 20>
| 21> %pal nprocs 8
| 22> end
| 23>
| 24> %scf
| 25>   MaxIter 150
| 26> end
| 27>
| 28>
| 29>                          ****END OF INPUT****

CARTESIAN COORDINATES (ANGSTROEM)
---------------------------------
  C      4.930200   -7.375320   -2.649620
  C      3.841890   -6.951610   -3.632830
  H      3.458140   -5.954420   -3.407120
  H      2.988480   -7.643610   -3.567080
  S      4.318120   -6.915930   -5.368690
  O      5.406150   -5.899480   -5.512970
  F      3.111910   -6.445080   -6.043790
  C      6.173990   -6.485520   -2.606310
  H      4.469610   -7.406170   -1.655880
  H      5.230130   -8.398680   -2.885910
  O      4.763400   -8.239420   -5.698630
  H      6.624490   -6.454780   -3.576370
  H      6.873040   -6.883760   -1.900880
  H      5.894340   -5.495710   -2.311400

 Total Charge           Charge          ....    0
 Multiplicity           Mult            ....    1
 Number of Electrons    NEL             ....   66
 Basis Dimension        Dim             ....  265

ORBITAL ENERGIES
----------------

  NO   OCC          E(Eh)            E(eV)
   0   2.0000     -89.195596     -2427.1356
   1   2.0000     -24.898134      -677.5127
   2   2.0000     -19.246627      -523.7274
   3   2.0000     -19.229244      -523.2543
   4   2.0000     -10.338837      -281.3340
   5   2.0000     -10.303701      -280.3780
   6   2.0000     -10.262413      -279.2545
   7   2.0000      -8.258743      -224.7318
   8   2.0000      -6.216075      -169.1480
   9   2.0000      -6.209761      -168.9762
  10   2.0000      -6.209418      -168.9669
  11   2.0000      -1.485713       -40.4283
  12   2.0000      -1.222290       -33.2602
  13   2.0000      -1.116847       -30.3910
  14   2.0000      -0.948031       -25.7972
  15   2.0000      -0.868279       -23.6271
  16   2.0000      -0.810984       -22.0680
  17   2.0000      -0.742365       -20.2008
  18   2.0000      -0.682479       -18.5712
  19   2.0000      -0.677620       -18.4390
  20   2.0000      -0.659762       -17.9530
  21   2.0000      -0.594900       -16.1881
  22   2.0000      -0.584912       -15.9163
  23   2.0000      -0.549683       -14.9576
  24   2.0000      -0.544025       -14.8037
  25   2.0000      -0.527294       -14.3484
  26   2.0000      -0.486799       -13.2465
  27   2.0000      -0.469025       -12.7628
  28   2.0000      -0.467468       -12.7204
  29   2.0000      -0.453018       -12.3273
  30   2.0000      -0.431966       -11.7544
  31   2.0000      -0.409146       -11.1334
  32   2.0000      -0.401121       -10.9151
  33   0.0000       0.101910         2.7731
  34   0.0000       0.113844         3.0979
  35   0.0000       0.142034         3.8649
  36   0.0000       0.147183         4.0051
  37   0.0000       0.157772         4.2932

MULLIKEN ATOMIC CHARGES
-----------------------
   0 C :   -0.213529
   1 C :   -0.258327
   2 H :    0.148375
   3 H :    0.153056
   4 S :    0.877481
   5 O :   -0.469273
   6 F :   -0.109955
   7 C :   -0.346796
   8 H :    0.116391
   9 H :    0.132486
  10 O :   -0.407429
  11 H :    0.152689
  12 H :    0.118776
  13 H :    0.106053
Sum of atomic charges:    0.0000000

LOEWDIN ATOMIC CHARGES
----------------------
   0 C :   -0.301990
   1 C :   -0.375822
   2 H :    0.139918
   3 H :    0.143473
   4 S :    0.555426
   5 O :   -0.326237
   6 F :    0.077091
   7 C :   -0.300081
   8 H :    0.143468
   9 H :    0.144061
  10 O :   -0.256296
  11 H :    0.123354
  12 H :    0.117196
  13 H :    0.116438

  Mayer bond orders larger than 0.100000
B(  0-C ,  1-C ) :   0.9797 B(  0-C ,  7-C ) :   0.9915 B(  0-C ,  8-H ) :   0.9615
B(  0-C ,  9-H ) :   0.9662 B(  1-C ,  2-H ) :   0.9399 B(  1-C ,  3-H ) :   0.9407
B(  1-C ,  4-S ) :   0.9131 B(  4-S ,  5-O ) :   1.8457 B(  4-S ,  6-F ) :   1.1324
B(  4-S , 10-O ) :   1.9267 B(  7-C , 11-H ) :   0.9652 B(  7-C , 12-H ) :   0.9755
B(  7-C , 13-H ) :   0.9768

Dispersion correction           -0.004531135
FINAL SINGLE POINT ENERGY      -767.061076658164

DIPOLE MOMENT
-------------
                                X             Y             Z
Electronic contribution:     -5.88188       0.47501     -12.78756
Nuclear contribution   :      4.74176      -0.43068      13.97705
                        -----------------------------------------
Total Dipole Moment    :     -1.14012       0.04433       1.18949
                        -----------------------------------------
Magnitude (a.u.)       :      1.64825
Magnitude (Debye)      :      4.18952

Rotational constants in cm-1:     0.131248     0.052952     0.050354
Rotational constants in MHz :  3934.713341  1587.473971  1509.583923

                             ****ORCA TERMINATED NORMALLY****
TOTAL RUN TIME: 0 days 0 hours 0 minutes 30 seconds 234 msec
