                         Program Version 5.0.0 -  RELEASE  -
|  1> !wB97X-D3 RIJCOSX def2-TZVP def2/J TightSCF
|  2> *xyz 0 1
|  3> C          5.55821       -1.99291       -6.21505
|  4> C          4.18188       -2.58967       -6.29891
|  5> N          3.14587       -1.76843       -6.48675
|  6> C          4.01910       -3.86431       -6.22743
|  7> H          4.76849       -4.59115       -5.99077
|  8> H          3.12241       -4.33339       -6.31462
|  9> H          3.28164       -0.77779       -6.56655
| 10> H          2.21255       -2.13419       -6.56225
| 11> C          6.41926       -2.54294       -5.07763
| 12> C          5.89651       -2.16931       -3.69455
| 13> H          7.42888       -2.14367       -5.20808
| 14> H          6.50589       -3.62754       -5.17550
| 15> H          6.03683       -2.19819       -7.17685
| 16> H          5.46761       -0.90737       -6.12797
| 17> H          5.81870       -1.10488       -3.61824
| 18> H          6.57185       -2.53200       -2.94804
| 19> H          4.93221       -2.60892       -3.54698
| 20> *
| 21>
| 22> %MaxCore 64000
| 23>
| 24> %pal nprocs 8
| 25> end
| 26>
| 27> %scf
| 28>   MaxIter 150
| 29> end
| 30>
| 31>
| 32>                          ****END OF INPUT****

CARTESIAN COORDINATES (ANGSTROEM)
---------------------------------
  C      5.558210   -1.992910   -6.215050
  C      4.181880   -2.589670   -6.298910
  N      3.145870   -1.768430   -6.486750
  C      4.019100   -3.864310   -6.227430
  H      4.768490   -4.591150   -5.990770
  H      3.122410   -4.333390   -6.314620
  H      3.281640   -0.777790   -6.566550
  H      2.212550   -2.134190   -6.562250
  C      6.419260   -2.542940   -5.077630
  C      5.896510   -2.169310   -3.694550
  H      7.428880   -2.143670   -5.208080
  H      6.505890   -3.627540   -5.175500
  H      6.036830   -2.198190   -7.176850
  H      5.467610   -0.907370   -6.127970
  H      5.818700   -1.104880   -3.618240
  H      6.571850   -2.532000   -2.948040
  H      4.932210   -2.608920   -3.546980

 Total Charge           Charge          ....    0
 Multiplicity           Mult            ....    1
 Number of Electrons    NEL             ....   48
 Basis Dimension        Dim             ....  252

ORBITAL ENERGIES
----------------

  NO   OCC          E(Eh)            E(eV)
   0   2.0000     -14.416274      -392.2867
   1   2.0000     -10.294790      -280.1355
   2   2.0000     -10.272294      -279.5233
   3   2.0000     -10.267122      -279.3826
   4   2.0000     -10.248337      -278.8714
   5   2.0000     -10.205602      -277.7085
   6   2.0000      -1.040178       -28.3047
   7   2.0000      -0.911323       -24.7984
   8   2.0000      -0.845568       -23.0091
   9   2.0000      -0.796164       -21.6647
  10   2.0000      -0.715848       -19.4792
  11   2.0000      -0.656650       -17.8684
  12   2.0000      -0.622468       -16.9382
  13   2.0000      -0.591237       -16.0884
  14   2.0000      -0.553168       -15.0525
  15   2.0000      -0.535941       -14.5837
  16   2.0000      -0.496563       -13.5122
  17   2.0000      -0.485743       -13.2178
  18   2.0000      -0.461467       -12.5572
  19   2.0000      -0.445675       -12.1274
  20   2.0000      -0.426156       -11.5963
  21   2.0000      -0.418971       -11.4008
  22   2.0000      -0.413261       -11.2454
  23   2.0000      -0.280001        -7.6192
  24   0.0000       0.111964         3.0467
  25   0.0000       0.124431         3.3859
  26   0.0000       0.139910         3.8071
  27   0.0000       0.152452         4.1484
  28   0.0000       0.170134         4.6296

MULLIKEN ATOMIC CHARGES
-----------------------
   0 C :   -0.180413
   1 C :    0.212578
   2 N :   -0.502148
   3 C :   -0.433664
   4 H :    0.103800
   5 H :    0.096721
   6 H :    0.235662
   7 H :    0.239483
   8 C :   -0.175717
   9 C :   -0.343322
  10 H :    0.095302
  11 H :    0.099147
  12 H :    0.122132
  13 H :    0.088356
  14 H :    0.098564
  15 H :    0.114044
  16 H :    0.129476
Sum of atomic charges:   -0.0000000

LOEWDIN ATOMIC CHARGES
----------------------
   0 C :   -0.214736
   1 C :   -0.361874
   2 N :   -0.010858
   3 C :   -0.279403
   4 H :    0.119374
   5 H :    0.099070
   6 H :    0.161947
   7 H :    0.168811
   8 C :   -0.281896
   9 C :   -0.299745
  10 H :    0.131848
  11 H :    0.133983
  12 H :    0.150731
  13 H :    0.134691
  14 H :    0.113214
  15 H :    0.114622
  16 H :    0.120221

  Mayer bond orders larger than 0.100000
B(  0-C ,  1-C ) :   0.9217 B(  0-C ,  8-C ) :   0.9832 B(  0-C , 12-H ) :   0.9565
B(  0-C , 13-H ) :   0.9986 B(  1-C ,  2-N ) :   1.1442 B(  1-C ,  3-C ) :   1.7740
B(  2-N ,  6-H ) :   0.9241 B(  2-N ,  7-H ) :   0.9208 B(  3-C ,  4-H ) :   0.9986
B(  3-C ,  5-H ) :   0.9954 B(  8-C ,  9-C ) :   0.9779 B(  8-C , 10-H ) :   0.9760
B(  8-C , 11-H ) :   0.9754 B(  9-C , 14-H ) :   0.9782 B(  9-C , 15-H ) :   0.9805
B(  9-C , 16-H ) :   0.9753

Dispersion correction           -0.004481361
FINAL SINGLE POINT ENERGY      -251.903882507427

DIPOLE MOMENT
-------------
                                X             Y             Z
Electronic contribution:     -2.70520       0.46382      -2.78717
Nuclear contribution   :      2.50934       0.16282       2.72182
                        -----------------------------------------
Total Dipole Moment    :     -0.19585       0.62664      -0.06535
                        -----------------------------------------
Magnitude (a.u.)       :      0.65978
Magnitude (Debye)      :      1.67703

Rotational constants in cm-1:     0.192764     0.074934     0.070466
Rotational constants in MHz :  5778.908020  2246.454937  2112.518546

                             ****ORCA TERMINATED NORMALLY****
TOTAL RUN TIME: 0 days 0 hours 0 minutes 30 seconds 502 msec
