                         Program Version 5.0.0 -  RELEASE  -
|  1> !wB97X-D3 RIJCOSX def2-TZVP def2/J TightSCF
|  2> *xyz 0 1
|  3> C          4.93020       -7.37532       -2.64962
|  4> C          3.84189       -6.95161       -3.63283
|  5> H          3.45814       -5.95442       -3.40712
|  6> H          2.98848       -7.64361       -3.56708
|  7> S          4.31812       -6.91593       -5.36869
|  8> O          5.40615       -5.89948       -5.51297
|  9> O          3.11191       -6.44508       -6.04379
| 10> C          6.17399       -6.48552       -2.60631
| 11> H          4.46961       -7.40617       -1.65588
| 12> H          5.23013       -8.39868       -2.88591
| 13> F          4.76340       -8.23942       -5.69863
| 14> H          6.62449       -6.45478       -3.57637
| 15> H          6.87304       -6.88376       -1.90088
| 16> H          5.89434       -5.49571       -2.31140
| 17> *
| 18>
| 19> %MaxCore 64000
| 20>
| 21> %pal nprocs 8
| 22> end
| 23>
| 24> %scf
| 25>   MaxIter 150
| 26> end
| 27>
| 28>
| 29>                          ****END OF INPUT****

CARTESIAN COORDINATES (ANGSTROEM)
---------------------------------
  C      4.930200   -7.375320   -2.649620
  C      3.841890   -6.951610   -3.632830
  H      3.458140   -5.954420   -3.407120
  H      2.988480   -7.643610   -3.567080
  S      4.318120   -6.915930   -5.368690
  O      5.406150   -5.899480   -5.512970
  O      3.111910   -6.445080   -6.043790
  C      6.173990   -6.485520   -2.606310
  H      4.469610   -7.406170   -1.655880
  H      5.230130   -8.398680   -2.885910
  F      4.763400   -8.239420   -5.698630
  H      6.624490   -6.454780   -3.576370
  H      6.873040   -6.883760   -1.900880
  H      5.894340   -5.495710   -2.311400

 Total Charge           Charge          ....    0
 Multiplicity           Mult            ....    1
 Number of Electrons    NEL             ....   66
 Basis Dimension        Dim             ....  265

ORBITAL ENERGIES
----------------

  NO   OCC          E(Eh)            E(eV)
   0   2.0000     -89.197069     -2427.1756
   1   2.0000     -24.912517      -677.9041
   2   2.0000     -19.237001      -523.4654
   3   2.0000     -19.230067      -523.2767
   4   2.0000     -10.339030      -281.3393
   5   2.0000     -10.306227      -280.4467
   6   2.0000     -10.266752      -279.3725
   7   2.0000      -8.260175      -224.7708
   8   2.0000      -6.217658      -169.1911
   9   2.0000      -6.211022      -169.0105
  10   2.0000      -6.210798      -169.0044
  11   2.0000      -1.508319       -41.0434
  12   2.0000      -1.210495       -32.9392
  13   2.0000      -1.109282       -30.1851
  14   2.0000      -0.951455       -25.8904
  15   2.0000      -0.868864       -23.6430
  16   2.0000      -0.823306       -22.4033
  17   2.0000      -0.747069       -20.3288
  18   2.0000      -0.703699       -19.1486
  19   2.0000      -0.696802       -18.9609
  20   2.0000      -0.650261       -17.6945
  21   2.0000      -0.593404       -16.1473
  22   2.0000      -0.586752       -15.9663
  23   2.0000      -0.554188       -15.0802
  24   2.0000      -0.536327       -14.5942
  25   2.0000      -0.530077       -14.4241
  26   2.0000      -0.481721       -13.1083
  27   2.0000      -0.478335       -13.0162
  28   2.0000      -0.470596       -12.8056
  29   2.0000      -0.454157       -12.3582
  30   2.0000      -0.420553       -11.4438
  31   2.0000      -0.410431       -11.1684
  32   2.0000      -0.393040       -10.6952
  33   0.0000       0.089919         2.4468
  34   0.0000       0.121795         3.3142
  35   0.0000       0.139718         3.8019
  36   0.0000       0.145897         3.9701
  37   0.0000       0.150430         4.0934

MULLIKEN ATOMIC CHARGES
-----------------------
   0 C :   -0.219857
   1 C :   -0.269042
   2 H :    0.171757
   3 H :    0.157969
   4 S :    0.873843
   5 O :   -0.461343
   6 O :   -0.429989
   7 C :   -0.331966
   8 H :    0.118694
   9 H :    0.113018
  10 F :   -0.091562
  11 H :    0.137640
  12 H :    0.118776
  13 H :    0.112061
Sum of atomic charges:   -0.0000000

LOEWDIN ATOMIC CHARGES
----------------------
   0 C :   -0.314446
   1 C :   -0.370031
   2 H :    0.153741
   3 H :    0.144926
   4 S :    0.553036
   5 O :   -0.321397
   6 O :   -0.285521
   7 C :   -0.302638
   8 H :    0.142885
   9 H :    0.135574
  10 F :    0.109197
  11 H :    0.119302
  12 H :    0.116682
  13 H :    0.118692

  Mayer bond orders larger than 0.100000
B(  0-C ,  1-C ) :   0.9681 B(  0-C ,  7-C ) :   0.9829 B(  0-C ,  8-H ) :   0.9647
B(  0-C ,  9-H ) :   0.9726 B(  1-C ,  2-H ) :   0.9419 B(  1-C ,  3-H ) :   0.9479
B(  1-C ,  4-S ) :   0.9056 B(  4-S ,  5-O ) :   1.8445 B(  4-S ,  6-O ) :   1.9235
B(  4-S , 10-F ) :   1.1445 B(  7-C , 11-H ) :   0.9649 B(  7-C , 12-H ) :   0.9751
B(  7-C , 13-H ) :   0.9762

Dispersion correction           -0.004476074
FINAL SINGLE POINT ENERGY      -767.048930450420

DIPOLE MOMENT
-------------
                                X             Y             Z
Electronic contribution:     -3.01703      -2.61219     -12.16905
Nuclear contribution   :      2.96568       1.49902      13.60585
                        -----------------------------------------
Total Dipole Moment    :     -0.05135      -1.11317       1.43680
                        -----------------------------------------
Magnitude (a.u.)       :      1.81829
Magnitude (Debye)      :      4.62172

Rotational constants in cm-1:     0.127173     0.053596     0.051689
Rotational constants in MHz :  3812.547794  1606.772866  1549.597841

                             ****ORCA TERMINATED NORMALLY****
TOTAL RUN TIME: 0 days 0 hours 0 minutes 31 seconds 868 msec
