                         Program Version 5.0.0 -  RELEASE  -
|  1> !wB97X-D3 RIJCOSX def2-TZVP def2/J TightSCF xyzfile
|  2>
|  3> *xyzfile 0 1 D1.xyz
|  4>
|  5> %MaxCore 64000
|  6>
|  7> %pal nprocs 18
|  8> end
|  9>
| 10> %scf
| 11>   MaxIter 150
| 12> end
| 13>
| 14>
| 15>                          ****END OF INPUT****

CARTESIAN COORDINATES (ANGSTROEM)
---------------------------------
  C      5.558206   -1.992914   -6.215054
  C      4.930199   -7.375319   -2.649623
  C      3.841892   -6.951611   -3.632829
  H      3.458144   -5.954425   -3.407121
  H      2.988484   -7.643606   -3.567078
  S      4.318115   -6.915930   -5.368692
  C      4.181880   -2.589671   -6.298911
  C      3.145873   -1.768431   -6.486753
  N      4.019102   -3.864307   -6.227427
  H      4.768490   -4.591153   -5.990773
  H      3.122405   -4.333392   -6.314620
  H      3.281635   -0.777786   -6.566549
  H      2.212549   -2.134193   -6.562246
  F      5.406154   -5.899480   -5.512972
  O      3.111910   -6.445079   -6.043792
  C      6.419260   -2.542944   -5.077630
  C      5.872267   -5.002756   -2.427819
  C      6.173994   -6.485522   -2.606315
  H      6.734852   -6.613767   -3.534015
  H      6.821463   -6.831018   -1.793617
  H      4.469612   -7.406168   -1.655876
  H      5.230134   -8.398678   -2.885906
  C      5.896512   -2.169314   -3.694552
  H      7.428880   -2.143665   -5.208078
  H      6.505894   -3.627541   -5.175502
  C      6.807804   -2.623428   -2.551019
  H      4.894708   -2.589732   -3.557501
  H      5.778823   -1.081255   -3.635790
  C      7.111544   -4.122463   -2.520363
  H      7.751615   -2.071393   -2.614406
  H      6.345837   -2.326401   -1.604086
  H      5.362882   -4.828697   -1.471335
  H      5.174429   -4.702577   -3.211298
  H      7.778329   -4.329347   -1.677651
  H      7.673189   -4.402845   -3.417586
  O      4.763396   -8.239424   -5.698629
  H      6.036826   -2.198189   -7.176852
  H      5.467610   -0.907371   -6.127968

 Total Charge           Charge          ....    0
 Multiplicity           Mult            ....    1
 Number of Electrons    NEL             ....  136
 Basis Dimension        Dim             ....  634

ORBITAL ENERGIES
----------------

  NO   OCC          E(Eh)            E(eV)
   0   2.0000     -89.213299     -2427.6173
   1   2.0000     -24.915411      -677.9828
   2   2.0000     -19.265357      -524.2370
   3   2.0000     -19.258127      -524.0403
   4   2.0000     -14.403338      -391.9348
   5   2.0000     -10.349257      -281.6176
   6   2.0000     -10.311804      -280.5985
   7   2.0000     -10.295314      -280.1497
   8   2.0000     -10.286373      -279.9064
   9   2.0000     -10.286285      -279.9040
  10   2.0000     -10.279211      -279.7116
  11   2.0000     -10.273855      -279.5658
  12   2.0000     -10.272836      -279.5381
  13   2.0000     -10.268497      -279.4200
  14   2.0000     -10.267323      -279.3881
  15   2.0000     -10.188765      -277.2504
  16   2.0000      -8.277012      -225.2289
  17   2.0000      -6.234829      -169.6583
  18   2.0000      -6.227789      -169.4667
  19   2.0000      -6.227276      -169.4528
  20   2.0000      -1.496637       -40.7256
  21   2.0000      -1.249433       -33.9988
  22   2.0000      -1.155694       -31.4480
  23   2.0000      -1.036771       -28.2120
  24   2.0000      -0.971322       -26.4310
  25   2.0000      -0.938315       -25.5328
  26   2.0000      -0.909361       -24.7450
  27   2.0000      -0.876367       -23.8472
  28   2.0000      -0.855550       -23.2807
  29   2.0000      -0.825692       -22.4682
  30   2.0000      -0.812315       -22.1042
  31   2.0000      -0.772675       -21.0256
  32   2.0000      -0.735311       -20.0088
  33   2.0000      -0.725044       -19.7295
  34   2.0000      -0.719834       -19.5877
  35   2.0000      -0.694412       -18.8959
  36   2.0000      -0.679418       -18.4879
  37   2.0000      -0.668654       -18.1950
  38   2.0000      -0.662665       -18.0320
  39   2.0000      -0.614429       -16.7195
  40   2.0000      -0.606806       -16.5120
  41   2.0000      -0.593706       -16.1556
  42   2.0000      -0.587032       -15.9740
  43   2.0000      -0.577935       -15.7264
  44   2.0000      -0.567128       -15.4323
  45   2.0000      -0.563827       -15.3425
  46   2.0000      -0.553464       -15.0605
  47   2.0000      -0.534674       -14.5492
  48   2.0000      -0.531516       -14.4633
  49   2.0000      -0.521545       -14.1920
  50   2.0000      -0.509291       -13.8585
  51   2.0000      -0.506594       -13.7851
  52   2.0000      -0.491373       -13.3709
  53   2.0000      -0.475916       -12.9503
  54   2.0000      -0.470857       -12.8127
  55   2.0000      -0.465838       -12.6761
  56   2.0000      -0.463496       -12.6124
  57   2.0000      -0.452495       -12.3130
  58   2.0000      -0.450179       -12.2500
  59   2.0000      -0.439707       -11.9650
  60   2.0000      -0.435108       -11.8399
  61   2.0000      -0.431085       -11.7304
  62   2.0000      -0.430261       -11.7080
  63   2.0000      -0.422446       -11.4954
  64   2.0000      -0.411307       -11.1922
  65   2.0000      -0.404568       -11.0089
  66   2.0000      -0.400951       -10.9104
  67   2.0000      -0.260391        -7.0856
  68   0.0000       0.072892         1.9835
  69   0.0000       0.102435         2.7874
  70   0.0000       0.109687         2.9847
  71   0.0000       0.111879         3.0444
  72   0.0000       0.121315         3.3012

MULLIKEN ATOMIC CHARGES
-----------------------
   0 C :   -0.164429
   1 C :   -0.188779
   2 C :   -0.321900
   3 H :    0.185177
   4 H :    0.189855
   5 S :    0.898422
   6 C :    0.197384
   7 C :   -0.467717
   8 N :   -0.502514
   9 H :    0.247821
  10 H :    0.262364
  11 H :    0.100182
  12 H :    0.098295
  13 F :   -0.135123
  14 O :   -0.451508
  15 C :   -0.265295
  16 C :   -0.272125
  17 C :   -0.234436
  18 H :    0.126763
  19 H :    0.121815
  20 H :    0.125190
  21 H :    0.150598
  22 C :   -0.220649
  23 H :    0.109717
  24 H :    0.086229
  25 C :   -0.161859
  26 H :    0.133387
  27 H :    0.110266
  28 C :   -0.197579
  29 H :    0.108745
  30 H :    0.104926
  31 H :    0.113188
  32 H :    0.064106
  33 H :    0.111860
  34 H :    0.115022
  35 O :   -0.404507
  36 H :    0.116540
  37 H :    0.110570
Sum of atomic charges:   -0.0000000

LOEWDIN ATOMIC CHARGES
----------------------
   0 C :   -0.210195
   1 C :   -0.284131
   2 C :   -0.362667
   3 H :    0.144273
   4 H :    0.159062
   5 S :    0.573258
   6 C :   -0.380301
   7 C :   -0.288837
   8 N :   -0.015572
   9 H :    0.153009
  10 H :    0.173093
  11 H :    0.096503
  12 H :    0.092762
  13 F :    0.060217
  14 O :   -0.274451
  15 C :   -0.267076
  16 C :   -0.271787
  17 C :   -0.273415
  18 H :    0.134513
  19 H :    0.142625
  20 H :    0.147982
  21 H :    0.146936
  22 C :   -0.265147
  23 H :    0.138357
  24 H :    0.124179
  25 C :   -0.266820
  26 H :    0.138225
  27 H :    0.140056
  28 C :   -0.268335
  29 H :    0.137070
  30 H :    0.136136
  31 H :    0.138806
  32 H :    0.127094
  33 H :    0.136796
  34 H :    0.135805
  35 O :   -0.243000
  36 H :    0.145494
  37 H :    0.149483

  Mayer bond orders larger than 0.100000
B(  0-C ,  6-C ) :   0.9603 B(  0-C , 15-C ) :   0.9607 B(  0-C , 36-H ) :   0.9690
B(  0-C , 37-H ) :   0.9904 B(  1-C ,  2-C ) :   0.9488 B(  1-C , 17-C ) :   0.9807
B(  1-C , 20-H ) :   0.9581 B(  1-C , 21-H ) :   0.9721 B(  2-C ,  3-H ) :   0.9408
B(  2-C ,  4-H ) :   0.9382 B(  2-C ,  5-S ) :   0.9140 B(  5-S , 13-F ) :   1.0276
B(  5-S , 14-O ) :   1.8484 B(  5-S , 35-O ) :   1.9683 B(  6-C ,  7-C ) :   1.7219
B(  6-C ,  8-N ) :   1.2158 B(  7-C , 11-H ) :   1.0013 B(  7-C , 12-H ) :   0.9986
B(  8-N ,  9-H ) :   0.8831 B(  8-N , 10-H ) :   0.8955 B( 15-C , 22-C ) :   0.9303
B( 15-C , 23-H ) :   0.9689 B( 15-C , 24-H ) :   0.9961 B( 16-C , 17-C ) :   0.9216
B( 16-C , 28-C ) :   0.9678 B( 16-C , 31-H ) :   0.9591 B( 16-C , 32-H ) :   0.9914
B( 17-C , 18-H ) :   0.9936 B( 17-C , 19-H ) :   0.9731 B( 22-C , 25-C ) :   0.9644
B( 22-C , 26-H ) :   0.9873 B( 22-C , 27-H ) :   0.9707 B( 25-C , 28-C ) :   0.9633
B( 25-C , 29-H ) :   0.9816 B( 25-C , 30-H ) :   0.9843 B( 28-C , 33-H ) :   0.9739
B( 28-C , 34-H ) :   0.9871

Dispersion correction           -0.020748681
FINAL SINGLE POINT ENERGY     -1135.705441959638

DIPOLE MOMENT
-------------
                                X             Y             Z
Electronic contribution:     -6.98730     -18.79641     -13.20651
Nuclear contribution   :      7.78491      18.17172      15.09294
                        -----------------------------------------
Total Dipole Moment    :      0.79761      -0.62469       1.88643
                        -----------------------------------------
Magnitude (a.u.)       :      2.14127
Magnitude (Debye)      :      5.44267

Rotational constants in cm-1:     0.018190     0.012573     0.008405
Rotational constants in MHz :   545.327178   376.916509   251.974803

                             ****ORCA TERMINATED NORMALLY****
TOTAL RUN TIME: 0 days 0 hours 1 minutes 53 seconds 651 msec
