                         Program Version 5.0.0 -  RELEASE  -
|  1> !wB97X-D3 RIJCOSX def2-TZVP def2/J TightSCF xyzfile
|  2>
|  3> *xyzfile 0 1 D2.xyz
|  4>
|  5> %MaxCore 64000
|  6>
|  7> %pal nprocs 18
|  8> end
|  9>
| 10> %scf
| 11>   MaxIter 150
| 12> end
| 13>
| 14>
| 15>                          ****END OF INPUT****

CARTESIAN COORDINATES (ANGSTROEM)
---------------------------------
  C      5.558206   -1.992914   -6.215054
  C      4.930199   -7.375319   -2.649623
  C      3.841892   -6.951611   -3.632829
  H      3.458144   -5.954425   -3.407121
  H      2.988484   -7.643606   -3.567078
  S      4.318115   -6.915930   -5.368692
  C      4.181880   -2.589671   -6.298911
  N      3.145873   -1.768431   -6.486753
  C      4.019102   -3.864307   -6.227427
  H      4.768490   -4.591153   -5.990773
  H      3.122405   -4.333392   -6.314620
  H      3.281635   -0.777786   -6.566549
  H      2.212549   -2.134193   -6.562246
  F      5.406154   -5.899480   -5.512972
  O      3.111910   -6.445079   -6.043792
  C      6.419260   -2.542944   -5.077630
  C      5.872267   -5.002756   -2.427819
  C      6.173994   -6.485522   -2.606315
  H      6.734852   -6.613767   -3.534015
  H      6.821463   -6.831018   -1.793617
  H      4.469612   -7.406168   -1.655876
  H      5.230134   -8.398678   -2.885906
  C      5.896512   -2.169314   -3.694552
  H      7.428880   -2.143665   -5.208078
  H      6.505894   -3.627541   -5.175502
  C      6.807804   -2.623428   -2.551019
  H      4.894708   -2.589732   -3.557501
  H      5.778823   -1.081255   -3.635790
  C      7.111544   -4.122463   -2.520363
  H      7.751615   -2.071393   -2.614406
  H      6.345837   -2.326401   -1.604086
  H      5.362882   -4.828697   -1.471335
  H      5.174429   -4.702577   -3.211298
  H      7.778329   -4.329347   -1.677651
  H      7.673189   -4.402845   -3.417586
  O      4.763396   -8.239424   -5.698629
  H      6.036826   -2.198189   -7.176852
  H      5.467610   -0.907371   -6.127968

 Total Charge           Charge          ....    0
 Multiplicity           Mult            ....    1
 Number of Electrons    NEL             ....  136
 Basis Dimension        Dim             ....  634

ORBITAL ENERGIES
----------------

  NO   OCC          E(Eh)            E(eV)
   0   2.0000     -89.191423     -2427.0220
   1   2.0000     -24.883848      -677.1239
   2   2.0000     -19.245032      -523.6839
   3   2.0000     -19.232754      -523.3499
   4   2.0000     -14.408976      -392.0882
   5   2.0000     -10.333261      -281.1823
   6   2.0000     -10.299976      -280.2766
   7   2.0000     -10.285034      -279.8700
   8   2.0000     -10.285014      -279.8695
   9   2.0000     -10.277131      -279.6549
  10   2.0000     -10.272884      -279.5394
  11   2.0000     -10.270146      -279.4649
  12   2.0000     -10.270044      -279.4621
  13   2.0000     -10.269026      -279.4344
  14   2.0000     -10.265430      -279.3365
  15   2.0000     -10.183358      -277.1033
  16   2.0000      -8.254814      -224.6249
  17   2.0000      -6.212438      -169.0490
  18   2.0000      -6.205895      -168.8710
  19   2.0000      -6.205113      -168.8497
  20   2.0000      -1.466719       -39.9114
  21   2.0000      -1.227070       -33.3903
  22   2.0000      -1.132560       -30.8185
  23   2.0000      -1.032638       -28.0995
  24   2.0000      -0.958715       -26.0879
  25   2.0000      -0.932968       -25.3873
  26   2.0000      -0.903082       -24.5741
  27   2.0000      -0.873521       -23.7697
  28   2.0000      -0.835627       -22.7386
  29   2.0000      -0.823576       -22.4106
  30   2.0000      -0.796119       -21.6635
  31   2.0000      -0.771496       -20.9935
  32   2.0000      -0.732965       -19.9450
  33   2.0000      -0.714230       -19.4352
  34   2.0000      -0.697000       -18.9663
  35   2.0000      -0.671623       -18.2758
  36   2.0000      -0.670646       -18.2492
  37   2.0000      -0.650259       -17.6944
  38   2.0000      -0.643273       -17.5043
  39   2.0000      -0.615607       -16.7515
  40   2.0000      -0.597639       -16.2626
  41   2.0000      -0.592495       -16.1226
  42   2.0000      -0.586847       -15.9689
  43   2.0000      -0.570535       -15.5250
  44   2.0000      -0.557581       -15.1725
  45   2.0000      -0.555451       -15.1146
  46   2.0000      -0.548532       -14.9263
  47   2.0000      -0.534217       -14.5368
  48   2.0000      -0.516352       -14.0507
  49   2.0000      -0.510957       -13.9038
  50   2.0000      -0.505464       -13.7544
  51   2.0000      -0.497566       -13.5395
  52   2.0000      -0.474723       -12.9179
  53   2.0000      -0.469425       -12.7737
  54   2.0000      -0.461902       -12.5690
  55   2.0000      -0.456217       -12.4143
  56   2.0000      -0.445795       -12.1307
  57   2.0000      -0.443239       -12.0611
  58   2.0000      -0.437081       -11.8936
  59   2.0000      -0.431361       -11.7379
  60   2.0000      -0.423536       -11.5250
  61   2.0000      -0.422234       -11.4896
  62   2.0000      -0.414044       -11.2667
  63   2.0000      -0.408677       -11.1207
  64   2.0000      -0.404441       -11.0054
  65   2.0000      -0.399678       -10.8758
  66   2.0000      -0.396160       -10.7801
  67   2.0000      -0.270451        -7.3593
  68   0.0000       0.091040         2.4773
  69   0.0000       0.111219         3.0264
  70   0.0000       0.113523         3.0891
  71   0.0000       0.117487         3.1970
  72   0.0000       0.125251         3.4082

MULLIKEN ATOMIC CHARGES
-----------------------
   0 C :   -0.160986
   1 C :   -0.184700
   2 C :   -0.319420
   3 H :    0.181477
   4 H :    0.182464
   5 S :    0.900198
   6 C :    0.217324
   7 N :   -0.494136
   8 C :   -0.521353
   9 H :    0.125711
  10 H :    0.134604
  11 H :    0.230178
  12 H :    0.237741
  13 F :   -0.122651
  14 O :   -0.438283
  15 C :   -0.238313
  16 C :   -0.268465
  17 C :   -0.234797
  18 H :    0.127610
  19 H :    0.116004
  20 H :    0.118982
  21 H :    0.146399
  22 C :   -0.229609
  23 H :    0.102129
  24 H :    0.099659
  25 C :   -0.157164
  26 H :    0.136140
  27 H :    0.099323
  28 C :   -0.200268
  29 H :    0.106232
  30 H :    0.101933
  31 H :    0.107340
  32 H :    0.080258
  33 H :    0.108395
  34 H :    0.115793
  35 O :   -0.417411
  36 H :    0.124468
  37 H :    0.087192
Sum of atomic charges:    0.0000000

LOEWDIN ATOMIC CHARGES
----------------------
   0 C :   -0.211384
   1 C :   -0.285539
   2 C :   -0.363767
   3 H :    0.143478
   4 H :    0.156361
   5 S :    0.576451
   6 C :   -0.369125
   7 N :   -0.013574
   8 C :   -0.310537
   9 H :    0.096873
  10 H :    0.102727
  11 H :    0.159593
  12 H :    0.168811
  13 F :    0.063402
  14 O :   -0.263999
  15 C :   -0.256435
  16 C :   -0.271385
  17 C :   -0.273561
  18 H :    0.135309
  19 H :    0.140737
  20 H :    0.145669
  21 H :    0.145980
  22 C :   -0.266850
  23 H :    0.136475
  24 H :    0.132916
  25 C :   -0.267289
  26 H :    0.138203
  27 H :    0.135638
  28 C :   -0.268221
  29 H :    0.136108
  30 H :    0.135326
  31 H :    0.137127
  32 H :    0.131730
  33 H :    0.135911
  34 H :    0.136319
  35 O :   -0.254762
  36 H :    0.150598
  37 H :    0.134686

  Mayer bond orders larger than 0.100000
B(  0-C ,  6-C ) :   0.9406 B(  0-C , 15-C ) :   0.9828 B(  0-C , 36-H ) :   0.9596
B(  0-C , 37-H ) :   0.9921 B(  1-C ,  2-C ) :   0.9501 B(  1-C , 17-C ) :   0.9825
B(  1-C , 20-H ) :   0.9598 B(  1-C , 21-H ) :   0.9721 B(  2-C ,  3-H ) :   0.9433
B(  2-C ,  4-H ) :   0.9421 B(  2-C ,  5-S ) :   0.9132 B(  5-S , 13-F ) :   1.0517
B(  5-S , 14-O ) :   1.8665 B(  5-S , 35-O ) :   1.9566 B(  6-C ,  7-N ) :   1.1621
B(  6-C ,  8-C ) :   1.7679 B(  7-N , 11-H ) :   0.9234 B(  7-N , 12-H ) :   0.9192
B(  8-C ,  9-H ) :   1.0084 B(  8-C , 10-H ) :   0.9782 B( 15-C , 22-C ) :   0.9453
B( 15-C , 23-H ) :   0.9697 B( 15-C , 24-H ) :   0.9832 B( 16-C , 17-C ) :   0.9275
B( 16-C , 28-C ) :   0.9703 B( 16-C , 31-H ) :   0.9607 B( 16-C , 32-H ) :   0.9867
B( 17-C , 18-H ) :   0.9915 B( 17-C , 19-H ) :   0.9734 B( 22-C , 25-C ) :   0.9687
B( 22-C , 26-H ) :   0.9847 B( 22-C , 27-H ) :   0.9715 B( 25-C , 28-C ) :   0.9644
B( 25-C , 29-H ) :   0.9819 B( 25-C , 30-H ) :   0.9844 B( 28-C , 33-H ) :   0.9745
B( 28-C , 34-H ) :   0.9866

Dispersion correction           -0.020708039
FINAL SINGLE POINT ENERGY     -1135.699610909598

DIPOLE MOMENT
-------------
                                X             Y             Z
Electronic contribution:     -7.74287     -16.92575     -13.62776
Nuclear contribution   :      7.91684      17.85507      15.13212
                        -----------------------------------------
Total Dipole Moment    :      0.17397       0.92932       1.50435
                        -----------------------------------------
Magnitude (a.u.)       :      1.77679
Magnitude (Debye)      :      4.51624

Rotational constants in cm-1:     0.018015     0.012410     0.008313
Rotational constants in MHz :   540.084467   372.038374   249.228144

                             ****ORCA TERMINATED NORMALLY****
TOTAL RUN TIME: 0 days 0 hours 2 minutes 12 seconds 251 msec
