                         Program Version 5.0.0 -  RELEASE  -
|  1> !wB97X-D3 RIJCOSX def2-TZVP def2/J TightSCF xyzfile
|  2>
|  3> *xyzfile 0 1 D3.xyz
|  4>
|  5> %MaxCore 64000
|  6>
|  7> %pal nprocs 18
|  8> end
|  9>
| 10> %scf
| 11>   MaxIter 150
| 12> end
| 13>
| 14>
| 15>                          ****END OF INPUT****

CARTESIAN COORDINATES (ANGSTROEM)
---------------------------------
  C      5.558206   -1.992914   -6.215054
  C      4.930199   -7.375319   -2.649623
  C      3.841892   -6.951611   -3.632829
  H      3.458144   -5.954425   -3.407121
  H      2.988484   -7.643606   -3.567078
  S      4.318115   -6.915930   -5.368692
  C      4.181880   -2.589671   -6.298911
  C      3.145873   -1.768431   -6.486753
  N      4.019102   -3.864307   -6.227427
  H      4.768490   -4.591153   -5.990773
  H      3.122405   -4.333392   -6.314620
  H      3.281635   -0.777786   -6.566549
  H      2.212549   -2.134193   -6.562246
  O      5.406154   -5.899480   -5.512972
  F      3.111910   -6.445079   -6.043792
  C      6.419260   -2.542944   -5.077630
  C      5.872267   -5.002756   -2.427819
  C      6.173994   -6.485522   -2.606315
  H      6.734852   -6.613767   -3.534015
  H      6.821463   -6.831018   -1.793617
  H      4.469612   -7.406168   -1.655876
  H      5.230134   -8.398678   -2.885906
  C      5.896512   -2.169314   -3.694552
  H      7.428880   -2.143665   -5.208078
  H      6.505894   -3.627541   -5.175502
  C      6.807804   -2.623428   -2.551019
  H      4.894708   -2.589732   -3.557501
  H      5.778823   -1.081255   -3.635790
  C      7.111544   -4.122463   -2.520363
  H      7.751615   -2.071393   -2.614406
  H      6.345837   -2.326401   -1.604086
  H      5.362882   -4.828697   -1.471335
  H      5.174429   -4.702577   -3.211298
  H      7.778329   -4.329347   -1.677651
  H      7.673189   -4.402845   -3.417586
  O      4.763396   -8.239424   -5.698629
  H      6.036826   -2.198189   -7.176852
  H      5.467610   -0.907371   -6.127968

 Total Charge           Charge          ....    0
 Multiplicity           Mult            ....    1
 Number of Electrons    NEL             ....  136
 Basis Dimension        Dim             ....  634

ORBITAL ENERGIES
----------------

  NO   OCC          E(Eh)            E(eV)
   0   2.0000     -89.223279     -2427.8889
   1   2.0000     -24.925118      -678.2469
   2   2.0000     -19.270892      -524.3876
   3   2.0000     -19.263514      -524.1869
   4   2.0000     -14.391253      -391.6059
   5   2.0000     -10.354295      -281.7547
   6   2.0000     -10.313671      -280.6492
   7   2.0000     -10.283152      -279.8188
   8   2.0000     -10.280057      -279.7346
   9   2.0000     -10.273761      -279.5633
  10   2.0000     -10.267774      -279.4003
  11   2.0000     -10.264315      -279.3062
  12   2.0000     -10.259021      -279.1621
  13   2.0000     -10.258519      -279.1485
  14   2.0000     -10.258467      -279.1471
  15   2.0000     -10.182821      -277.0886
  16   2.0000      -8.286735      -225.4935
  17   2.0000      -6.244099      -169.9106
  18   2.0000      -6.237722      -169.7370
  19   2.0000      -6.237311      -169.7259
  20   2.0000      -1.513731       -41.1907
  21   2.0000      -1.250891       -34.0385
  22   2.0000      -1.155030       -31.4300
  23   2.0000      -1.028281       -27.9809
  24   2.0000      -0.968996       -26.3677
  25   2.0000      -0.930296       -25.3146
  26   2.0000      -0.904054       -24.6006
  27   2.0000      -0.874710       -23.8021
  28   2.0000      -0.851307       -23.1652
  29   2.0000      -0.822539       -22.3824
  30   2.0000      -0.802531       -21.8380
  31   2.0000      -0.766368       -20.8539
  32   2.0000      -0.731328       -19.9004
  33   2.0000      -0.717979       -19.5372
  34   2.0000      -0.711872       -19.3710
  35   2.0000      -0.697742       -18.9865
  36   2.0000      -0.685591       -18.6559
  37   2.0000      -0.665744       -18.1158
  38   2.0000      -0.658719       -17.9246
  39   2.0000      -0.624120       -16.9832
  40   2.0000      -0.609242       -16.5783
  41   2.0000      -0.598952       -16.2983
  42   2.0000      -0.583093       -15.8668
  43   2.0000      -0.567357       -15.4386
  44   2.0000      -0.560482       -15.2515
  45   2.0000      -0.557076       -15.1588
  46   2.0000      -0.546859       -14.8808
  47   2.0000      -0.529990       -14.4218
  48   2.0000      -0.522560       -14.2196
  49   2.0000      -0.516618       -14.0579
  50   2.0000      -0.510199       -13.8832
  51   2.0000      -0.500558       -13.6209
  52   2.0000      -0.487291       -13.2599
  53   2.0000      -0.481059       -13.0903
  54   2.0000      -0.468761       -12.7556
  55   2.0000      -0.459051       -12.4914
  56   2.0000      -0.454905       -12.3786
  57   2.0000      -0.452114       -12.3026
  58   2.0000      -0.444517       -12.0959
  59   2.0000      -0.431100       -11.7308
  60   2.0000      -0.426776       -11.6132
  61   2.0000      -0.422601       -11.4996
  62   2.0000      -0.419541       -11.4163
  63   2.0000      -0.408603       -11.1187
  64   2.0000      -0.400676       -10.9029
  65   2.0000      -0.393823       -10.7165
  66   2.0000      -0.390828       -10.6350
  67   2.0000      -0.254060        -6.9133
  68   0.0000       0.083995         2.2856
  69   0.0000       0.091384         2.4867
  70   0.0000       0.113581         3.0907
  71   0.0000       0.121561         3.3078
  72   0.0000       0.126533         3.4431

MULLIKEN ATOMIC CHARGES
-----------------------
   0 C :   -0.152466
   1 C :   -0.203030
   2 C :   -0.311459
   3 H :    0.179806
   4 H :    0.173864
   5 S :    0.913825
   6 C :    0.199120
   7 C :   -0.473329
   8 N :   -0.527278
   9 H :    0.293927
  10 H :    0.210797
  11 H :    0.098364
  12 H :    0.086038
  13 O :   -0.471474
  14 F :   -0.111947
  15 C :   -0.269718
  16 C :   -0.252698
  17 C :   -0.216094
  18 H :    0.145940
  19 H :    0.113254
  20 H :    0.129568
  21 H :    0.147941
  22 C :   -0.220934
  23 H :    0.101496
  24 H :    0.127564
  25 C :   -0.158919
  26 H :    0.125590
  27 H :    0.104303
  28 C :   -0.208441
  29 H :    0.105173
  30 H :    0.099481
  31 H :    0.102217
  32 H :    0.072201
  33 H :    0.104708
  34 H :    0.121754
  35 O :   -0.396883
  36 H :    0.111917
  37 H :    0.105823
Sum of atomic charges:   -0.0000000

LOEWDIN ATOMIC CHARGES
----------------------
   0 C :   -0.208973
   1 C :   -0.274030
   2 C :   -0.367878
   3 H :    0.143309
   4 H :    0.147082
   5 S :    0.584731
   6 C :   -0.379338
   7 C :   -0.300257
   8 N :   -0.024147
   9 H :    0.149208
  10 H :    0.155614
  11 H :    0.095510
  12 H :    0.089201
  13 O :   -0.282922
  14 F :    0.088482
  15 C :   -0.265194
  16 C :   -0.270749
  17 C :   -0.269986
  18 H :    0.142502
  19 H :    0.139778
  20 H :    0.150064
  21 H :    0.147730
  22 C :   -0.265666
  23 H :    0.136454
  24 H :    0.134508
  25 C :   -0.267562
  26 H :    0.136780
  27 H :    0.137857
  28 C :   -0.267064
  29 H :    0.136047
  30 H :    0.134386
  31 H :    0.134618
  32 H :    0.130665
  33 H :    0.134760
  34 H :    0.138774
  35 O :   -0.237620
  36 H :    0.145456
  37 H :    0.147872

  Mayer bond orders larger than 0.100000
B(  0-C ,  6-C ) :   0.9640 B(  0-C , 15-C ) :   0.9627 B(  0-C , 36-H ) :   0.9644
B(  0-C , 37-H ) :   0.9917 B(  1-C ,  2-C ) :   0.9644 B(  1-C , 17-C ) :   0.9906
B(  1-C , 20-H ) :   0.9589 B(  1-C , 21-H ) :   0.9689 B(  2-C ,  3-H ) :   0.9360
B(  2-C ,  4-H ) :   0.9397 B(  2-C ,  5-S ) :   0.9212 B(  5-S , 13-O ) :   1.7074
B(  5-S , 14-F ) :   1.1133 B(  5-S , 35-O ) :   1.9753 B(  6-C ,  7-C ) :   1.7151
B(  6-C ,  8-N ) :   1.2288 B(  7-C , 11-H ) :   1.0031 B(  7-C , 12-H ) :   1.0015
B(  8-N ,  9-H ) :   0.8092 B(  8-N , 10-H ) :   0.9179 B(  9-H , 13-O ) :   0.1087
B( 15-C , 22-C ) :   0.9354 B( 15-C , 23-H ) :   0.9692 B( 15-C , 24-H ) :   0.9887
B( 16-C , 17-C ) :   0.9377 B( 16-C , 28-C ) :   0.9797 B( 16-C , 31-H ) :   0.9614
B( 16-C , 32-H ) :   0.9777 B( 17-C , 18-H ) :   0.9791 B( 17-C , 19-H ) :   0.9750
B( 22-C , 25-C ) :   0.9684 B( 22-C , 26-H ) :   0.9866 B( 22-C , 27-H ) :   0.9723
B( 25-C , 28-C ) :   0.9629 B( 25-C , 29-H ) :   0.9815 B( 25-C , 30-H ) :   0.9845
B( 28-C , 33-H ) :   0.9746 B( 28-C , 34-H ) :   0.9865

Dispersion correction           -0.020916184
FINAL SINGLE POINT ENERGY     -1135.703661626122

DIPOLE MOMENT
-------------
                                X             Y             Z
Electronic contribution:    -10.98788     -20.07214     -14.23302
Nuclear contribution   :     10.48431      18.81367      15.71750
                        -----------------------------------------
Total Dipole Moment    :     -0.50357      -1.25847       1.48448
                        -----------------------------------------
Magnitude (a.u.)       :      2.01022
Magnitude (Debye)      :      5.10958

Rotational constants in cm-1:     0.017977     0.012528     0.008321
Rotational constants in MHz :   538.924099   375.570730   249.458530

                             ****ORCA TERMINATED NORMALLY****
TOTAL RUN TIME: 0 days 0 hours 2 minutes 3 seconds 526 msec
