                         Program Version 5.0.0 -  RELEASE  -
|  1> !wB97X-D3 RIJCOSX def2-TZVP def2/J TightSCF xyzfile
|  2>
|  3> *xyzfile 0 1 D4.xyz
|  4>
|  5> %MaxCore 64000
|  6>
|  7> %pal nprocs 18
|  8> end
|  9>
| 10> %scf
| 11>   MaxIter 150
| 12> end
| 13>
| 14>
| 15>                          ****END OF INPUT****

CARTESIAN COORDINATES (ANGSTROEM)
---------------------------------
  C      5.558206   -1.992914   -6.215054
  C      4.930199   -7.375319   -2.649623
  C      3.841892   -6.951611   -3.632829
  H      3.458144   -5.954425   -3.407121
  H      2.988484   -7.643606   -3.567078
  S      4.318115   -6.915930   -5.368692
  C      4.181880   -2.589671   -6.298911
  N      3.145873   -1.768431   -6.486753
  C      4.019102   -3.864307   -6.227427
  H      4.768490   -4.591153   -5.990773
  H      3.122405   -4.333392   -6.314620
  H      3.281635   -0.777786   -6.566549
  H      2.212549   -2.134193   -6.562246
  O      5.406154   -5.899480   -5.512972
  F      3.111910   -6.445079   -6.043792
  C      6.419260   -2.542944   -5.077630
  C      5.872267   -5.002756   -2.427819
  C      6.173994   -6.485522   -2.606315
  H      6.734852   -6.613767   -3.534015
  H      6.821463   -6.831018   -1.793617
  H      4.469612   -7.406168   -1.655876
  H      5.230134   -8.398678   -2.885906
  C      5.896512   -2.169314   -3.694552
  H      7.428880   -2.143665   -5.208078
  H      6.505894   -3.627541   -5.175502
  C      6.807804   -2.623428   -2.551019
  H      4.894708   -2.589732   -3.557501
  H      5.778823   -1.081255   -3.635790
  C      7.111544   -4.122463   -2.520363
  H      7.751615   -2.071393   -2.614406
  H      6.345837   -2.326401   -1.604086
  H      5.362882   -4.828697   -1.471335
  H      5.174429   -4.702577   -3.211298
  H      7.778329   -4.329347   -1.677651
  H      7.673189   -4.402845   -3.417586
  O      4.763396   -8.239424   -5.698629
  H      6.036826   -2.198189   -7.176852
  H      5.467610   -0.907371   -6.127968

 Total Charge           Charge          ....    0
 Multiplicity           Mult            ....    1
 Number of Electrons    NEL             ....  136
 Basis Dimension        Dim             ....  634

ORBITAL ENERGIES
----------------

  NO   OCC          E(Eh)            E(eV)
   0   2.0000     -89.199453     -2427.2405
   1   2.0000     -24.898823      -677.5314
   2   2.0000     -19.249143      -523.7958
   3   2.0000     -19.232277      -523.3369
   4   2.0000     -14.404646      -391.9703
   5   2.0000     -10.337559      -281.2993
   6   2.0000     -10.301192      -280.3097
   7   2.0000     -10.278926      -279.7038
   8   2.0000     -10.272388      -279.5259
   9   2.0000     -10.264434      -279.3094
  10   2.0000     -10.261842      -279.2389
  11   2.0000     -10.261490      -279.2293
  12   2.0000     -10.260714      -279.2082
  13   2.0000     -10.256079      -279.0821
  14   2.0000     -10.255845      -279.0757
  15   2.0000     -10.172985      -276.8210
  16   2.0000      -8.262687      -224.8391
  17   2.0000      -6.219899      -169.2521
  18   2.0000      -6.213649      -169.0820
  19   2.0000      -6.213530      -169.0787
  20   2.0000      -1.487566       -40.4787
  21   2.0000      -1.226866       -33.3847
  22   2.0000      -1.127817       -30.6894
  23   2.0000      -1.027943       -27.9718
  24   2.0000      -0.954455       -25.9720
  25   2.0000      -0.924818       -25.1656
  26   2.0000      -0.896426       -24.3930
  27   2.0000      -0.870646       -23.6915
  28   2.0000      -0.836176       -22.7535
  29   2.0000      -0.817685       -22.2503
  30   2.0000      -0.791638       -21.5416
  31   2.0000      -0.763065       -20.7641
  32   2.0000      -0.727252       -19.7895
  33   2.0000      -0.707676       -19.2568
  34   2.0000      -0.690319       -18.7845
  35   2.0000      -0.673662       -18.3313
  36   2.0000      -0.671049       -18.2602
  37   2.0000      -0.657937       -17.9034
  38   2.0000      -0.642349       -17.4792
  39   2.0000      -0.614973       -16.7343
  40   2.0000      -0.598249       -16.2792
  41   2.0000      -0.593880       -16.1603
  42   2.0000      -0.579815       -15.7776
  43   2.0000      -0.567397       -15.4396
  44   2.0000      -0.556207       -15.1352
  45   2.0000      -0.547852       -14.9078
  46   2.0000      -0.543296       -14.7838
  47   2.0000      -0.525121       -14.2893
  48   2.0000      -0.511723       -13.9247
  49   2.0000      -0.506896       -13.7934
  50   2.0000      -0.503670       -13.7056
  51   2.0000      -0.488972       -13.3056
  52   2.0000      -0.483650       -13.1608
  53   2.0000      -0.465319       -12.6620
  54   2.0000      -0.459721       -12.5097
  55   2.0000      -0.451157       -12.2766
  56   2.0000      -0.444784       -12.1032
  57   2.0000      -0.436441       -11.8762
  58   2.0000      -0.432274       -11.7628
  59   2.0000      -0.428800       -11.6682
  60   2.0000      -0.416111       -11.3230
  61   2.0000      -0.413988       -11.2652
  62   2.0000      -0.412369       -11.2211
  63   2.0000      -0.397984       -10.8297
  64   2.0000      -0.393481       -10.7072
  65   2.0000      -0.389925       -10.6104
  66   2.0000      -0.361254        -9.8302
  67   2.0000      -0.264522        -7.1980
  68   0.0000       0.101748         2.7687
  69   0.0000       0.107575         2.9273
  70   0.0000       0.118415         3.2222
  71   0.0000       0.119924         3.2633
  72   0.0000       0.128083         3.4853

MULLIKEN ATOMIC CHARGES
-----------------------
   0 C :   -0.152231
   1 C :   -0.196735
   2 C :   -0.307936
   3 H :    0.175618
   4 H :    0.165019
   5 S :    0.914147
   6 C :    0.180344
   7 N :   -0.494216
   8 C :   -0.506475
   9 H :    0.176531
  10 H :    0.074230
  11 H :    0.228776
  12 H :    0.229948
  13 O :   -0.457135
  14 F :   -0.105425
  15 C :   -0.238679
  16 C :   -0.253968
  17 C :   -0.216381
  18 H :    0.146474
  19 H :    0.106992
  20 H :    0.123227
  21 H :    0.143398
  22 C :   -0.231926
  23 H :    0.095487
  24 H :    0.137907
  25 C :   -0.153776
  26 H :    0.128742
  27 H :    0.093305
  28 C :   -0.209834
  29 H :    0.102733
  30 H :    0.096480
  31 H :    0.096338
  32 H :    0.091779
  33 H :    0.101347
  34 H :    0.122665
  35 O :   -0.409862
  36 H :    0.120720
  37 H :    0.082370
Sum of atomic charges:    0.0000000

LOEWDIN ATOMIC CHARGES
----------------------
   0 C :   -0.210762
   1 C :   -0.275328
   2 C :   -0.369085
   3 H :    0.142283
   4 H :    0.144069
   5 S :    0.582733
   6 C :   -0.371402
   7 N :   -0.018028
   8 C :   -0.318934
   9 H :    0.098762
  10 H :    0.086296
  11 H :    0.158541
  12 H :    0.165197
  13 O :   -0.278026
  14 F :    0.094913
  15 C :   -0.254344
  16 C :   -0.270520
  17 C :   -0.270348
  18 H :    0.143157
  19 H :    0.137739
  20 H :    0.147578
  21 H :    0.146778
  22 C :   -0.267296
  23 H :    0.134943
  24 H :    0.142694
  25 C :   -0.268014
  26 H :    0.136861
  27 H :    0.133485
  28 C :   -0.266967
  29 H :    0.135088
  30 H :    0.133621
  31 H :    0.132917
  32 H :    0.134981
  33 H :    0.133926
  34 H :    0.139287
  35 O :   -0.250362
  36 H :    0.150557
  37 H :    0.133011

  Mayer bond orders larger than 0.100000
B(  0-C ,  6-C ) :   0.9497 B(  0-C , 15-C ) :   0.9811 B(  0-C , 36-H ) :   0.9579
B(  0-C , 37-H ) :   0.9933 B(  1-C ,  2-C ) :   0.9660 B(  1-C , 17-C ) :   0.9921
B(  1-C , 20-H ) :   0.9611 B(  1-C , 21-H ) :   0.9687 B(  2-C ,  3-H ) :   0.9394
B(  2-C ,  4-H ) :   0.9421 B(  2-C ,  5-S ) :   0.9193 B(  5-S , 13-O ) :   1.7453
B(  5-S , 14-F ) :   1.1248 B(  5-S , 35-O ) :   1.9629 B(  6-C ,  7-N ) :   1.1479
B(  6-C ,  8-C ) :   1.8152 B(  7-N , 11-H ) :   0.9232 B(  7-N , 12-H ) :   0.9236
B(  8-C ,  9-H ) :   0.9618 B(  8-C , 10-H ) :   0.9712 B( 15-C , 22-C ) :   0.9490
B( 15-C , 23-H ) :   0.9698 B( 15-C , 24-H ) :   0.9756 B( 16-C , 17-C ) :   0.9435
B( 16-C , 28-C ) :   0.9811 B( 16-C , 31-H ) :   0.9627 B( 16-C , 32-H ) :   0.9747
B( 17-C , 18-H ) :   0.9771 B( 17-C , 19-H ) :   0.9750 B( 22-C , 25-C ) :   0.9728
B( 22-C , 26-H ) :   0.9842 B( 22-C , 27-H ) :   0.9728 B( 25-C , 28-C ) :   0.9638
B( 25-C , 29-H ) :   0.9818 B( 25-C , 30-H ) :   0.9844 B( 28-C , 33-H ) :   0.9750
B( 28-C , 34-H ) :   0.9861

Dispersion correction           -0.020877469
FINAL SINGLE POINT ENERGY     -1135.691360755412

DIPOLE MOMENT
-------------
                                X             Y             Z
Electronic contribution:    -11.74624     -18.14078     -14.66627
Nuclear contribution   :     10.61624      18.49702      15.75668
                        -----------------------------------------
Total Dipole Moment    :     -1.13000       0.35624       1.09041
                        -----------------------------------------
Magnitude (a.u.)       :      1.61021
Magnitude (Debye)      :      4.09284

Rotational constants in cm-1:     0.017796     0.012372     0.008231
Rotational constants in MHz :   533.524905   370.895973   246.762347

                             ****ORCA TERMINATED NORMALLY****
TOTAL RUN TIME: 0 days 0 hours 1 minutes 58 seconds 396 msec
