                         Program Version 5.0.0 -  RELEASE  -
|  1> !wB97X-D3 RIJCOSX def2-TZVP def2/J TightSCF xyzfile
|  2>
|  3> *xyzfile 0 1 D6.xyz
|  4>
|  5> %MaxCore 64000
|  6>
|  7> %pal nprocs 18
|  8> end
|  9>
| 10> %scf
| 11>   MaxIter 150
| 12> end
| 13>
| 14>
| 15>                          ****END OF INPUT****

CARTESIAN COORDINATES (ANGSTROEM)
---------------------------------
  C      5.558206   -1.992914   -6.215054
  C      4.930199   -7.375319   -2.649623
  C      3.841892   -6.951611   -3.632829
  H      3.458144   -5.954425   -3.407121
  H      2.988484   -7.643606   -3.567078
  S      4.318115   -6.915930   -5.368692
  C      4.181880   -2.589671   -6.298911
  N      3.145873   -1.768431   -6.486753
  C      4.019102   -3.864307   -6.227427
  H      4.768490   -4.591153   -5.990773
  H      3.122405   -4.333392   -6.314620
  H      3.281635   -0.777786   -6.566549
  H      2.212549   -2.134193   -6.562246
  O      5.406154   -5.899480   -5.512972
  O      3.111910   -6.445079   -6.043792
  C      6.419260   -2.542944   -5.077630
  C      5.872267   -5.002756   -2.427819
  C      6.173994   -6.485522   -2.606315
  H      6.734852   -6.613767   -3.534015
  H      6.821463   -6.831018   -1.793617
  H      4.469612   -7.406168   -1.655876
  H      5.230134   -8.398678   -2.885906
  C      5.896512   -2.169314   -3.694552
  H      7.428880   -2.143665   -5.208078
  H      6.505894   -3.627541   -5.175502
  C      6.807804   -2.623428   -2.551019
  H      4.894708   -2.589732   -3.557501
  H      5.778823   -1.081255   -3.635790
  C      7.111544   -4.122463   -2.520363
  H      7.751615   -2.071393   -2.614406
  H      6.345837   -2.326401   -1.604086
  H      5.362882   -4.828697   -1.471335
  H      5.174429   -4.702577   -3.211298
  H      7.778329   -4.329347   -1.677651
  H      7.673189   -4.402845   -3.417586
  F      4.763396   -8.239424   -5.698629
  H      6.036826   -2.198189   -7.176852
  H      5.467610   -0.907371   -6.127968

 Total Charge           Charge          ....    0
 Multiplicity           Mult            ....    1
 Number of Electrons    NEL             ....  136
 Basis Dimension        Dim             ....  634

ORBITAL ENERGIES
----------------

  NO   OCC          E(Eh)            E(eV)
   0   2.0000     -89.201806     -2427.3045
   1   2.0000     -24.914884      -677.9685
   2   2.0000     -19.240526      -523.5613
   3   2.0000     -19.236065      -523.4399
   4   2.0000     -14.392044      -391.6274
   5   2.0000     -10.338541      -281.3260
   6   2.0000     -10.303769      -280.3798
   7   2.0000     -10.276310      -279.6326
   8   2.0000     -10.265387      -279.3354
   9   2.0000     -10.263801      -279.2922
  10   2.0000     -10.261419      -279.2274
  11   2.0000     -10.258818      -279.1566
  12   2.0000     -10.253470      -279.0111
  13   2.0000     -10.251807      -278.9659
  14   2.0000     -10.250892      -278.9410
  15   2.0000     -10.157104      -276.3889
  16   2.0000      -8.265037      -224.9031
  17   2.0000      -6.222445      -169.3213
  18   2.0000      -6.215978      -169.1454
  19   2.0000      -6.215649      -169.1364
  20   2.0000      -1.510736       -41.1092
  21   2.0000      -1.219211       -33.1764
  22   2.0000      -1.120148       -30.4808
  23   2.0000      -1.015271       -27.6269
  24   2.0000      -0.958130       -26.0720
  25   2.0000      -0.922959       -25.1150
  26   2.0000      -0.893493       -24.3132
  27   2.0000      -0.868420       -23.6309
  28   2.0000      -0.837628       -22.7930
  29   2.0000      -0.816290       -22.2124
  30   2.0000      -0.790454       -21.5094
  31   2.0000      -0.759885       -20.6775
  32   2.0000      -0.725860       -19.7517
  33   2.0000      -0.712448       -19.3867
  34   2.0000      -0.703091       -19.1321
  35   2.0000      -0.690505       -18.7896
  36   2.0000      -0.663657       -18.0590
  37   2.0000      -0.653094       -17.7716
  38   2.0000      -0.633693       -17.2437
  39   2.0000      -0.604982       -16.4624
  40   2.0000      -0.599273       -16.3071
  41   2.0000      -0.590732       -16.0746
  42   2.0000      -0.574209       -15.6250
  43   2.0000      -0.565678       -15.3929
  44   2.0000      -0.558829       -15.2065
  45   2.0000      -0.548135       -14.9155
  46   2.0000      -0.542942       -14.7742
  47   2.0000      -0.519671       -14.1410
  48   2.0000      -0.513656       -13.9773
  49   2.0000      -0.508398       -13.8342
  50   2.0000      -0.508145       -13.8273
  51   2.0000      -0.487190       -13.2571
  52   2.0000      -0.469328       -12.7711
  53   2.0000      -0.462434       -12.5835
  54   2.0000      -0.450020       -12.2457
  55   2.0000      -0.442175       -12.0322
  56   2.0000      -0.440658       -11.9909
  57   2.0000      -0.433621       -11.7994
  58   2.0000      -0.425087       -11.5672
  59   2.0000      -0.419776       -11.4227
  60   2.0000      -0.413142       -11.2422
  61   2.0000      -0.410710       -11.1760
  62   2.0000      -0.407132       -11.0786
  63   2.0000      -0.395901       -10.7730
  64   2.0000      -0.390473       -10.6253
  65   2.0000      -0.384590       -10.4652
  66   2.0000      -0.358537        -9.7563
  67   2.0000      -0.250077        -6.8049
  68   0.0000       0.091105         2.4791
  69   0.0000       0.115440         3.1413
  70   0.0000       0.122830         3.3424
  71   0.0000       0.125309         3.4098
  72   0.0000       0.130102         3.5403

MULLIKEN ATOMIC CHARGES
-----------------------
   0 C :   -0.149843
   1 C :   -0.211263
   2 C :   -0.311668
   3 H :    0.195349
   4 H :    0.168956
   5 S :    0.904982
   6 C :    0.202230
   7 N :   -0.499312
   8 C :   -0.519091
   9 H :    0.165454
  10 H :    0.112140
  11 H :    0.224093
  12 H :    0.231030
  13 O :   -0.456123
  14 O :   -0.427612
  15 C :   -0.238485
  16 C :   -0.250891
  17 C :   -0.202213
  18 H :    0.131049
  19 H :    0.108172
  20 H :    0.124526
  21 H :    0.129396
  22 C :   -0.230911
  23 H :    0.091631
  24 H :    0.131688
  25 C :   -0.153403
  26 H :    0.131672
  27 H :    0.092784
  28 C :   -0.210431
  29 H :    0.101786
  30 H :    0.096019
  31 H :    0.098360
  32 H :    0.094422
  33 H :    0.100318
  34 H :    0.121401
  35 F :   -0.091209
  36 H :    0.116042
  37 H :    0.078958
Sum of atomic charges:   -0.0000000

LOEWDIN ATOMIC CHARGES
----------------------
   0 C :   -0.213169
   1 C :   -0.287868
   2 C :   -0.363809
   3 H :    0.154892
   4 H :    0.145473
   5 S :    0.576670
   6 C :   -0.377762
   7 N :   -0.023182
   8 C :   -0.301256
   9 H :    0.101094
  10 H :    0.097537
  11 H :    0.156227
  12 H :    0.165414
  13 O :   -0.280192
  14 O :   -0.259205
  15 C :   -0.255583
  16 C :   -0.269402
  17 C :   -0.274229
  18 H :    0.138335
  19 H :    0.137422
  20 H :    0.146976
  21 H :    0.138381
  22 C :   -0.266987
  23 H :    0.133510
  24 H :    0.141106
  25 C :   -0.268296
  26 H :    0.137719
  27 H :    0.133576
  28 C :   -0.267280
  29 H :    0.134860
  30 H :    0.133401
  31 H :    0.133622
  32 H :    0.136991
  33 H :    0.133359
  34 H :    0.138861
  35 F :    0.112228
  36 H :    0.148856
  37 H :    0.131710

  Mayer bond orders larger than 0.100000
B(  0-C ,  6-C ) :   0.9472 B(  0-C , 15-C ) :   0.9832 B(  0-C , 36-H ) :   0.9591
B(  0-C , 37-H ) :   0.9936 B(  1-C ,  2-C ) :   0.9544 B(  1-C , 17-C ) :   0.9675
B(  1-C , 20-H ) :   0.9618 B(  1-C , 21-H ) :   0.9817 B(  2-C ,  3-H ) :   0.9383
B(  2-C ,  4-H ) :   0.9502 B(  2-C ,  5-S ) :   0.9140 B(  5-S , 13-O ) :   1.7653
B(  5-S , 14-O ) :   1.8910 B(  5-S , 35-F ) :   1.1540 B(  6-C ,  7-N ) :   1.1396
B(  6-C ,  8-C ) :   1.7927 B(  7-N , 11-H ) :   0.9258 B(  7-N , 12-H ) :   0.9220
B(  8-C ,  9-H ) :   0.9863 B(  8-C , 10-H ) :   0.9820 B( 15-C , 22-C ) :   0.9501
B( 15-C , 23-H ) :   0.9701 B( 15-C , 24-H ) :   0.9762 B( 16-C , 17-C ) :   0.9379
B( 16-C , 28-C ) :   0.9798 B( 16-C , 31-H ) :   0.9631 B( 16-C , 32-H ) :   0.9745
B( 17-C , 18-H ) :   0.9819 B( 17-C , 19-H ) :   0.9739 B( 22-C , 25-C ) :   0.9709
B( 22-C , 26-H ) :   0.9848 B( 22-C , 27-H ) :   0.9729 B( 25-C , 28-C ) :   0.9657
B( 25-C , 29-H ) :   0.9816 B( 25-C , 30-H ) :   0.9847 B( 28-C , 33-H ) :   0.9751
B( 28-C , 34-H ) :   0.9857

Dispersion correction           -0.020790691
FINAL SINGLE POINT ENERGY     -1135.678637823227

DIPOLE MOMENT
-------------
                                X             Y             Z
Electronic contribution:     -8.86259     -21.50591     -14.06283
Nuclear contribution   :      8.67311      20.60825      15.35056
                        -----------------------------------------
Total Dipole Moment    :     -0.18949      -0.89767       1.28772
                        -----------------------------------------
Magnitude (a.u.)       :      1.58112
Magnitude (Debye)      :      4.01890

Rotational constants in cm-1:     0.017976     0.012151     0.008188
Rotational constants in MHz :   538.898457   364.286417   245.482451

                             ****ORCA TERMINATED NORMALLY****
TOTAL RUN TIME: 0 days 0 hours 2 minutes 9 seconds 239 msec
