                         Program Version 5.0.0 -  RELEASE  -
|  1> !PBE D3BJ RIJCOSX def2-TZVP def2/J TightSCF
|  2> *xyz -1 1
|  3> C         -0.90349       -0.87394       -1.98739
|  4> C         -0.96015       -0.52236       -0.48987
|  5> H         -1.69039       -1.20813       -0.02168
|  6> H         -1.41449        0.48633       -0.40668
|  7> O          0.26170       -0.58031        0.13861
|  8> H         -1.88568       -0.80774       -2.40670
|  9> H         -0.53143       -1.87013       -2.10605
| 10> H         -0.25399       -0.18836       -2.49039
| 11> *
| 12>
| 13> %MaxCore 64000
| 14>
| 15> %pal nprocs 4
| 16> end
| 17>
| 18> %scf
| 19>   MaxIter 150
| 20> end
| 21>
| 22>
| 23>                          ****END OF INPUT****

CARTESIAN COORDINATES (ANGSTROEM)
---------------------------------
  C     -0.903490   -0.873940   -1.987390
  C     -0.960150   -0.522360   -0.489870
  H     -1.690390   -1.208130   -0.021680
  H     -1.414490    0.486330   -0.406680
  O      0.261700   -0.580310    0.138610
  H     -1.885680   -0.807740   -2.406700
  H     -0.531430   -1.870130   -2.106050
  H     -0.253990   -0.188360   -2.490390

 Total Charge           Charge          ....   -1
 Multiplicity           Mult            ....    1
 Number of Electrons    NEL             ....   26
 Basis Dimension        Dim             ....  123

ORBITAL ENERGIES
----------------

  NO   OCC          E(Eh)            E(eV)
   0   2.0000     -18.403284      -500.7788
   1   2.0000      -9.683209      -263.4935
   2   2.0000      -9.663654      -262.9614
   3   2.0000      -0.584062       -15.8931
   4   2.0000      -0.449323       -12.2267
   5   2.0000      -0.304816        -8.2945
   6   2.0000      -0.194752        -5.2995
   7   2.0000      -0.173957        -4.7336
   8   2.0000      -0.121631        -3.3097
   9   2.0000      -0.105190        -2.8624
  10   2.0000      -0.057126        -1.5545
  11   2.0000       0.083151         2.2626
  12   2.0000       0.087642         2.3849
  13   0.0000       0.199027         5.4158
  14   0.0000       0.234655         6.3853
  15   0.0000       0.257929         7.0186
  16   0.0000       0.260329         7.0839
  17   0.0000       0.293018         7.9734

MULLIKEN ATOMIC CHARGES
-----------------------
   0 C :   -0.082701
   1 C :   -0.015666
   2 H :   -0.070433
   3 H :   -0.072729
   4 O :   -0.712640
   5 H :   -0.061615
   6 H :    0.007952
   7 H :    0.007832
Sum of atomic charges:   -1.0000000

LOEWDIN ATOMIC CHARGES
----------------------
   0 C :   -0.372734
   1 C :   -0.563560
   2 H :    0.050669
   3 H :    0.050213
   4 O :   -0.396582
   5 H :    0.066611
   6 H :    0.082705
   7 H :    0.082677

  Mayer bond orders larger than 0.100000
B(  0-C ,  1-C ) :   0.8693 B(  0-C ,  4-O ) :  -0.3609 B(  0-C ,  5-H ) :   0.8842
B(  0-C ,  6-H ) :   0.9470 B(  0-C ,  7-H ) :   0.9470 B(  1-C ,  2-H ) :   0.9049
B(  1-C ,  3-H ) :   0.9032 B(  1-C ,  4-O ) :   1.7000 B(  4-O ,  5-H ) :   0.1504

Dispersion correction           -0.003757639
FINAL SINGLE POINT ENERGY      -154.289591078426

DIPOLE MOMENT
-------------
                                X             Y             Z
Electronic contribution:      2.19495       0.17433       2.36824
Nuclear contribution   :     -2.90669      -0.27617      -3.31210
                        -----------------------------------------
Total Dipole Moment    :     -0.71174      -0.10183      -0.94386
                        -----------------------------------------
Magnitude (a.u.)       :      1.18651
Magnitude (Debye)      :      3.01588

Rotational constants in cm-1:     1.291883     0.321656     0.284469
Rotational constants in MHz : 38729.676116  9643.011620  8528.167295

                             ****ORCA TERMINATED NORMALLY****
TOTAL RUN TIME: 0 days 0 hours 0 minutes 8 seconds 396 msec
