                         Program Version 5.0.0 -  RELEASE  -
|  1> !PBE D3BJ RIJCOSX def2-TZVP def2/J TightSCF
|  2> *xyz 1 1
|  3> C          4.36645       -0.13321       -1.41606
|  4> C          4.50829       -0.93187       -2.72425
|  5> C          3.05650       -0.32080       -0.70738
|  6> N          2.38983        0.71129       -0.24391
|  7> N          2.51600       -1.50772       -0.55023
|  8> H          2.96768       -2.32291       -0.95631
|  9> H          1.54987       -1.49063       -0.24988
| 10> H          2.74307        1.64947       -0.41280
| 11> H          1.44036        0.50278        0.03703
| 12> H          4.48784        0.93300       -1.61157
| 13> H          5.16967       -0.41443       -0.72982
| 14> H          5.46700       -0.73824       -3.15818
| 15> H          3.74074       -0.63528       -3.40821
| 16> H          4.41574       -1.97727       -2.51573
| 17> *
| 18>
| 19> %MaxCore 64000
| 20>
| 21> %pal nprocs 4
| 22> end
| 23>
| 24> %scf
| 25>   MaxIter 150
| 26> end
| 27>
| 28>
| 29>                          ****END OF INPUT****

CARTESIAN COORDINATES (ANGSTROEM)
---------------------------------
  C      4.366450   -0.133210   -1.416060
  C      4.508290   -0.931870   -2.724250
  C      3.056500   -0.320800   -0.707380
  N      2.389830    0.711290   -0.243910
  N      2.516000   -1.507720   -0.550230
  H      2.967680   -2.322910   -0.956310
  H      1.549870   -1.490630   -0.249880
  H      2.743070    1.649470   -0.412800
  H      1.440360    0.502780    0.037030
  H      4.487840    0.933000   -1.611570
  H      5.169670   -0.414430   -0.729820
  H      5.467000   -0.738240   -3.158180
  H      3.740740   -0.635280   -3.408210
  H      4.415740   -1.977270   -2.515730

 Total Charge           Charge          ....    1
 Multiplicity           Mult            ....    1
 Number of Electrons    NEL             ....   40
 Basis Dimension        Dim             ....  209

ORBITAL ENERGIES
----------------

  NO   OCC          E(Eh)            E(eV)
   0   2.0000     -14.229574      -387.2064
   1   2.0000     -14.228247      -387.1703
   2   2.0000     -10.192916      -277.3633
   3   2.0000     -10.082973      -274.3716
   4   2.0000     -10.039141      -273.1789
   5   2.0000      -1.129283       -30.7293
   6   2.0000      -1.030423       -28.0392
   7   2.0000      -0.899479       -24.4761
   8   2.0000      -0.798463       -21.7273
   9   2.0000      -0.761962       -20.7340
  10   2.0000      -0.716566       -19.4988
  11   2.0000      -0.702538       -19.1170
  12   2.0000      -0.655598       -17.8397
  13   2.0000      -0.612047       -16.6546
  14   2.0000      -0.581493       -15.8232
  15   2.0000      -0.556268       -15.1368
  16   2.0000      -0.513115       -13.9626
  17   2.0000      -0.498625       -13.5683
  18   2.0000      -0.484879       -13.1942
  19   2.0000      -0.455022       -12.3818
  20   0.0000      -0.245894        -6.6911
  21   0.0000      -0.188009        -5.1160
  22   0.0000      -0.142206        -3.8696
  23   0.0000      -0.139071        -3.7843
  24   0.0000      -0.103638        -2.8201

MULLIKEN ATOMIC CHARGES
-----------------------
   0 C :   -0.199270
   1 C :   -0.355298
   2 C :    0.238402
   3 N :   -0.267694
   4 N :   -0.267120
   5 H :    0.285197
   6 H :    0.259654
   7 H :    0.290445
   8 H :    0.256661
   9 H :    0.132828
  10 H :    0.181348
  11 H :    0.174215
  12 H :    0.153253
  13 H :    0.117378
Sum of atomic charges:    1.0000000

LOEWDIN ATOMIC CHARGES
----------------------
   0 C :   -0.220712
   1 C :   -0.264779
   2 C :   -0.316244
   3 N :    0.126325
   4 N :    0.126396
   5 H :    0.207173
   6 H :    0.199067
   7 H :    0.209687
   8 H :    0.198131
   9 H :    0.161325
  10 H :    0.176805
  11 H :    0.142327
  12 H :    0.132699
  13 H :    0.121802

  Mayer bond orders larger than 0.100000
B(  0-C ,  1-C ) :   0.9984 B(  0-C ,  2-C ) :   1.0177 B(  0-C ,  9-H ) :   0.9411
B(  0-C , 10-H ) :   0.9147 B(  1-C , 11-H ) :   0.9531 B(  1-C , 12-H ) :   0.9594
B(  1-C , 13-H ) :   0.9603 B(  2-C ,  3-N ) :   1.4804 B(  2-C ,  4-N ) :   1.4544
B(  3-N ,  7-H ) :   0.8797 B(  3-N ,  8-H ) :   0.8897 B(  4-N ,  5-H ) :   0.8860
B(  4-N ,  6-H ) :   0.8884

Dispersion correction           -0.010132754
FINAL SINGLE POINT ENERGY      -228.822158581873

DIPOLE MOMENT
-------------
                                X             Y             Z
Electronic contribution:     -2.67980       0.62550       3.12248
Nuclear contribution   :      1.78847      -0.48174      -2.67127
                        -----------------------------------------
Total Dipole Moment    :     -0.89133       0.14376       0.45121
                        -----------------------------------------
Magnitude (a.u.)       :      1.00932
Magnitude (Debye)      :      2.56548

Rotational constants in cm-1:     0.286883     0.123210     0.094446
Rotational constants in MHz :  8600.540572  3693.747366  2831.415242

                             ****ORCA TERMINATED NORMALLY****
TOTAL RUN TIME: 0 days 0 hours 0 minutes 12 seconds 222 msec
