                         Program Version 5.0.0 -  RELEASE  -
|  1> !PBE D3BJ RIJCOSX def2-TZVP def2/J TightSCF xyzfile
|  2>
|  3> *xyzfile 0 1 B.xyz
|  4>
|  5> %MaxCore 64000
|  6>
|  7> %pal nprocs 18
|  8> end
|  9>
| 10> %scf
| 11>   MaxIter 150
| 12> end
| 13>
| 14>
| 15>                          ****END OF INPUT****

CARTESIAN COORDINATES (ANGSTROEM)
---------------------------------
  C      4.366454   -0.133215   -1.416062
  C      4.508292   -0.931872   -2.724249
  H      4.753716   -1.972051   -2.488408
  C      3.294164   -0.918214   -3.656570
  H      5.385637   -0.536236   -3.242640
  H      2.483463   -1.477378   -3.185764
  H      3.553092   -1.478495   -4.560331
  C      2.772335    0.460100   -4.051448
  H      2.608762    1.065107   -3.155194
  C      1.465354    0.410537   -4.853644
  H      3.532940    0.988848   -4.635671
  C      0.326171   -0.375613   -4.192580
  H      1.666704   -0.022269   -5.839323
  H      1.138198    1.439246   -5.035449
  C     -0.017405    0.080588   -2.778406
  H      0.585573   -1.439385   -4.168057
  H     -0.560005   -0.311425   -4.831461
  H      0.902090    0.201296   -2.206729
  C     -0.903495   -0.873945   -1.987388
  H     -0.479549    1.074657   -2.811915
  H     -0.502554   -1.892096   -2.081204
  H     -1.917039   -0.895427   -2.406277
  C     -0.960148   -0.522365   -0.489867
  H     -1.690392   -1.208130   -0.021677
  H     -1.414490    0.486329   -0.406677
  O      0.261703   -0.580307    0.138611
  C      3.056503   -0.320797   -0.707384
  N      2.389825    0.711285   -0.243909
  N      2.515999   -1.507721   -0.550229
  H      2.967683   -2.322915   -0.956305
  H      1.549872   -1.490634   -0.249876
  H      2.743071    1.649471   -0.412802
  H      1.440364    0.502778    0.037031
  H      4.487835    0.932997   -1.611569
  H      5.169672   -0.414432   -0.729817

 Total Charge           Charge          ....    0
 Multiplicity           Mult            ....    1
 Number of Electrons    NEL             ....  104
 Basis Dimension        Dim             ....  535

ORBITAL ENERGIES
----------------

  NO   OCC          E(Eh)            E(eV)
   0   2.0000     -18.631834      -506.9980
   1   2.0000     -14.010165      -381.2360
   2   2.0000     -14.009773      -381.2253
   3   2.0000      -9.991953      -271.8949
   4   2.0000      -9.923100      -270.0213
   5   2.0000      -9.909147      -269.6416
   6   2.0000      -9.888917      -269.0911
   7   2.0000      -9.882960      -268.9290
   8   2.0000      -9.874843      -268.7081
   9   2.0000      -9.864642      -268.4306
  10   2.0000      -9.862950      -268.3845
  11   2.0000      -9.851488      -268.0726
  12   2.0000      -9.839688      -267.7515
  13   2.0000      -0.922529       -25.1033
  14   2.0000      -0.822756       -22.3883
  15   2.0000      -0.809713       -22.0334
  16   2.0000      -0.758709       -20.6455
  17   2.0000      -0.724752       -19.7215
  18   2.0000      -0.687707       -18.7135
  19   2.0000      -0.650996       -17.7145
  20   2.0000      -0.615561       -16.7503
  21   2.0000      -0.579223       -15.7615
  22   2.0000      -0.561749       -15.2860
  23   2.0000      -0.550444       -14.9783
  24   2.0000      -0.512034       -13.9332
  25   2.0000      -0.496444       -13.5089
  26   2.0000      -0.493876       -13.4390
  27   2.0000      -0.470144       -12.7933
  28   2.0000      -0.453126       -12.3302
  29   2.0000      -0.450768       -12.2660
  30   2.0000      -0.433467       -11.7952
  31   2.0000      -0.414165       -11.2700
  32   2.0000      -0.399347       -10.8668
  33   2.0000      -0.383015       -10.4224
  34   2.0000      -0.373500       -10.1635
  35   2.0000      -0.367225        -9.9927
  36   2.0000      -0.361473        -9.8362
  37   2.0000      -0.356575        -9.7029
  38   2.0000      -0.335983        -9.1426
  39   2.0000      -0.327621        -8.9150
  40   2.0000      -0.319066        -8.6822
  41   2.0000      -0.310911        -8.4603
  42   2.0000      -0.301017        -8.1911
  43   2.0000      -0.297135        -8.0855
  44   2.0000      -0.279463        -7.6046
  45   2.0000      -0.273151        -7.4328
  46   2.0000      -0.263999        -7.1838
  47   2.0000      -0.260624        -7.0919
  48   2.0000      -0.255938        -6.9644
  49   2.0000      -0.247061        -6.7229
  50   2.0000      -0.144239        -3.9249
  51   2.0000      -0.138227        -3.7613
  52   0.0000      -0.053537        -1.4568
  53   0.0000      -0.016528        -0.4498
  54   0.0000       0.001349         0.0367
  55   0.0000       0.020745         0.5645
  56   0.0000       0.028629         0.7790

MULLIKEN ATOMIC CHARGES
-----------------------
   0 C :   -0.158818
   1 C :   -0.255902
   2 H :    0.120656
   3 C :   -0.156734
   4 H :    0.107240
   5 H :    0.098483
   6 H :    0.095370
   7 C :   -0.232965
   8 H :    0.091494
   9 C :   -0.107681
  10 H :    0.089299
  11 C :   -0.173485
  12 H :    0.087337
  13 H :    0.085078
  14 C :   -0.187645
  15 H :    0.091235
  16 H :    0.088166
  17 H :    0.052399
  18 C :   -0.114006
  19 H :    0.060139
  20 H :    0.044901
  21 H :    0.055466
  22 C :    0.040350
  23 H :    0.045139
  24 H :    0.023133
  25 O :   -0.669260
  26 C :    0.136047
  27 N :   -0.281164
  28 N :   -0.263234
  29 H :    0.223481
  30 H :    0.240822
  31 H :    0.218850
  32 H :    0.260311
  33 H :    0.109724
  34 H :    0.135775
Sum of atomic charges:   -0.0000000

LOEWDIN ATOMIC CHARGES
----------------------
   0 C :   -0.224935
   1 C :   -0.264306
   2 H :    0.138253
   3 C :   -0.272603
   4 H :    0.145085
   5 H :    0.140416
   6 H :    0.142019
   7 C :   -0.274302
   8 H :    0.133578
   9 C :   -0.268481
  10 H :    0.135730
  11 C :   -0.276706
  12 H :    0.136187
  13 H :    0.137765
  14 C :   -0.281036
  15 H :    0.133027
  16 H :    0.136368
  17 H :    0.136341
  18 C :   -0.291403
  19 H :    0.133589
  20 H :    0.124744
  21 H :    0.127694
  22 C :   -0.469754
  23 H :    0.103658
  24 H :    0.099926
  25 O :   -0.259875
  26 C :   -0.360683
  27 N :    0.097667
  28 N :    0.102474
  29 H :    0.175098
  30 H :    0.142270
  31 H :    0.173652
  32 H :    0.140724
  33 H :    0.148991
  34 H :    0.158828

  Mayer bond orders larger than 0.100000
B(  0-C ,  1-C ) :   0.9798 B(  0-C , 26-C ) :   1.0293 B(  0-C , 33-H ) :   0.9484
B(  0-C , 34-H ) :   0.9328 B(  1-C ,  2-H ) :   0.9628 B(  1-C ,  3-C ) :   0.9858
B(  1-C ,  4-H ) :   0.9424 B(  3-C ,  5-H ) :   0.9565 B(  3-C ,  6-H ) :   0.9450
B(  3-C ,  7-C ) :   0.9883 B(  7-C ,  8-H ) :   0.9598 B(  7-C ,  9-C ) :   1.0040
B(  7-C , 10-H ) :   0.9423 B(  9-C , 11-C ) :   0.9974 B(  9-C , 12-H ) :   0.9489
B(  9-C , 13-H ) :   0.9487 B( 11-C , 14-C ) :   1.0060 B( 11-C , 15-H ) :   0.9578
B( 11-C , 16-H ) :   0.9491 B( 14-C , 17-H ) :   0.9671 B( 14-C , 18-C ) :   1.0301
B( 14-C , 19-H ) :   0.9362 B( 18-C , 20-H ) :   0.9391 B( 18-C , 21-H ) :   0.9267
B( 18-C , 22-C ) :   0.9662 B( 22-C , 23-H ) :   0.9362 B( 22-C , 24-H ) :   0.9414
B( 22-C , 25-O ) :   1.2151 B( 25-O , 30-H ) :   0.2724 B( 25-O , 32-H ) :   0.2677
B( 26-C , 27-N ) :   1.5054 B( 26-C , 28-N ) :   1.4905 B( 27-N , 31-H ) :   0.9037
B( 27-N , 32-H ) :   0.7245 B( 28-N , 29-H ) :   0.9044 B( 28-N , 30-H ) :   0.7281

Dispersion correction           -0.039736863
FINAL SINGLE POINT ENERGY      -578.514957108765

DIPOLE MOMENT
-------------
                                X             Y             Z
Electronic contribution:      2.64940      -0.28298       7.67258
Nuclear contribution   :     -0.17996       0.53390      -8.68067
                        -----------------------------------------
Total Dipole Moment    :      2.46944       0.25093      -1.00809
                        -----------------------------------------
Magnitude (a.u.)       :      2.67905
Magnitude (Debye)      :      6.80961

Rotational constants in cm-1:     0.028240     0.022734     0.014600
Rotational constants in MHz :   846.611263   681.554306   437.693928

                             ****ORCA TERMINATED NORMALLY****
TOTAL RUN TIME: 0 days 0 hours 0 minutes 31 seconds 187 msec
