                         Program Version 5.0.0 -  RELEASE  -
|  1> !PBE D3BJ RIJCOSX def2-TZVP def2/J TightSCF
|  2> *xyz 0 1
|  3> C         -0.90349       -0.87394       -1.98739
|  4> C         -0.96015       -0.52236       -0.48987
|  5> H         -1.69039       -1.20813       -0.02168
|  6> H         -1.41449        0.48633       -0.40668
|  7> F          0.26170       -0.58031        0.13861
|  8> H         -1.88568       -0.80774       -2.40670
|  9> H         -0.53143       -1.87013       -2.10605
| 10> H         -0.25399       -0.18836       -2.49039
| 11> *
| 12>
| 13> %MaxCore 64000
| 14>
| 15> %pal nprocs 4
| 16> end
| 17>
| 18> %scf
| 19>   MaxIter 150
| 20> end
| 21>
| 22>
| 23>                          ****END OF INPUT****

CARTESIAN COORDINATES (ANGSTROEM)
---------------------------------
  C     -0.903490   -0.873940   -1.987390
  C     -0.960150   -0.522360   -0.489870
  H     -1.690390   -1.208130   -0.021680
  H     -1.414490    0.486330   -0.406680
  F      0.261700   -0.580310    0.138610
  H     -1.885680   -0.807740   -2.406700
  H     -0.531430   -1.870130   -2.106050
  H     -0.253990   -0.188360   -2.490390

 Total Charge           Charge          ....    0
 Multiplicity           Mult            ....    1
 Number of Electrons    NEL             ....   26
 Basis Dimension        Dim             ....  123

ORBITAL ENERGIES
----------------

  NO   OCC          E(Eh)            E(eV)
   0   2.0000     -24.241572      -659.6467
   1   2.0000      -9.954988      -270.8890
   2   2.0000      -9.874858      -268.7086
   3   2.0000      -1.094303       -29.7775
   4   2.0000      -0.693201       -18.8630
   5   2.0000      -0.568229       -15.4623
   6   2.0000      -0.452609       -12.3161
   7   2.0000      -0.438016       -11.9190
   8   2.0000      -0.400569       -10.9000
   9   2.0000      -0.355143        -9.6639
  10   2.0000      -0.353067        -9.6074
  11   2.0000      -0.286115        -7.7856
  12   2.0000      -0.280968        -7.6455
  13   0.0000       0.022715         0.6181
  14   0.0000       0.059193         1.6107
  15   0.0000       0.066479         1.8090
  16   0.0000       0.077492         2.1087
  17   0.0000       0.090758         2.4697

MULLIKEN ATOMIC CHARGES
-----------------------
   0 C :   -0.324921
   1 C :    0.005324
   2 H :    0.090053
   3 H :    0.089540
   4 F :   -0.206590
   5 H :    0.109848
   6 H :    0.118357
   7 H :    0.118390
Sum of atomic charges:   -0.0000000

LOEWDIN ATOMIC CHARGES
----------------------
   0 C :   -0.315853
   1 C :   -0.381436
   2 H :    0.115896
   3 H :    0.116465
   4 F :    0.106139
   5 H :    0.123482
   6 H :    0.117654
   7 H :    0.117654

  Mayer bond orders larger than 0.100000
B(  0-C ,  1-C ) :   1.0047 B(  0-C ,  5-H ) :   0.9500 B(  0-C ,  6-H ) :   0.9652
B(  0-C ,  7-H ) :   0.9653 B(  1-C ,  2-H ) :   0.9604 B(  1-C ,  3-H ) :   0.9602
B(  1-C ,  4-F ) :   1.0411

Dispersion correction           -0.003477295
FINAL SINGLE POINT ENERGY      -178.923624303473

DIPOLE MOMENT
-------------
                                X             Y             Z
Electronic contribution:      3.28195       0.37387       4.01534
Nuclear contribution   :     -3.84149      -0.36812      -4.38946
                        -----------------------------------------
Total Dipole Moment    :     -0.55954       0.00575      -0.37412
                        -----------------------------------------
Magnitude (a.u.)       :      0.67311
Magnitude (Debye)      :      1.71092

Rotational constants in cm-1:     1.270659     0.299196     0.265842
Rotational constants in MHz : 38093.410361  8969.665806  7969.741481

                             ****ORCA TERMINATED NORMALLY****
TOTAL RUN TIME: 0 days 0 hours 0 minutes 7 seconds 720 msec
