                         Program Version 5.0.0 -  RELEASE  -
|  1> !PBE D3BJ RIJCOSX def2-TZVP def2/J TightSCF
|  2> *xyz 0 1
|  3> C          4.36645       -0.13321       -1.41606
|  4> C          4.50829       -0.93187       -2.72425
|  5> C          3.05650       -0.32080       -0.70738
|  6> C          2.38983        0.71129       -0.24391
|  7> N          2.51600       -1.50772       -0.55023
|  8> H          2.96768       -2.32291       -0.95631
|  9> H          1.54987       -1.49063       -0.24988
| 10> H          2.74307        1.64947       -0.41280
| 11> H          1.44036        0.50278        0.03703
| 12> H          4.48784        0.93300       -1.61157
| 13> H          5.16967       -0.41443       -0.72982
| 14> H          5.46700       -0.73824       -3.15818
| 15> H          3.74074       -0.63528       -3.40821
| 16> H          4.41574       -1.97727       -2.51573
| 17> *
| 18>
| 19> %MaxCore 64000
| 20>
| 21> %pal nprocs 4
| 22> end
| 23>
| 24> %scf
| 25>   MaxIter 150
| 26> end
| 27>
| 28>
| 29>                          ****END OF INPUT****

CARTESIAN COORDINATES (ANGSTROEM)
---------------------------------
  C      4.366450   -0.133210   -1.416060
  C      4.508290   -0.931870   -2.724250
  C      3.056500   -0.320800   -0.707380
  C      2.389830    0.711290   -0.243910
  N      2.516000   -1.507720   -0.550230
  H      2.967680   -2.322910   -0.956310
  H      1.549870   -1.490630   -0.249880
  H      2.743070    1.649470   -0.412800
  H      1.440360    0.502780    0.037030
  H      4.487840    0.933000   -1.611570
  H      5.169670   -0.414430   -0.729820
  H      5.467000   -0.738240   -3.158180
  H      3.740740   -0.635280   -3.408210
  H      4.415740   -1.977270   -2.515730

 Total Charge           Charge          ....    0
 Multiplicity           Mult            ....    1
 Number of Electrons    NEL             ....   40
 Basis Dimension        Dim             ....  209

ORBITAL ENERGIES
----------------

  NO   OCC          E(Eh)            E(eV)
   0   2.0000     -13.982330      -380.4785
   1   2.0000      -9.893411      -269.2134
   2   2.0000      -9.881913      -268.9005
   3   2.0000      -9.871313      -268.6121
   4   2.0000      -9.809505      -266.9302
   5   2.0000      -0.852521       -23.1983
   6   2.0000      -0.705809       -19.2060
   7   2.0000      -0.652040       -17.7429
   8   2.0000      -0.573044       -15.5933
   9   2.0000      -0.506867       -13.7926
  10   2.0000      -0.482313       -13.1244
  11   2.0000      -0.419675       -11.4199
  12   2.0000      -0.392860       -10.6903
  13   2.0000      -0.382559       -10.4100
  14   2.0000      -0.345608        -9.4045
  15   2.0000      -0.335833        -9.1385
  16   2.0000      -0.314845        -8.5674
  17   2.0000      -0.301055        -8.1921
  18   2.0000      -0.282452        -7.6859
  19   2.0000      -0.156797        -4.2667
  20   0.0000       0.003209         0.0873
  21   0.0000       0.014368         0.3910
  22   0.0000       0.048051         1.3075
  23   0.0000       0.051576         1.4034
  24   0.0000       0.072509         1.9731

MULLIKEN ATOMIC CHARGES
-----------------------
   0 C :   -0.172197
   1 C :   -0.344728
   2 C :    0.174881
   3 C :   -0.388083
   4 N :   -0.384632
   5 H :    0.211312
   6 H :    0.215950
   7 H :    0.088875
   8 H :    0.059823
   9 H :    0.100743
  10 H :    0.104688
  11 H :    0.120336
  12 H :    0.122184
  13 H :    0.090847
Sum of atomic charges:   -0.0000000

LOEWDIN ATOMIC CHARGES
----------------------
   0 C :   -0.240594
   1 C :   -0.301540
   2 C :   -0.382920
   3 C :   -0.278846
   4 N :    0.013330
   5 H :    0.166475
   6 H :    0.176598
   7 H :    0.105555
   8 H :    0.100189
   9 H :    0.148660
  10 H :    0.143274
  11 H :    0.119079
  12 H :    0.120819
  13 H :    0.109921

  Mayer bond orders larger than 0.100000
B(  0-C ,  1-C ) :   0.9854 B(  0-C ,  2-C ) :   1.0151 B(  0-C ,  9-H ) :   0.9503
B(  0-C , 10-H ) :   0.9547 B(  1-C , 11-H ) :   0.9670 B(  1-C , 12-H ) :   0.9676
B(  1-C , 13-H ) :   0.9711 B(  2-C ,  3-C ) :   1.7582 B(  2-C ,  4-N ) :   1.1921
B(  3-C ,  7-H ) :   0.9870 B(  3-C ,  8-H ) :   0.9667 B(  4-N ,  5-H ) :   0.9221
B(  4-N ,  6-H ) :   0.9100

Dispersion correction           -0.010487349
FINAL SINGLE POINT ENERGY      -212.352881323326

DIPOLE MOMENT
-------------
                                X             Y             Z
Electronic contribution:     -1.50803      -0.47323       2.08718
Nuclear contribution   :      1.56827      -0.21459      -2.46657
                        -----------------------------------------
Total Dipole Moment    :      0.06023      -0.68782      -0.37939
                        -----------------------------------------
Magnitude (a.u.)       :      0.78782
Magnitude (Debye)      :      2.00247

Rotational constants in cm-1:     0.294070     0.127722     0.097792
Rotational constants in MHz :  8815.983970  3829.010547  2931.715816

                             ****ORCA TERMINATED NORMALLY****
TOTAL RUN TIME: 0 days 0 hours 0 minutes 11 seconds 981 msec
