                         Program Version 5.0.0 -  RELEASE  -
|  1> !PBE D3BJ RIJCOSX def2-TZVP def2/J TightSCF
|  2> *xyz 0 1
|  3> C          4.36645       -0.13321       -1.41606
|  4> C          4.50829       -0.93187       -2.72425
|  5> C          3.05650       -0.32080       -0.70738
|  6> N          2.38983        0.71129       -0.24391
|  7> C          2.51600       -1.50772       -0.55023
|  8> H          2.96768       -2.32291       -0.95631
|  9> H          1.54987       -1.49063       -0.24988
| 10> H          2.74307        1.64947       -0.41280
| 11> H          1.44036        0.50278        0.03703
| 12> H          4.48784        0.93300       -1.61157
| 13> H          5.16967       -0.41443       -0.72982
| 14> H          5.46700       -0.73824       -3.15818
| 15> H          3.74074       -0.63528       -3.40821
| 16> H          4.41574       -1.97727       -2.51573
| 17> *
| 18>
| 19> %MaxCore 64000
| 20>
| 21> %pal nprocs 4
| 22> end
| 23>
| 24> %scf
| 25>   MaxIter 150
| 26> end
| 27>
| 28>
| 29>                          ****END OF INPUT****

CARTESIAN COORDINATES (ANGSTROEM)
---------------------------------
  C      4.366450   -0.133210   -1.416060
  C      4.508290   -0.931870   -2.724250
  C      3.056500   -0.320800   -0.707380
  N      2.389830    0.711290   -0.243910
  C      2.516000   -1.507720   -0.550230
  H      2.967680   -2.322910   -0.956310
  H      1.549870   -1.490630   -0.249880
  H      2.743070    1.649470   -0.412800
  H      1.440360    0.502780    0.037030
  H      4.487840    0.933000   -1.611570
  H      5.169670   -0.414430   -0.729820
  H      5.467000   -0.738240   -3.158180
  H      3.740740   -0.635280   -3.408210
  H      4.415740   -1.977270   -2.515730

 Total Charge           Charge          ....    0
 Multiplicity           Mult            ....    1
 Number of Electrons    NEL             ....   40
 Basis Dimension        Dim             ....  209

ORBITAL ENERGIES
----------------

  NO   OCC          E(Eh)            E(eV)
   0   2.0000     -13.982868      -380.4932
   1   2.0000      -9.893434      -269.2140
   2   2.0000      -9.883392      -268.9408
   3   2.0000      -9.864833      -268.4357
   4   2.0000      -9.807779      -266.8832
   5   2.0000      -0.852774       -23.2051
   6   2.0000      -0.706911       -19.2360
   7   2.0000      -0.641655       -17.4603
   8   2.0000      -0.581964       -15.8360
   9   2.0000      -0.497881       -13.5480
  10   2.0000      -0.479962       -13.0604
  11   2.0000      -0.427142       -11.6231
  12   2.0000      -0.401685       -10.9304
  13   2.0000      -0.359455        -9.7813
  14   2.0000      -0.344517        -9.3748
  15   2.0000      -0.335502        -9.1295
  16   2.0000      -0.315070        -8.5735
  17   2.0000      -0.298845        -8.1320
  18   2.0000      -0.283907        -7.7255
  19   2.0000      -0.155070        -4.2197
  20   0.0000       0.007337         0.1996
  21   0.0000       0.012765         0.3474
  22   0.0000       0.045640         1.2419
  23   0.0000       0.050961         1.3867
  24   0.0000       0.074879         2.0376

MULLIKEN ATOMIC CHARGES
-----------------------
   0 C :   -0.167412
   1 C :   -0.336306
   2 C :    0.174232
   3 N :   -0.382299
   4 C :   -0.391023
   5 H :    0.086693
   6 H :    0.061993
   7 H :    0.212516
   8 H :    0.212841
   9 H :    0.072211
  10 H :    0.115079
  11 H :    0.111141
  12 H :    0.114980
  13 H :    0.115353
Sum of atomic charges:   -0.0000000

LOEWDIN ATOMIC CHARGES
----------------------
   0 C :   -0.240847
   1 C :   -0.292524
   2 C :   -0.382726
   3 N :    0.012185
   4 C :   -0.281257
   5 H :    0.104811
   6 H :    0.100769
   7 H :    0.166489
   8 H :    0.175743
   9 H :    0.133919
  10 H :    0.149138
  11 H :    0.115189
  12 H :    0.119978
  13 H :    0.119133

  Mayer bond orders larger than 0.100000
B(  0-C ,  1-C ) :   1.0086 B(  0-C ,  2-C ) :   0.9852 B(  0-C ,  9-H ) :   0.9439
B(  0-C , 10-H ) :   0.9614 B(  1-C , 11-H ) :   0.9625 B(  1-C , 12-H ) :   0.9695
B(  1-C , 13-H ) :   0.9721 B(  2-C ,  3-N ) :   1.2073 B(  2-C ,  4-C ) :   1.7327
B(  3-N ,  7-H ) :   0.9148 B(  3-N ,  8-H ) :   0.9096 B(  4-C ,  5-H ) :   0.9996
B(  4-C ,  6-H ) :   0.9621

Dispersion correction           -0.010519409
FINAL SINGLE POINT ENERGY      -212.351725294954

DIPOLE MOMENT
-------------
                                X             Y             Z
Electronic contribution:     -1.62523       1.50310       2.37492
Nuclear contribution   :      1.59749      -0.72853      -2.53752
                        -----------------------------------------
Total Dipole Moment    :     -0.02774       0.77457      -0.16260
                        -----------------------------------------
Magnitude (a.u.)       :      0.79194
Magnitude (Debye)      :      2.01295

Rotational constants in cm-1:     0.304597     0.124127     0.096828
Rotational constants in MHz :  9131.600925  3721.227051  2902.830760

                             ****ORCA TERMINATED NORMALLY****
TOTAL RUN TIME: 0 days 0 hours 0 minutes 13 seconds 62 msec
