                         Program Version 5.0.0 -  RELEASE  -
|  1> !PBE D3BJ RIJCOSX def2-TZVP def2/J TightSCF xyzfile
|  2>
|  3> *xyzfile 0 1 D2.xyz
|  4>
|  5> %MaxCore 64000
|  6>
|  7> %pal nprocs 18
|  8> end
|  9>
| 10> %scf
| 11>   MaxIter 150
| 12> end
| 13>
| 14>
| 15>                          ****END OF INPUT****

CARTESIAN COORDINATES (ANGSTROEM)
---------------------------------
  C      4.366454   -0.133215   -1.416062
  C      4.508292   -0.931872   -2.724249
  H      4.753716   -1.972051   -2.488408
  C      3.294164   -0.918214   -3.656570
  H      5.385637   -0.536236   -3.242640
  H      2.483463   -1.477378   -3.185764
  H      3.553092   -1.478495   -4.560331
  C      2.772335    0.460100   -4.051448
  H      2.608762    1.065107   -3.155194
  C      1.465354    0.410537   -4.853644
  H      3.532940    0.988848   -4.635671
  C      0.326171   -0.375613   -4.192580
  H      1.666704   -0.022269   -5.839323
  H      1.138198    1.439246   -5.035449
  C     -0.017405    0.080588   -2.778406
  H      0.585573   -1.439385   -4.168057
  H     -0.560005   -0.311425   -4.831461
  H      0.902090    0.201296   -2.206729
  C     -0.903495   -0.873945   -1.987388
  H     -0.479549    1.074657   -2.811915
  H     -0.502554   -1.892096   -2.081204
  H     -1.917039   -0.895427   -2.406277
  C     -0.960148   -0.522365   -0.489867
  H     -1.690392   -1.208130   -0.021677
  H     -1.414490    0.486329   -0.406677
  F      0.261703   -0.580307    0.138611
  C      3.056503   -0.320797   -0.707384
  N      2.389825    0.711285   -0.243909
  C      2.515999   -1.507721   -0.550229
  H      2.967683   -2.322915   -0.956305
  H      1.549872   -1.490634   -0.249876
  H      2.743071    1.649471   -0.412802
  H      1.440364    0.502778    0.037031
  H      4.487835    0.932997   -1.611569
  H      5.169672   -0.414432   -0.729817

 Total Charge           Charge          ....    0
 Multiplicity           Mult            ....    1
 Number of Electrons    NEL             ....  104
 Basis Dimension        Dim             ....  535

ORBITAL ENERGIES
----------------

  NO   OCC          E(Eh)            E(eV)
   0   2.0000     -24.276798      -660.6053
   1   2.0000     -13.960314      -379.8795
   2   2.0000      -9.968356      -271.2527
   3   2.0000      -9.891130      -269.1513
   4   2.0000      -9.877717      -268.7864
   5   2.0000      -9.873823      -268.6804
   6   2.0000      -9.873636      -268.6753
   7   2.0000      -9.872073      -268.6328
   8   2.0000      -9.870670      -268.5946
   9   2.0000      -9.869712      -268.5685
  10   2.0000      -9.866905      -268.4921
  11   2.0000      -9.861136      -268.3352
  12   2.0000      -9.785062      -266.2651
  13   2.0000      -1.137086       -30.9417
  14   2.0000      -0.836788       -22.7702
  15   2.0000      -0.743739       -20.2382
  16   2.0000      -0.722642       -19.6641
  17   2.0000      -0.699338       -19.0300
  18   2.0000      -0.660078       -17.9616
  19   2.0000      -0.630898       -17.1676
  20   2.0000      -0.619676       -16.8622
  21   2.0000      -0.577909       -15.7257
  22   2.0000      -0.556254       -15.1364
  23   2.0000      -0.527563       -14.3557
  24   2.0000      -0.498496       -13.5648
  25   2.0000      -0.487859       -13.2753
  26   2.0000      -0.477648       -12.9975
  27   2.0000      -0.466439       -12.6925
  28   2.0000      -0.452914       -12.3244
  29   2.0000      -0.431561       -11.7434
  30   2.0000      -0.424750       -11.5580
  31   2.0000      -0.412385       -11.2216
  32   2.0000      -0.399146       -10.8613
  33   2.0000      -0.388417       -10.5694
  34   2.0000      -0.380488       -10.3536
  35   2.0000      -0.367633       -10.0038
  36   2.0000      -0.349803        -9.5186
  37   2.0000      -0.341519        -9.2932
  38   2.0000      -0.335419        -9.1272
  39   2.0000      -0.322737        -8.7821
  40   2.0000      -0.319982        -8.7071
  41   2.0000      -0.313114        -8.5203
  42   2.0000      -0.308167        -8.3857
  43   2.0000      -0.303683        -8.2636
  44   2.0000      -0.289516        -7.8781
  45   2.0000      -0.284942        -7.7537
  46   2.0000      -0.274467        -7.4686
  47   2.0000      -0.267354        -7.2751
  48   2.0000      -0.266943        -7.2639
  49   2.0000      -0.260737        -7.0950
  50   2.0000      -0.258302        -7.0288
  51   2.0000      -0.140400        -3.8205
  52   0.0000       0.008850         0.2408
  53   0.0000       0.016596         0.4516
  54   0.0000       0.024179         0.6580
  55   0.0000       0.025188         0.6854
  56   0.0000       0.033336         0.9071

MULLIKEN ATOMIC CHARGES
-----------------------
   0 C :   -0.160161
   1 C :   -0.206881
   2 H :    0.106867
   3 C :   -0.120824
   4 H :    0.084543
   5 H :    0.093618
   6 H :    0.077065
   7 C :   -0.230313
   8 H :    0.089377
   9 C :   -0.111926
  10 H :    0.084736
  11 C :   -0.187287
  12 H :    0.086953
  13 H :    0.081958
  14 C :   -0.221104
  15 H :    0.102541
  16 H :    0.085929
  17 H :    0.105812
  18 C :   -0.168545
  19 H :    0.071528
  20 H :    0.105137
  21 H :    0.100784
  22 C :    0.001319
  23 H :    0.115410
  24 H :    0.096939
  25 F :   -0.190711
  26 C :    0.067081
  27 N :   -0.378674
  28 C :   -0.424877
  29 H :    0.087275
  30 H :    0.130901
  31 H :    0.201249
  32 H :    0.232081
  33 H :    0.080665
  34 H :    0.111536
Sum of atomic charges:   -0.0000000

LOEWDIN ATOMIC CHARGES
----------------------
   0 C :   -0.223546
   1 C :   -0.260016
   2 H :    0.139738
   3 C :   -0.272337
   4 H :    0.136435
   5 H :    0.141508
   6 H :    0.135631
   7 C :   -0.272420
   8 H :    0.134142
   9 C :   -0.268046
  10 H :    0.135113
  11 C :   -0.273036
  12 H :    0.137290
  13 H :    0.135835
  14 C :   -0.277994
  15 H :    0.137909
  16 H :    0.134951
  17 H :    0.148976
  18 C :   -0.276986
  19 H :    0.134759
  20 H :    0.143691
  21 H :    0.143866
  22 C :   -0.351408
  23 H :    0.127630
  24 H :    0.125897
  25 F :    0.164530
  26 C :   -0.395495
  27 N :    0.007774
  28 C :   -0.290012
  29 H :    0.102594
  30 H :    0.095385
  31 H :    0.159579
  32 H :    0.151543
  33 H :    0.135727
  34 H :    0.150792

  Mayer bond orders larger than 0.100000
B(  0-C ,  1-C ) :   1.0072 B(  0-C , 26-C ) :   0.9852 B(  0-C , 33-H ) :   0.9457
B(  0-C , 34-H ) :   0.9486 B(  1-C ,  2-H ) :   0.9532 B(  1-C ,  3-C ) :   1.0141
B(  1-C ,  4-H ) :   0.9464 B(  3-C ,  5-H ) :   0.9431 B(  3-C ,  6-H ) :   0.9419
B(  3-C ,  7-C ) :   0.9854 B(  7-C ,  8-H ) :   0.9587 B(  7-C ,  9-C ) :   1.0056
B(  7-C , 10-H ) :   0.9449 B(  9-C , 11-C ) :   1.0077 B(  9-C , 12-H ) :   0.9471
B(  9-C , 13-H ) :   0.9503 B( 11-C , 14-C ) :   1.0147 B( 11-C , 15-H ) :   0.9562
B( 11-C , 16-H ) :   0.9474 B( 14-C , 17-H ) :   0.9788 B( 14-C , 18-C ) :   1.0024
B( 14-C , 19-H ) :   0.9428 B( 18-C , 20-H ) :   0.9424 B( 18-C , 21-H ) :   0.9332
B( 18-C , 22-C ) :   1.0018 B( 22-C , 23-H ) :   0.9592 B( 22-C , 24-H ) :   0.9610
B( 22-C , 25-F ) :   0.9616 B( 26-C , 27-N ) :   1.2041 B( 26-C , 28-C ) :   1.7361
B( 27-N , 31-H ) :   0.9175 B( 27-N , 32-H ) :   0.8709 B( 28-C , 29-H ) :   0.9879
B( 28-C , 30-H ) :   0.9410

Dispersion correction           -0.039694437
FINAL SINGLE POINT ENERGY      -586.429037000324

DIPOLE MOMENT
-------------
                                X             Y             Z
Electronic contribution:     -2.75657       0.03124      10.75066
Nuclear contribution   :      1.85154       0.58682     -11.15333
                        -----------------------------------------
Total Dipole Moment    :     -0.90503       0.61806      -0.40267
                        -----------------------------------------
Magnitude (a.u.)       :      1.16757
Magnitude (Debye)      :      2.96773

Rotational constants in cm-1:     0.028379     0.022321     0.014415
Rotational constants in MHz :   850.785777   669.176075   432.155504

                             ****ORCA TERMINATED NORMALLY****
TOTAL RUN TIME: 0 days 0 hours 0 minutes 26 seconds 197 msec
