                         Program Version 5.0.0 -  RELEASE  -
|  1> !M062X D3Zero RIJCOSX def2-TZVP def2/J TightSCF
|  2> *xyz -1 1
|  3> C         -1.91658       -2.48508       -3.64367
|  4> C         -1.36353       -1.98134       -2.29361
|  5> O         -0.35039       -2.74969       -1.79601
|  6> H         -2.22622       -1.90839       -1.60204
|  7> H         -1.05135       -0.91567       -2.44333
|  8> H         -1.11522       -2.57167       -4.34739
|  9> H         -2.64227       -1.79099       -4.01314
| 10> H         -2.37564       -3.44180       -3.50640
| 11> *
| 12>
| 13> %MaxCore 64000
| 14> %pal nprocs 4
| 15> end
| 16>
| 17> %scf
| 18>   MaxIter 150
| 19> end
| 20>
| 21>
| 22>                          ****END OF INPUT****

CARTESIAN COORDINATES (ANGSTROEM)
---------------------------------
  C     -1.916580   -2.485080   -3.643670
  C     -1.363530   -1.981340   -2.293610
  O     -0.350390   -2.749690   -1.796010
  H     -2.226220   -1.908390   -1.602040
  H     -1.051350   -0.915670   -2.443330
  H     -1.115220   -2.571670   -4.347390
  H     -2.642270   -1.790990   -4.013140
  H     -2.375640   -3.441800   -3.506400

 Total Charge           Charge          ....   -1
 Multiplicity           Mult            ....    1
 Number of Electrons    NEL             ....   26
 Basis Dimension        Dim             ....  123

ORBITAL ENERGIES
----------------

  NO   OCC          E(Eh)            E(eV)
   0   2.0000     -19.267718      -524.3013
   1   2.0000     -10.338516      -281.3253
   2   2.0000     -10.316975      -280.7392
   3   2.0000      -0.780060       -21.2265
   4   2.0000      -0.613303       -16.6888
   5   2.0000      -0.446964       -12.1625
   6   2.0000      -0.310584        -8.4514
   7   2.0000      -0.288415        -7.8482
   8   2.0000      -0.227614        -6.1937
   9   2.0000      -0.211948        -5.7674
  10   2.0000      -0.167268        -4.5516
  11   2.0000      -0.023010        -0.6261
  12   2.0000      -0.020476        -0.5572
  13   0.0000       0.251669         6.8482
  14   0.0000       0.288416         7.8482
  15   0.0000       0.312529         8.5043
  16   0.0000       0.318057         8.6548
  17   0.0000       0.348022         9.4702

MULLIKEN ATOMIC CHARGES
-----------------------
   0 C :   -0.279439
   1 C :    0.002690
   2 O :   -0.806124
   3 H :   -0.028749
   4 H :   -0.031685
   5 H :    0.064343
   6 H :    0.015894
   7 H :    0.063070
Sum of atomic charges:   -1.0000000

LOEWDIN ATOMIC CHARGES
----------------------
   0 C :   -0.367881
   1 C :   -0.559173
   2 O :   -0.444119
   3 H :    0.057521
   4 H :    0.056176
   5 H :    0.090123
   6 H :    0.078059
   7 H :    0.089293

  Mayer bond orders larger than 0.100000
B(  0-C ,  1-C ) :   0.8774 B(  0-C ,  2-O ) :  -0.1746 B(  0-C ,  5-H ) :   0.9729
B(  0-C ,  6-H ) :   0.9488 B(  0-C ,  7-H ) :   0.9755 B(  1-C ,  2-O ) :   1.5295
B(  1-C ,  3-H ) :   0.9390 B(  1-C ,  4-H ) :   0.9445

Dispersion correction           -0.000015225
FINAL SINGLE POINT ENERGY      -154.402321723541

DIPOLE MOMENT
-------------
                                X             Y             Z
Electronic contribution:      2.10622      -0.93301       1.85814
Nuclear contribution   :     -3.14382       1.30299      -2.83231
                        -----------------------------------------
Total Dipole Moment    :     -1.03760       0.36998      -0.97416
                        -----------------------------------------
Magnitude (a.u.)       :      1.47054
Magnitude (Debye)      :      3.73782

Rotational constants in cm-1:     1.288206     0.322942     0.285188
Rotational constants in MHz : 38619.437223  9681.562038  8549.712012

                             ****ORCA TERMINATED NORMALLY****
TOTAL RUN TIME: 0 days 0 hours 0 minutes 15 seconds 281 msec
