                         Program Version 5.0.0 -  RELEASE  -
|  1> !M062X D3Zero RIJCOSX def2-TZVP def2/J TightSCF
|  2> *xyz 1 1
|  3> C          1.64703       -2.34528       -5.02041
|  4> C          2.20996       -2.81239       -3.66571
|  5> C          2.48901       -1.66851       -2.73754
|  6> N          3.59631       -0.94761       -2.95225
|  7> N          1.66394       -1.41369       -1.77781
|  8> H          0.81164       -1.96318       -1.70275
|  9> H          1.84550       -0.63508       -1.15875
| 10> H          4.20535       -1.17600       -3.73383
| 11> H          3.81723       -0.12585       -2.40604
| 12> H          3.14311       -3.36280       -3.81152
| 13> H          1.48768       -3.45893       -3.16521
| 14> H          1.46566       -3.19589       -5.64368
| 15> H          2.35406       -1.69850       -5.49654
| 16> H          0.73014       -1.81680       -4.86253
| 17> *
| 18>
| 19> %MaxCore 64000
| 20> %pal nprocs 4
| 21> end
| 22>
| 23> %scf
| 24>   MaxIter 150
| 25> end
| 26>
| 27>
| 28>                          ****END OF INPUT****

CARTESIAN COORDINATES (ANGSTROEM)
---------------------------------
  C      1.647030   -2.345280   -5.020410
  C      2.209960   -2.812390   -3.665710
  C      2.489010   -1.668510   -2.737540
  N      3.596310   -0.947610   -2.952250
  N      1.663940   -1.413690   -1.777810
  H      0.811640   -1.963180   -1.702750
  H      1.845500   -0.635080   -1.158750
  H      4.205350   -1.176000   -3.733830
  H      3.817230   -0.125850   -2.406040
  H      3.143110   -3.362800   -3.811520
  H      1.487680   -3.458930   -3.165210
  H      1.465660   -3.195890   -5.643680
  H      2.354060   -1.698500   -5.496540
  H      0.730140   -1.816800   -4.862530

 Total Charge           Charge          ....    1
 Multiplicity           Mult            ....    1
 Number of Electrons    NEL             ....   40
 Basis Dimension        Dim             ....  209

ORBITAL ENERGIES
----------------

  NO   OCC          E(Eh)            E(eV)
   0   2.0000     -15.000019      -408.1713
   1   2.0000     -14.990009      -407.8989
   2   2.0000     -10.862848      -295.5931
   3   2.0000     -10.734651      -292.1047
   4   2.0000     -10.690077      -290.8918
   5   2.0000      -1.318240       -35.8711
   6   2.0000      -1.215066       -33.0636
   7   2.0000      -1.066329       -29.0163
   8   2.0000      -0.949625       -25.8406
   9   2.0000      -0.900351       -24.4998
  10   2.0000      -0.850971       -23.1561
  11   2.0000      -0.829621       -22.5751
  12   2.0000      -0.774312       -21.0701
  13   2.0000      -0.722034       -19.6475
  14   2.0000      -0.692122       -18.8336
  15   2.0000      -0.681890       -18.5552
  16   2.0000      -0.606770       -16.5110
  17   2.0000      -0.598533       -16.2869
  18   2.0000      -0.594157       -16.1678
  19   2.0000      -0.555836       -15.1251
  20   0.0000      -0.165602        -4.5063
  21   0.0000      -0.131351        -3.5742
  22   0.0000      -0.085831        -2.3356
  23   0.0000      -0.085296        -2.3210
  24   0.0000      -0.050827        -1.3831

MULLIKEN ATOMIC CHARGES
-----------------------
   0 C :   -0.368633
   1 C :   -0.364214
   2 C :    0.455873
   3 N :   -0.437776
   4 N :   -0.377817
   5 H :    0.317283
   6 H :    0.293497
   7 H :    0.317242
   8 H :    0.293584
   9 H :    0.203164
  10 H :    0.166645
  11 H :    0.188199
  12 H :    0.153369
  13 H :    0.159584
Sum of atomic charges:    1.0000000

LOEWDIN ATOMIC CHARGES
----------------------
   0 C :   -0.259245
   1 C :   -0.221486
   2 C :   -0.290886
   3 N :    0.088513
   4 N :    0.129860
   5 H :    0.218649
   6 H :    0.205722
   7 H :    0.210987
   8 H :    0.197006
   9 H :    0.167644
  10 H :    0.159287
  11 H :    0.139158
  12 H :    0.125502
  13 H :    0.129291

  Mayer bond orders larger than 0.100000
B(  0-C ,  1-C ) :   0.9276 B(  0-C , 11-H ) :   0.9674 B(  0-C , 12-H ) :   0.9649
B(  0-C , 13-H ) :   0.9546 B(  1-C ,  2-C ) :   0.9481 B(  1-C ,  9-H ) :   0.9530
B(  1-C , 10-H ) :   0.9749 B(  2-C ,  3-N ) :   1.3717 B(  2-C ,  4-N ) :   1.4583
B(  3-N ,  7-H ) :   0.8859 B(  3-N ,  8-H ) :   0.8956 B(  4-N ,  5-H ) :   0.8816
B(  4-N ,  6-H ) :   0.8926

Dispersion correction           -0.000201902
FINAL SINGLE POINT ENERGY      -229.003892544106

DIPOLE MOMENT
-------------
                                X             Y             Z
Electronic contribution:      1.18586       1.64789       3.61954
Nuclear contribution   :     -0.98617      -1.03178      -2.77619
                        -----------------------------------------
Total Dipole Moment    :      0.19969       0.61612       0.84336
                        -----------------------------------------
Magnitude (a.u.)       :      1.06336
Magnitude (Debye)      :      2.70284

Rotational constants in cm-1:     0.257311     0.127495     0.099037
Rotational constants in MHz :  7713.982239  3822.189706  2969.039713

                             ****ORCA TERMINATED NORMALLY****
TOTAL RUN TIME: 0 days 0 hours 0 minutes 28 seconds 882 msec
