                         Program Version 5.0.0 -  RELEASE  -
|  1> !M062X D3Zero RIJCOSX def2-TZVP def2/J TightSCF xyzfile
|  2>
|  3> *xyzfile 0 1 B.xyz
|  4>
|  5> %MaxCore 64000
|  6>
|  7> %pal nprocs 18
|  8> end
|  9>
| 10> %scf
| 11>   MaxIter 150
| 12> end
| 13>
| 14>
| 15>                          ****END OF INPUT****

CARTESIAN COORDINATES (ANGSTROEM)
---------------------------------
  C      1.647032   -2.345276   -5.020411
  C      0.217628   -1.814022   -4.924389
  C      2.209964   -2.812388   -3.665708
  C     -0.811356   -2.908780   -4.607625
  C     -1.916579   -2.485081   -3.643665
  H     -2.554525   -1.712428   -4.091993
  C     -1.363531   -1.981337   -2.293608
  H     -2.553448   -3.355667   -3.458815
  O     -0.350395   -2.749689   -1.796006
  H      2.308385   -1.588704   -5.457128
  H      1.674286   -3.203478   -5.697392
  C      2.489007   -1.668510   -2.737538
  N      3.596314   -0.947608   -2.952247
  N      1.663936   -1.413685   -1.777806
  H      0.811642   -1.963178   -1.702755
  H      1.845503   -0.635078   -1.158749
  H      4.205351   -1.176003   -3.733825
  H      3.817230   -0.125845   -2.406041
  H     -1.244829   -3.280884   -5.541040
  H     -0.306331   -3.757746   -4.142734
  H     -0.036244   -1.318555   -5.865303
  H      0.175004   -1.035382   -4.158095
  H      3.143106   -3.362803   -3.811524
  H      1.487683   -3.458935   -3.165211
  H     -2.226220   -1.908386   -1.602039
  H     -1.051353   -0.915671   -2.443331

 Total Charge           Charge          ....    0
 Multiplicity           Mult            ....    1
 Number of Electrons    NEL             ....   80
 Basis Dimension        Dim             ....  406

ORBITAL ENERGIES
----------------

  NO   OCC          E(Eh)            E(eV)
   0   2.0000     -19.477027      -529.9969
   1   2.0000     -14.824304      -403.3898
   2   2.0000     -14.779643      -402.1745
   3   2.0000     -10.678831      -290.5858
   4   2.0000     -10.560530      -287.3666
   5   2.0000     -10.547977      -287.0250
   6   2.0000     -10.517710      -286.2014
   7   2.0000     -10.507392      -285.9207
   8   2.0000     -10.497572      -285.6534
   9   2.0000     -10.479645      -285.1656
  10   2.0000      -1.133992       -30.8575
  11   2.0000      -1.035910       -28.1885
  12   2.0000      -0.992567       -27.0091
  13   2.0000      -0.915227       -24.9046
  14   2.0000      -0.850478       -23.1427
  15   2.0000      -0.796632       -21.6775
  16   2.0000      -0.735996       -20.0275
  17   2.0000      -0.717185       -19.5156
  18   2.0000      -0.672881       -18.3100
  19   2.0000      -0.669230       -18.2107
  20   2.0000      -0.641392       -17.4532
  21   2.0000      -0.598923       -16.2975
  22   2.0000      -0.577099       -15.7037
  23   2.0000      -0.557194       -15.1620
  24   2.0000      -0.533588       -14.5197
  25   2.0000      -0.507410       -13.8073
  26   2.0000      -0.499074       -13.5805
  27   2.0000      -0.469609       -12.7787
  28   2.0000      -0.454539       -12.3686
  29   2.0000      -0.451686       -12.2910
  30   2.0000      -0.417968       -11.3735
  31   2.0000      -0.411669       -11.2021
  32   2.0000      -0.400538       -10.8992
  33   2.0000      -0.381634       -10.3848
  34   2.0000      -0.371910       -10.1202
  35   2.0000      -0.358900        -9.7662
  36   2.0000      -0.348970        -9.4960
  37   2.0000      -0.343979        -9.3601
  38   2.0000      -0.233937        -6.3658
  39   2.0000      -0.228376        -6.2144
  40   0.0000       0.009780         0.2661
  41   0.0000       0.014985         0.4078
  42   0.0000       0.052416         1.4263
  43   0.0000       0.080453         2.1892
  44   0.0000       0.092627         2.5205

MULLIKEN ATOMIC CHARGES
-----------------------
   0 C :   -0.276781
   1 C :   -0.305146
   2 C :   -0.412477
   3 C :   -0.237810
   4 C :   -0.216900
   5 H :    0.103453
   6 C :   -0.107068
   7 H :    0.116622
   8 O :   -0.723715
   9 H :    0.137174
  10 H :    0.161827
  11 C :    0.426581
  12 N :   -0.494921
  13 N :   -0.399500
  14 H :    0.357024
  15 H :    0.232482
  16 H :    0.281753
  17 H :    0.261817
  18 H :    0.125203
  19 H :    0.135233
  20 H :    0.137763
  21 H :    0.156293
  22 H :    0.175651
  23 H :    0.229934
  24 H :    0.079861
  25 H :    0.055647
Sum of atomic charges:    0.0000000

LOEWDIN ATOMIC CHARGES
----------------------
   0 C :   -0.261864
   1 C :   -0.263637
   2 C :   -0.212722
   3 C :   -0.276706
   4 C :   -0.290989
   5 H :    0.125849
   6 C :   -0.492234
   7 H :    0.132164
   8 O :   -0.292020
   9 H :    0.130178
  10 H :    0.145302
  11 C :   -0.313533
  12 N :    0.031025
  13 N :    0.141646
  14 H :    0.108047
  15 H :    0.175896
  16 H :    0.190349
  17 H :    0.178505
  18 H :    0.129726
  19 H :    0.140705
  20 H :    0.134705
  21 H :    0.139447
  22 H :    0.148992
  23 H :    0.169524
  24 H :    0.101681
  25 H :    0.079962

  Mayer bond orders larger than 0.100000
B(  0-C ,  1-C ) :   0.8979 B(  0-C ,  2-C ) :   0.8921 B(  0-C ,  9-H ) :   0.9864
B(  0-C , 10-H ) :   0.9756 B(  1-C ,  3-C ) :   0.8799 B(  1-C , 20-H ) :   0.9757
B(  1-C , 21-H ) :   0.9878 B(  2-C , 11-C ) :   0.9274 B(  2-C , 22-H ) :   0.9737
B(  2-C , 23-H ) :   0.9576 B(  3-C ,  4-C ) :   0.9334 B(  3-C , 18-H ) :   0.9742
B(  3-C , 19-H ) :   0.9818 B(  4-C ,  5-H ) :   0.9737 B(  4-C ,  6-C ) :   0.8997
B(  4-C ,  7-H ) :   0.9698 B(  6-C ,  8-O ) :   1.1732 B(  6-C , 24-H ) :   0.9797
B(  6-C , 25-H ) :   0.9867 B(  8-O , 14-H ) :   0.3700 B( 11-C , 12-N ) :   1.2343
B( 11-C , 13-N ) :   1.6236 B( 12-N , 16-H ) :   0.9042 B( 12-N , 17-H ) :   0.9123
B( 13-N , 14-H ) :   0.5982 B( 13-N , 15-H ) :   0.9172

Dispersion correction           -0.001070473
FINAL SINGLE POINT ENERGY      -461.033025598577

DIPOLE MOMENT
-------------
                                X             Y             Z
Electronic contribution:      5.59605       0.89469       4.31657
Nuclear contribution   :     -2.25948       0.71378      -5.15247
                        -----------------------------------------
Total Dipole Moment    :      3.33657       1.60847      -0.83590
                        -----------------------------------------
Magnitude (a.u.)       :      3.79718
Magnitude (Debye)      :      9.65166

Rotational constants in cm-1:     0.063973     0.031829     0.024059
Rotational constants in MHz :  1917.874550   954.201145   721.285252

                             ****ORCA TERMINATED NORMALLY****
TOTAL RUN TIME: 0 days 0 hours 0 minutes 41 seconds 606 msec
