                         Program Version 5.0.0 -  RELEASE  -
|  1> !M062X D3Zero RIJCOSX def2-TZVP def2/J TightSCF
|  2> *xyz 0 1
|  3> C         -1.91658       -2.48508       -3.64367
|  4> C         -1.36353       -1.98134       -2.29361
|  5> F         -0.35039       -2.74969       -1.79601
|  6> H         -2.22622       -1.90839       -1.60204
|  7> H         -1.05135       -0.91567       -2.44333
|  8> H         -1.11522       -2.57167       -4.34739
|  9> H         -2.64227       -1.79099       -4.01314
| 10> H         -2.37564       -3.44180       -3.50640
| 11> *
| 12>
| 13> %MaxCore 64000
| 14> %pal nprocs 4
| 15> end
| 16>
| 17> %scf
| 18>   MaxIter 150
| 19> end
| 20>
| 21>
| 22>                          ****END OF INPUT****

CARTESIAN COORDINATES (ANGSTROEM)
---------------------------------
  C     -1.916580   -2.485080   -3.643670
  C     -1.363530   -1.981340   -2.293610
  F     -0.350390   -2.749690   -1.796010
  H     -2.226220   -1.908390   -1.602040
  H     -1.051350   -0.915670   -2.443330
  H     -1.115220   -2.571670   -4.347390
  H     -2.642270   -1.790990   -4.013140
  H     -2.375640   -3.441800   -3.506400

 Total Charge           Charge          ....    0
 Multiplicity           Mult            ....    1
 Number of Electrons    NEL             ....   26
 Basis Dimension        Dim             ....  123

ORBITAL ENERGIES
----------------

  NO   OCC          E(Eh)            E(eV)
   0   2.0000     -25.231938      -686.5959
   1   2.0000     -10.615138      -288.8526
   2   2.0000     -10.529146      -286.5126
   3   2.0000      -1.343707       -36.5641
   4   2.0000      -0.861731       -23.4489
   5   2.0000      -0.722813       -19.6687
   6   2.0000      -0.590515       -16.0687
   7   2.0000      -0.581010       -15.8101
   8   2.0000      -0.546430       -14.8691
   9   2.0000      -0.482762       -13.1366
  10   2.0000      -0.468648       -12.7526
  11   2.0000      -0.404401       -11.0043
  12   2.0000      -0.397822       -10.8253
  13   0.0000       0.073784         2.0078
  14   0.0000       0.112833         3.0703
  15   0.0000       0.133124         3.6225
  16   0.0000       0.137152         3.7321
  17   0.0000       0.148177         4.0321

MULLIKEN ATOMIC CHARGES
-----------------------
   0 C :   -0.392183
   1 C :    0.000512
   2 F :   -0.234961
   3 H :    0.110391
   4 H :    0.110752
   5 H :    0.139170
   6 H :    0.128734
   7 H :    0.137585
Sum of atomic charges:    0.0000000

LOEWDIN ATOMIC CHARGES
----------------------
   0 C :   -0.310761
   1 C :   -0.372089
   2 F :    0.092473
   3 H :    0.116925
   4 H :    0.118706
   5 H :    0.117333
   6 H :    0.121147
   7 H :    0.116266

  Mayer bond orders larger than 0.100000
B(  0-C ,  1-C ) :   0.9688 B(  0-C ,  5-H ) :   0.9690 B(  0-C ,  6-H ) :   0.9599
B(  0-C ,  7-H ) :   0.9700 B(  1-C ,  2-F ) :   0.9721 B(  1-C ,  3-H ) :   0.9751
B(  1-C ,  4-H ) :   0.9774

Dispersion correction           -0.000019349
FINAL SINGLE POINT ENERGY      -179.050265164602

DIPOLE MOMENT
-------------
                                X             Y             Z
Electronic contribution:      3.61340      -1.35223       3.42655
Nuclear contribution   :     -4.15401       1.70894      -3.75000
                        -----------------------------------------
Total Dipole Moment    :     -0.54061       0.35671      -0.32344
                        -----------------------------------------
Magnitude (a.u.)       :      0.72396
Magnitude (Debye)      :      1.84016

Rotational constants in cm-1:     1.266842     0.300492     0.266603
Rotational constants in MHz : 37978.968232  9008.526876  7992.551454

                             ****ORCA TERMINATED NORMALLY****
TOTAL RUN TIME: 0 days 0 hours 0 minutes 11 seconds 872 msec
