                         Program Version 5.0.0 -  RELEASE  -
|  1> !M062X D3Zero RIJCOSX def2-TZVP def2/J TightSCF
|  2> *xyz 0 1
|  3> C          1.64703       -2.34528       -5.02041
|  4> C          2.20996       -2.81239       -3.66571
|  5> C          2.48901       -1.66851       -2.73754
|  6> C          3.59631       -0.94761       -2.95225
|  7> N          1.66394       -1.41369       -1.77781
|  8> H          0.81164       -1.96318       -1.70275
|  9> H          1.84550       -0.63508       -1.15875
| 10> H          4.20535       -1.17600       -3.73383
| 11> H          3.81723       -0.12585       -2.40604
| 12> H          3.14311       -3.36280       -3.81152
| 13> H          1.48768       -3.45893       -3.16521
| 14> H          1.46566       -3.19589       -5.64368
| 15> H          2.35406       -1.69850       -5.49654
| 16> H          0.73014       -1.81680       -4.86253
| 17> *
| 18>
| 19> %MaxCore 64000
| 20> %pal nprocs 4
| 21> end
| 22>
| 23> %scf
| 24>   MaxIter 150
| 25> end
| 26>
| 27>
| 28>                          ****END OF INPUT****

CARTESIAN COORDINATES (ANGSTROEM)
---------------------------------
  C      1.647030   -2.345280   -5.020410
  C      2.209960   -2.812390   -3.665710
  C      2.489010   -1.668510   -2.737540
  C      3.596310   -0.947610   -2.952250
  N      1.663940   -1.413690   -1.777810
  H      0.811640   -1.963180   -1.702750
  H      1.845500   -0.635080   -1.158750
  H      4.205350   -1.176000   -3.733830
  H      3.817230   -0.125850   -2.406040
  H      3.143110   -3.362800   -3.811520
  H      1.487680   -3.458930   -3.165210
  H      1.465660   -3.195890   -5.643680
  H      2.354060   -1.698500   -5.496540
  H      0.730140   -1.816800   -4.862530

 Total Charge           Charge          ....    0
 Multiplicity           Mult            ....    1
 Number of Electrons    NEL             ....   40
 Basis Dimension        Dim             ....  209

ORBITAL ENERGIES
----------------

  NO   OCC          E(Eh)            E(eV)
   0   2.0000     -14.751265      -401.4023
   1   2.0000     -10.555904      -287.2407
   2   2.0000     -10.534121      -286.6480
   3   2.0000     -10.517561      -286.1974
   4   2.0000     -10.463397      -284.7235
   5   2.0000      -1.048690       -28.5363
   6   2.0000      -0.876570       -23.8527
   7   2.0000      -0.801827       -21.8188
   8   2.0000      -0.725562       -19.7436
   9   2.0000      -0.646778       -17.5997
  10   2.0000      -0.606702       -16.5092
  11   2.0000      -0.551588       -15.0095
  12   2.0000      -0.510204       -13.8834
  13   2.0000      -0.478168       -13.0116
  14   2.0000      -0.459706       -12.5092
  15   2.0000      -0.447139       -12.1673
  16   2.0000      -0.413060       -11.2399
  17   2.0000      -0.399469       -10.8701
  18   2.0000      -0.393520       -10.7082
  19   2.0000      -0.236412        -6.4331
  20   0.0000       0.054712         1.4888
  21   0.0000       0.081627         2.2212
  22   0.0000       0.098435         2.6785
  23   0.0000       0.105449         2.8694
  24   0.0000       0.122685         3.3384

MULLIKEN ATOMIC CHARGES
-----------------------
   0 C :   -0.371914
   1 C :   -0.344215
   2 C :    0.326518
   3 C :   -0.481059
   4 N :   -0.513525
   5 H :    0.245738
   6 H :    0.246874
   7 H :    0.112476
   8 H :    0.104523
   9 H :    0.157991
  10 H :    0.111289
  11 H :    0.131803
  12 H :    0.143394
  13 H :    0.130104
Sum of atomic charges:    0.0000000

LOEWDIN ATOMIC CHARGES
----------------------
   0 C :   -0.290984
   1 C :   -0.239938
   2 C :   -0.380117
   3 C :   -0.288268
   4 N :    0.010712
   5 H :    0.176655
   6 H :    0.179535
   7 H :    0.104663
   8 H :    0.093978
   9 H :    0.150136
  10 H :    0.132897
  11 H :    0.113915
  12 H :    0.119867
  13 H :    0.116948

  Mayer bond orders larger than 0.100000
B(  0-C ,  1-C ) :   0.9347 B(  0-C , 11-H ) :   0.9797 B(  0-C , 12-H ) :   0.9735
B(  0-C , 13-H ) :   0.9706 B(  1-C ,  2-C ) :   0.8923 B(  1-C ,  9-H ) :   0.9925
B(  1-C , 10-H ) :   0.9941 B(  2-C ,  3-C ) :   1.7129 B(  2-C ,  4-N ) :   1.1339
B(  3-C ,  7-H ) :   1.0029 B(  3-C ,  8-H ) :   0.9944 B(  4-N ,  5-H ) :   0.9246
B(  4-N ,  6-H ) :   0.9235

Dispersion correction           -0.000198648
FINAL SINGLE POINT ENERGY      -212.534354951801

DIPOLE MOMENT
-------------
                                X             Y             Z
Electronic contribution:     -0.05872       0.64804       3.02208
Nuclear contribution   :     -0.69146      -0.83112      -2.71336
                        -----------------------------------------
Total Dipole Moment    :     -0.75019      -0.18308       0.30872
                        -----------------------------------------
Magnitude (a.u.)       :      0.83163
Magnitude (Debye)      :      2.11384

Rotational constants in cm-1:     0.270661     0.129240     0.102040
Rotational constants in MHz :  8114.202941  3874.518141  3059.074383

                             ****ORCA TERMINATED NORMALLY****
TOTAL RUN TIME: 0 days 0 hours 0 minutes 32 seconds 614 msec
