                         Program Version 5.0.0 -  RELEASE  -
|  1> !M062X D3Zero RIJCOSX def2-TZVP def2/J TightSCF
|  2> *xyz 0 1
|  3> C          1.64703       -2.34528       -5.02041
|  4> C          2.20996       -2.81239       -3.66571
|  5> C          2.48901       -1.66851       -2.73754
|  6> N          3.59631       -0.94761       -2.95225
|  7> C          1.66394       -1.41369       -1.77781
|  8> H          0.81164       -1.96318       -1.70275
|  9> H          1.84550       -0.63508       -1.15875
| 10> H          4.20535       -1.17600       -3.73383
| 11> H          3.81723       -0.12585       -2.40604
| 12> H          3.14311       -3.36280       -3.81152
| 13> H          1.48768       -3.45893       -3.16521
| 14> H          1.46566       -3.19589       -5.64368
| 15> H          2.35406       -1.69850       -5.49654
| 16> H          0.73014       -1.81680       -4.86253
| 17> *
| 18>
| 19> %MaxCore 64000
| 20> %pal nprocs 4
| 21> end
| 22>
| 23> %scf
| 24>   MaxIter 150
| 25> end
| 26>
| 27>
| 28>                          ****END OF INPUT****

CARTESIAN COORDINATES (ANGSTROEM)
---------------------------------
  C      1.647030   -2.345280   -5.020410
  C      2.209960   -2.812390   -3.665710
  C      2.489010   -1.668510   -2.737540
  N      3.596310   -0.947610   -2.952250
  C      1.663940   -1.413690   -1.777810
  H      0.811640   -1.963180   -1.702750
  H      1.845500   -0.635080   -1.158750
  H      4.205350   -1.176000   -3.733830
  H      3.817230   -0.125850   -2.406040
  H      3.143110   -3.362800   -3.811520
  H      1.487680   -3.458930   -3.165210
  H      1.465660   -3.195890   -5.643680
  H      2.354060   -1.698500   -5.496540
  H      0.730140   -1.816800   -4.862530

 Total Charge           Charge          ....    0
 Multiplicity           Mult            ....    1
 Number of Electrons    NEL             ....   40
 Basis Dimension        Dim             ....  209

ORBITAL ENERGIES
----------------

  NO   OCC          E(Eh)            E(eV)
   0   2.0000     -14.744176      -401.2094
   1   2.0000     -10.552587      -287.1505
   2   2.0000     -10.532461      -286.6028
   3   2.0000     -10.518503      -286.2230
   4   2.0000     -10.466472      -284.8072
   5   2.0000      -1.029021       -28.0011
   6   2.0000      -0.876992       -23.8642
   7   2.0000      -0.816883       -22.2285
   8   2.0000      -0.721001       -19.6194
   9   2.0000      -0.642227       -17.4759
  10   2.0000      -0.594004       -16.1637
  11   2.0000      -0.551881       -15.0175
  12   2.0000      -0.502087       -13.6625
  13   2.0000      -0.490048       -13.3349
  14   2.0000      -0.462786       -12.5931
  15   2.0000      -0.448709       -12.2100
  16   2.0000      -0.413009       -11.2385
  17   2.0000      -0.392787       -10.6883
  18   2.0000      -0.390959       -10.6385
  19   2.0000      -0.249375        -6.7858
  20   0.0000       0.055624         1.5136
  21   0.0000       0.085471         2.3258
  22   0.0000       0.101774         2.7694
  23   0.0000       0.109665         2.9841
  24   0.0000       0.119752         3.2586

MULLIKEN ATOMIC CHARGES
-----------------------
   0 C :   -0.367711
   1 C :   -0.355578
   2 C :    0.361196
   3 N :   -0.570293
   4 C :   -0.444800
   5 H :    0.107799
   6 H :    0.101746
   7 H :    0.248343
   8 H :    0.243905
   9 H :    0.137127
  10 H :    0.139090
  11 H :    0.135165
  12 H :    0.123004
  13 H :    0.141006
Sum of atomic charges:    0.0000000

LOEWDIN ATOMIC CHARGES
----------------------
   0 C :   -0.294422
   1 C :   -0.240197
   2 C :   -0.367646
   3 N :   -0.024658
   4 C :   -0.260162
   5 H :    0.110844
   6 H :    0.101446
   7 H :    0.170533
   8 H :    0.170161
   9 H :    0.137706
  10 H :    0.147617
  11 H :    0.115125
  12 H :    0.113504
  13 H :    0.120148

  Mayer bond orders larger than 0.100000
B(  0-C ,  1-C ) :   0.9267 B(  0-C , 11-H ) :   0.9802 B(  0-C , 12-H ) :   0.9721
B(  0-C , 13-H ) :   0.9715 B(  1-C ,  2-C ) :   0.9196 B(  1-C ,  9-H ) :   0.9830
B(  1-C , 10-H ) :   0.9983 B(  2-C ,  3-N ) :   1.0533 B(  2-C ,  4-C ) :   1.7637
B(  3-N ,  7-H ) :   0.9276 B(  3-N ,  8-H ) :   0.9281 B(  4-C ,  5-H ) :   1.0021
B(  4-C ,  6-H ) :   1.0003

Dispersion correction           -0.000198449
FINAL SINGLE POINT ENERGY      -212.539000364091

DIPOLE MOMENT
-------------
                                X             Y             Z
Electronic contribution:      1.64589       1.07171       1.99676
Nuclear contribution   :     -1.13902      -0.93906      -2.44135
                        -----------------------------------------
Total Dipole Moment    :      0.50687       0.13265      -0.44459
                        -----------------------------------------
Magnitude (a.u.)       :      0.68714
Magnitude (Debye)      :      1.74658

Rotational constants in cm-1:     0.267243     0.130607     0.102304
Rotational constants in MHz :  8011.748167  3915.504600  3066.999841

                             ****ORCA TERMINATED NORMALLY****
TOTAL RUN TIME: 0 days 0 hours 0 minutes 29 seconds 636 msec
