                         Program Version 5.0.0 -  RELEASE  -
|  1> !TPSS D3BJ RIJCOSX def2-TZVP def2/J TightSCF
|  2> *xyz -1 1
|  3> C          0.70466        1.44313       -4.50363
|  4> C          1.72854        1.42432       -5.63944
|  5> H          2.64672        1.95379       -5.38105
|  6> H          1.29992        1.93061       -6.50361
|  7> S          2.25263       -0.18811       -6.27184
|  8> O          3.56261       -0.44446       -5.63155
|  9> O          2.34494       -0.03374       -7.69650
| 10> O          1.26606       -1.15918       -5.80536
| 11> H         -0.17385        0.91270       -4.80656
| 12> H          0.44778        2.45562       -4.27173
| 13> H          1.12367        0.97423       -3.63791
| 14> *
| 15>
| 16> %MaxCore 64000
| 17>
| 18> %pal nprocs 4
| 19> end
| 20>
| 21> %scf
| 22>   MaxIter 150
| 23> end
| 24>
| 25>
| 26>                          ****END OF INPUT****

CARTESIAN COORDINATES (ANGSTROEM)
---------------------------------
  C      0.704660    1.443130   -4.503630
  C      1.728540    1.424320   -5.639440
  H      2.646720    1.953790   -5.381050
  H      1.299920    1.930610   -6.503610
  S      2.252630   -0.188110   -6.271840
  O      3.562610   -0.444460   -5.631550
  O      2.344940   -0.033740   -7.696500
  O      1.266060   -1.159180   -5.805360
  H     -0.173850    0.912700   -4.806560
  H      0.447780    2.455620   -4.271730
  H      1.123670    0.974230   -3.637910

 Total Charge           Charge          ....   -1
 Multiplicity           Mult            ....    1
 Number of Electrons    NEL             ....   58
 Basis Dimension        Dim             ....  222

ORBITAL ENERGIES
----------------

  NO   OCC          E(Eh)            E(eV)
   0   2.0000     -88.317535     -2403.2423
   1   2.0000     -18.654616      -507.6179
   2   2.0000     -18.648140      -507.4417
   3   2.0000     -18.638802      -507.1876
   4   2.0000      -9.838416      -267.7169
   5   2.0000      -9.837977      -267.7050
   6   2.0000      -7.666085      -208.6048
   7   2.0000      -5.645684      -153.6269
   8   2.0000      -5.644738      -153.6011
   9   2.0000      -5.644535      -153.5956
  10   2.0000      -0.837640       -22.7933
  11   2.0000      -0.714883       -19.4530
  12   2.0000      -0.692629       -18.8474
  13   2.0000      -0.569804       -15.5051
  14   2.0000      -0.450610       -12.2617
  15   2.0000      -0.324086        -8.8188
  16   2.0000      -0.271307        -7.3826
  17   2.0000      -0.259540        -7.0624
  18   2.0000      -0.223101        -6.0709
  19   2.0000      -0.205397        -5.5891
  20   2.0000      -0.202209        -5.5024
  21   2.0000      -0.179533        -4.8853
  22   2.0000      -0.174627        -4.7518
  23   2.0000      -0.095998        -2.6122
  24   2.0000      -0.094313        -2.5664
  25   2.0000      -0.064581        -1.7574
  26   2.0000      -0.059403        -1.6164
  27   2.0000      -0.046821        -1.2741
  28   2.0000      -0.011351        -0.3089
  29   0.0000       0.162968         4.4346
  30   0.0000       0.209685         5.7058
  31   0.0000       0.219538         5.9739
  32   0.0000       0.226673         6.1681
  33   0.0000       0.246854         6.7172

MULLIKEN ATOMIC CHARGES
-----------------------
   0 C :   -0.297206
   1 C :   -0.237041
   2 H :    0.081234
   3 H :    0.074856
   4 S :    0.758265
   5 O :   -0.570899
   6 O :   -0.522024
   7 O :   -0.546604
   8 H :    0.105544
   9 H :    0.060404
  10 H :    0.093471
Sum of atomic charges:   -1.0000000

LOEWDIN ATOMIC CHARGES
----------------------
   0 C :   -0.337960
   1 C :   -0.428487
   2 H :    0.114410
   3 H :    0.113312
   4 S :    0.374200
   5 O :   -0.415228
   6 O :   -0.355078
   7 O :   -0.380261
   8 H :    0.110575
   9 H :    0.095296
  10 H :    0.109219

  Mayer bond orders larger than 0.100000
B(  0-C ,  1-C ) :   0.9951 B(  0-C ,  8-H ) :   0.9682 B(  0-C ,  9-H ) :   0.9525
B(  0-C , 10-H ) :   0.9711 B(  1-C ,  2-H ) :   0.9533 B(  1-C ,  3-H ) :   0.9475
B(  1-C ,  4-S ) :   0.8668 B(  4-S ,  5-O ) :   1.7712 B(  4-S ,  6-O ) :   1.8218
B(  4-S ,  7-O ) :   1.7760

Dispersion correction           -0.011976361
FINAL SINGLE POINT ENERGY      -703.368852076141

DIPOLE MOMENT
-------------
                                X             Y             Z
Electronic contribution:      3.71720      -5.75533      -4.36551
Nuclear contribution   :     -4.50297       7.24642       5.01775
                        -----------------------------------------
Total Dipole Moment    :     -0.78577       1.49108       0.65225
                        -----------------------------------------
Magnitude (a.u.)       :      1.80726
Magnitude (Debye)      :      4.59370

Rotational constants in cm-1:     0.162459     0.081286     0.079601
Rotational constants in MHz :  4870.394399  2436.893583  2386.374948

                             ****ORCA TERMINATED NORMALLY****
TOTAL RUN TIME: 0 days 0 hours 0 minutes 15 seconds 832 msec
