                         Program Version 5.0.0 -  RELEASE  -
|  1> !TPSS D3BJ RIJCOSX def2-TZVP def2/J TightSCF
|  2> *xyz 1 1
|  3> C          2.91632       -1.24259       -1.54313
|  4> C          3.46659       -1.59097       -2.88908
|  5> N          4.65227       -1.14316       -3.25969
|  6> N          2.75226       -2.29204       -3.72803
|  7> H          1.77836       -2.48960       -3.51274
|  8> H          2.94861       -2.20854       -4.71681
|  9> H          5.14672       -0.51251       -2.63385
| 10> H          4.78303       -1.00720       -4.25350
| 11> C          2.80408        0.29070       -1.35924
| 12> H          1.94047       -1.71653       -1.44116
| 13> H          3.55857       -1.66343       -0.76637
| 14> H          2.17393        0.69633       -2.12297
| 15> H          3.77707        0.73043       -1.42880
| 16> H          2.38369        0.50492       -0.39889
| 17> *
| 18>
| 19> %MaxCore 64000
| 20>
| 21> %pal nprocs 4
| 22> end
| 23>
| 24> %scf
| 25>   MaxIter 150
| 26> end
| 27>
| 28>
| 29>                          ****END OF INPUT****

CARTESIAN COORDINATES (ANGSTROEM)
---------------------------------
  C      2.916320   -1.242590   -1.543130
  C      3.466590   -1.590970   -2.889080
  N      4.652270   -1.143160   -3.259690
  N      2.752260   -2.292040   -3.728030
  H      1.778360   -2.489600   -3.512740
  H      2.948610   -2.208540   -4.716810
  H      5.146720   -0.512510   -2.633850
  H      4.783030   -1.007200   -4.253500
  C      2.804080    0.290700   -1.359240
  H      1.940470   -1.716530   -1.441160
  H      3.558570   -1.663430   -0.766370
  H      2.173930    0.696330   -2.122970
  H      3.777070    0.730430   -1.428800
  H      2.383690    0.504920   -0.398890

 Total Charge           Charge          ....    1
 Multiplicity           Mult            ....    1
 Number of Electrons    NEL             ....   40
 Basis Dimension        Dim             ....  209

ORBITAL ENERGIES
----------------

  NO   OCC          E(Eh)            E(eV)
   0   2.0000     -14.349526      -390.4704
   1   2.0000     -14.344475      -390.3330
   2   2.0000     -10.298052      -280.2242
   3   2.0000     -10.187359      -277.2121
   4   2.0000     -10.148324      -276.1499
   5   2.0000      -1.145040       -31.1581
   6   2.0000      -1.052436       -28.6382
   7   2.0000      -0.915010       -24.8987
   8   2.0000      -0.814118       -22.1533
   9   2.0000      -0.768812       -20.9205
  10   2.0000      -0.722097       -19.6493
  11   2.0000      -0.708635       -19.2829
  12   2.0000      -0.656438       -17.8626
  13   2.0000      -0.620929       -16.8963
  14   2.0000      -0.586172       -15.9506
  15   2.0000      -0.559070       -15.2131
  16   2.0000      -0.515929       -14.0391
  17   2.0000      -0.507097       -13.7988
  18   2.0000      -0.495971       -13.4961
  19   2.0000      -0.461482       -12.5576
  20   0.0000      -0.247680        -6.7397
  21   0.0000      -0.173258        -4.7146
  22   0.0000      -0.130754        -3.5580
  23   0.0000      -0.128489        -3.4964
  24   0.0000      -0.094916        -2.5828

MULLIKEN ATOMIC CHARGES
-----------------------
   0 C :   -0.195780
   1 C :    0.257941
   2 N :   -0.313960
   3 N :   -0.306631
   4 H :    0.299319
   5 H :    0.276232
   6 H :    0.295635
   7 H :    0.277655
   8 C :   -0.336634
   9 H :    0.132200
  10 H :    0.175395
  11 H :    0.142947
  12 H :    0.120886
  13 H :    0.174794
Sum of atomic charges:    1.0000000

LOEWDIN ATOMIC CHARGES
----------------------
   0 C :   -0.210276
   1 C :   -0.305737
   2 N :    0.115771
   3 N :    0.128265
   4 H :    0.209391
   5 H :    0.198352
   6 H :    0.206829
   7 H :    0.199190
   8 C :   -0.248894
   9 H :    0.155260
  10 H :    0.168768
  11 H :    0.126833
  12 H :    0.118160
  13 H :    0.138088

  Mayer bond orders larger than 0.100000
B(  0-C ,  1-C ) :   1.0365 B(  0-C ,  8-C ) :   0.9913 B(  0-C ,  9-H ) :   0.9424
B(  0-C , 10-H ) :   0.9207 B(  1-C ,  2-N ) :   1.4246 B(  1-C ,  3-N ) :   1.4834
B(  2-N ,  6-H ) :   0.8853 B(  2-N ,  7-H ) :   0.8848 B(  3-N ,  4-H ) :   0.8771
B(  3-N ,  5-H ) :   0.8851 B(  8-C , 11-H ) :   0.9581 B(  8-C , 12-H ) :   0.9647
B(  8-C , 13-H ) :   0.9516

Dispersion correction           -0.012557388
FINAL SINGLE POINT ENERGY      -229.156517842507

DIPOLE MOMENT
-------------
                                X             Y             Z
Electronic contribution:      1.31558      -2.84593      -2.78503
Nuclear contribution   :     -1.30215       2.77761       1.84194
                        -----------------------------------------
Total Dipole Moment    :      0.01343      -0.06833      -0.94309
                        -----------------------------------------
Magnitude (a.u.)       :      0.94566
Magnitude (Debye)      :      2.40368

Rotational constants in cm-1:     0.267442     0.127541     0.099068
Rotational constants in MHz :  8017.703171  3823.592522  2969.992494

                             ****ORCA TERMINATED NORMALLY****
TOTAL RUN TIME: 0 days 0 hours 0 minutes 15 seconds 813 msec
