                         Program Version 5.0.0 -  RELEASE  -
|  1> !TPSS D3BJ RIJCOSX def2-TZVP def2/J TightSCF xyzfile
|  2>
|  3> *xyzfile 0 1 B.xyz
|  4>
|  5> %MaxCore 64000
|  6>
|  7> %pal nprocs 18
|  8> end
|  9>
| 10> %scf
| 11>   MaxIter 150
| 12> end
| 13>
| 14>
| 15>                          ****END OF INPUT****

CARTESIAN COORDINATES (ANGSTROEM)
---------------------------------
  C      2.916324   -1.242589   -1.543125
  C      0.704661    1.443129   -4.503630
  C      1.728539    1.424320   -5.639443
  H      2.646718    1.953794   -5.381054
  H      1.299916    1.930613   -6.503614
  S      2.252625   -0.188115   -6.271840
  C      3.466585   -1.590971   -2.889082
  N      4.652275   -1.143164   -3.259692
  N      2.752264   -2.292043   -3.728029
  H      1.778364   -2.489604   -3.512738
  H      2.948612   -2.208544   -4.716813
  H      5.146723   -0.512508   -2.633852
  H      4.783030   -1.007203   -4.253498
  O      3.562607   -0.444464   -5.631552
  O      2.344944   -0.033742   -7.696501
  C      2.804084    0.290698   -1.359243
  C      1.052550    0.695659   -3.214915
  H     -0.232483    1.032925   -4.884449
  H      0.511700    2.495794   -4.267966
  C      2.388380    1.093669   -2.597108
  H      3.763425    0.674718   -0.999889
  H      2.094788    0.461222   -0.545756
  O      1.266058   -1.159177   -5.805365
  H      3.167316    1.013242   -3.359430
  H      2.357690    2.149375   -2.310997
  H      1.039284   -0.368429   -3.449329
  H      0.250787    0.865605   -2.488283
  H      1.940472   -1.716529   -1.441161
  H      3.558569   -1.663433   -0.766371

 Total Charge           Charge          ....    0
 Multiplicity           Mult            ....    1
 Number of Electrons    NEL             ....  112
 Basis Dimension        Dim             ....  505

ORBITAL ENERGIES
----------------

  NO   OCC          E(Eh)            E(eV)
   0   2.0000     -88.478463     -2407.6214
   1   2.0000     -18.820070      -512.1201
   2   2.0000     -18.812951      -511.9264
   3   2.0000     -18.803356      -511.6653
   4   2.0000     -14.172755      -385.6603
   5   2.0000     -14.171942      -385.6382
   6   2.0000     -10.131782      -275.6998
   7   2.0000     -10.048293      -273.4280
   8   2.0000     -10.027273      -272.8560
   9   2.0000      -9.999146      -272.0906
  10   2.0000      -9.986242      -271.7395
  11   2.0000      -9.981591      -271.6129
  12   2.0000      -9.977689      -271.5067
  13   2.0000      -7.827498      -212.9971
  14   2.0000      -5.807226      -158.0227
  15   2.0000      -5.806444      -158.0014
  16   2.0000      -5.805370      -157.9721
  17   2.0000      -1.002014       -27.2662
  18   2.0000      -0.973940       -26.5023
  19   2.0000      -0.882136       -24.0042
  20   2.0000      -0.871650       -23.7188
  21   2.0000      -0.869115       -23.6498
  22   2.0000      -0.787447       -21.4275
  23   2.0000      -0.741722       -20.1833
  24   2.0000      -0.697160       -18.9707
  25   2.0000      -0.647325       -17.6146
  26   2.0000      -0.621503       -16.9119
  27   2.0000      -0.587593       -15.9892
  28   2.0000      -0.554339       -15.0843
  29   2.0000      -0.542983       -14.7753
  30   2.0000      -0.533926       -14.5289
  31   2.0000      -0.491168       -13.3654
  32   2.0000      -0.480207       -13.0671
  33   2.0000      -0.467195       -12.7130
  34   2.0000      -0.454496       -12.3675
  35   2.0000      -0.427778       -11.6404
  36   2.0000      -0.418785       -11.3957
  37   2.0000      -0.400495       -10.8980
  38   2.0000      -0.391133       -10.6433
  39   2.0000      -0.387676       -10.5492
  40   2.0000      -0.381091       -10.3700
  41   2.0000      -0.370740       -10.0883
  42   2.0000      -0.356513        -9.7012
  43   2.0000      -0.346518        -9.4292
  44   2.0000      -0.338491        -9.2108
  45   2.0000      -0.334043        -9.0898
  46   2.0000      -0.309018        -8.4088
  47   2.0000      -0.301012        -8.1910
  48   2.0000      -0.290387        -7.9018
  49   2.0000      -0.288210        -7.8426
  50   2.0000      -0.260958        -7.1010
  51   2.0000      -0.255458        -6.9514
  52   2.0000      -0.223267        -6.0754
  53   2.0000      -0.218776        -5.9532
  54   2.0000      -0.211442        -5.7536
  55   2.0000      -0.180368        -4.9081
  56   0.0000      -0.083826        -2.2810
  57   0.0000      -0.024231        -0.6594
  58   0.0000       0.005216         0.1419
  59   0.0000       0.023820         0.6482
  60   0.0000       0.034255         0.9321

MULLIKEN ATOMIC CHARGES
-----------------------
   0 C :   -0.186488
   1 C :   -0.090795
   2 C :   -0.291175
   3 H :    0.111893
   4 H :    0.133211
   5 S :    0.826987
   6 C :    0.175747
   7 N :   -0.328259
   8 N :   -0.275360
   9 H :    0.268252
  10 H :    0.276409
  11 H :    0.260129
  12 H :    0.300921
  13 O :   -0.627098
  14 O :   -0.467736
  15 C :   -0.236488
  16 C :   -0.195008
  17 H :    0.101936
  18 H :    0.077390
  19 C :   -0.140184
  20 H :    0.120854
  21 H :    0.106394
  22 O :   -0.546560
  23 H :    0.114574
  24 H :    0.089059
  25 H :    0.073273
  26 H :    0.078200
  27 H :    0.128299
  28 H :    0.141625
Sum of atomic charges:   -0.0000000

LOEWDIN ATOMIC CHARGES
----------------------
   0 C :   -0.206863
   1 C :   -0.280636
   2 C :   -0.384573
   3 H :    0.124715
   4 H :    0.135436
   5 S :    0.406716
   6 C :   -0.333583
   7 N :    0.095861
   8 N :    0.130253
   9 H :    0.192285
  10 H :    0.183708
  11 H :    0.188861
  12 H :    0.185140
  13 O :   -0.404465
  14 O :   -0.297381
  15 C :   -0.247430
  16 C :   -0.268319
  17 H :    0.142518
  18 H :    0.134454
  19 C :   -0.264324
  20 H :    0.134284
  21 H :    0.142779
  22 O :   -0.351953
  23 H :    0.138738
  24 H :    0.138462
  25 H :    0.128994
  26 H :    0.132129
  27 H :    0.149713
  28 H :    0.154482

  Mayer bond orders larger than 0.100000
B(  0-C ,  6-C ) :   1.0400 B(  0-C , 15-C ) :   0.9649 B(  0-C , 27-H ) :   0.9453
B(  0-C , 28-H ) :   0.9353 B(  1-C ,  2-C ) :   1.0030 B(  1-C , 16-C ) :   1.0324
B(  1-C , 17-H ) :   0.9394 B(  1-C , 18-H ) :   0.9325 B(  2-C ,  3-H ) :   0.9503
B(  2-C ,  4-H ) :   0.9384 B(  2-C ,  5-S ) :   0.8970 B(  5-S , 13-O ) :   1.5157
B(  5-S , 14-O ) :   1.9319 B(  5-S , 22-O ) :   1.6900 B(  6-C ,  7-N ) :   1.4089
B(  6-C ,  8-N ) :   1.5136 B(  7-N , 11-H ) :   0.9037 B(  7-N , 12-H ) :   0.8426
B(  8-N ,  9-H ) :   0.8896 B(  8-N , 10-H ) :   0.8372 B( 15-C , 19-C ) :   0.9966
B( 15-C , 20-H ) :   0.9639 B( 15-C , 21-H ) :   0.9374 B( 16-C , 19-C ) :   1.0065
B( 16-C , 25-H ) :   0.9378 B( 16-C , 26-H ) :   0.9345 B( 19-C , 23-H ) :   0.9443
B( 19-C , 24-H ) :   0.9377

Dispersion correction           -0.046210629
FINAL SINGLE POINT ENERGY     -1010.166284513841

DIPOLE MOMENT
-------------
                                X             Y             Z
Electronic contribution:      2.78464      -6.35907     -13.48770
Nuclear contribution   :     -1.90023       6.18953      17.82209
                        -----------------------------------------
Total Dipole Moment    :      0.88440      -0.16955       4.33439
                        -----------------------------------------
Magnitude (a.u.)       :      4.42695
Magnitude (Debye)      :     11.25240

Rotational constants in cm-1:     0.036337     0.018755     0.015005
Rotational constants in MHz :  1089.341704   562.266628   449.834770

                             ****ORCA TERMINATED NORMALLY****
TOTAL RUN TIME: 0 days 0 hours 0 minutes 24 seconds 467 msec
