                         Program Version 5.0.0 -  RELEASE  -
|  1> !TPSS D3BJ RIJCOSX def2-TZVP def2/J TightSCF
|  2> *xyz 0 1
|  3> C          0.70466        1.44313       -4.50363
|  4> C          1.72854        1.42432       -5.63944
|  5> H          2.64672        1.95379       -5.38105
|  6> H          1.29992        1.93061       -6.50361
|  7> S          2.25263       -0.18811       -6.27184
|  8> F          3.56261       -0.44446       -5.63155
|  9> O          2.34494       -0.03374       -7.69650
| 10> O          1.26606       -1.15918       -5.80536
| 11> H         -0.17385        0.91270       -4.80656
| 12> H          0.44778        2.45562       -4.27173
| 13> H          1.12367        0.97423       -3.63791
| 14> *
| 15>
| 16> %MaxCore 64000
| 17>
| 18> %pal nprocs 4
| 19> end
| 20>
| 21> %scf
| 22>   MaxIter 150
| 23> end
| 24>
| 25>
| 26>                          ****END OF INPUT****

CARTESIAN COORDINATES (ANGSTROEM)
---------------------------------
  C      0.704660    1.443130   -4.503630
  C      1.728540    1.424320   -5.639440
  H      2.646720    1.953790   -5.381050
  H      1.299920    1.930610   -6.503610
  S      2.252630   -0.188110   -6.271840
  F      3.562610   -0.444460   -5.631550
  O      2.344940   -0.033740   -7.696500
  O      1.266060   -1.159180   -5.805360
  H     -0.173850    0.912700   -4.806560
  H      0.447780    2.455620   -4.271730
  H      1.123670    0.974230   -3.637910

 Total Charge           Charge          ....    0
 Multiplicity           Mult            ....    1
 Number of Electrons    NEL             ....   58
 Basis Dimension        Dim             ....  222

ORBITAL ENERGIES
----------------

  NO   OCC          E(Eh)            E(eV)
   0   2.0000     -88.579970     -2410.3835
   1   2.0000     -24.504149      -666.7918
   2   2.0000     -18.894727      -514.1516
   3   2.0000     -18.887726      -513.9611
   4   2.0000     -10.042581      -273.2725
   5   2.0000     -10.002899      -272.1927
   6   2.0000      -7.929451      -215.7713
   7   2.0000      -5.912739      -160.8938
   8   2.0000      -5.905972      -160.7097
   9   2.0000      -5.905638      -160.7006
  10   2.0000      -1.267004       -34.4769
  11   2.0000      -1.035501       -28.1774
  12   2.0000      -0.947670       -25.7874
  13   2.0000      -0.760738       -20.7007
  14   2.0000      -0.665333       -18.1046
  15   2.0000      -0.613918       -16.7056
  16   2.0000      -0.519668       -14.1409
  17   2.0000      -0.500739       -13.6258
  18   2.0000      -0.495574       -13.4853
  19   2.0000      -0.447377       -12.1738
  20   2.0000      -0.430786       -11.7223
  21   2.0000      -0.404846       -11.0164
  22   2.0000      -0.386638       -10.5210
  23   2.0000      -0.363837        -9.9005
  24   2.0000      -0.357813        -9.7366
  25   2.0000      -0.340215        -9.2577
  26   2.0000      -0.292667        -7.9639
  27   2.0000      -0.288126        -7.8403
  28   2.0000      -0.272100        -7.4042
  29   0.0000      -0.002046        -0.0557
  30   0.0000       0.011071         0.3013
  31   0.0000       0.035759         0.9730
  32   0.0000       0.048592         1.3223
  33   0.0000       0.061679         1.6784

MULLIKEN ATOMIC CHARGES
-----------------------
   0 C :   -0.313556
   1 C :   -0.251093
   2 H :    0.128776
   3 H :    0.153349
   4 S :    0.780415
   5 F :   -0.104826
   6 O :   -0.377532
   7 O :   -0.404477
   8 H :    0.144375
   9 H :    0.125527
  10 H :    0.119043
Sum of atomic charges:   -0.0000000

LOEWDIN ATOMIC CHARGES
----------------------
   0 C :   -0.302295
   1 C :   -0.391204
   2 H :    0.131034
   3 H :    0.144380
   4 S :    0.500070
   5 F :    0.058476
   6 O :   -0.239811
   7 O :   -0.265506
   8 H :    0.124380
   9 H :    0.121510
  10 H :    0.118966

  Mayer bond orders larger than 0.100000
B(  0-C ,  1-C ) :   1.0141 B(  0-C ,  8-H ) :   0.9626 B(  0-C ,  9-H ) :   0.9488
B(  0-C , 10-H ) :   0.9660 B(  1-C ,  2-H ) :   0.9362 B(  1-C ,  3-H ) :   0.9341
B(  1-C ,  4-S ) :   0.8987 B(  4-S ,  5-F ) :   1.1198 B(  4-S ,  6-O ) :   1.9597
B(  4-S ,  7-O ) :   1.9221

Dispersion correction           -0.011430531
FINAL SINGLE POINT ENERGY      -727.912560064778

DIPOLE MOMENT
-------------
                                X             Y             Z
Electronic contribution:      6.30689      -6.56155      -3.75235
Nuclear contribution   :     -6.09914       7.80989       4.64238
                        -----------------------------------------
Total Dipole Moment    :      0.20776       1.24834       0.89003
                        -----------------------------------------
Magnitude (a.u.)       :      1.54715
Magnitude (Debye)      :      3.93254

Rotational constants in cm-1:     0.154372     0.078826     0.078033
Rotational constants in MHz :  4627.943144  2363.154585  2339.382767

                             ****ORCA TERMINATED NORMALLY****
TOTAL RUN TIME: 0 days 0 hours 0 minutes 14 seconds 871 msec
