                         Program Version 5.0.0 -  RELEASE  -
|  1> !TPSS D3BJ RIJCOSX def2-TZVP def2/J TightSCF
|  2> *xyz 0 1
|  3> C          2.91632       -1.24259       -1.54313
|  4> C          3.46659       -1.59097       -2.88908
|  5> C          4.65227       -1.14316       -3.25969
|  6> N          2.75226       -2.29204       -3.72803
|  7> H          1.77836       -2.48960       -3.51274
|  8> H          2.94861       -2.20854       -4.71681
|  9> H          5.14672       -0.51251       -2.63385
| 10> H          4.78303       -1.00720       -4.25350
| 11> C          2.80408        0.29070       -1.35924
| 12> H          1.94047       -1.71653       -1.44116
| 13> H          3.55857       -1.66343       -0.76637
| 14> H          2.17393        0.69633       -2.12297
| 15> H          3.77707        0.73043       -1.42880
| 16> H          2.38369        0.50492       -0.39889
| 17> *
| 18>
| 19> %MaxCore 64000
| 20>
| 21> %pal nprocs 4
| 22> end
| 23>
| 24> %scf
| 25>   MaxIter 150
| 26> end
| 27>
| 28>
| 29>                          ****END OF INPUT****

CARTESIAN COORDINATES (ANGSTROEM)
---------------------------------
  C      2.916320   -1.242590   -1.543130
  C      3.466590   -1.590970   -2.889080
  C      4.652270   -1.143160   -3.259690
  N      2.752260   -2.292040   -3.728030
  H      1.778360   -2.489600   -3.512740
  H      2.948610   -2.208540   -4.716810
  H      5.146720   -0.512510   -2.633850
  H      4.783030   -1.007200   -4.253500
  C      2.804080    0.290700   -1.359240
  H      1.940470   -1.716530   -1.441160
  H      3.558570   -1.663430   -0.766370
  H      2.173930    0.696330   -2.122970
  H      3.777070    0.730430   -1.428800
  H      2.383690    0.504920   -0.398890

 Total Charge           Charge          ....    0
 Multiplicity           Mult            ....    1
 Number of Electrons    NEL             ....   40
 Basis Dimension        Dim             ....  209

ORBITAL ENERGIES
----------------

  NO   OCC          E(Eh)            E(eV)
   0   2.0000     -14.104006      -383.7895
   1   2.0000      -9.997326      -272.0411
   2   2.0000      -9.987319      -271.7688
   3   2.0000      -9.971750      -271.3451
   4   2.0000      -9.910924      -269.6900
   5   2.0000      -0.873497       -23.7691
   6   2.0000      -0.724218       -19.7070
   7   2.0000      -0.656951       -17.8765
   8   2.0000      -0.593583       -16.1522
   9   2.0000      -0.517390       -14.0789
  10   2.0000      -0.478244       -13.0137
  11   2.0000      -0.435412       -11.8482
  12   2.0000      -0.407663       -11.0931
  13   2.0000      -0.368600       -10.0301
  14   2.0000      -0.349848        -9.5198
  15   2.0000      -0.338695        -9.2164
  16   2.0000      -0.319032        -8.6813
  17   2.0000      -0.306328        -8.3356
  18   2.0000      -0.287263        -7.8168
  19   2.0000      -0.158320        -4.3081
  20   0.0000       0.009938         0.2704
  21   0.0000       0.017305         0.4709
  22   0.0000       0.056805         1.5457
  23   0.0000       0.060890         1.6569
  24   0.0000       0.079483         2.1629

MULLIKEN ATOMIC CHARGES
-----------------------
   0 C :   -0.144631
   1 C :    0.163021
   2 C :   -0.392977
   3 N :   -0.433764
   4 H :    0.223523
   5 H :    0.228599
   6 H :    0.087788
   7 H :    0.077066
   8 C :   -0.317112
   9 H :    0.069457
  10 H :    0.109885
  11 H :    0.106093
  12 H :    0.115761
  13 H :    0.107291
Sum of atomic charges:    0.0000000

LOEWDIN ATOMIC CHARGES
----------------------
   0 C :   -0.230092
   1 C :   -0.377610
   2 C :   -0.278359
   3 N :    0.015389
   4 H :    0.165208
   5 H :    0.171476
   6 H :    0.102762
   7 H :    0.098361
   8 C :   -0.279209
   9 H :    0.128246
  10 H :    0.144912
  11 H :    0.114147
  12 H :    0.115113
  13 H :    0.109656

  Mayer bond orders larger than 0.100000
B(  0-C ,  1-C ) :   0.9963 B(  0-C ,  8-C ) :   1.0032 B(  0-C ,  9-H ) :   0.9501
B(  0-C , 10-H ) :   0.9608 B(  1-C ,  2-C ) :   1.7573 B(  1-C ,  3-N ) :   1.2024
B(  2-C ,  6-H ) :   0.9964 B(  2-C ,  7-H ) :   0.9687 B(  3-N ,  4-H ) :   0.9148
B(  3-N ,  5-H ) :   0.9096 B(  8-C , 11-H ) :   0.9713 B(  8-C , 12-H ) :   0.9714
B(  8-C , 13-H ) :   0.9606

Dispersion correction           -0.013080379
FINAL SINGLE POINT ENERGY      -212.676752341419

DIPOLE MOMENT
-------------
                                X             Y             Z
Electronic contribution:      0.07904      -2.75776      -1.83985
Nuclear contribution   :     -0.99366       2.78648       1.68526
                        -----------------------------------------
Total Dipole Moment    :     -0.91461       0.02872      -0.15459
                        -----------------------------------------
Magnitude (a.u.)       :      0.92803
Magnitude (Debye)      :      2.35886

Rotational constants in cm-1:     0.282898     0.128664     0.101801
Rotational constants in MHz :  8481.061354  3857.240210  3051.924245

                             ****ORCA TERMINATED NORMALLY****
TOTAL RUN TIME: 0 days 0 hours 0 minutes 16 seconds 861 msec
