                         Program Version 5.0.0 -  RELEASE  -
|  1> !TPSS D3BJ RIJCOSX def2-TZVP def2/J TightSCF
|  2> *xyz 0 1
|  3> C          0.70466        1.44313       -4.50363
|  4> C          1.72854        1.42432       -5.63944
|  5> H          2.64672        1.95379       -5.38105
|  6> H          1.29992        1.93061       -6.50361
|  7> S          2.25263       -0.18811       -6.27184
|  8> O          3.56261       -0.44446       -5.63155
|  9> F          2.34494       -0.03374       -7.69650
| 10> O          1.26606       -1.15918       -5.80536
| 11> H         -0.17385        0.91270       -4.80656
| 12> H          0.44778        2.45562       -4.27173
| 13> H          1.12367        0.97423       -3.63791
| 14> *
| 15>
| 16> %MaxCore 64000
| 17>
| 18> %pal nprocs 4
| 19> end
| 20>
| 21> %scf
| 22>   MaxIter 150
| 23> end
| 24>
| 25>
| 26>                          ****END OF INPUT****

CARTESIAN COORDINATES (ANGSTROEM)
---------------------------------
  C      0.704660    1.443130   -4.503630
  C      1.728540    1.424320   -5.639440
  H      2.646720    1.953790   -5.381050
  H      1.299920    1.930610   -6.503610
  S      2.252630   -0.188110   -6.271840
  O      3.562610   -0.444460   -5.631550
  F      2.344940   -0.033740   -7.696500
  O      1.266060   -1.159180   -5.805360
  H     -0.173850    0.912700   -4.806560
  H      0.447780    2.455620   -4.271730
  H      1.123670    0.974230   -3.637910

 Total Charge           Charge          ....    0
 Multiplicity           Mult            ....    1
 Number of Electrons    NEL             ....   58
 Basis Dimension        Dim             ....  222

ORBITAL ENERGIES
----------------

  NO   OCC          E(Eh)            E(eV)
   0   2.0000     -88.582166     -2410.4433
   1   2.0000     -24.526828      -667.4089
   2   2.0000     -18.887776      -513.9625
   3   2.0000     -18.879609      -513.7403
   4   2.0000     -10.043457      -273.2964
   5   2.0000     -10.003686      -272.2141
   6   2.0000      -7.931539      -215.8282
   7   2.0000      -5.914769      -160.9490
   8   2.0000      -5.908019      -160.7654
   9   2.0000      -5.907698      -160.7566
  10   2.0000      -1.303682       -35.4750
  11   2.0000      -1.021272       -27.7902
  12   2.0000      -0.928438       -25.2641
  13   2.0000      -0.761390       -20.7185
  14   2.0000      -0.678325       -18.4582
  15   2.0000      -0.622026       -16.9262
  16   2.0000      -0.532256       -14.4834
  17   2.0000      -0.527057       -14.3420
  18   2.0000      -0.501733       -13.6528
  19   2.0000      -0.448884       -12.2148
  20   2.0000      -0.431530       -11.7425
  21   2.0000      -0.396505       -10.7895
  22   2.0000      -0.383847       -10.4450
  23   2.0000      -0.366117        -9.9625
  24   2.0000      -0.352838        -9.6012
  25   2.0000      -0.334690        -9.1074
  26   2.0000      -0.286122        -7.7858
  27   2.0000      -0.276269        -7.5177
  28   2.0000      -0.256281        -6.9737
  29   0.0000      -0.002929        -0.0797
  30   0.0000       0.007615         0.2072
  31   0.0000       0.031990         0.8705
  32   0.0000       0.045893         1.2488
  33   0.0000       0.060752         1.6531

MULLIKEN ATOMIC CHARGES
-----------------------
   0 C :   -0.315007
   1 C :   -0.242403
   2 H :    0.151965
   3 H :    0.117831
   4 S :    0.772784
   5 O :   -0.415266
   6 F :   -0.071027
   7 O :   -0.395463
   8 H :    0.134784
   9 H :    0.126645
  10 H :    0.135157
Sum of atomic charges:    0.0000000

LOEWDIN ATOMIC CHARGES
----------------------
   0 C :   -0.296094
   1 C :   -0.392831
   2 H :    0.139451
   3 H :    0.129048
   4 S :    0.490898
   5 O :   -0.291342
   6 F :    0.113517
   7 O :   -0.261774
   8 H :    0.122774
   9 H :    0.122422
  10 H :    0.123931

  Mayer bond orders larger than 0.100000
B(  0-C ,  1-C ) :   1.0197 B(  0-C ,  8-H ) :   0.9616 B(  0-C ,  9-H ) :   0.9482
B(  0-C , 10-H ) :   0.9659 B(  1-C ,  2-H ) :   0.9317 B(  1-C ,  3-H ) :   0.9317
B(  1-C ,  4-S ) :   0.9017 B(  4-S ,  5-O ) :   1.9126 B(  4-S ,  6-F ) :   1.1632
B(  4-S ,  7-O ) :   1.9245

Dispersion correction           -0.011447586
FINAL SINGLE POINT ENERGY      -727.893518315553

DIPOLE MOMENT
-------------
                                X             Y             Z
Electronic contribution:      4.24342      -5.87529      -7.20829
Nuclear contribution   :     -4.83029       7.38191       6.79413
                        -----------------------------------------
Total Dipole Moment    :     -0.58687       1.50662      -0.41416
                        -----------------------------------------
Magnitude (a.u.)       :      1.66908
Magnitude (Debye)      :      4.24247

Rotational constants in cm-1:     0.156575     0.079070     0.076729
Rotational constants in MHz :  4694.010604  2370.444114  2300.280155

                             ****ORCA TERMINATED NORMALLY****
TOTAL RUN TIME: 0 days 0 hours 0 minutes 14 seconds 402 msec
