                         Program Version 5.0.0 -  RELEASE  -
|  1> !TPSS D3BJ RIJCOSX def2-TZVP def2/J TightSCF
|  2> *xyz 0 1
|  3> C          2.91632       -1.24259       -1.54313
|  4> C          3.46659       -1.59097       -2.88908
|  5> N          4.65227       -1.14316       -3.25969
|  6> C          2.75226       -2.29204       -3.72803
|  7> H          1.77836       -2.48960       -3.51274
|  8> H          2.94861       -2.20854       -4.71681
|  9> H          5.14672       -0.51251       -2.63385
| 10> H          4.78303       -1.00720       -4.25350
| 11> C          2.80408        0.29070       -1.35924
| 12> H          1.94047       -1.71653       -1.44116
| 13> H          3.55857       -1.66343       -0.76637
| 14> H          2.17393        0.69633       -2.12297
| 15> H          3.77707        0.73043       -1.42880
| 16> H          2.38369        0.50492       -0.39889
| 17> *
| 18>
| 19> %MaxCore 64000
| 20>
| 21> %pal nprocs 4
| 22> end
| 23>
| 24> %scf
| 25>   MaxIter 150
| 26> end
| 27>
| 28>
| 29>                          ****END OF INPUT****

CARTESIAN COORDINATES (ANGSTROEM)
---------------------------------
  C      2.916320   -1.242590   -1.543130
  C      3.466590   -1.590970   -2.889080
  N      4.652270   -1.143160   -3.259690
  C      2.752260   -2.292040   -3.728030
  H      1.778360   -2.489600   -3.512740
  H      2.948610   -2.208540   -4.716810
  H      5.146720   -0.512510   -2.633850
  H      4.783030   -1.007200   -4.253500
  C      2.804080    0.290700   -1.359240
  H      1.940470   -1.716530   -1.441160
  H      3.558570   -1.663430   -0.766370
  H      2.173930    0.696330   -2.122970
  H      3.777070    0.730430   -1.428800
  H      2.383690    0.504920   -0.398890

 Total Charge           Charge          ....    0
 Multiplicity           Mult            ....    1
 Number of Electrons    NEL             ....   40
 Basis Dimension        Dim             ....  209

ORBITAL ENERGIES
----------------

  NO   OCC          E(Eh)            E(eV)
   0   2.0000     -14.100518      -383.6946
   1   2.0000      -9.996228      -272.0112
   2   2.0000      -9.985704      -271.7248
   3   2.0000      -9.976776      -271.4819
   4   2.0000      -9.914539      -269.7883
   5   2.0000      -0.868684       -23.6381
   6   2.0000      -0.722194       -19.6519
   7   2.0000      -0.667583       -18.1658
   8   2.0000      -0.586724       -15.9656
   9   2.0000      -0.517113       -14.0714
  10   2.0000      -0.482334       -13.1250
  11   2.0000      -0.432083       -11.7576
  12   2.0000      -0.397157       -10.8072
  13   2.0000      -0.391251       -10.6465
  14   2.0000      -0.347438        -9.4543
  15   2.0000      -0.342216        -9.3122
  16   2.0000      -0.321585        -8.7508
  17   2.0000      -0.303382        -8.2554
  18   2.0000      -0.282614        -7.6903
  19   2.0000      -0.164903        -4.4872
  20   0.0000       0.010019         0.2726
  21   0.0000       0.017377         0.4729
  22   0.0000       0.061868         1.6835
  23   0.0000       0.064391         1.7522
  24   0.0000       0.077151         2.0994

MULLIKEN ATOMIC CHARGES
-----------------------
   0 C :   -0.143215
   1 C :    0.165941
   2 N :   -0.446775
   3 C :   -0.386597
   4 H :    0.093963
   5 H :    0.075415
   6 H :    0.224338
   7 H :    0.232473
   8 C :   -0.331823
   9 H :    0.098068
  10 H :    0.093597
  11 H :    0.117556
  12 H :    0.090167
  13 H :    0.116889
Sum of atomic charges:    0.0000000

LOEWDIN ATOMIC CHARGES
----------------------
   0 C :   -0.230457
   1 C :   -0.375917
   2 N :    0.004958
   3 C :   -0.268348
   4 H :    0.104784
   5 H :    0.097756
   6 H :    0.165943
   7 H :    0.173362
   8 C :   -0.285884
   9 H :    0.143412
  10 H :    0.134596
  11 H :    0.116575
  12 H :    0.105671
  13 H :    0.113550

  Mayer bond orders larger than 0.100000
B(  0-C ,  1-C ) :   1.0265 B(  0-C ,  8-C ) :   0.9866 B(  0-C ,  9-H ) :   0.9512
B(  0-C , 10-H ) :   0.9513 B(  1-C ,  2-N ) :   1.1465 B(  1-C ,  3-C ) :   1.8210
B(  2-N ,  6-H ) :   0.9259 B(  2-N ,  7-H ) :   0.9121 B(  3-C ,  4-H ) :   0.9771
B(  3-C ,  5-H ) :   0.9740 B(  8-C , 11-H ) :   0.9713 B(  8-C , 12-H ) :   0.9716
B(  8-C , 13-H ) :   0.9646

Dispersion correction           -0.013049138
FINAL SINGLE POINT ENERGY      -212.680261116979

DIPOLE MOMENT
-------------
                                X             Y             Z
Electronic contribution:      1.76716      -1.72985      -1.42305
Nuclear contribution   :     -1.43372       2.52039       1.57679
                        -----------------------------------------
Total Dipole Moment    :      0.33344       0.79053       0.15374
                        -----------------------------------------
Magnitude (a.u.)       :      0.87164
Magnitude (Debye)      :      2.21554

Rotational constants in cm-1:     0.274962     0.131786     0.102554
Rotational constants in MHz :  8243.150005  3950.846092  3074.493018

                             ****ORCA TERMINATED NORMALLY****
TOTAL RUN TIME: 0 days 0 hours 0 minutes 16 seconds 101 msec
