                         Program Version 5.0.0 -  RELEASE  -
|  1> !TPSS D3BJ RIJCOSX def2-TZVP def2/J TightSCF
|  2> *xyz 0 1
|  3> C          0.70466        1.44313       -4.50363
|  4> C          1.72854        1.42432       -5.63944
|  5> H          2.64672        1.95379       -5.38105
|  6> H          1.29992        1.93061       -6.50361
|  7> S          2.25263       -0.18811       -6.27184
|  8> O          3.56261       -0.44446       -5.63155
|  9> O          2.34494       -0.03374       -7.69650
| 10> F          1.26606       -1.15918       -5.80536
| 11> H         -0.17385        0.91270       -4.80656
| 12> H          0.44778        2.45562       -4.27173
| 13> H          1.12367        0.97423       -3.63791
| 14> *
| 15>
| 16> %MaxCore 64000
| 17>
| 18> %pal nprocs 4
| 19> end
| 20>
| 21> %scf
| 22>   MaxIter 150
| 23> end
| 24>
| 25>
| 26>                          ****END OF INPUT****

CARTESIAN COORDINATES (ANGSTROEM)
---------------------------------
  C      0.704660    1.443130   -4.503630
  C      1.728540    1.424320   -5.639440
  H      2.646720    1.953790   -5.381050
  H      1.299920    1.930610   -6.503610
  S      2.252630   -0.188110   -6.271840
  O      3.562610   -0.444460   -5.631550
  O      2.344940   -0.033740   -7.696500
  F      1.266060   -1.159180   -5.805360
  H     -0.173850    0.912700   -4.806560
  H      0.447780    2.455620   -4.271730
  H      1.123670    0.974230   -3.637910

 Total Charge           Charge          ....    0
 Multiplicity           Mult            ....    1
 Number of Electrons    NEL             ....   58
 Basis Dimension        Dim             ....  222

ORBITAL ENERGIES
----------------

  NO   OCC          E(Eh)            E(eV)
   0   2.0000     -88.580667     -2410.4025
   1   2.0000     -24.514789      -667.0813
   2   2.0000     -18.894655      -514.1497
   3   2.0000     -18.879214      -513.7295
   4   2.0000     -10.042582      -273.2725
   5   2.0000     -10.010149      -272.3900
   6   2.0000      -7.930125      -215.7897
   7   2.0000      -5.913489      -160.9142
   8   2.0000      -5.906486      -160.7236
   9   2.0000      -5.906348      -160.7199
  10   2.0000      -1.283194       -34.9175
  11   2.0000      -1.031230       -28.0612
  12   2.0000      -0.936118       -25.4731
  13   2.0000      -0.764494       -20.8030
  14   2.0000      -0.668303       -18.1855
  15   2.0000      -0.623198       -16.9581
  16   2.0000      -0.532343       -14.4858
  17   2.0000      -0.512926       -13.9574
  18   2.0000      -0.490735       -13.3536
  19   2.0000      -0.452278       -12.3071
  20   2.0000      -0.425638       -11.5822
  21   2.0000      -0.404190       -10.9986
  22   2.0000      -0.394837       -10.7441
  23   2.0000      -0.372289       -10.1305
  24   2.0000      -0.357857        -9.7378
  25   2.0000      -0.338931        -9.2228
  26   2.0000      -0.292211        -7.9515
  27   2.0000      -0.277040        -7.5386
  28   2.0000      -0.262812        -7.1515
  29   0.0000      -0.013710        -0.3731
  30   0.0000       0.024432         0.6648
  31   0.0000       0.036644         0.9971
  32   0.0000       0.045141         1.2283
  33   0.0000       0.060427         1.6443

MULLIKEN ATOMIC CHARGES
-----------------------
   0 C :   -0.342577
   1 C :   -0.236311
   2 H :    0.157080
   3 H :    0.143559
   4 S :    0.775630
   5 O :   -0.421241
   6 O :   -0.372678
   7 F :   -0.091088
   8 H :    0.124178
   9 H :    0.130965
  10 H :    0.132484
Sum of atomic charges:    0.0000000

LOEWDIN ATOMIC CHARGES
----------------------
   0 C :   -0.309777
   1 C :   -0.384683
   2 H :    0.144606
   3 H :    0.138184
   4 S :    0.496528
   5 O :   -0.294648
   6 O :   -0.237696
   7 F :    0.086722
   8 H :    0.116937
   9 H :    0.123557
  10 H :    0.120269

  Mayer bond orders larger than 0.100000
B(  0-C ,  1-C ) :   1.0111 B(  0-C ,  8-H ) :   0.9646 B(  0-C ,  9-H ) :   0.9535
B(  0-C , 10-H ) :   0.9652 B(  1-C ,  2-H ) :   0.9327 B(  1-C ,  3-H ) :   0.9332
B(  1-C ,  4-S ) :   0.9049 B(  4-S ,  5-O ) :   1.9106 B(  4-S ,  6-O ) :   1.9606
B(  4-S ,  7-F ) :   1.1345

Dispersion correction           -0.011376714
FINAL SINGLE POINT ENERGY      -727.902974068064

DIPOLE MOMENT
-------------
                                X             Y             Z
Electronic contribution:      2.44152      -7.72273      -4.04212
Nuclear contribution   :     -3.70606       8.55465       4.82350
                        -----------------------------------------
Total Dipole Moment    :     -1.26454       0.83192       0.78138
                        -----------------------------------------
Magnitude (a.u.)       :      1.70344
Magnitude (Debye)      :      4.32980

Rotational constants in cm-1:     0.153201     0.080978     0.077494
Rotational constants in MHz :  4592.852844  2427.650814  2323.207507

                             ****ORCA TERMINATED NORMALLY****
TOTAL RUN TIME: 0 days 0 hours 0 minutes 15 seconds 967 msec
