                         Program Version 5.0.0 -  RELEASE  -
|  1> !TPSS D3BJ RIJCOSX def2-TZVP def2/J TightSCF xyzfile
|  2>
|  3> *xyzfile 0 1 D2.xyz
|  4>
|  5> %MaxCore 64000
|  6>
|  7> %pal nprocs 18
|  8> end
|  9>
| 10> %scf
| 11>   MaxIter 150
| 12> end
| 13>
| 14>
| 15>                          ****END OF INPUT****

CARTESIAN COORDINATES (ANGSTROEM)
---------------------------------
  C      2.916324   -1.242589   -1.543125
  C      0.704661    1.443129   -4.503630
  C      1.728539    1.424320   -5.639443
  H      2.646718    1.953794   -5.381054
  H      1.299916    1.930613   -6.503614
  S      2.252625   -0.188115   -6.271840
  C      3.466585   -1.590971   -2.889082
  N      4.652275   -1.143164   -3.259692
  C      2.752264   -2.292043   -3.728029
  H      1.778364   -2.489604   -3.512738
  H      2.948612   -2.208544   -4.716813
  H      5.146723   -0.512508   -2.633852
  H      4.783030   -1.007203   -4.253498
  F      3.562607   -0.444464   -5.631552
  O      2.344944   -0.033742   -7.696501
  C      2.804084    0.290698   -1.359243
  C      1.052550    0.695659   -3.214915
  H     -0.232483    1.032925   -4.884449
  H      0.511700    2.495794   -4.267966
  C      2.388380    1.093669   -2.597108
  H      3.763425    0.674718   -0.999889
  H      2.094788    0.461222   -0.545756
  O      1.266058   -1.159177   -5.805365
  H      3.167316    1.013242   -3.359430
  H      2.357690    2.149375   -2.310997
  H      1.039284   -0.368429   -3.449329
  H      0.250787    0.865605   -2.488283
  H      1.940472   -1.716529   -1.441161
  H      3.558569   -1.663433   -0.766371

 Total Charge           Charge          ....    0
 Multiplicity           Mult            ....    1
 Number of Electrons    NEL             ....  112
 Basis Dimension        Dim             ....  505

ORBITAL ENERGIES
----------------

  NO   OCC          E(Eh)            E(eV)
   0   2.0000     -88.581963     -2410.4377
   1   2.0000     -24.511538      -666.9929
   2   2.0000     -18.897319      -514.2222
   3   2.0000     -18.888504      -513.9823
   4   2.0000     -14.099304      -383.6616
   5   2.0000     -10.041514      -273.2435
   6   2.0000     -10.008914      -272.3564
   7   2.0000      -9.993006      -271.9235
   8   2.0000      -9.992408      -271.9072
   9   2.0000      -9.990393      -271.8524
  10   2.0000      -9.985945      -271.7314
  11   2.0000      -9.985485      -271.7189
  12   2.0000      -9.911140      -269.6958
  13   2.0000      -7.931743      -215.8337
  14   2.0000      -5.915283      -160.9630
  15   2.0000      -5.908053      -160.7663
  16   2.0000      -5.907772      -160.7586
  17   2.0000      -1.276793       -34.7433
  18   2.0000      -1.038496       -28.2589
  19   2.0000      -0.950186       -25.8559
  20   2.0000      -0.869825       -23.6691
  21   2.0000      -0.776795       -21.1377
  22   2.0000      -0.743672       -20.2363
  23   2.0000      -0.704046       -19.1581
  24   2.0000      -0.677698       -18.4411
  25   2.0000      -0.651850       -17.7377
  26   2.0000      -0.626912       -17.0591
  27   2.0000      -0.577100       -15.7037
  28   2.0000      -0.546409       -14.8686
  29   2.0000      -0.519030       -14.1235
  30   2.0000      -0.513916       -13.9844
  31   2.0000      -0.506880       -13.7929
  32   2.0000      -0.499181       -13.5834
  33   2.0000      -0.479268       -13.0416
  34   2.0000      -0.448329       -12.1997
  35   2.0000      -0.447131       -12.1670
  36   2.0000      -0.432445       -11.7674
  37   2.0000      -0.419690       -11.4203
  38   2.0000      -0.408437       -11.1141
  39   2.0000      -0.400949       -10.9104
  40   2.0000      -0.391388       -10.6502
  41   2.0000      -0.377071       -10.2606
  42   2.0000      -0.363866        -9.9013
  43   2.0000      -0.347570        -9.4579
  44   2.0000      -0.345228        -9.3941
  45   2.0000      -0.342486        -9.3195
  46   2.0000      -0.330823        -9.0022
  47   2.0000      -0.318045        -8.6544
  48   2.0000      -0.309547        -8.4232
  49   2.0000      -0.297490        -8.0951
  50   2.0000      -0.291644        -7.9360
  51   2.0000      -0.290983        -7.9180
  52   2.0000      -0.281784        -7.6677
  53   2.0000      -0.277393        -7.5482
  54   2.0000      -0.271343        -7.3836
  55   2.0000      -0.162867        -4.4318
  56   0.0000      -0.010195        -0.2774
  57   0.0000       0.004565         0.1242
  58   0.0000       0.013314         0.3623
  59   0.0000       0.015399         0.4190
  60   0.0000       0.035805         0.9743

MULLIKEN ATOMIC CHARGES
-----------------------
   0 C :   -0.147980
   1 C :   -0.091112
   2 C :   -0.302332
   3 H :    0.140237
   4 H :    0.165959
   5 S :    0.807285
   6 C :    0.069265
   7 N :   -0.420908
   8 C :   -0.346669
   9 H :    0.093210
  10 H :    0.072544
  11 H :    0.229324
  12 H :    0.223125
  13 F :   -0.121771
  14 O :   -0.386478
  15 C :   -0.227037
  16 C :   -0.238445
  17 H :    0.114690
  18 H :    0.093882
  19 C :   -0.115026
  20 H :    0.104618
  21 H :    0.089978
  22 O :   -0.394708
  23 H :    0.068599
  24 H :    0.079309
  25 H :    0.141021
  26 H :    0.081969
  27 H :    0.113952
  28 H :    0.103498
Sum of atomic charges:    0.0000000

LOEWDIN ATOMIC CHARGES
----------------------
   0 C :   -0.211125
   1 C :   -0.274050
   2 C :   -0.365568
   3 H :    0.132970
   4 H :    0.147963
   5 S :    0.515041
   6 C :   -0.393286
   7 N :    0.004984
   8 C :   -0.264491
   9 H :    0.104393
  10 H :    0.088589
  11 H :    0.166496
  12 H :    0.159492
  13 F :    0.063756
  14 O :   -0.235895
  15 C :   -0.254240
  16 C :   -0.264132
  17 H :    0.145050
  18 H :    0.142325
  19 C :   -0.266080
  20 H :    0.130395
  21 H :    0.135764
  22 O :   -0.233022
  23 H :    0.125641
  24 H :    0.133164
  25 H :    0.144514
  26 H :    0.135614
  27 H :    0.147295
  28 H :    0.138439

  Mayer bond orders larger than 0.100000
B(  0-C ,  6-C ) :   1.0093 B(  0-C , 15-C ) :   0.9729 B(  0-C , 27-H ) :   0.9490
B(  0-C , 28-H ) :   0.9521 B(  1-C ,  2-C ) :   0.9968 B(  1-C , 16-C ) :   1.0139
B(  1-C , 17-H ) :   0.9435 B(  1-C , 18-H ) :   0.9245 B(  2-C ,  3-H ) :   0.9364
B(  2-C ,  4-H ) :   0.9313 B(  2-C ,  5-S ) :   0.9043 B(  5-S , 13-F ) :   1.0727
B(  5-S , 14-O ) :   1.9812 B(  5-S , 22-O ) :   1.8885 B(  6-C ,  7-N ) :   1.1423
B(  6-C ,  8-C ) :   1.7602 B(  7-N , 11-H ) :   0.9249 B(  7-N , 12-H ) :   0.9126
B(  8-C ,  9-H ) :   0.9827 B(  8-C , 10-H ) :   1.0078 B( 15-C , 19-C ) :   1.0118
B( 15-C , 20-H ) :   0.9630 B( 15-C , 21-H ) :   0.9407 B( 16-C , 19-C ) :   0.9913
B( 16-C , 25-H ) :   0.9576 B( 16-C , 26-H ) :   0.9354 B( 19-C , 23-H ) :   0.9444
B( 19-C , 24-H ) :   0.9407

Dispersion correction           -0.046026560
FINAL SINGLE POINT ENERGY     -1018.050748997464

DIPOLE MOMENT
-------------
                                X             Y             Z
Electronic contribution:      3.49633      -4.33078     -18.32002
Nuclear contribution   :     -3.13969       6.14743      19.30799
                        -----------------------------------------
Total Dipole Moment    :      0.35664       1.81666       0.98797
                        -----------------------------------------
Magnitude (a.u.)       :      2.09846
Magnitude (Debye)      :      5.33385

Rotational constants in cm-1:     0.036460     0.018762     0.015014
Rotational constants in MHz :  1093.039020   562.475626   450.105862

                             ****ORCA TERMINATED NORMALLY****
TOTAL RUN TIME: 0 days 0 hours 0 minutes 29 seconds 309 msec
