                         Program Version 5.0.0 -  RELEASE  -
|  1> !TPSS D3BJ RIJCOSX def2-TZVP def2/J TightSCF xyzfile
|  2>
|  3> *xyzfile 0 1 D6.xyz
|  4>
|  5> %MaxCore 64000
|  6>
|  7> %pal nprocs 18
|  8> end
|  9>
| 10> %scf
| 11>   MaxIter 150
| 12> end
| 13>
| 14>
| 15>                          ****END OF INPUT****

CARTESIAN COORDINATES (ANGSTROEM)
---------------------------------
  C      2.916324   -1.242589   -1.543125
  C      0.704661    1.443129   -4.503630
  C      1.728539    1.424320   -5.639443
  H      2.646718    1.953794   -5.381054
  H      1.299916    1.930613   -6.503614
  S      2.252625   -0.188115   -6.271840
  C      3.466585   -1.590971   -2.889082
  N      4.652275   -1.143164   -3.259692
  C      2.752264   -2.292043   -3.728029
  H      1.778364   -2.489604   -3.512738
  H      2.948612   -2.208544   -4.716813
  H      5.146723   -0.512508   -2.633852
  H      4.783030   -1.007203   -4.253498
  O      3.562607   -0.444464   -5.631552
  O      2.344944   -0.033742   -7.696501
  C      2.804084    0.290698   -1.359243
  C      1.052550    0.695659   -3.214915
  H     -0.232483    1.032925   -4.884449
  H      0.511700    2.495794   -4.267966
  C      2.388380    1.093669   -2.597108
  H      3.763425    0.674718   -0.999889
  H      2.094788    0.461222   -0.545756
  F      1.266058   -1.159177   -5.805365
  H      3.167316    1.013242   -3.359430
  H      2.357690    2.149375   -2.310997
  H      1.039284   -0.368429   -3.449329
  H      0.250787    0.865605   -2.488283
  H      1.940472   -1.716529   -1.441161
  H      3.558569   -1.663433   -0.766371

 Total Charge           Charge          ....    0
 Multiplicity           Mult            ....    1
 Number of Electrons    NEL             ....  112
 Basis Dimension        Dim             ....  505

ORBITAL ENERGIES
----------------

  NO   OCC          E(Eh)            E(eV)
   0   2.0000     -88.587547     -2410.5897
   1   2.0000     -24.516529      -667.1287
   2   2.0000     -18.900234      -514.3015
   3   2.0000     -18.887987      -513.9682
   4   2.0000     -14.082180      -383.1956
   5   2.0000     -10.043312      -273.2924
   6   2.0000     -10.015139      -272.5258
   7   2.0000      -9.991124      -271.8723
   8   2.0000      -9.988869      -271.8109
   9   2.0000      -9.986759      -271.7535
  10   2.0000      -9.986220      -271.7389
  11   2.0000      -9.981213      -271.6026
  12   2.0000      -9.903858      -269.4977
  13   2.0000      -7.936978      -215.9762
  14   2.0000      -5.920243      -161.0980
  15   2.0000      -5.913671      -160.9192
  16   2.0000      -5.912972      -160.9002
  17   2.0000      -1.285932       -34.9920
  18   2.0000      -1.038407       -28.2565
  19   2.0000      -0.947124       -25.7726
  20   2.0000      -0.854624       -23.2555
  21   2.0000      -0.780828       -21.2474
  22   2.0000      -0.741343       -20.1730
  23   2.0000      -0.700743       -19.0682
  24   2.0000      -0.673833       -18.3359
  25   2.0000      -0.649743       -17.6804
  26   2.0000      -0.624400       -16.9908
  27   2.0000      -0.579767       -15.7763
  28   2.0000      -0.545381       -14.8406
  29   2.0000      -0.525096       -14.2886
  30   2.0000      -0.517967       -14.0946
  31   2.0000      -0.509036       -13.8516
  32   2.0000      -0.493002       -13.4153
  33   2.0000      -0.464352       -12.6357
  34   2.0000      -0.450718       -12.2647
  35   2.0000      -0.447104       -12.1663
  36   2.0000      -0.428303       -11.6547
  37   2.0000      -0.417838       -11.3700
  38   2.0000      -0.412128       -11.2146
  39   2.0000      -0.400035       -10.8855
  40   2.0000      -0.393876       -10.7179
  41   2.0000      -0.375763       -10.2250
  42   2.0000      -0.363283        -9.8854
  43   2.0000      -0.350414        -9.5352
  44   2.0000      -0.344342        -9.3700
  45   2.0000      -0.342175        -9.3111
  46   2.0000      -0.327611        -8.9148
  47   2.0000      -0.319932        -8.7058
  48   2.0000      -0.309627        -8.4254
  49   2.0000      -0.295346        -8.0368
  50   2.0000      -0.292392        -7.9564
  51   2.0000      -0.288627        -7.8539
  52   2.0000      -0.282538        -7.6882
  53   2.0000      -0.268126        -7.2961
  54   2.0000      -0.262954        -7.1553
  55   2.0000      -0.154407        -4.2016
  56   0.0000      -0.016663        -0.4534
  57   0.0000       0.011108         0.3023
  58   0.0000       0.019181         0.5219
  59   0.0000       0.022860         0.6220
  60   0.0000       0.031517         0.8576

MULLIKEN ATOMIC CHARGES
-----------------------
   0 C :   -0.145975
   1 C :   -0.145142
   2 C :   -0.272352
   3 H :    0.158613
   4 H :    0.158940
   5 S :    0.823483
   6 C :    0.087766
   7 N :   -0.415337
   8 C :   -0.390774
   9 H :    0.084147
  10 H :    0.084915
  11 H :    0.220374
  12 H :    0.253441
  13 O :   -0.450129
  14 O :   -0.381087
  15 C :   -0.231941
  16 C :   -0.218174
  17 H :    0.112587
  18 H :    0.098646
  19 C :   -0.120050
  20 H :    0.105207
  21 H :    0.085753
  22 F :   -0.083327
  23 H :    0.102393
  24 H :    0.077612
  25 H :    0.104115
  26 H :    0.085940
  27 H :    0.107918
  28 H :    0.102443
Sum of atomic charges:   -0.0000000

LOEWDIN ATOMIC CHARGES
----------------------
   0 C :   -0.212224
   1 C :   -0.282551
   2 C :   -0.357969
   3 H :    0.145763
   4 H :    0.142672
   5 S :    0.521276
   6 C :   -0.386764
   7 N :    0.016028
   8 C :   -0.287041
   9 H :    0.095755
  10 H :    0.088655
  11 H :    0.163505
  12 H :    0.168453
  13 O :   -0.279979
  14 O :   -0.231364
  15 C :   -0.254496
  16 C :   -0.265501
  17 H :    0.138951
  18 H :    0.143727
  19 C :   -0.264404
  20 H :    0.131303
  21 H :    0.133954
  22 F :    0.108610
  23 H :    0.135039
  24 H :    0.132655
  25 H :    0.136779
  26 H :    0.136038
  27 H :    0.144715
  28 H :    0.138416

  Mayer bond orders larger than 0.100000
B(  0-C ,  6-C ) :   1.0167 B(  0-C , 15-C ) :   0.9736 B(  0-C , 27-H ) :   0.9499
B(  0-C , 28-H ) :   0.9510 B(  1-C ,  2-C ) :   1.0044 B(  1-C , 16-C ) :   0.9975
B(  1-C , 17-H ) :   0.9562 B(  1-C , 18-H ) :   0.9267 B(  2-C ,  3-H ) :   0.9342
B(  2-C ,  4-H ) :   0.9301 B(  2-C ,  5-S ) :   0.9156 B(  5-S , 13-O ) :   1.7943
B(  5-S , 14-O ) :   1.9898 B(  5-S , 22-F ) :   1.1395 B(  6-C ,  7-N ) :   1.1797
B(  6-C ,  8-C ) :   1.7449 B(  7-N , 11-H ) :   0.9268 B(  7-N , 12-H ) :   0.8932
B(  8-C ,  9-H ) :   0.9882 B(  8-C , 10-H ) :   0.9903 B( 15-C , 19-C ) :   1.0118
B( 15-C , 20-H ) :   0.9616 B( 15-C , 21-H ) :   0.9414 B( 16-C , 19-C ) :   0.9734
B( 16-C , 25-H ) :   0.9674 B( 16-C , 26-H ) :   0.9367 B( 19-C , 23-H ) :   0.9432
B( 19-C , 24-H ) :   0.9386

Dispersion correction           -0.046127334
FINAL SINGLE POINT ENERGY     -1018.048644656447

DIPOLE MOMENT
-------------
                                X             Y             Z
Electronic contribution:     -0.34456      -5.41000     -18.73639
Nuclear contribution   :     -0.51418       6.96452      19.50670
                        -----------------------------------------
Total Dipole Moment    :     -0.85874       1.55452       0.77031
                        -----------------------------------------
Magnitude (a.u.)       :      1.93581
Magnitude (Debye)      :      4.92043

Rotational constants in cm-1:     0.036455     0.018603     0.015008
Rotational constants in MHz :  1092.895336   557.693628   449.926016

                             ****ORCA TERMINATED NORMALLY****
TOTAL RUN TIME: 0 days 0 hours 0 minutes 26 seconds 575 msec
