                         Program Version 5.0.0 -  RELEASE  -
|  1> !B3LYP D3BJ RIJCOSX def2-SVPD def2/J TightSCF
|  2> *xyz -1 1
|  3> C         -5.57236       -5.80780       -0.81644
|  4> S         -6.90318       -4.61903       -0.52846
|  5> O         -8.11485       -5.25093       -0.95701
|  6> O         -6.53271       -3.42684       -1.31485
|  7> O         -6.86563       -4.29496        0.91412
|  8> C         -4.45780       -5.94187        0.22919
|  9> H         -5.17735       -5.54257       -1.79771
| 10> H         -6.07420       -6.76889       -0.92127
| 11> H         -3.75515       -6.68239       -0.09144
| 12> H         -4.88182       -6.23486        1.16689
| 13> H         -3.95908       -5.00189        0.34143
| 14> *
| 15> %MaxCore 64000
| 16>
| 17> %pal nprocs 4
| 18> end
| 19>
| 20> %scf
| 21>   MaxIter 150
| 22> end
| 23>
| 24>                          ****END OF INPUT****

CARTESIAN COORDINATES (ANGSTROEM)
---------------------------------
  C     -5.572360   -5.807800   -0.816440
  S     -6.903180   -4.619030   -0.528460
  O     -8.114850   -5.250930   -0.957010
  O     -6.532710   -3.426840   -1.314850
  O     -6.865630   -4.294960    0.914120
  C     -4.457800   -5.941870    0.229190
  H     -5.177350   -5.542570   -1.797710
  H     -6.074200   -6.768890   -0.921270
  H     -3.755150   -6.682390   -0.091440
  H     -4.881820   -6.234860    1.166890
  H     -3.959080   -5.001890    0.341430

 Total Charge           Charge          ....   -1
 Multiplicity           Mult            ....    1
 Number of Electrons    NEL             ....   58
 Basis Dimension        Dim             ....  176

ORBITAL ENERGIES
----------------

  NO   OCC          E(Eh)            E(eV)
   0   2.0000     -88.881058     -2418.5765
   1   2.0000     -18.924121      -514.9515
   2   2.0000     -18.910380      -514.5776
   3   2.0000     -18.909559      -514.5553
   4   2.0000     -10.048398      -273.4308
   5   2.0000     -10.046237      -273.3720
   6   2.0000      -7.934737      -215.9152
   7   2.0000      -5.903674      -160.6471
   8   2.0000      -5.903536      -160.6434
   9   2.0000      -5.903042      -160.6299
  10   2.0000      -0.928444       -25.2642
  11   2.0000      -0.788884       -21.4666
  12   2.0000      -0.764714       -20.8089
  13   2.0000      -0.628682       -17.1073
  14   2.0000      -0.508610       -13.8400
  15   2.0000      -0.381626       -10.3846
  16   2.0000      -0.321414        -8.7461
  17   2.0000      -0.315222        -8.5776
  18   2.0000      -0.279673        -7.6103
  19   2.0000      -0.262757        -7.1500
  20   2.0000      -0.260998        -7.1021
  21   2.0000      -0.230269        -6.2659
  22   2.0000      -0.223481        -6.0812
  23   2.0000      -0.150989        -4.1086
  24   2.0000      -0.148947        -4.0531
  25   2.0000      -0.117323        -3.1925
  26   2.0000      -0.106168        -2.8890
  27   2.0000      -0.100740        -2.7413
  28   2.0000      -0.064110        -1.7445
  29   0.0000       0.138110         3.7582
  30   0.0000       0.168685         4.5902
  31   0.0000       0.178715         4.8631
  32   0.0000       0.184548         5.0218
  33   0.0000       0.205339         5.5876

MULLIKEN ATOMIC CHARGES
-----------------------
   0 C :   -0.198396
   1 S :    1.322196
   2 O :   -0.773222
   3 O :   -0.831750
   4 O :   -0.843940
   5 C :    0.992123
   6 H :   -0.108684
   7 H :   -0.092002
   8 H :   -0.201224
   9 H :   -0.120122
  10 H :   -0.144977
Sum of atomic charges:   -1.0000000

LOEWDIN ATOMIC CHARGES
----------------------
   0 C :   -0.116198
   1 S :    0.871217
   2 O :   -0.574127
   3 O :   -0.600914
   4 O :   -0.593160
   5 C :    0.111700
   6 H :   -0.005420
   7 H :   -0.011186
   8 H :   -0.037872
   9 H :   -0.024880
  10 H :   -0.019161

  Mayer bond orders larger than 0.100000
B(  0-C ,  1-S ) :   0.8772 B(  0-C ,  5-C ) :   1.2804 B(  0-C ,  6-H ) :   0.9420
B(  0-C ,  7-H ) :   0.9474 B(  0-C ,  8-H ) :   0.2448 B(  0-C ,  9-H ) :   0.2304
B(  0-C , 10-H ) :   0.2153 B(  1-S ,  2-O ) :   1.3409 B(  1-S ,  3-O ) :   1.2739
B(  1-S ,  4-O ) :   1.2619 B(  5-C ,  7-H ) :   0.1017 B(  5-C ,  8-H ) :   0.6934
B(  5-C ,  9-H ) :   0.7621 B(  5-C , 10-H ) :   0.7717

Dispersion correction           -0.016451882
FINAL SINGLE POINT ENERGY      -702.585229083175

DIPOLE MOMENT
-------------
                                X             Y             Z
Electronic contribution:     -6.62898       4.26791      -0.92261
Nuclear contribution   :      8.13140      -5.68016       0.80206
                        -----------------------------------------
Total Dipole Moment    :      1.50242      -1.41225      -0.12055
                        -----------------------------------------
Magnitude (a.u.)       :      2.06549
Magnitude (Debye)      :      5.25006

Rotational constants in cm-1:     0.162101     0.080498     0.079099
Rotational constants in MHz :  4859.669771  2413.267251  2371.338602

                             ****ORCA TERMINATED NORMALLY****
TOTAL RUN TIME: 0 days 0 hours 0 minutes 23 seconds 90 msec
