                         Program Version 5.0.0 -  RELEASE  -
|  1> !B3LYP D3BJ RIJCOSX def2-SVPD def2/J TightSCF
|  2> *xyz 1 1
|  3> C         -4.38262       -1.67089        1.21620
|  4> N         -5.76354       -1.91517        0.70501
|  5> C         -3.28173       -2.19127        0.29436
|  6> H         -5.84081       -2.11520       -0.30065
|  7> H         -6.40882       -1.14866        0.93612
|  8> H         -6.17478       -2.79061        1.05143
|  9> H         -4.32862       -2.13922        2.19810
| 10> H         -4.26158       -0.59740        1.35725
| 11> H         -3.36057       -1.71407       -0.66008
| 12> H         -3.38775       -3.24919        0.17403
| 13> H         -2.32559       -1.97514        0.72329
| 14> *
| 15> %MaxCore 64000
| 16>
| 17> %pal nprocs 4
| 18> end
| 19>
| 20> %scf
| 21>   MaxIter 150
| 22> end
| 23>
| 24>                          ****END OF INPUT****

CARTESIAN COORDINATES (ANGSTROEM)
---------------------------------
  C     -4.382620   -1.670890    1.216200
  N     -5.763540   -1.915170    0.705010
  C     -3.281730   -2.191270    0.294360
  H     -5.840810   -2.115200   -0.300650
  H     -6.408820   -1.148660    0.936120
  H     -6.174780   -2.790610    1.051430
  H     -4.328620   -2.139220    2.198100
  H     -4.261580   -0.597400    1.357250
  H     -3.360570   -1.714070   -0.660080
  H     -3.387750   -3.249190    0.174030
  H     -2.325590   -1.975140    0.723290

 Total Charge           Charge          ....    1
 Multiplicity           Mult            ....    1
 Number of Electrons    NEL             ....   26
 Basis Dimension        Dim             ....  124

ORBITAL ENERGIES
----------------

  NO   OCC          E(Eh)            E(eV)
   0   2.0000     -14.666438      -399.0941
   1   2.0000     -10.438611      -284.0490
   2   2.0000     -10.359443      -281.8948
   3   2.0000      -1.207748       -32.8645
   4   2.0000      -0.961338       -26.1593
   5   2.0000      -0.846760       -23.0415
   6   2.0000      -0.798345       -21.7241
   7   2.0000      -0.777456       -21.1557
   8   2.0000      -0.703844       -19.1526
   9   2.0000      -0.641445       -17.4546
  10   2.0000      -0.584999       -15.9186
  11   2.0000      -0.568230       -15.4623
  12   2.0000      -0.550242       -14.9729
  13   0.0000      -0.197468        -5.3734
  14   0.0000      -0.142074        -3.8660
  15   0.0000      -0.139393        -3.7931
  16   0.0000      -0.124615        -3.3909
  17   0.0000      -0.095739        -2.6052

MULLIKEN ATOMIC CHARGES
-----------------------
   0 C :    0.395275
   1 N :   -0.723298
   2 C :    0.793845
   3 H :    0.359797
   4 H :    0.364142
   5 H :    0.342350
   6 H :   -0.137505
   7 H :   -0.107441
   8 H :   -0.111455
   9 H :   -0.075562
  10 H :   -0.100148
Sum of atomic charges:    1.0000000

LOEWDIN ATOMIC CHARGES
----------------------
   0 C :    0.068869
   1 N :    0.331651
   2 C :    0.180296
   3 H :    0.101936
   4 H :    0.108499
   5 H :    0.104748
   6 H :    0.048732
   7 H :    0.048013
   8 H :   -0.002407
   9 H :   -0.002520
  10 H :    0.012182

  Mayer bond orders larger than 0.100000
B(  0-C ,  1-N ) :   0.7037 B(  0-C ,  2-C ) :   1.3405 B(  0-C ,  6-H ) :   0.8755
B(  0-C ,  7-H ) :   0.8770 B(  0-C ,  8-H ) :   0.1989 B(  0-C ,  9-H ) :   0.1756
B(  0-C , 10-H ) :   0.1979 B(  1-N ,  3-H ) :   0.7590 B(  1-N ,  4-H ) :   0.7619
B(  1-N ,  5-H ) :   0.8128 B(  1-N ,  6-H ) :   0.1119 B(  2-C ,  8-H ) :   0.7985
B(  2-C ,  9-H ) :   0.7878 B(  2-C , 10-H ) :   0.8103

Dispersion correction           -0.009932320
FINAL SINGLE POINT ENERGY      -135.356715518188

DIPOLE MOMENT
-------------
                                X             Y             Z
Electronic contribution:     -1.79943       0.24035       0.30800
Nuclear contribution   :      0.19437      -0.25358      -0.32106
                        -----------------------------------------
Total Dipole Moment    :     -1.60506      -0.01323      -0.01306
                        -----------------------------------------
Magnitude (a.u.)       :      1.60516
Magnitude (Debye)      :      4.08000

Rotational constants in cm-1:     1.030014     0.272489     0.242697
Rotational constants in MHz : 30879.030706  8169.007780  7275.865152

                             ****ORCA TERMINATED NORMALLY****
TOTAL RUN TIME: 0 days 0 hours 0 minutes 13 seconds 148 msec
