                         Program Version 5.0.0 -  RELEASE  -
|  1> !B3LYP D3BJ RIJCOSX def2-SVPD def2/J TightSCF
|  2> *xyz 0 1
|  3> C         -5.57236       -5.80780       -0.81644
|  4> S         -6.90318       -4.61903       -0.52846
|  5> F         -8.11485       -5.25093       -0.95701
|  6> O         -6.53271       -3.42684       -1.31485
|  7> O         -6.86563       -4.29496        0.91412
|  8> C         -4.45780       -5.94187        0.22919
|  9> H         -5.17735       -5.54257       -1.79771
| 10> H         -6.07420       -6.76889       -0.92127
| 11> H         -3.75515       -6.68239       -0.09144
| 12> H         -4.88182       -6.23486        1.16689
| 13> H         -3.95908       -5.00189        0.34143
| 14> *
| 15> %MaxCore 64000
| 16>
| 17> %pal nprocs 4
| 18> end
| 19>
| 20> %scf
| 21>   MaxIter 150
| 22> end
| 23>
| 24>                          ****END OF INPUT****

CARTESIAN COORDINATES (ANGSTROEM)
---------------------------------
  C     -5.572360   -5.807800   -0.816440
  S     -6.903180   -4.619030   -0.528460
  F     -8.114850   -5.250930   -0.957010
  O     -6.532710   -3.426840   -1.314850
  O     -6.865630   -4.294960    0.914120
  C     -4.457800   -5.941870    0.229190
  H     -5.177350   -5.542570   -1.797710
  H     -6.074200   -6.768890   -0.921270
  H     -3.755150   -6.682390   -0.091440
  H     -4.881820   -6.234860    1.166890
  H     -3.959080   -5.001890    0.341430

 Total Charge           Charge          ....    0
 Multiplicity           Mult            ....    1
 Number of Electrons    NEL             ....   58
 Basis Dimension        Dim             ....  176

ORBITAL ENERGIES
----------------

  NO   OCC          E(Eh)            E(eV)
   0   2.0000     -89.140601     -2425.6391
   1   2.0000     -24.822181      -675.4459
   2   2.0000     -19.144271      -520.9421
   3   2.0000     -19.144070      -520.9366
   4   2.0000     -10.251071      -278.9458
   5   2.0000     -10.208129      -277.7773
   6   2.0000      -8.195205      -223.0029
   7   2.0000      -6.168261      -167.8469
   8   2.0000      -6.161682      -167.6679
   9   2.0000      -6.160428      -167.6338
  10   2.0000      -1.387866       -37.7658
  11   2.0000      -1.097674       -29.8692
  12   2.0000      -0.995340       -27.0846
  13   2.0000      -0.820602       -22.3297
  14   2.0000      -0.743565       -20.2334
  15   2.0000      -0.682363       -18.5680
  16   2.0000      -0.598370       -16.2825
  17   2.0000      -0.595909       -16.2155
  18   2.0000      -0.558424       -15.1955
  19   2.0000      -0.497286       -13.5318
  20   2.0000      -0.483784       -13.1644
  21   2.0000      -0.448773       -12.2117
  22   2.0000      -0.434106       -11.8126
  23   2.0000      -0.410485       -11.1699
  24   2.0000      -0.395452       -10.7608
  25   2.0000      -0.382397       -10.4055
  26   2.0000      -0.327861        -8.9216
  27   2.0000      -0.325915        -8.8686
  28   2.0000      -0.303002        -8.2451
  29   0.0000      -0.007374        -0.2007
  30   0.0000       0.009352         0.2545
  31   0.0000       0.032727         0.8906
  32   0.0000       0.037585         1.0227
  33   0.0000       0.045583         1.2404

MULLIKEN ATOMIC CHARGES
-----------------------
   0 C :   -0.220843
   1 S :    1.478875
   2 F :   -0.389896
   3 O :   -0.682068
   4 O :   -0.695768
   5 C :    0.985215
   6 H :   -0.065034
   7 H :   -0.043846
   8 H :   -0.159990
   9 H :   -0.091632
  10 H :   -0.115013
Sum of atomic charges:   -0.0000000

LOEWDIN ATOMIC CHARGES
----------------------
   0 C :   -0.081230
   1 S :    1.137284
   2 F :   -0.256184
   3 O :   -0.483050
   4 O :   -0.480286
   5 C :    0.155228
   6 H :    0.017622
   7 H :    0.007108
   8 H :   -0.006837
   9 H :   -0.008131
  10 H :   -0.001524

  Mayer bond orders larger than 0.100000
B(  0-C ,  1-S ) :   0.9303 B(  0-C ,  5-C ) :   1.3417 B(  0-C ,  6-H ) :   0.9452
B(  0-C ,  7-H ) :   0.9134 B(  0-C ,  8-H ) :   0.2364 B(  0-C ,  9-H ) :   0.2253
B(  0-C , 10-H ) :   0.2053 B(  1-S ,  2-F ) :   0.7022 B(  1-S ,  3-O ) :   1.4911
B(  1-S ,  4-O ) :   1.4759 B(  5-C ,  7-H ) :   0.1066 B(  5-C ,  8-H ) :   0.6982
B(  5-C ,  9-H ) :   0.7638 B(  5-C , 10-H ) :   0.7788

Dispersion correction           -0.015710489
FINAL SINGLE POINT ENERGY      -727.064568208304

DIPOLE MOMENT
-------------
                                X             Y             Z
Electronic contribution:     -9.34949       3.53969      -1.86101
Nuclear contribution   :      9.80704      -5.24335       1.35017
                        -----------------------------------------
Total Dipole Moment    :      0.45755      -1.70366      -0.51084
                        -----------------------------------------
Magnitude (a.u.)       :      1.83651
Magnitude (Debye)      :      4.66804

Rotational constants in cm-1:     0.156316     0.078308     0.076228
Rotational constants in MHz :  4686.224999  2347.601204  2285.245115

                             ****ORCA TERMINATED NORMALLY****
TOTAL RUN TIME: 0 days 0 hours 0 minutes 21 seconds 768 msec
