                         Program Version 5.0.0 -  RELEASE  -
|  1> !B3LYP D3BJ RIJCOSX def2-SVPD def2/J TightSCF
|  2> *xyz 0 1
|  3> C         -4.38262       -1.67089        1.21620
|  4> C         -5.76354       -1.91517        0.70501
|  5> C         -3.28173       -2.19127        0.29436
|  6> H         -5.84081       -2.11520       -0.30065
|  7> H         -6.40882       -1.14866        0.93612
|  8> H         -6.17478       -2.79061        1.05143
|  9> H         -4.32862       -2.13922        2.19810
| 10> H         -4.26158       -0.59740        1.35725
| 11> H         -3.36057       -1.71407       -0.66008
| 12> H         -3.38775       -3.24919        0.17403
| 13> H         -2.32559       -1.97514        0.72329
| 14> *
| 15> %MaxCore 64000
| 16>
| 17> %pal nprocs 4
| 18> end
| 19>
| 20> %scf
| 21>   MaxIter 150
| 22> end
| 23>
| 24>                          ****END OF INPUT****

CARTESIAN COORDINATES (ANGSTROEM)
---------------------------------
  C     -4.382620   -1.670890    1.216200
  C     -5.763540   -1.915170    0.705010
  C     -3.281730   -2.191270    0.294360
  H     -5.840810   -2.115200   -0.300650
  H     -6.408820   -1.148660    0.936120
  H     -6.174780   -2.790610    1.051430
  H     -4.328620   -2.139220    2.198100
  H     -4.261580   -0.597400    1.357250
  H     -3.360570   -1.714070   -0.660080
  H     -3.387750   -3.249190    0.174030
  H     -2.325590   -1.975140    0.723290

 Total Charge           Charge          ....    0
 Multiplicity           Mult            ....    1
 Number of Electrons    NEL             ....   26
 Basis Dimension        Dim             ....  124

ORBITAL ENERGIES
----------------

  NO   OCC          E(Eh)            E(eV)
   0   2.0000     -10.170971      -276.7662
   1   2.0000     -10.163000      -276.5493
   2   2.0000     -10.145395      -276.0702
   3   2.0000      -0.780950       -21.2507
   4   2.0000      -0.685508       -18.6536
   5   2.0000      -0.584770       -15.9124
   6   2.0000      -0.462092       -12.5741
   7   2.0000      -0.441290       -12.0081
   8   2.0000      -0.410296       -11.1647
   9   2.0000      -0.385706       -10.4956
  10   2.0000      -0.341931        -9.3044
  11   2.0000      -0.334953        -9.1145
  12   2.0000      -0.322413        -8.7733
  13   0.0000       0.025124         0.6837
  14   0.0000       0.053895         1.4666
  15   0.0000       0.060142         1.6365
  16   0.0000       0.083208         2.2642
  17   0.0000       0.105984         2.8840

MULLIKEN ATOMIC CHARGES
-----------------------
   0 C :   -0.353283
   1 C :    1.144651
   2 C :    0.858474
   3 H :   -0.385390
   4 H :   -0.244934
   5 H :   -0.264459
   6 H :   -0.210677
   7 H :   -0.145273
   8 H :   -0.096013
   9 H :   -0.138856
  10 H :   -0.164241
Sum of atomic charges:   -0.0000000

LOEWDIN ATOMIC CHARGES
----------------------
   0 C :   -0.098042
   1 C :    0.124336
   2 C :    0.124378
   3 H :   -0.040982
   4 H :   -0.035261
   5 H :   -0.038580
   6 H :    0.015311
   7 H :    0.014576
   8 H :   -0.020044
   9 H :   -0.019945
  10 H :   -0.025748

  Mayer bond orders larger than 0.100000
B(  0-C ,  1-C ) :   1.2884 B(  0-C ,  2-C ) :   1.2735 B(  0-C ,  3-H ) :   0.1976
B(  0-C ,  4-H ) :   0.2148 B(  0-C ,  5-H ) :   0.2530 B(  0-C ,  6-H ) :   0.8816
B(  0-C ,  7-H ) :   0.8793 B(  0-C ,  8-H ) :   0.1838 B(  0-C ,  9-H ) :   0.1974
B(  0-C , 10-H ) :   0.2339 B(  1-C ,  3-H ) :   0.5538 B(  1-C ,  4-H ) :   0.6637
B(  1-C ,  5-H ) :   0.5281 B(  1-C ,  6-H ) :   0.1297 B(  2-C ,  8-H ) :   0.7908
B(  2-C ,  9-H ) :   0.7864 B(  2-C , 10-H ) :   0.7499 B(  3-H ,  5-H ) :   0.3428

Dispersion correction           -0.010011161
FINAL SINGLE POINT ENERGY      -118.960253188448

DIPOLE MOMENT
-------------
                                X             Y             Z
Electronic contribution:      0.18670       0.23870       0.33949
Nuclear contribution   :     -0.21528      -0.24783      -0.32864
                        -----------------------------------------
Total Dipole Moment    :     -0.02858      -0.00913       0.01084
                        -----------------------------------------
Magnitude (a.u.)       :      0.03190
Magnitude (Debye)      :      0.08109

Rotational constants in cm-1:     1.037566     0.286459     0.254172
Rotational constants in MHz : 31105.431429  8587.814531  7619.871198

                             ****ORCA TERMINATED NORMALLY****
TOTAL RUN TIME: 0 days 0 hours 0 minutes 12 seconds 724 msec
