                         Program Version 5.0.0 -  RELEASE  -
|  1> !B3LYP D3BJ RIJCOSX def2-SVPD def2/J TightSCF
|  2> *xyz 0 1
|  3> C         -5.57236       -5.80780       -0.81644
|  4> S         -6.90318       -4.61903       -0.52846
|  5> O         -8.11485       -5.25093       -0.95701
|  6> F         -6.53271       -3.42684       -1.31485
|  7> O         -6.86563       -4.29496        0.91412
|  8> C         -4.45780       -5.94187        0.22919
|  9> H         -5.17735       -5.54257       -1.79771
| 10> H         -6.07420       -6.76889       -0.92127
| 11> H         -3.75515       -6.68239       -0.09144
| 12> H         -4.88182       -6.23486        1.16689
| 13> H         -3.95908       -5.00189        0.34143
| 14> *
| 15> %MaxCore 64000
| 16>
| 17> %pal nprocs 4
| 18> end
| 19>
| 20> %scf
| 21>   MaxIter 150
| 22> end
| 23>
| 24>                          ****END OF INPUT****

CARTESIAN COORDINATES (ANGSTROEM)
---------------------------------
  C     -5.572360   -5.807800   -0.816440
  S     -6.903180   -4.619030   -0.528460
  O     -8.114850   -5.250930   -0.957010
  F     -6.532710   -3.426840   -1.314850
  O     -6.865630   -4.294960    0.914120
  C     -4.457800   -5.941870    0.229190
  H     -5.177350   -5.542570   -1.797710
  H     -6.074200   -6.768890   -0.921270
  H     -3.755150   -6.682390   -0.091440
  H     -4.881820   -6.234860    1.166890
  H     -3.959080   -5.001890    0.341430

 Total Charge           Charge          ....    0
 Multiplicity           Mult            ....    1
 Number of Electrons    NEL             ....   58
 Basis Dimension        Dim             ....  176

ORBITAL ENERGIES
----------------

  NO   OCC          E(Eh)            E(eV)
   0   2.0000     -89.138551     -2425.5833
   1   2.0000     -24.800416      -674.8536
   2   2.0000     -19.158518      -521.3298
   3   2.0000     -19.143918      -520.9325
   4   2.0000     -10.250254      -278.9236
   5   2.0000     -10.207659      -277.7645
   6   2.0000      -8.193085      -222.9452
   7   2.0000      -6.165948      -167.7840
   8   2.0000      -6.159796      -167.6166
   9   2.0000      -6.158505      -167.5814
  10   2.0000      -1.350575       -36.7510
  11   2.0000      -1.114681       -30.3320
  12   2.0000      -1.011359       -27.5205
  13   2.0000      -0.819994       -22.3132
  14   2.0000      -0.729002       -19.8372
  15   2.0000      -0.674703       -18.3596
  16   2.0000      -0.582419       -15.8484
  17   2.0000      -0.570932       -15.5358
  18   2.0000      -0.553893       -15.0722
  19   2.0000      -0.496051       -13.4982
  20   2.0000      -0.484744       -13.1906
  21   2.0000      -0.459315       -12.4986
  22   2.0000      -0.436896       -11.8886
  23   2.0000      -0.408086       -11.1046
  24   2.0000      -0.403326       -10.9750
  25   2.0000      -0.387050       -10.5322
  26   2.0000      -0.341509        -9.2929
  27   2.0000      -0.329307        -8.9609
  28   2.0000      -0.315529        -8.5860
  29   0.0000      -0.007496        -0.2040
  30   0.0000       0.013851         0.3769
  31   0.0000       0.030740         0.8365
  32   0.0000       0.038767         1.0549
  33   0.0000       0.045457         1.2370

MULLIKEN ATOMIC CHARGES
-----------------------
   0 C :   -0.221006
   1 S :    1.476079
   2 O :   -0.638764
   3 F :   -0.424255
   4 O :   -0.704660
   5 C :    1.011421
   6 H :   -0.065509
   7 H :   -0.045888
   8 H :   -0.161093
   9 H :   -0.092197
  10 H :   -0.134128
Sum of atomic charges:   -0.0000000

LOEWDIN ATOMIC CHARGES
----------------------
   0 C :   -0.075839
   1 S :    1.133822
   2 O :   -0.459553
   3 F :   -0.276578
   4 O :   -0.479445
   5 C :    0.148152
   6 H :    0.012395
   7 H :    0.019825
   8 H :   -0.008355
   9 H :   -0.006748
  10 H :   -0.007678

  Mayer bond orders larger than 0.100000
B(  0-C ,  1-S ) :   0.9395 B(  0-C ,  5-C ) :   1.3296 B(  0-C ,  6-H ) :   0.9180
B(  0-C ,  7-H ) :   0.9490 B(  0-C ,  8-H ) :   0.2390 B(  0-C ,  9-H ) :   0.2252
B(  0-C , 10-H ) :   0.2108 B(  1-S ,  2-O ) :   1.5552 B(  1-S ,  3-F ) :   0.6389
B(  1-S ,  4-O ) :   1.4816 B(  5-C ,  8-H ) :   0.6955 B(  5-C ,  9-H ) :   0.7666
B(  5-C , 10-H ) :   0.7707

Dispersion correction           -0.015687011
FINAL SINGLE POINT ENERGY      -727.083583097226

DIPOLE MOMENT
-------------
                                X             Y             Z
Electronic contribution:     -6.67767       6.63772      -2.48592
Nuclear contribution   :      8.15840      -7.14411       1.72305
                        -----------------------------------------
Total Dipole Moment    :      1.48073      -0.50639      -0.76287
                        -----------------------------------------
Magnitude (a.u.)       :      1.74096
Magnitude (Debye)      :      4.42518

Rotational constants in cm-1:     0.153926     0.078297     0.077402
Rotational constants in MHz :  4614.585804  2347.272644  2320.438903

                             ****ORCA TERMINATED NORMALLY****
TOTAL RUN TIME: 0 days 0 hours 0 minutes 21 seconds 22 msec
