                         Program Version 5.0.0 -  RELEASE  -
|  1> !B3LYP D3BJ RIJCOSX def2-SVPD def2/J TightSCF
|  2> *xyz 0 1
|  3> C         -5.57236       -5.80780       -0.81644
|  4> S         -6.90318       -4.61903       -0.52846
|  5> O         -8.11485       -5.25093       -0.95701
|  6> O         -6.53271       -3.42684       -1.31485
|  7> F         -6.86563       -4.29496        0.91412
|  8> C         -4.45780       -5.94187        0.22919
|  9> H         -5.17735       -5.54257       -1.79771
| 10> H         -6.07420       -6.76889       -0.92127
| 11> H         -3.75515       -6.68239       -0.09144
| 12> H         -4.88182       -6.23486        1.16689
| 13> H         -3.95908       -5.00189        0.34143
| 14> *
| 15> %MaxCore 64000
| 16>
| 17> %pal nprocs 4
| 18> end
| 19>
| 20> %scf
| 21>   MaxIter 150
| 22> end
| 23>
| 24>                          ****END OF INPUT****

CARTESIAN COORDINATES (ANGSTROEM)
---------------------------------
  C     -5.572360   -5.807800   -0.816440
  S     -6.903180   -4.619030   -0.528460
  O     -8.114850   -5.250930   -0.957010
  O     -6.532710   -3.426840   -1.314850
  F     -6.865630   -4.294960    0.914120
  C     -4.457800   -5.941870    0.229190
  H     -5.177350   -5.542570   -1.797710
  H     -6.074200   -6.768890   -0.921270
  H     -3.755150   -6.682390   -0.091440
  H     -4.881820   -6.234860    1.166890
  H     -3.959080   -5.001890    0.341430

 Total Charge           Charge          ....    0
 Multiplicity           Mult            ....    1
 Number of Electrons    NEL             ....   58
 Basis Dimension        Dim             ....  176

ORBITAL ENERGIES
----------------

  NO   OCC          E(Eh)            E(eV)
   0   2.0000     -89.138103     -2425.5711
   1   2.0000     -24.799409      -674.8262
   2   2.0000     -19.158279      -521.3233
   3   2.0000     -19.143182      -520.9125
   4   2.0000     -10.249537      -278.9041
   5   2.0000     -10.214789      -277.9585
   6   2.0000      -8.192645      -222.9332
   7   2.0000      -6.165564      -167.7735
   8   2.0000      -6.159406      -167.6060
   9   2.0000      -6.157982      -167.5672
  10   2.0000      -1.347803       -36.6756
  11   2.0000      -1.115315       -30.3493
  12   2.0000      -1.012090       -27.5404
  13   2.0000      -0.822663       -22.3858
  14   2.0000      -0.726249       -19.7622
  15   2.0000      -0.678972       -18.4758
  16   2.0000      -0.588011       -16.0006
  17   2.0000      -0.570099       -15.5132
  18   2.0000      -0.546323       -14.8662
  19   2.0000      -0.500417       -13.6170
  20   2.0000      -0.479098       -13.0369
  21   2.0000      -0.455713       -12.4006
  22   2.0000      -0.449631       -12.2351
  23   2.0000      -0.417080       -11.3493
  24   2.0000      -0.402389       -10.9496
  25   2.0000      -0.389872       -10.6090
  26   2.0000      -0.342010        -9.3066
  27   2.0000      -0.327870        -8.9218
  28   2.0000      -0.315123        -8.5749
  29   0.0000      -0.013861        -0.3772
  30   0.0000       0.025440         0.6923
  31   0.0000       0.034647         0.9428
  32   0.0000       0.039421         1.0727
  33   0.0000       0.043232         1.1764

MULLIKEN ATOMIC CHARGES
-----------------------
   0 C :   -0.198307
   1 S :    1.459966
   2 O :   -0.634707
   3 O :   -0.690963
   4 F :   -0.436399
   5 C :    0.993711
   6 H :   -0.061839
   7 H :   -0.040569
   8 H :   -0.151721
   9 H :   -0.112025
  10 H :   -0.127147
Sum of atomic charges:   -0.0000000

LOEWDIN ATOMIC CHARGES
----------------------
   0 C :   -0.069988
   1 S :    1.132552
   2 O :   -0.459188
   3 O :   -0.484313
   4 F :   -0.274935
   5 C :    0.142750
   6 H :    0.025798
   7 H :    0.014609
   8 H :   -0.007583
   9 H :   -0.012673
  10 H :   -0.007029

  Mayer bond orders larger than 0.100000
B(  0-C ,  1-S ) :   0.9456 B(  0-C ,  5-C ) :   1.3036 B(  0-C ,  6-H ) :   0.9386
B(  0-C ,  7-H ) :   0.9466 B(  0-C ,  8-H ) :   0.2404 B(  0-C ,  9-H ) :   0.2145
B(  0-C , 10-H ) :   0.1984 B(  1-S ,  2-O ) :   1.5514 B(  1-S ,  3-O ) :   1.4887
B(  1-S ,  4-F ) :   0.6398 B(  5-C ,  8-H ) :   0.6997 B(  5-C ,  9-H ) :   0.7661
B(  5-C , 10-H ) :   0.7793

Dispersion correction           -0.015613804
FINAL SINGLE POINT ENERGY      -727.083795285930

DIPOLE MOMENT
-------------
                                X             Y             Z
Electronic contribution:     -7.22329       5.13526       1.29343
Nuclear contribution   :      8.50531      -6.23950      -0.59960
                        -----------------------------------------
Total Dipole Moment    :      1.28202      -1.10424       0.69383
                        -----------------------------------------
Magnitude (a.u.)       :      1.82875
Magnitude (Debye)      :      4.64831

Rotational constants in cm-1:     0.152799     0.080212     0.076962
Rotational constants in MHz :  4580.804531  2404.707790  2307.252710

                             ****ORCA TERMINATED NORMALLY****
TOTAL RUN TIME: 0 days 0 hours 0 minutes 21 seconds 33 msec
