                         Program Version 5.0.0 -  RELEASE  -
|  1> !B3LYP D3BJ RIJCOSX def2-SVPD def2/J TightSCF xyzfile
|  2>
|  3> *xyzfile 0 1 D3.xyz
|  4>
|  5> %MaxCore 64000
|  6>
|  7> %pal nprocs 4
|  8> end
|  9>
| 10> %scf
| 11>   MaxIter 150
| 12> end
| 13>
| 14>
| 15>                          ****END OF INPUT****

CARTESIAN COORDINATES (ANGSTROEM)
---------------------------------
  C     -4.382623   -1.670889    1.216201
  C     -5.763539   -1.915170    0.705012
  C     -3.281728   -2.191272    0.294361
  C     -5.572364   -5.807798   -0.816445
  S     -6.903179   -4.619033   -0.528458
  H     -5.840812   -2.115205   -0.300646
  H     -6.408823   -1.148656    0.936124
  H     -6.174781   -2.790606    1.051433
  O     -8.114853   -5.250932   -0.957007
  O     -6.532715   -3.426838   -1.314848
  H     -4.328618   -2.139223    2.198103
  H     -4.261583   -0.597399    1.357248
  F     -6.865632   -4.294957    0.914118
  C     -3.474641   -3.605898   -0.259608
  H     -2.354548   -2.127602    0.871433
  H     -3.166611   -1.499693   -0.545037
  C     -3.827078   -4.661097    0.786174
  H     -2.560559   -3.889391   -0.788050
  H     -4.255932   -3.570040   -1.019300
  C     -4.457800   -5.941875    0.229195
  H     -5.177347   -5.542575   -1.797714
  H     -6.074202   -6.768894   -0.921272
  H     -4.530506   -4.253640    1.511979
  H     -2.933400   -4.932302    1.356825
  H     -3.681064   -6.562236   -0.229885
  H     -4.843942   -6.512728    1.075805

 Total Charge           Charge          ....    0
 Multiplicity           Mult            ....    1
 Number of Electrons    NEL             ....   98
 Basis Dimension        Dim             ....  356

ORBITAL ENERGIES
----------------

  NO   OCC          E(Eh)            E(eV)
   0   2.0000     -89.143756     -2425.7249
   1   2.0000     -24.804493      -674.9646
   2   2.0000     -19.162006      -521.4247
   3   2.0000     -19.145810      -520.9840
   4   2.0000     -10.248379      -278.8726
   5   2.0000     -10.217535      -278.0333
   6   2.0000     -10.193384      -277.3761
   7   2.0000     -10.178136      -276.9612
   8   2.0000     -10.171010      -276.7673
   9   2.0000     -10.161280      -276.5025
  10   2.0000     -10.114443      -275.2280
  11   2.0000      -8.197120      -223.0550
  12   2.0000      -6.170137      -167.8980
  13   2.0000      -6.163971      -167.7302
  14   2.0000      -6.162436      -167.6884
  15   2.0000      -1.357246       -36.9325
  16   2.0000      -1.120065       -30.4785
  17   2.0000      -1.019359       -27.7382
  18   2.0000      -0.837141       -22.7798
  19   2.0000      -0.797860       -21.7109
  20   2.0000      -0.752425       -20.4745
  21   2.0000      -0.728581       -19.8257
  22   2.0000      -0.694004       -18.8848
  23   2.0000      -0.653201       -17.7745
  24   2.0000      -0.620360       -16.8808
  25   2.0000      -0.587766       -15.9939
  26   2.0000      -0.581625       -15.8268
  27   2.0000      -0.551032       -14.9943
  28   2.0000      -0.545024       -14.8308
  29   2.0000      -0.498670       -13.5695
  30   2.0000      -0.491901       -13.3853
  31   2.0000      -0.479198       -13.0396
  32   2.0000      -0.462704       -12.5908
  33   2.0000      -0.452842       -12.3225
  34   2.0000      -0.447868       -12.1871
  35   2.0000      -0.428845       -11.6695
  36   2.0000      -0.406530       -11.0622
  37   2.0000      -0.397819       -10.8252
  38   2.0000      -0.391504       -10.6534
  39   2.0000      -0.390944       -10.6381
  40   2.0000      -0.363346        -9.8872
  41   2.0000      -0.356428        -9.6989
  42   2.0000      -0.349085        -9.4991
  43   2.0000      -0.336351        -9.1526
  44   2.0000      -0.333816        -9.0836
  45   2.0000      -0.325172        -8.8484
  46   2.0000      -0.308805        -8.4030
  47   2.0000      -0.305808        -8.3215
  48   2.0000      -0.289101        -7.8668
  49   0.0000      -0.011129        -0.3028
  50   0.0000       0.018062         0.4915
  51   0.0000       0.023675         0.6442
  52   0.0000       0.027265         0.7419
  53   0.0000       0.036863         1.0031

MULLIKEN ATOMIC CHARGES
-----------------------
   0 C :    0.151473
   1 C :    2.188270
   2 C :    0.628339
   3 C :    0.354440
   4 S :    1.488343
   5 H :   -0.449929
   6 H :   -0.489136
   7 H :   -1.023548
   8 O :   -0.699803
   9 O :   -0.664412
  10 H :    0.052388
  11 H :   -0.514291
  12 F :   -0.528808
  13 C :    0.300034
  14 H :   -0.152129
  15 H :   -0.023770
  16 C :    0.221138
  17 H :   -0.431952
  18 H :   -0.120277
  19 C :    0.664968
  20 H :    0.084408
  21 H :   -0.369592
  22 H :   -0.105049
  23 H :   -0.328156
  24 H :   -0.107744
  25 H :   -0.125206
Sum of atomic charges:    0.0000000

LOEWDIN ATOMIC CHARGES
----------------------
   0 C :   -0.038352
   1 C :    0.146286
   2 C :   -0.015465
   3 C :   -0.018012
   4 S :    1.172150
   5 H :   -0.097467
   6 H :   -0.019650
   7 H :   -0.111592
   8 O :   -0.442278
   9 O :   -0.459723
  10 H :    0.011054
  11 H :    0.014562
  12 F :   -0.273753
  13 C :   -0.003631
  14 H :    0.013531
  15 H :    0.024326
  16 C :   -0.007785
  17 H :    0.022784
  18 H :   -0.018082
  19 C :   -0.019642
  20 H :    0.028104
  21 H :    0.015004
  22 H :   -0.007520
  23 H :    0.029623
  24 H :    0.030694
  25 H :    0.024835

  Mayer bond orders larger than 0.100000
B(  0-C ,  1-C ) :   1.0445 B(  0-C ,  2-C ) :   1.1279 B(  0-C ,  5-H ) :   0.3478
B(  0-C ,  6-H ) :   0.1156 B(  0-C ,  7-H ) :   0.4180 B(  0-C , 10-H ) :   0.6545
B(  0-C , 11-H ) :   0.9286 B(  0-C , 14-H ) :   0.1911 B(  0-C , 15-H ) :   0.1865
B(  1-C ,  2-C ) :   0.1998 B(  1-C ,  5-H ) :  -0.2087 B(  1-C ,  6-H ) :   0.3637
B(  1-C ,  7-H ) :  -0.8823 B(  1-C , 10-H ) :   0.2320 B(  1-C , 17-H ) :   0.1286
B(  2-C ,  7-H ) :  -0.1022 B(  2-C , 10-H ) :   0.1438 B(  2-C , 13-C ) :   1.2510
B(  2-C , 14-H ) :   0.6991 B(  2-C , 15-H ) :   0.5922 B(  2-C , 17-H ) :   0.1134
B(  2-C , 18-H ) :   0.1300 B(  3-C ,  4-S ) :   0.9241 B(  3-C ,  8-O ) :   0.1047
B(  3-C , 16-C ) :   0.1024 B(  3-C , 19-C ) :   1.1776 B(  3-C , 20-H ) :   0.8384
B(  3-C , 21-H ) :   0.8373 B(  3-C , 24-H ) :   0.1543 B(  3-C , 25-H ) :   0.1361
B(  4-S ,  8-O ) :   1.5862 B(  4-S ,  9-O ) :   1.4202 B(  4-S , 12-F ) :   0.6005
B(  5-H ,  6-H ) :  -0.1176 B(  5-H ,  7-H ) :   1.0896 B(  5-H ,  9-O ) :   0.1835
B(  5-H , 11-H ) :   0.1709 B(  5-H , 17-H ) :  -0.1246 B(  5-H , 18-H ) :   0.1676
B(  6-H ,  7-H ) :   0.1207 B(  6-H , 11-H ) :  -0.1574 B(  6-H , 17-H ) :   0.1333
B(  6-H , 18-H ) :  -0.1630 B(  7-H , 10-H ) :  -0.1328 B(  7-H , 11-H ) :   0.1171
B(  7-H , 12-F ) :   0.1735 B(  7-H , 17-H ) :  -0.1358 B(  9-O , 12-F ) :   0.1213
B( 10-H , 11-H ) :  -0.2632 B( 10-H , 22-H ) :   0.1542 B( 11-H , 14-H ) :   0.1153
B( 13-C , 14-H ) :   0.1955 B( 13-C , 15-H ) :   0.2862 B( 13-C , 16-C ) :   1.1677
B( 13-C , 17-H ) :   0.7294 B( 13-C , 18-H ) :   0.7700 B( 13-C , 22-H ) :   0.1291
B( 13-C , 23-H ) :   0.1830 B( 14-H , 15-H ) :  -0.1299 B( 16-C , 17-H ) :   0.2013
B( 16-C , 18-H ) :   0.1951 B( 16-C , 19-C ) :   1.2385 B( 16-C , 22-H ) :   0.8265
B( 16-C , 23-H ) :   0.7422 B( 16-C , 24-H ) :   0.1608 B( 16-C , 25-H ) :   0.2868
B( 19-C , 21-H ) :   0.2287 B( 19-C , 24-H ) :   0.6837 B( 19-C , 25-H ) :   0.6039
B( 24-H , 25-H ) :  -0.1173

Dispersion correction           -0.050329783
FINAL SINGLE POINT ENERGY      -923.347522978517

DIPOLE MOMENT
-------------
                                X             Y             Z
Electronic contribution:    -16.49735      -6.87099      -3.45174
Nuclear contribution   :     17.63907       5.79106       3.97609
                        -----------------------------------------
Total Dipole Moment    :      1.14172      -1.07993       0.52435
                        -----------------------------------------
Magnitude (a.u.)       :      1.65672
Magnitude (Debye)      :      4.21104

Rotational constants in cm-1:     0.048663     0.025472     0.020259
Rotational constants in MHz :  1458.892793   763.621130   607.350055

                             ****ORCA TERMINATED NORMALLY****
TOTAL RUN TIME: 0 days 0 hours 1 minutes 42 seconds 827 msec
