                         Program Version 5.0.0 -  RELEASE  -
|  1> !M062X D3Zero RIJCOSX def2-SVP def2/J TightSCF
|  2> *xyz -1 1
|  3> C         -0.77894        0.17197        1.80496
|  4> C         -0.60249       -0.63071        0.49224
|  5> H          0.31389       -1.24035        0.60350
|  6> H         -0.36383        0.11332       -0.30117
|  7> O         -1.71206       -1.37684        0.20253
|  8> H         -1.65864        0.77733        1.73736
|  9> H          0.07466        0.79896        1.95712
| 10> H         -0.87474       -0.50584        2.62734
| 11> *
| 12> %MaxCore 64000
| 13>
| 14> %pal nprocs 4
| 15> end
| 16>
| 17> %scf
| 18>   MaxIter 150
| 19> end
| 20>
| 21>
| 22>                          ****END OF INPUT****

CARTESIAN COORDINATES (ANGSTROEM)
---------------------------------
  C     -0.778940    0.171970    1.804960
  C     -0.602490   -0.630710    0.492240
  H      0.313890   -1.240350    0.603500
  H     -0.363830    0.113320   -0.301170
  O     -1.712060   -1.376840    0.202530
  H     -1.658640    0.777330    1.737360
  H      0.074660    0.798960    1.957120
  H     -0.874740   -0.505840    2.627340

 Total Charge           Charge          ....   -1
 Multiplicity           Mult            ....    1
 Number of Electrons    NEL             ....   26
 Basis Dimension        Dim             ....   67

ORBITAL ENERGIES
----------------

  NO   OCC          E(Eh)            E(eV)
   0   2.0000     -19.239923      -523.5449
   1   2.0000     -10.340725      -281.3854
   2   2.0000     -10.326755      -281.0053
   3   2.0000      -0.737346       -20.0642
   4   2.0000      -0.590479       -16.0677
   5   2.0000      -0.427841       -11.6422
   6   2.0000      -0.301322        -8.1994
   7   2.0000      -0.276672        -7.5286
   8   2.0000      -0.215718        -5.8700
   9   2.0000      -0.202391        -5.5073
  10   2.0000      -0.137461        -3.7405
  11   2.0000       0.010003         0.2722
  12   2.0000       0.010652         0.2898
  13   0.0000       0.292008         7.9459
  14   0.0000       0.336793         9.1646
  15   0.0000       0.350235         9.5304
  16   0.0000       0.358541         9.7564
  17   0.0000       0.399595        10.8735

MULLIKEN ATOMIC CHARGES
-----------------------
   0 C :   -0.029885
   1 C :    0.242915
   2 H :   -0.150173
   3 H :   -0.154530
   4 O :   -0.745469
   5 H :   -0.035004
   6 H :   -0.091114
   7 H :   -0.036740
Sum of atomic charges:   -1.0000000

LOEWDIN ATOMIC CHARGES
----------------------
   0 C :   -0.119111
   1 C :    0.013573
   2 H :   -0.077188
   3 H :   -0.080027
   4 O :   -0.687953
   5 H :   -0.008915
   6 H :   -0.030522
   7 H :   -0.009856

  Mayer bond orders larger than 0.100000
B(  0-C ,  1-C ) :   0.9958 B(  0-C ,  5-H ) :   0.9654 B(  0-C ,  6-H ) :   0.9349
B(  0-C ,  7-H ) :   0.9670 B(  1-C ,  2-H ) :   0.8822 B(  1-C ,  3-H ) :   0.8806
B(  1-C ,  4-O ) :   1.4692

Dispersion correction           -0.000014817
FINAL SINGLE POINT ENERGY      -154.193693208082

DIPOLE MOMENT
-------------
                                X             Y             Z
Electronic contribution:     -1.84206      -1.99367      -1.53214
Nuclear contribution   :      2.47835       2.80827       2.30058
                        -----------------------------------------
Total Dipole Moment    :      0.63628       0.81461       0.76844
                        -----------------------------------------
Magnitude (a.u.)       :      1.28800
Magnitude (Debye)      :      3.27383

Rotational constants in cm-1:     1.255775     0.327783     0.287473
Rotational constants in MHz : 37647.186859  9826.677683  8618.224821

                             ****ORCA TERMINATED NORMALLY****
TOTAL RUN TIME: 0 days 0 hours 0 minutes 8 seconds 565 msec
