                         Program Version 5.0.0 -  RELEASE  -
|  1> !M062X D3Zero RIJCOSX def2-SVP def2/J TightSCF
|  2> *xyz 1 1
|  3> C         -2.12050        0.88520        1.78951
|  4> C         -0.77894        0.17197        1.80496
|  5> H         -2.32419        1.47265        2.68608
|  6> H         -2.18770        1.54127        0.91948
|  7> N         -3.17690       -0.15948        1.61070
|  8> H         -4.06474        0.23127        1.28675
|  9> H         -3.34407       -0.67151        2.48493
| 10> H         -2.71686       -0.78189        0.93588
| 11> H         -0.65708       -0.37837        0.89547
| 12> H         -0.74207       -0.50050        2.63642
| 13> H          0.00707        0.89251        1.89389
| 14> *
| 15> %MaxCore 64000
| 16>
| 17> %pal nprocs 4
| 18> end
| 19>
| 20> %scf
| 21>   MaxIter 150
| 22> end
| 23>
| 24>
| 25>                          ****END OF INPUT****

CARTESIAN COORDINATES (ANGSTROEM)
---------------------------------
  C     -2.120500    0.885200    1.789510
  C     -0.778940    0.171970    1.804960
  H     -2.324190    1.472650    2.686080
  H     -2.187700    1.541270    0.919480
  N     -3.176900   -0.159480    1.610700
  H     -4.064740    0.231270    1.286750
  H     -3.344070   -0.671510    2.484930
  H     -2.716860   -0.781890    0.935880
  H     -0.657080   -0.378370    0.895470
  H     -0.742070   -0.500500    2.636420
  H      0.007070    0.892510    1.893890

 Total Charge           Charge          ....    1
 Multiplicity           Mult            ....    1
 Number of Electrons    NEL             ....   26
 Basis Dimension        Dim             ....   82

ORBITAL ENERGIES
----------------

  NO   OCC          E(Eh)            E(eV)
   0   2.0000     -15.096882      -410.8070
   1   2.0000     -10.807119      -294.0767
   2   2.0000     -10.731276      -292.0129
   3   2.0000      -1.316011       -35.8105
   4   2.0000      -1.055894       -28.7323
   5   2.0000      -0.925844       -25.1935
   6   2.0000      -0.881055       -23.9747
   7   2.0000      -0.869929       -23.6720
   8   2.0000      -0.761331       -20.7169
   9   2.0000      -0.712709       -19.3938
  10   2.0000      -0.647952       -17.6317
  11   2.0000      -0.640468       -17.4280
  12   2.0000      -0.618990       -16.8436
  13   0.0000      -0.144867        -3.9420
  14   0.0000      -0.085301        -2.3212
  15   0.0000      -0.082313        -2.2399
  16   0.0000      -0.050501        -1.3742
  17   0.0000      -0.011480        -0.3124

MULLIKEN ATOMIC CHARGES
-----------------------
   0 C :   -0.081397
   1 C :   -0.104387
   2 H :    0.132537
   3 H :    0.125480
   4 N :   -0.046995
   5 H :    0.235250
   6 H :    0.230963
   7 H :    0.223982
   8 H :    0.080237
   9 H :    0.084427
  10 H :    0.119902
Sum of atomic charges:    1.0000000

LOEWDIN ATOMIC CHARGES
----------------------
   0 C :    0.055362
   1 C :   -0.047640
   2 H :    0.058428
   3 H :    0.057687
   4 N :    0.283764
   5 H :    0.148459
   6 H :    0.148498
   7 H :    0.144808
   8 H :    0.040501
   9 H :    0.042787
  10 H :    0.067347

  Mayer bond orders larger than 0.100000
B(  0-C ,  1-C ) :   1.0815 B(  0-C ,  2-H ) :   0.9508 B(  0-C ,  3-H ) :   0.9509
B(  0-C ,  4-N ) :   0.9090 B(  1-C ,  8-H ) :   0.9622 B(  1-C ,  9-H ) :   0.9726
B(  1-C , 10-H ) :   0.9573 B(  4-N ,  5-H ) :   0.9241 B(  4-N ,  6-H ) :   0.9288
B(  4-N ,  7-H ) :   0.9300

Dispersion correction           -0.000047288
FINAL SINGLE POINT ENERGY      -135.346343422291

DIPOLE MOMENT
-------------
                                X             Y             Z
Electronic contribution:     -1.86894      -0.17507      -0.06642
Nuclear contribution   :      0.50278      -0.30871      -0.06979
                        -----------------------------------------
Total Dipole Moment    :     -1.36616      -0.48378      -0.13621
                        -----------------------------------------
Magnitude (a.u.)       :      1.45567
Magnitude (Debye)      :      3.70003

Rotational constants in cm-1:     0.963746     0.295157     0.256910
Rotational constants in MHz : 28892.375247  8848.576767  7701.963879

                             ****ORCA TERMINATED NORMALLY****
TOTAL RUN TIME: 0 days 0 hours 0 minutes 9 seconds 715 msec
