                         Program Version 5.0.0 -  RELEASE  -
|  1> !M062X D3Zero RIJCOSX def2-SVP def2/J TightSCF
|  2> *xyz 0 1
|  3> C         -0.77894        0.17197        1.80496
|  4> C         -0.60249       -0.63071        0.49224
|  5> H          0.31389       -1.24035        0.60350
|  6> H         -0.36383        0.11332       -0.30117
|  7> F         -1.71206       -1.37684        0.20253
|  8> H         -1.65864        0.77733        1.73736
|  9> H          0.07466        0.79896        1.95712
| 10> H         -0.87474       -0.50584        2.62734
| 11> *
| 12> %MaxCore 64000
| 13>
| 14> %pal nprocs 4
| 15> end
| 16>
| 17> %scf
| 18>   MaxIter 150
| 19> end
| 20>
| 21>
| 22>                          ****END OF INPUT****

CARTESIAN COORDINATES (ANGSTROEM)
---------------------------------
  C     -0.778940    0.171970    1.804960
  C     -0.602490   -0.630710    0.492240
  H      0.313890   -1.240350    0.603500
  H     -0.363830    0.113320   -0.301170
  F     -1.712060   -1.376840    0.202530
  H     -1.658640    0.777330    1.737360
  H      0.074660    0.798960    1.957120
  H     -0.874740   -0.505840    2.627340

 Total Charge           Charge          ....    0
 Multiplicity           Mult            ....    1
 Number of Electrons    NEL             ....   26
 Basis Dimension        Dim             ....   67

ORBITAL ENERGIES
----------------

  NO   OCC          E(Eh)            E(eV)
   0   2.0000     -25.224543      -686.3947
   1   2.0000     -10.626334      -289.1572
   2   2.0000     -10.544355      -286.9265
   3   2.0000      -1.307200       -35.5707
   4   2.0000      -0.848447       -23.0874
   5   2.0000      -0.710244       -19.3267
   6   2.0000      -0.581687       -15.8285
   7   2.0000      -0.573651       -15.6098
   8   2.0000      -0.535413       -14.5693
   9   2.0000      -0.475028       -12.9262
  10   2.0000      -0.464218       -12.6320
  11   2.0000      -0.398125       -10.8335
  12   2.0000      -0.395489       -10.7618
  13   0.0000       0.103847         2.8258
  14   0.0000       0.150767         4.1026
  15   0.0000       0.158354         4.3090
  16   0.0000       0.177139         4.8202
  17   0.0000       0.193346         5.2612

MULLIKEN ATOMIC CHARGES
-----------------------
   0 C :   -0.119879
   1 C :    0.199479
   2 H :    0.031898
   3 H :    0.031648
   4 F :   -0.284682
   5 H :    0.051923
   6 H :    0.039139
   7 H :    0.050473
Sum of atomic charges:   -0.0000000

LOEWDIN ATOMIC CHARGES
----------------------
   0 C :   -0.080099
   1 C :    0.111991
   2 H :    0.012583
   3 H :    0.013154
   4 F :   -0.144319
   5 H :    0.028561
   6 H :    0.030921
   7 H :    0.027208

  Mayer bond orders larger than 0.100000
B(  0-C ,  1-C ) :   1.0877 B(  0-C ,  5-H ) :   0.9724 B(  0-C ,  6-H ) :   0.9651
B(  0-C ,  7-H ) :   0.9736 B(  1-C ,  2-H ) :   0.9614 B(  1-C ,  3-H ) :   0.9623
B(  1-C ,  4-F ) :   0.9677

Dispersion correction           -0.000018803
FINAL SINGLE POINT ENERGY      -178.833422945713

DIPOLE MOMENT
-------------
                                X             Y             Z
Electronic contribution:     -2.73661      -3.30319      -2.83871
Nuclear contribution   :      3.27800       3.70743       3.04146
                        -----------------------------------------
Total Dipole Moment    :      0.54139       0.40425       0.20275
                        -----------------------------------------
Magnitude (a.u.)       :      0.70543
Magnitude (Debye)      :      1.79306

Rotational constants in cm-1:     1.234437     0.305084     0.268865
Rotational constants in MHz : 37007.496448  9146.194083  8060.380630

                             ****ORCA TERMINATED NORMALLY****
TOTAL RUN TIME: 0 days 0 hours 0 minutes 8 seconds 174 msec
