                         Program Version 5.0.0 -  RELEASE  -
|  1> !M062X D3Zero RIJCOSX def2-SVP def2/J TightSCF
|  2> *xyz 0 1
|  3> C         -2.12050        0.88520        1.78951
|  4> C         -0.77894        0.17197        1.80496
|  5> H         -2.32419        1.47265        2.68608
|  6> H         -2.18770        1.54127        0.91948
|  7> C         -3.17690       -0.15948        1.61070
|  8> H         -4.06474        0.23127        1.28675
|  9> H         -3.34407       -0.67151        2.48493
| 10> H         -2.71686       -0.78189        0.93588
| 11> H         -0.65708       -0.37837        0.89547
| 12> H         -0.74207       -0.50050        2.63642
| 13> H          0.00707        0.89251        1.89389
| 14> *
| 15> %MaxCore 64000
| 16>
| 17> %pal nprocs 4
| 18> end
| 19>
| 20> %scf
| 21>   MaxIter 150
| 22> end
| 23>
| 24>
| 25>                          ****END OF INPUT****

CARTESIAN COORDINATES (ANGSTROEM)
---------------------------------
  C     -2.120500    0.885200    1.789510
  C     -0.778940    0.171970    1.804960
  H     -2.324190    1.472650    2.686080
  H     -2.187700    1.541270    0.919480
  C     -3.176900   -0.159480    1.610700
  H     -4.064740    0.231270    1.286750
  H     -3.344070   -0.671510    2.484930
  H     -2.716860   -0.781890    0.935880
  H     -0.657080   -0.378370    0.895470
  H     -0.742070   -0.500500    2.636420
  H      0.007070    0.892510    1.893890

 Total Charge           Charge          ....    0
 Multiplicity           Mult            ....    1
 Number of Electrons    NEL             ....   26
 Basis Dimension        Dim             ....   82

ORBITAL ENERGIES
----------------

  NO   OCC          E(Eh)            E(eV)
   0   2.0000     -10.534697      -286.6637
   1   2.0000     -10.529179      -286.5135
   2   2.0000     -10.510877      -286.0155
   3   2.0000      -0.885363       -24.0919
   4   2.0000      -0.768177       -20.9032
   5   2.0000      -0.660780       -17.9807
   6   2.0000      -0.540733       -14.7141
   7   2.0000      -0.520813       -14.1720
   8   2.0000      -0.463934       -12.6243
   9   2.0000      -0.448134       -12.1944
  10   2.0000      -0.399331       -10.8664
  11   2.0000      -0.390023       -10.6131
  12   2.0000      -0.386839       -10.5264
  13   0.0000       0.104183         2.8350
  14   0.0000       0.151102         4.1117
  15   0.0000       0.153431         4.1751
  16   0.0000       0.160218         4.3598
  17   0.0000       0.185103         5.0369

MULLIKEN ATOMIC CHARGES
-----------------------
   0 C :   -0.148965
   1 C :   -0.064144
   2 H :    0.035299
   3 H :    0.032108
   4 C :    0.017919
   5 H :    0.014697
   6 H :    0.012265
   7 H :    0.001547
   8 H :    0.034059
   9 H :    0.032268
  10 H :    0.032946
Sum of atomic charges:   -0.0000000

LOEWDIN ATOMIC CHARGES
----------------------
   0 C :   -0.046941
   1 C :   -0.058404
   2 H :    0.019710
   3 H :    0.021751
   4 C :   -0.045387
   5 H :    0.013517
   6 H :    0.014631
   7 H :    0.014868
   8 H :    0.021977
   9 H :    0.022434
  10 H :    0.021846

  Mayer bond orders larger than 0.100000
B(  0-C ,  1-C ) :   1.0916 B(  0-C ,  2-H ) :   0.9592 B(  0-C ,  3-H ) :   0.9588
B(  0-C ,  4-C ) :   1.0823 B(  1-C ,  8-H ) :   0.9730 B(  1-C ,  9-H ) :   0.9784
B(  1-C , 10-H ) :   0.9719 B(  4-C ,  5-H ) :   0.9693 B(  4-C ,  6-H ) :   0.9739
B(  4-C ,  7-H ) :   0.9780

Dispersion correction           -0.000046052
FINAL SINGLE POINT ENERGY      -118.951994046226

DIPOLE MOMENT
-------------
                                X             Y             Z
Electronic contribution:     -0.13856       0.45826       0.10950
Nuclear contribution   :      0.13334      -0.45108      -0.10852
                        -----------------------------------------
Total Dipole Moment    :     -0.00522       0.00717       0.00098
                        -----------------------------------------
Magnitude (a.u.)       :      0.00893
Magnitude (Debye)      :      0.02269

Rotational constants in cm-1:     0.972269     0.310387     0.269029
Rotational constants in MHz : 29147.878530  9305.178981  8065.286472

                             ****ORCA TERMINATED NORMALLY****
TOTAL RUN TIME: 0 days 0 hours 0 minutes 9 seconds 450 msec
