                         Program Version 5.0.0 -  RELEASE  -
|  1> !M062X D3Zero RIJCOSX def2-TZVP def2/J TightSCF xyzfile
|  2>
|  3> *xyzfile 0 1 D.xyz
|  4>
|  5> %MaxCore 64000
|  6>
|  7> %pal nprocs 18
|  8> end
|  9>
| 10> %scf
| 11>   MaxIter 150
| 12> end
| 13>
| 14>
| 15>                          ****END OF INPUT****

CARTESIAN COORDINATES (ANGSTROEM)
---------------------------------
  C     -2.120502    0.885196    1.789506
  C     -0.778939    0.171966    1.804965
  H     -2.324193    1.472649    2.686078
  H     -2.187698    1.541272    0.919482
  C     -3.176900   -0.159484    1.610700
  H      0.015695    0.910767    1.939153
  H     -0.743553   -0.506827    2.665420
  C     -0.602493   -0.630712    0.492240
  H      0.313894   -1.240346    0.603498
  H     -0.363829    0.113322   -0.301169
  F     -1.712061   -1.376836    0.202535
  H     -4.064736    0.231272    1.286754
  H     -3.344073   -0.671511    2.484928
  H     -2.716861   -0.781886    0.935880

 Total Charge           Charge          ....    0
 Multiplicity           Mult            ....    1
 Number of Electrons    NEL             ....   42
 Basis Dimension        Dim             ....  209

ORBITAL ENERGIES
----------------

  NO   OCC          E(Eh)            E(eV)
   0   2.0000     -25.250382      -687.0978
   1   2.0000     -10.622979      -289.0660
   2   2.0000     -10.538445      -286.7657
   3   2.0000     -10.517994      -286.2092
   4   2.0000     -10.456471      -284.5350
   5   2.0000      -1.376551       -37.4579
   6   2.0000      -0.906821       -24.6759
   7   2.0000      -0.832348       -22.6493
   8   2.0000      -0.728112       -19.8129
   9   2.0000      -0.679339       -18.4858
  10   2.0000      -0.618597       -16.8329
  11   2.0000      -0.608534       -16.5590
  12   2.0000      -0.574845       -15.6423
  13   2.0000      -0.510442       -13.8898
  14   2.0000      -0.488702       -13.2983
  15   2.0000      -0.476184       -12.9576
  16   2.0000      -0.442397       -12.0382
  17   2.0000      -0.412981       -11.2378
  18   2.0000      -0.386340       -10.5128
  19   2.0000      -0.383773       -10.4430
  20   2.0000      -0.339997        -9.2518
  21   0.0000       0.068585         1.8663
  22   0.0000       0.100762         2.7419
  23   0.0000       0.106115         2.8875
  24   0.0000       0.119545         3.2530
  25   0.0000       0.135614         3.6902

MULLIKEN ATOMIC CHARGES
-----------------------
   0 C :   -0.249489
   1 C :   -0.312448
   2 H :    0.123360
   3 H :    0.127569
   4 C :   -0.456692
   5 H :    0.143296
   6 H :    0.146562
   7 C :   -0.019428
   8 H :    0.126668
   9 H :    0.121428
  10 F :   -0.187063
  11 H :    0.114005
  12 H :    0.122497
  13 H :    0.199734
Sum of atomic charges:    0.0000000

LOEWDIN ATOMIC CHARGES
----------------------
   0 C :   -0.306557
   1 C :   -0.279455
   2 H :    0.129114
   3 H :    0.136512
   4 C :   -0.317131
   5 H :    0.140865
   6 H :    0.139752
   7 C :   -0.329494
   8 H :    0.124223
   9 H :    0.126785
  10 F :    0.152073
  11 H :    0.099682
  12 H :    0.103086
  13 H :    0.080545

  Mayer bond orders larger than 0.100000
B(  0-C ,  1-C ) :   0.9250 B(  0-C ,  2-H ) :   0.9764 B(  0-C ,  3-H ) :   0.9868
B(  0-C ,  4-C ) :   0.9061 B(  1-C ,  5-H ) :   0.9667 B(  1-C ,  6-H ) :   0.9738
B(  1-C ,  7-C ) :   0.9665 B(  4-C , 11-H ) :   0.9829 B(  4-C , 12-H ) :   0.9845
B(  4-C , 13-H ) :   0.9496 B(  7-C ,  8-H ) :   0.9742 B(  7-C ,  9-H ) :   0.9776
B(  7-C , 10-F ) :   0.9347

Dispersion correction           -0.000156662
FINAL SINGLE POINT ENERGY      -257.604031157440

DIPOLE MOMENT
-------------
                                X             Y             Z
Electronic contribution:      0.89631      -4.19259      -3.73349
Nuclear contribution   :     -0.20666       4.43855       3.76066
                        -----------------------------------------
Total Dipole Moment    :      0.68965       0.24596       0.02717
                        -----------------------------------------
Magnitude (a.u.)       :      0.73270
Magnitude (Debye)      :      1.86237

Rotational constants in cm-1:     0.236353     0.155239     0.105045
Rotational constants in MHz :  7085.692869  4653.957069  3149.180346

                             ****ORCA TERMINATED NORMALLY****
TOTAL RUN TIME: 0 days 0 hours 0 minutes 13 seconds 525 msec
