                         Program Version 5.0.0 -  RELEASE  -
|  1> !B3LYP D3BJ RIJCOSX def2-SVPD def2/J TightSCF
|  2> *xyz -1 1
|  3> C         -1.91658       -2.48508       -3.64367
|  4> C         -1.36353       -1.98134       -2.29361
|  5> O         -0.35039       -2.74969       -1.79601
|  6> H         -2.22622       -1.90839       -1.60204
|  7> H         -1.05135       -0.91567       -2.44333
|  8> H         -1.11522       -2.57167       -4.34739
|  9> H         -2.64227       -1.79099       -4.01314
| 10> H         -2.37564       -3.44180       -3.50640
| 11> *
| 12>
| 13> %MaxCore 64000
| 14> %pal nprocs 4
| 15> end
| 16>
| 17> %scf
| 18>   MaxIter 150
| 19> end
| 20>
| 21>
| 22>                          ****END OF INPUT****

CARTESIAN COORDINATES (ANGSTROEM)
---------------------------------
  C     -1.916580   -2.485080   -3.643670
  C     -1.363530   -1.981340   -2.293610
  O     -0.350390   -2.749690   -1.796010
  H     -2.226220   -1.908390   -1.602040
  H     -1.051350   -0.915670   -2.443330
  H     -1.115220   -2.571670   -4.347390
  H     -2.642270   -1.790990   -4.013140
  H     -2.375640   -3.441800   -3.506400

 Total Charge           Charge          ....   -1
 Multiplicity           Mult            ....    1
 Number of Electrons    NEL             ....   26
 Basis Dimension        Dim             ....  103

ORBITAL ENERGIES
----------------

  NO   OCC          E(Eh)            E(eV)
   0   2.0000     -18.810051      -511.8475
   1   2.0000      -9.999513      -272.1006
   2   2.0000      -9.976175      -271.4655
   3   2.0000      -0.671531       -18.2733
   4   2.0000      -0.519065       -14.1245
   5   2.0000      -0.366357        -9.9691
   6   2.0000      -0.249350        -6.7852
   7   2.0000      -0.227851        -6.2001
   8   2.0000      -0.174262        -4.7419
   9   2.0000      -0.157302        -4.2804
  10   2.0000      -0.114768        -3.1230
  11   2.0000       0.028072         0.7639
  12   2.0000       0.030965         0.8426
  13   0.0000       0.178014         4.8440
  14   0.0000       0.208407         5.6710
  15   0.0000       0.241555         6.5730
  16   0.0000       0.254308         6.9201
  17   0.0000       0.273431         7.4404

MULLIKEN ATOMIC CHARGES
-----------------------
   0 C :    0.486635
   1 C :    0.272378
   2 O :   -0.875305
   3 H :   -0.240810
   4 H :   -0.206394
   5 H :   -0.161569
   6 H :   -0.121869
   7 H :   -0.153066
Sum of atomic charges:   -1.0000000

LOEWDIN ATOMIC CHARGES
----------------------
   0 C :    0.071520
   1 C :   -0.257671
   2 O :   -0.572394
   3 H :   -0.041441
   4 H :   -0.037027
   5 H :   -0.047586
   6 H :   -0.066304
   7 H :   -0.049097

  Mayer bond orders larger than 0.100000
B(  0-C ,  1-C ) :   1.1604 B(  0-C ,  2-O ) :   0.2000 B(  0-C ,  3-H ) :   0.1490
B(  0-C ,  4-H ) :   0.1446 B(  0-C ,  5-H ) :   0.8783 B(  0-C ,  6-H ) :   0.8826
B(  0-C ,  7-H ) :   0.8760 B(  1-C ,  2-O ) :   1.1400 B(  1-C ,  3-H ) :   0.9540
B(  1-C ,  4-H ) :   0.9539 B(  1-C ,  5-H ) :   0.2030 B(  1-C ,  6-H ) :   0.1462
B(  1-C ,  7-H ) :   0.1894 B(  3-H ,  4-H ) :   0.1036

Dispersion correction           -0.006227196
FINAL SINGLE POINT ENERGY      -154.237131558612

DIPOLE MOMENT
-------------
                                X             Y             Z
Electronic contribution:      2.04210      -0.86683       1.84044
Nuclear contribution   :     -3.14382       1.30299      -2.83231
                        -----------------------------------------
Total Dipole Moment    :     -1.10172       0.43616      -0.99186
                        -----------------------------------------
Magnitude (a.u.)       :      1.54525
Magnitude (Debye)      :      3.92773

Rotational constants in cm-1:     1.288206     0.322942     0.285188
Rotational constants in MHz : 38619.437223  9681.562038  8549.712012

                             ****ORCA TERMINATED NORMALLY****
TOTAL RUN TIME: 0 days 0 hours 0 minutes 9 seconds 794 msec
