                         Program Version 5.0.0 -  RELEASE  -
|  1> !B3LYP D3BJ RIJCOSX def2-SVPD def2/J TightSCF
|  2> *xyz 1 1
|  3> C          1.64703       -2.34528       -5.02041
|  4> C          2.20996       -2.81239       -3.66571
|  5> C          2.48901       -1.66851       -2.73754
|  6> N          3.59631       -0.94761       -2.95225
|  7> N          1.66394       -1.41369       -1.77781
|  8> H          0.81164       -1.96318       -1.70275
|  9> H          1.84550       -0.63508       -1.15875
| 10> H          4.20535       -1.17600       -3.73383
| 11> H          3.81723       -0.12585       -2.40604
| 12> H          3.14311       -3.36280       -3.81152
| 13> H          1.48768       -3.45893       -3.16521
| 14> H          1.46566       -3.19589       -5.64368
| 15> H          2.35406       -1.69850       -5.49654
| 16> H          0.73014       -1.81680       -4.86253
| 17> *
| 18>
| 19> %MaxCore 64000
| 20> %pal nprocs 4
| 21> end
| 22>
| 23> %scf
| 24>   MaxIter 150
| 25> end
| 26>
| 27>
| 28>                          ****END OF INPUT****

CARTESIAN COORDINATES (ANGSTROEM)
---------------------------------
  C      1.647030   -2.345280   -5.020410
  C      2.209960   -2.812390   -3.665710
  C      2.489010   -1.668510   -2.737540
  N      3.596310   -0.947610   -2.952250
  N      1.663940   -1.413690   -1.777810
  H      0.811640   -1.963180   -1.702750
  H      1.845500   -0.635080   -1.158750
  H      4.205350   -1.176000   -3.733830
  H      3.817230   -0.125850   -2.406040
  H      3.143110   -3.362800   -3.811520
  H      1.487680   -3.458930   -3.165210
  H      1.465660   -3.195890   -5.643680
  H      2.354060   -1.698500   -5.496540
  H      0.730140   -1.816800   -4.862530

 Total Charge           Charge          ....    1
 Multiplicity           Mult            ....    1
 Number of Electrons    NEL             ....   40
 Basis Dimension        Dim             ....  172

ORBITAL ENERGIES
----------------

  NO   OCC          E(Eh)            E(eV)
   0   2.0000     -14.582908      -396.8211
   1   2.0000     -14.573593      -396.5676
   2   2.0000     -10.505350      -285.8651
   3   2.0000     -10.382597      -282.5248
   4   2.0000     -10.340350      -281.3752
   5   2.0000      -1.197920       -32.5971
   6   2.0000      -1.102476       -29.9999
   7   2.0000      -0.962468       -26.1901
   8   2.0000      -0.857155       -23.3244
   9   2.0000      -0.816192       -22.2097
  10   2.0000      -0.778403       -21.1814
  11   2.0000      -0.750376       -20.4188
  12   2.0000      -0.707766       -19.2593
  13   2.0000      -0.649285       -17.6679
  14   2.0000      -0.623426       -16.9643
  15   2.0000      -0.614609       -16.7244
  16   2.0000      -0.546300       -14.8656
  17   2.0000      -0.537244       -14.6192
  18   2.0000      -0.531918       -14.4742
  19   2.0000      -0.494969       -13.4688
  20   0.0000      -0.212433        -5.7806
  21   0.0000      -0.163998        -4.4626
  22   0.0000      -0.119802        -3.2600
  23   0.0000      -0.118036        -3.2119
  24   0.0000      -0.087510        -2.3813

MULLIKEN ATOMIC CHARGES
-----------------------
   0 C :    0.857966
   1 C :   -0.128937
   2 C :    0.583229
   3 N :    0.168503
   4 N :    0.226925
   5 H :    0.014297
   6 H :   -0.141245
   7 H :    0.000109
   8 H :   -0.182689
   9 H :   -0.057559
  10 H :   -0.075816
  11 H :   -0.057249
  12 H :   -0.095544
  13 H :   -0.111988
Sum of atomic charges:    1.0000000

LOEWDIN ATOMIC CHARGES
----------------------
   0 C :    0.181283
   1 C :    0.017659
   2 C :   -0.050905
   3 N :    0.288117
   4 N :    0.292111
   5 H :    0.060701
   6 H :    0.052983
   7 H :    0.050107
   8 H :    0.040771
   9 H :    0.045642
  10 H :    0.033270
  11 H :    0.005148
  12 H :   -0.012202
  13 H :   -0.004684

  Mayer bond orders larger than 0.100000
B(  0-C ,  1-C ) :   1.2585 B(  0-C , 11-H ) :   0.8122 B(  0-C , 12-H ) :   0.7530
B(  0-C , 13-H ) :   0.8055 B(  1-C ,  2-C ) :   1.1418 B(  1-C ,  3-N ) :   0.1003
B(  1-C ,  9-H ) :   0.8674 B(  1-C , 10-H ) :   0.8651 B(  1-C , 11-H ) :   0.1686
B(  1-C , 12-H ) :   0.2092 B(  1-C , 13-H ) :   0.1790 B(  2-C ,  3-N ) :   1.1312
B(  2-C ,  4-N ) :   1.1743 B(  2-C ,  6-H ) :  -0.1545 B(  2-C ,  8-H ) :  -0.1697
B(  2-C , 10-H ) :   0.1670 B(  3-N ,  4-N ) :   0.1524 B(  3-N ,  7-H ) :   1.1088
B(  3-N ,  8-H ) :   1.2826 B(  4-N ,  5-H ) :   1.0976 B(  4-N ,  6-H ) :   1.2787
B(  5-H ,  6-H ) :  -0.1633 B(  7-H ,  8-H ) :  -0.1752

Dispersion correction           -0.016679363
FINAL SINGLE POINT ENERGY      -228.751914224027

DIPOLE MOMENT
-------------
                                X             Y             Z
Electronic contribution:      1.19552       1.65450       3.62429
Nuclear contribution   :     -0.98617      -1.03178      -2.77619
                        -----------------------------------------
Total Dipole Moment    :      0.20935       0.62273       0.84811
                        -----------------------------------------
Magnitude (a.u.)       :      1.07280
Magnitude (Debye)      :      2.72684

Rotational constants in cm-1:     0.257311     0.127495     0.099037
Rotational constants in MHz :  7713.982239  3822.189706  2969.039713

                             ****ORCA TERMINATED NORMALLY****
TOTAL RUN TIME: 0 days 0 hours 0 minutes 19 seconds 840 msec
