                         Program Version 5.0.0 -  RELEASE  -
|  1> !B3LYP D3BJ RIJCOSX def2-SVPD def2/J TightSCF
|  2> *xyz 0 1
|  3> C         -1.91658       -2.48508       -3.64367
|  4> C         -1.36353       -1.98134       -2.29361
|  5> F         -0.35039       -2.74969       -1.79601
|  6> H         -2.22622       -1.90839       -1.60204
|  7> H         -1.05135       -0.91567       -2.44333
|  8> H         -1.11522       -2.57167       -4.34739
|  9> H         -2.64227       -1.79099       -4.01314
| 10> H         -2.37564       -3.44180       -3.50640
| 11> *
| 12>
| 13> %MaxCore 64000
| 14> %pal nprocs 4
| 15> end
| 16>
| 17> %scf
| 18>   MaxIter 150
| 19> end
| 20>
| 21>
| 22>                          ****END OF INPUT****

CARTESIAN COORDINATES (ANGSTROEM)
---------------------------------
  C     -1.916580   -2.485080   -3.643670
  C     -1.363530   -1.981340   -2.293610
  F     -0.350390   -2.749690   -1.796010
  H     -2.226220   -1.908390   -1.602040
  H     -1.051350   -0.915670   -2.443330
  H     -1.115220   -2.571670   -4.347390
  H     -2.642270   -1.790990   -4.013140
  H     -2.375640   -3.441800   -3.506400

 Total Charge           Charge          ....    0
 Multiplicity           Mult            ....    1
 Number of Electrons    NEL             ....   26
 Basis Dimension        Dim             ....  103

ORBITAL ENERGIES
----------------

  NO   OCC          E(Eh)            E(eV)
   0   2.0000     -24.687974      -671.7939
   1   2.0000     -10.266278      -279.3596
   2   2.0000     -10.182053      -277.0677
   3   2.0000      -1.187199       -32.3053
   4   2.0000      -0.757660       -20.6170
   5   2.0000      -0.627885       -17.0856
   6   2.0000      -0.513364       -13.9693
   7   2.0000      -0.497188       -13.5292
   8   2.0000      -0.462568       -12.5871
   9   2.0000      -0.408648       -11.1199
  10   2.0000      -0.404048       -10.9947
  11   2.0000      -0.339747        -9.2450
  12   2.0000      -0.333009        -9.0616
  13   0.0000       0.020659         0.5622
  14   0.0000       0.052145         1.4189
  15   0.0000       0.072950         1.9851
  16   0.0000       0.079117         2.1529
  17   0.0000       0.105250         2.8640

MULLIKEN ATOMIC CHARGES
-----------------------
   0 C :    0.553054
   1 C :    0.544331
   2 F :   -0.441184
   3 H :   -0.148665
   4 H :   -0.115265
   5 H :   -0.145117
   6 H :   -0.112929
   7 H :   -0.134226
Sum of atomic charges:   -0.0000000

LOEWDIN ATOMIC CHARGES
----------------------
   0 C :    0.146290
   1 C :    0.065449
   2 F :   -0.213219
   3 H :    0.025037
   4 H :    0.031330
   5 H :   -0.018435
   6 H :   -0.017061
   7 H :   -0.019390

  Mayer bond orders larger than 0.100000
B(  0-C ,  1-C ) :   1.3231 B(  0-C ,  5-H ) :   0.8564 B(  0-C ,  6-H ) :   0.8270
B(  0-C ,  7-H ) :   0.8562 B(  1-C ,  2-F ) :   0.7539 B(  1-C ,  3-H ) :   0.9153
B(  1-C ,  4-H ) :   0.9145 B(  1-C ,  5-H ) :   0.1592 B(  1-C ,  6-H ) :   0.1358
B(  1-C ,  7-H ) :   0.1497

Dispersion correction           -0.005734777
FINAL SINGLE POINT ENERGY      -178.847336397964

DIPOLE MOMENT
-------------
                                X             Y             Z
Electronic contribution:      3.60303      -1.34691       3.41786
Nuclear contribution   :     -4.15401       1.70894      -3.75000
                        -----------------------------------------
Total Dipole Moment    :     -0.55099       0.36203      -0.33214
                        -----------------------------------------
Magnitude (a.u.)       :      0.73822
Magnitude (Debye)      :      1.87640

Rotational constants in cm-1:     1.266842     0.300492     0.266603
Rotational constants in MHz : 37978.968232  9008.526876  7992.551454

                             ****ORCA TERMINATED NORMALLY****
TOTAL RUN TIME: 0 days 0 hours 0 minutes 9 seconds 573 msec
