                         Program Version 5.0.0 -  RELEASE  -
|  1> !B3LYP D3BJ RIJCOSX def2-SVPD def2/J TightSCF
|  2> *xyz 0 1
|  3> C          1.64703       -2.34528       -5.02041
|  4> C          2.20996       -2.81239       -3.66571
|  5> C          2.48901       -1.66851       -2.73754
|  6> C          3.59631       -0.94761       -2.95225
|  7> N          1.66394       -1.41369       -1.77781
|  8> H          0.81164       -1.96318       -1.70275
|  9> H          1.84550       -0.63508       -1.15875
| 10> H          4.20535       -1.17600       -3.73383
| 11> H          3.81723       -0.12585       -2.40604
| 12> H          3.14311       -3.36280       -3.81152
| 13> H          1.48768       -3.45893       -3.16521
| 14> H          1.46566       -3.19589       -5.64368
| 15> H          2.35406       -1.69850       -5.49654
| 16> H          0.73014       -1.81680       -4.86253
| 17> *
| 18>
| 19> %MaxCore 64000
| 20> %pal nprocs 4
| 21> end
| 22>
| 23> %scf
| 24>   MaxIter 150
| 25> end
| 26>
| 27>
| 28>                          ****END OF INPUT****

CARTESIAN COORDINATES (ANGSTROEM)
---------------------------------
  C      1.647030   -2.345280   -5.020410
  C      2.209960   -2.812390   -3.665710
  C      2.489010   -1.668510   -2.737540
  C      3.596310   -0.947610   -2.952250
  N      1.663940   -1.413690   -1.777810
  H      0.811640   -1.963180   -1.702750
  H      1.845500   -0.635080   -1.158750
  H      4.205350   -1.176000   -3.733830
  H      3.817230   -0.125850   -2.406040
  H      3.143110   -3.362800   -3.811520
  H      1.487680   -3.458930   -3.165210
  H      1.465660   -3.195890   -5.643680
  H      2.354060   -1.698500   -5.496540
  H      0.730140   -1.816800   -4.862530

 Total Charge           Charge          ....    0
 Multiplicity           Mult            ....    1
 Number of Electrons    NEL             ....   40
 Basis Dimension        Dim             ....  172

ORBITAL ENERGIES
----------------

  NO   OCC          E(Eh)            E(eV)
   0   2.0000     -14.336535      -390.1170
   1   2.0000     -10.201563      -277.5986
   2   2.0000     -10.182757      -277.0869
   3   2.0000     -10.168384      -276.6958
   4   2.0000     -10.113156      -275.1930
   5   2.0000      -0.931387       -25.3443
   6   2.0000      -0.771632       -20.9972
   7   2.0000      -0.701674       -19.0935
   8   2.0000      -0.633498       -17.2383
   9   2.0000      -0.567109       -15.4318
  10   2.0000      -0.532270       -14.4838
  11   2.0000      -0.479198       -13.0396
  12   2.0000      -0.441684       -12.0188
  13   2.0000      -0.412084       -11.2134
  14   2.0000      -0.394543       -10.7361
  15   2.0000      -0.381574       -10.3832
  16   2.0000      -0.352359        -9.5882
  17   2.0000      -0.336030        -9.1438
  18   2.0000      -0.335375        -9.1260
  19   2.0000      -0.184288        -5.0147
  20   0.0000       0.013359         0.3635
  21   0.0000       0.039075         1.0633
  22   0.0000       0.050512         1.3745
  23   0.0000       0.055616         1.5134
  24   0.0000       0.067148         1.8272

MULLIKEN ATOMIC CHARGES
-----------------------
   0 C :    0.831974
   1 C :    0.074384
   2 C :   -0.101529
   3 C :    0.638385
   4 N :    0.335855
   5 H :   -0.142432
   6 H :   -0.185086
   7 H :   -0.266635
   8 H :   -0.605787
   9 H :   -0.029203
  10 H :   -0.181924
  11 H :   -0.085988
  12 H :   -0.135151
  13 H :   -0.146864
Sum of atomic charges:    0.0000000

LOEWDIN ATOMIC CHARGES
----------------------
   0 C :    0.143883
   1 C :   -0.024630
   2 C :   -0.268388
   3 C :    0.181256
   4 N :    0.174474
   5 H :    0.005560
   6 H :    0.013215
   7 H :   -0.087325
   8 H :   -0.099080
   9 H :    0.023951
  10 H :    0.006073
  11 H :   -0.024764
  12 H :   -0.023522
  13 H :   -0.020702

  Mayer bond orders larger than 0.100000
B(  0-C ,  1-C ) :   1.2605 B(  0-C , 10-H ) :   0.1077 B(  0-C , 11-H ) :   0.7819
B(  0-C , 12-H ) :   0.8036 B(  0-C , 13-H ) :   0.7990 B(  1-C ,  2-C ) :   1.0974
B(  1-C ,  3-C ) :   0.1881 B(  1-C ,  4-N ) :   0.1084 B(  1-C ,  9-H ) :   0.8140
B(  1-C , 10-H ) :   0.7768 B(  1-C , 11-H ) :   0.1717 B(  1-C , 12-H ) :   0.2125
B(  1-C , 13-H ) :   0.2065 B(  2-C ,  3-C ) :   1.6657 B(  2-C ,  4-N ) :   1.2685
B(  2-C ,  8-H ) :   0.1822 B(  2-C ,  9-H ) :   0.1349 B(  2-C , 10-H ) :   0.2109
B(  3-C ,  4-N ) :   0.2509 B(  3-C ,  7-H ) :   0.7856 B(  3-C ,  8-H ) :   0.6806
B(  4-N ,  5-H ) :   1.0865 B(  4-N ,  6-H ) :   1.2368 B(  5-H ,  6-H ) :  -0.1439

Dispersion correction           -0.017439377
FINAL SINGLE POINT ENERGY      -212.293480750566

DIPOLE MOMENT
-------------
                                X             Y             Z
Electronic contribution:     -0.04082       0.66255       3.02967
Nuclear contribution   :     -0.69146      -0.83112      -2.71336
                        -----------------------------------------
Total Dipole Moment    :     -0.73229      -0.16857       0.31631
                        -----------------------------------------
Magnitude (a.u.)       :      0.81530
Magnitude (Debye)      :      2.07232

Rotational constants in cm-1:     0.270661     0.129240     0.102040
Rotational constants in MHz :  8114.202941  3874.518141  3059.074383

                             ****ORCA TERMINATED NORMALLY****
TOTAL RUN TIME: 0 days 0 hours 0 minutes 21 seconds 305 msec
