                         Program Version 5.0.0 -  RELEASE  -
|  1> !B3LYP D3BJ RIJCOSX def2-SVPD def2/J TightSCF
|  2> *xyz 0 1
|  3> C          1.64703       -2.34528       -5.02041
|  4> C          2.20996       -2.81239       -3.66571
|  5> C          2.48901       -1.66851       -2.73754
|  6> N          3.59631       -0.94761       -2.95225
|  7> C          1.66394       -1.41369       -1.77781
|  8> H          0.81164       -1.96318       -1.70275
|  9> H          1.84550       -0.63508       -1.15875
| 10> H          4.20535       -1.17600       -3.73383
| 11> H          3.81723       -0.12585       -2.40604
| 12> H          3.14311       -3.36280       -3.81152
| 13> H          1.48768       -3.45893       -3.16521
| 14> H          1.46566       -3.19589       -5.64368
| 15> H          2.35406       -1.69850       -5.49654
| 16> H          0.73014       -1.81680       -4.86253
| 17> *
| 18>
| 19> %MaxCore 64000
| 20> %pal nprocs 4
| 21> end
| 22>
| 23> %scf
| 24>   MaxIter 150
| 25> end
| 26>
| 27>
| 28>                          ****END OF INPUT****

CARTESIAN COORDINATES (ANGSTROEM)
---------------------------------
  C      1.647030   -2.345280   -5.020410
  C      2.209960   -2.812390   -3.665710
  C      2.489010   -1.668510   -2.737540
  N      3.596310   -0.947610   -2.952250
  C      1.663940   -1.413690   -1.777810
  H      0.811640   -1.963180   -1.702750
  H      1.845500   -0.635080   -1.158750
  H      4.205350   -1.176000   -3.733830
  H      3.817230   -0.125850   -2.406040
  H      3.143110   -3.362800   -3.811520
  H      1.487680   -3.458930   -3.165210
  H      1.465660   -3.195890   -5.643680
  H      2.354060   -1.698500   -5.496540
  H      0.730140   -1.816800   -4.862530

 Total Charge           Charge          ....    0
 Multiplicity           Mult            ....    1
 Number of Electrons    NEL             ....   40
 Basis Dimension        Dim             ....  172

ORBITAL ENERGIES
----------------

  NO   OCC          E(Eh)            E(eV)
   0   2.0000     -14.329756      -389.9325
   1   2.0000     -10.198692      -277.5205
   2   2.0000     -10.181124      -277.0425
   3   2.0000     -10.169494      -276.7260
   4   2.0000     -10.116516      -275.2844
   5   2.0000      -0.912673       -24.8351
   6   2.0000      -0.771928       -21.0052
   7   2.0000      -0.715674       -19.4745
   8   2.0000      -0.628782       -17.1100
   9   2.0000      -0.563174       -15.3247
  10   2.0000      -0.520539       -14.1646
  11   2.0000      -0.479296       -13.0423
  12   2.0000      -0.434842       -11.8327
  13   2.0000      -0.422881       -11.5072
  14   2.0000      -0.398632       -10.8473
  15   2.0000      -0.383606       -10.4385
  16   2.0000      -0.352359        -9.5882
  17   2.0000      -0.335189        -9.1210
  18   2.0000      -0.326539        -8.8856
  19   2.0000      -0.195714        -5.3256
  20   0.0000       0.014244         0.3876
  21   0.0000       0.041531         1.1301
  22   0.0000       0.052633         1.4322
  23   0.0000       0.057421         1.5625
  24   0.0000       0.067803         1.8450

MULLIKEN ATOMIC CHARGES
-----------------------
   0 C :    0.869583
   1 C :    0.020149
   2 C :   -0.025160
   3 N :    0.268544
   4 C :    0.518631
   5 H :   -0.203770
   6 H :   -0.491185
   7 H :   -0.170675
   8 H :   -0.239109
   9 H :   -0.156177
  10 H :   -0.024820
  11 H :   -0.100869
  12 H :   -0.125334
  13 H :   -0.139809
Sum of atomic charges:   -0.0000000

LOEWDIN ATOMIC CHARGES
----------------------
   0 C :    0.142329
   1 C :   -0.025550
   2 C :   -0.267738
   3 N :    0.177779
   4 C :    0.175933
   5 H :   -0.076240
   6 H :   -0.082443
   7 H :   -0.004846
   8 H :   -0.000974
   9 H :    0.016805
  10 H :    0.016471
  11 H :   -0.024448
  12 H :   -0.029299
  13 H :   -0.017777

  Mayer bond orders larger than 0.100000
B(  0-C ,  1-C ) :   1.2195 B(  0-C , 11-H ) :   0.7871 B(  0-C , 12-H ) :   0.7546
B(  0-C , 13-H ) :   0.8149 B(  1-C ,  2-C ) :   1.1903 B(  1-C ,  3-N ) :   0.1080
B(  1-C ,  4-C ) :   0.1682 B(  1-C ,  9-H ) :   0.8230 B(  1-C , 10-H ) :   0.8306
B(  1-C , 11-H ) :   0.1858 B(  1-C , 12-H ) :   0.2343 B(  1-C , 13-H ) :   0.1886
B(  2-C ,  3-N ) :   1.2110 B(  2-C ,  4-C ) :   1.6262 B(  2-C ,  6-H ) :   0.2657
B(  2-C ,  9-H ) :   0.1723 B(  2-C , 10-H ) :   0.1877 B(  3-N ,  4-C ) :   0.2630
B(  3-N ,  7-H ) :   1.1419 B(  3-N ,  8-H ) :   1.2418 B(  4-C ,  5-H ) :   0.9104
B(  4-C ,  6-H ) :   0.5670 B(  7-H ,  8-H ) :  -0.1508

Dispersion correction           -0.017414842
FINAL SINGLE POINT ENERGY      -212.297401709895

DIPOLE MOMENT
-------------
                                X             Y             Z
Electronic contribution:      1.64348       1.07630       2.00874
Nuclear contribution   :     -1.13902      -0.93906      -2.44135
                        -----------------------------------------
Total Dipole Moment    :      0.50446       0.13724      -0.43261
                        -----------------------------------------
Magnitude (a.u.)       :      0.67858
Magnitude (Debye)      :      1.72480

Rotational constants in cm-1:     0.267243     0.130607     0.102304
Rotational constants in MHz :  8011.748167  3915.504600  3066.999841

                             ****ORCA TERMINATED NORMALLY****
TOTAL RUN TIME: 0 days 0 hours 0 minutes 21 seconds 180 msec
