                         Program Version 5.0.0 -  RELEASE  -
|  1> !B3LYP D3BJ RIJCOSX def2-SVPD def2/J TightSCF xyzfile
|  2>
|  3> *xyzfile 0 1 D1.xyz
|  4>
|  5> %MaxCore 64000
|  6>
|  7> %pal nprocs 4
|  8> end
|  9>
| 10> %scf
| 11>   MaxIter 150
| 12> end
| 13>
| 14>
| 15>                          ****END OF INPUT****

CARTESIAN COORDINATES (ANGSTROEM)
---------------------------------
  C      1.647032   -2.345276   -5.020411
  C      0.217628   -1.814022   -4.924389
  C      2.209964   -2.812388   -3.665708
  C     -0.811356   -2.908780   -4.607625
  C     -1.916579   -2.485081   -3.643665
  H     -2.554525   -1.712428   -4.091993
  C     -1.363531   -1.981337   -2.293608
  H     -2.553448   -3.355667   -3.458815
  F     -0.350395   -2.749689   -1.796006
  H      2.308385   -1.588704   -5.457128
  H      1.674286   -3.203478   -5.697392
  C      2.489007   -1.668510   -2.737538
  C      3.596314   -0.947608   -2.952247
  N      1.663936   -1.413685   -1.777806
  H      0.811642   -1.963178   -1.702755
  H      1.845503   -0.635078   -1.158749
  H      4.205351   -1.176003   -3.733825
  H      3.817230   -0.125845   -2.406041
  H     -1.244829   -3.280884   -5.541040
  H     -0.306331   -3.757746   -4.142734
  H     -0.036244   -1.318555   -5.865303
  H      0.175004   -1.035382   -4.158095
  H      3.143106   -3.362803   -3.811524
  H      1.487683   -3.458935   -3.165211
  H     -2.226220   -1.908386   -1.602039
  H     -1.051353   -0.915671   -2.443331

 Total Charge           Charge          ....    0
 Multiplicity           Mult            ....    1
 Number of Electrons    NEL             ....   80
 Basis Dimension        Dim             ....  331

ORBITAL ENERGIES
----------------

  NO   OCC          E(Eh)            E(eV)
   0   2.0000     -24.733557      -673.0343
   1   2.0000     -14.299745      -389.1158
   2   2.0000     -10.284084      -279.8441
   3   2.0000     -10.201599      -277.5996
   4   2.0000     -10.185285      -277.1557
   5   2.0000     -10.184745      -277.1410
   6   2.0000     -10.176337      -276.9122
   7   2.0000     -10.172810      -276.8162
   8   2.0000     -10.168536      -276.6999
   9   2.0000     -10.097279      -274.7609
  10   2.0000      -1.242366       -33.8065
  11   2.0000      -0.909142       -24.7390
  12   2.0000      -0.814590       -22.1661
  13   2.0000      -0.773061       -21.0361
  14   2.0000      -0.729701       -19.8562
  15   2.0000      -0.685896       -18.6642
  16   2.0000      -0.661725       -18.0065
  17   2.0000      -0.608737       -16.5646
  18   2.0000      -0.588967       -16.0266
  19   2.0000      -0.573924       -15.6173
  20   2.0000      -0.537294       -14.6205
  21   2.0000      -0.529633       -14.4120
  22   2.0000      -0.512919       -13.9572
  23   2.0000      -0.486543       -13.2395
  24   2.0000      -0.465952       -12.6792
  25   2.0000      -0.458970       -12.4892
  26   2.0000      -0.440212       -11.9788
  27   2.0000      -0.420283       -11.4365
  28   2.0000      -0.418817       -11.3966
  29   2.0000      -0.389633       -10.6025
  30   2.0000      -0.371524       -10.1097
  31   2.0000      -0.364387        -9.9155
  32   2.0000      -0.362162        -9.8549
  33   2.0000      -0.356812        -9.7093
  34   2.0000      -0.340042        -9.2530
  35   2.0000      -0.333132        -9.0650
  36   2.0000      -0.322466        -8.7748
  37   2.0000      -0.311071        -8.4647
  38   2.0000      -0.309862        -8.4318
  39   2.0000      -0.167007        -4.5445
  40   0.0000       0.012456         0.3389
  41   0.0000       0.025988         0.7072
  42   0.0000       0.034657         0.9431
  43   0.0000       0.040294         1.0964
  44   0.0000       0.051132         1.3914

MULLIKEN ATOMIC CHARGES
-----------------------
   0 C :    0.380546
   1 C :    0.311177
   2 C :    0.756382
   3 C :    0.212955
   4 C :    0.386398
   5 H :   -0.193199
   6 C :    0.825553
   7 H :   -0.076351
   8 F :   -0.481009
   9 H :   -0.137993
  10 H :   -0.208463
  11 C :   -0.187748
  12 C :    0.464494
  13 N :    0.774964
  14 H :   -0.536438
  15 H :   -0.190029
  16 H :   -0.220765
  17 H :   -0.475052
  18 H :   -0.320169
  19 H :   -0.035683
  20 H :   -0.260687
  21 H :   -0.150328
  22 H :   -0.083441
  23 H :   -0.324468
  24 H :   -0.391808
  25 H :    0.161162
Sum of atomic charges:   -0.0000000

LOEWDIN ATOMIC CHARGES
----------------------
   0 C :   -0.008928
   1 C :   -0.009814
   2 C :    0.028316
   3 C :   -0.019837
   4 C :   -0.003097
   5 H :    0.032225
   6 C :    0.149487
   7 H :    0.020947
   8 F :   -0.169442
   9 H :    0.018043
  10 H :    0.017251
  11 C :   -0.245950
  12 C :    0.173053
  13 N :    0.209263
  14 H :   -0.136786
  15 H :    0.015643
  16 H :   -0.092659
  17 H :   -0.101868
  18 H :    0.021785
  19 H :    0.003509
  20 H :    0.017887
  21 H :   -0.002897
  22 H :    0.025660
  23 H :   -0.009716
  24 H :    0.034771
  25 H :    0.033154

  Mayer bond orders larger than 0.100000
B(  0-C ,  1-C ) :   1.2328 B(  0-C ,  2-C ) :   1.1401 B(  0-C ,  9-H ) :   0.7120
B(  0-C , 10-H ) :   0.8229 B(  0-C , 20-H ) :   0.1097 B(  0-C , 21-H ) :   0.1818
B(  0-C , 22-H ) :   0.1331 B(  0-C , 23-H ) :   0.1839 B(  1-C ,  2-C ) :   0.1197
B(  1-C ,  3-C ) :   1.1570 B(  1-C ,  9-H ) :   0.2158 B(  1-C , 10-H ) :   0.1409
B(  1-C , 18-H ) :   0.2283 B(  1-C , 19-H ) :   0.1032 B(  1-C , 20-H ) :   0.7651
B(  1-C , 21-H ) :   0.7489 B(  2-C ,  9-H ) :   0.1704 B(  2-C , 11-C ) :   0.9506
B(  2-C , 13-N ) :   0.1285 B(  2-C , 14-H ) :  -0.1103 B(  2-C , 17-H ) :   0.1143
B(  2-C , 22-H ) :   0.6976 B(  2-C , 23-H ) :   0.5546 B(  3-C ,  4-C ) :   1.2231
B(  3-C ,  5-H ) :   0.1456 B(  3-C ,  7-H ) :   0.2343 B(  3-C , 18-H ) :   0.8246
B(  3-C , 19-H ) :   0.7862 B(  3-C , 20-H ) :   0.1291 B(  3-C , 21-H ) :   0.1770
B(  4-C ,  5-H ) :   0.8319 B(  4-C ,  6-C ) :   1.2350 B(  4-C ,  7-H ) :   0.6378
B(  4-C , 24-H ) :   0.1618 B(  4-C , 25-H ) :   0.1011 B(  5-H ,  6-C ) :   0.1134
B(  6-C ,  7-H ) :   0.1072 B(  6-C ,  8-F ) :   0.5767 B(  6-C , 24-H ) :   0.9293
B(  6-C , 25-H ) :   0.7734 B(  8-F , 14-H ) :   0.1996 B(  9-H , 10-H ) :  -0.1568
B( 11-C , 12-C ) :   1.6359 B( 11-C , 13-N ) :   1.2403 B( 11-C , 14-H ) :   0.1177
B( 11-C , 16-H ) :   0.1046 B( 11-C , 17-H ) :   0.1902 B( 11-C , 22-H ) :   0.1983
B( 11-C , 23-H ) :   0.2690 B( 12-C , 13-N ) :   0.1926 B( 12-C , 16-H ) :   0.8105
B( 12-C , 17-H ) :   0.5905 B( 13-N , 14-H ) :   0.7454 B( 13-N , 15-H ) :   1.1799
B( 14-H , 15-H ) :  -0.2029 B( 14-H , 23-H ) :   0.1176 B( 18-H , 19-H ) :  -0.1016
B( 19-H , 23-H ) :   0.1161

Dispersion correction           -0.043321770
FINAL SINGLE POINT ENERGY      -468.461082757265

DIPOLE MOMENT
-------------
                                X             Y             Z
Electronic contribution:     -1.30070      -1.73827       6.92479
Nuclear contribution   :     -0.37390       1.73388      -6.94752
                        -----------------------------------------
Total Dipole Moment    :     -1.67460      -0.00439      -0.02273
                        -----------------------------------------
Magnitude (a.u.)       :      1.67476
Magnitude (Debye)      :      4.25691

Rotational constants in cm-1:     0.062220     0.032742     0.024374
Rotational constants in MHz :  1865.297979   981.573941   730.711364

                             ****ORCA TERMINATED NORMALLY****
TOTAL RUN TIME: 0 days 0 hours 1 minutes 30 seconds 649 msec
