                         Program Version 5.0.0 -  RELEASE  -
|  1> !B3LYP D3BJ RIJCOSX def2-SVPD def2/J TightSCF xyzfile
|  2>
|  3> *xyzfile 0 1 D2.xyz
|  4>
|  5> %MaxCore 64000
|  6>
|  7> %pal nprocs 4
|  8> end
|  9>
| 10> %scf
| 11>   MaxIter 150
| 12> end
| 13>
| 14>
| 15>                          ****END OF INPUT****

CARTESIAN COORDINATES (ANGSTROEM)
---------------------------------
  C      1.647032   -2.345276   -5.020411
  C      0.217628   -1.814022   -4.924389
  C      2.209964   -2.812388   -3.665708
  C     -0.811356   -2.908780   -4.607625
  C     -1.916579   -2.485081   -3.643665
  H     -2.554525   -1.712428   -4.091993
  C     -1.363531   -1.981337   -2.293608
  H     -2.553448   -3.355667   -3.458815
  F     -0.350395   -2.749689   -1.796006
  H      2.308385   -1.588704   -5.457128
  H      1.674286   -3.203478   -5.697392
  C      2.489007   -1.668510   -2.737538
  N      3.596314   -0.947608   -2.952247
  C      1.663936   -1.413685   -1.777806
  H      0.811642   -1.963178   -1.702755
  H      1.845503   -0.635078   -1.158749
  H      4.205351   -1.176003   -3.733825
  H      3.817230   -0.125845   -2.406041
  H     -1.244829   -3.280884   -5.541040
  H     -0.306331   -3.757746   -4.142734
  H     -0.036244   -1.318555   -5.865303
  H      0.175004   -1.035382   -4.158095
  H      3.143106   -3.362803   -3.811524
  H      1.487683   -3.458935   -3.165211
  H     -2.226220   -1.908386   -1.602039
  H     -1.051353   -0.915671   -2.443331

 Total Charge           Charge          ....    0
 Multiplicity           Mult            ....    1
 Number of Electrons    NEL             ....   80
 Basis Dimension        Dim             ....  331

ORBITAL ENERGIES
----------------

  NO   OCC          E(Eh)            E(eV)
   0   2.0000     -24.700389      -672.1318
   1   2.0000     -14.316409      -389.5693
   2   2.0000     -10.265006      -279.3250
   3   2.0000     -10.189532      -277.2713
   4   2.0000     -10.181372      -277.0492
   5   2.0000     -10.176961      -276.9292
   6   2.0000     -10.173756      -276.8420
   7   2.0000     -10.170090      -276.7422
   8   2.0000     -10.168068      -276.6872
   9   2.0000     -10.082806      -274.3671
  10   2.0000      -1.211352       -32.9626
  11   2.0000      -0.898953       -24.4617
  12   2.0000      -0.805143       -21.9091
  13   2.0000      -0.770222       -20.9588
  14   2.0000      -0.720572       -19.6078
  15   2.0000      -0.694942       -18.9103
  16   2.0000      -0.651661       -17.7326
  17   2.0000      -0.599804       -16.3215
  18   2.0000      -0.566914       -15.4265
  19   2.0000      -0.565624       -15.3914
  20   2.0000      -0.526984       -14.3400
  21   2.0000      -0.514269       -13.9940
  22   2.0000      -0.498709       -13.5706
  23   2.0000      -0.488310       -13.2876
  24   2.0000      -0.461513       -12.5584
  25   2.0000      -0.445775       -12.1302
  26   2.0000      -0.441985       -12.0270
  27   2.0000      -0.430791       -11.7224
  28   2.0000      -0.402350       -10.9485
  29   2.0000      -0.383898       -10.4464
  30   2.0000      -0.369562       -10.0563
  31   2.0000      -0.358947        -9.7674
  32   2.0000      -0.351726        -9.5710
  33   2.0000      -0.338256        -9.2044
  34   2.0000      -0.328246        -8.9320
  35   2.0000      -0.325088        -8.8461
  36   2.0000      -0.313467        -8.5299
  37   2.0000      -0.307159        -8.3582
  38   2.0000      -0.295497        -8.0409
  39   2.0000      -0.179404        -4.8818
  40   0.0000       0.020220         0.5502
  41   0.0000       0.025977         0.7069
  42   0.0000       0.034547         0.9401
  43   0.0000       0.045892         1.2488
  44   0.0000       0.056867         1.5474

MULLIKEN ATOMIC CHARGES
-----------------------
   0 C :    0.487535
   1 C :    0.347441
   2 C :    0.512464
   3 C :    0.232134
   4 C :    0.393262
   5 H :   -0.210722
   6 C :    0.771835
   7 H :   -0.084562
   8 F :   -0.534492
   9 H :   -0.141127
  10 H :   -0.200795
  11 C :    0.009786
  12 N :    0.191330
  13 C :    1.251763
  14 H :   -0.482019
  15 H :   -0.872628
  16 H :   -0.170554
  17 H :   -0.225003
  18 H :   -0.309420
  19 H :   -0.056345
  20 H :   -0.269373
  21 H :   -0.138351
  22 H :   -0.273287
  23 H :   -0.077247
  24 H :   -0.406096
  25 H :    0.254469
Sum of atomic charges:   -0.0000000

LOEWDIN ATOMIC CHARGES
----------------------
   0 C :   -0.013603
   1 C :   -0.009630
   2 C :    0.027445
   3 C :   -0.019460
   4 C :   -0.005194
   5 H :    0.029609
   6 C :    0.148518
   7 H :    0.019300
   8 F :   -0.193391
   9 H :    0.012421
  10 H :    0.016357
  11 C :   -0.238597
  12 N :    0.174035
  13 C :    0.207296
  14 H :   -0.184856
  15 H :   -0.075942
  16 H :   -0.009353
  17 H :   -0.004110
  18 H :    0.019747
  19 H :    0.004059
  20 H :    0.016340
  21 H :   -0.004110
  22 H :    0.018106
  23 H :   -0.000290
  24 H :    0.032115
  25 H :    0.033187

  Mayer bond orders larger than 0.100000
B(  0-C ,  1-C ) :   1.2168 B(  0-C ,  2-C ) :   1.0703 B(  0-C ,  9-H ) :   0.6929
B(  0-C , 10-H ) :   0.7554 B(  0-C , 11-C ) :   0.1047 B(  0-C , 20-H ) :   0.1006
B(  0-C , 21-H ) :   0.1885 B(  0-C , 22-H ) :   0.1256 B(  1-C ,  2-C ) :   0.1377
B(  1-C ,  3-C ) :   1.1463 B(  1-C ,  9-H ) :   0.2072 B(  1-C , 10-H ) :   0.1018
B(  1-C , 18-H ) :   0.2183 B(  1-C , 19-H ) :   0.1100 B(  1-C , 20-H ) :   0.7697
B(  1-C , 21-H ) :   0.7572 B(  2-C ,  9-H ) :   0.1287 B(  2-C , 10-H ) :   0.1836
B(  2-C , 11-C ) :   1.1845 B(  2-C , 12-N ) :   0.1644 B(  2-C , 13-C ) :   0.1664
B(  2-C , 14-H ) :  -0.1075 B(  2-C , 21-H ) :  -0.1179 B(  2-C , 22-H ) :   0.7305
B(  2-C , 23-H ) :   0.8028 B(  3-C ,  4-C ) :   1.2336 B(  3-C ,  5-H ) :   0.1446
B(  3-C ,  7-H ) :   0.2359 B(  3-C , 18-H ) :   0.8133 B(  3-C , 19-H ) :   0.7650
B(  3-C , 20-H ) :   0.1337 B(  3-C , 21-H ) :   0.1686 B(  4-C ,  5-H ) :   0.8167
B(  4-C ,  6-C ) :   1.2356 B(  4-C ,  7-H ) :   0.6288 B(  4-C , 24-H ) :   0.1603
B(  5-H ,  6-C ) :   0.1294 B(  6-C ,  7-H ) :   0.1099 B(  6-C ,  8-F ) :   0.5939
B(  6-C , 14-H ) :   0.1098 B(  6-C , 24-H ) :   0.9526 B(  6-C , 25-H ) :   0.7310
B(  8-F , 14-H ) :   0.2348 B(  8-F , 24-H ) :  -0.1026 B(  9-H , 10-H ) :  -0.1056
B( 11-C , 12-N ) :   1.0460 B( 11-C , 13-C ) :   1.8034 B( 11-C , 14-H ) :   0.1733
B( 11-C , 15-H ) :   0.2536 B( 11-C , 21-H ) :   0.1086 B( 11-C , 22-H ) :   0.2501
B( 11-C , 23-H ) :   0.1677 B( 12-N , 13-C ) :   0.3650 B( 12-N , 16-H ) :   1.1747
B( 12-N , 17-H ) :   1.2697 B( 13-C , 14-H ) :   0.4353 B( 13-C , 15-H ) :   0.3790
B( 13-C , 23-H ) :  -0.1181 B( 14-H , 15-H ) :  -0.3650 B( 15-H , 21-H ) :  -0.1322
B( 16-H , 17-H ) :  -0.1565 B( 18-H , 19-H ) :  -0.1001 B( 19-H , 23-H ) :   0.1300
B( 20-H , 21-H ) :  -0.1013 B( 24-H , 25-H ) :  -0.1076

Dispersion correction           -0.043577515
FINAL SINGLE POINT ENERGY      -468.443794061894

DIPOLE MOMENT
-------------
                                X             Y             Z
Electronic contribution:      0.40793      -1.31173       6.07817
Nuclear contribution   :     -0.73748       1.64619      -6.72655
                        -----------------------------------------
Total Dipole Moment    :     -0.32956       0.33446      -0.64839
                        -----------------------------------------
Magnitude (a.u.)       :      0.80055
Magnitude (Debye)      :      2.03483

Rotational constants in cm-1:     0.063169     0.031711     0.023958
Rotational constants in MHz :  1893.751676   950.657187   718.229932

                             ****ORCA TERMINATED NORMALLY****
TOTAL RUN TIME: 0 days 0 hours 1 minutes 25 seconds 397 msec
