                         Program Version 5.0.0 -  RELEASE  -
|  1> !BLYP D3BJ RIJCOSX def2-SVPD def2/J TightSCF
|  2> *xyz -1 1
|  3> C          4.93020       -7.37532       -2.64962
|  4> C          3.84189       -6.95161       -3.63283
|  5> H          3.45814       -5.95442       -3.40712
|  6> H          2.98848       -7.64361       -3.56708
|  7> S          4.31812       -6.91593       -5.36869
|  8> O          5.40615       -5.89948       -5.51297
|  9> O          3.11191       -6.44508       -6.04379
| 10> C          6.17399       -6.48552       -2.60631
| 11> H          4.46961       -7.40617       -1.65588
| 12> H          5.23013       -8.39868       -2.88591
| 13> O          4.76340       -8.23942       -5.69863
| 14> H          6.62449       -6.45478       -3.57637
| 15> H          6.87304       -6.88376       -1.90088
| 16> H          5.89434       -5.49571       -2.31140
| 17> *
| 18>
| 19> %MaxCore 64000
| 20>
| 21> %pal nprocs 8
| 22> end
| 23>
| 24> %scf
| 25>   MaxIter 150
| 26> end
| 27>
| 28>
| 29>                          ****END OF INPUT****

CARTESIAN COORDINATES (ANGSTROEM)
---------------------------------
  C      4.930200   -7.375320   -2.649620
  C      3.841890   -6.951610   -3.632830
  H      3.458140   -5.954420   -3.407120
  H      2.988480   -7.643610   -3.567080
  S      4.318120   -6.915930   -5.368690
  O      5.406150   -5.899480   -5.512970
  O      3.111910   -6.445080   -6.043790
  C      6.173990   -6.485520   -2.606310
  H      4.469610   -7.406170   -1.655880
  H      5.230130   -8.398680   -2.885910
  O      4.763400   -8.239420   -5.698630
  H      6.624490   -6.454780   -3.576370
  H      6.873040   -6.883760   -1.900880
  H      5.894340   -5.495710   -2.311400

 Total Charge           Charge          ....   -1
 Multiplicity           Mult            ....    1
 Number of Electrons    NEL             ....   66
 Basis Dimension        Dim             ....  212

ORBITAL ENERGIES
----------------

  NO   OCC          E(Eh)            E(eV)
   0   2.0000     -88.131064     -2398.1682
   1   2.0000     -18.577790      -505.5274
   2   2.0000     -18.568143      -505.2649
   3   2.0000     -18.561627      -505.0875
   4   2.0000      -9.793668      -266.4992
   5   2.0000      -9.787073      -266.3198
   6   2.0000      -9.774451      -265.9763
   7   2.0000      -7.667482      -208.6428
   8   2.0000      -5.702665      -155.1774
   9   2.0000      -5.702462      -155.1719
  10   2.0000      -5.701765      -155.1529
  11   2.0000      -0.834593       -22.7104
  12   2.0000      -0.702464       -19.1150
  13   2.0000      -0.674294       -18.3485
  14   2.0000      -0.572756       -15.5855
  15   2.0000      -0.489267       -13.3136
  16   2.0000      -0.402418       -10.9504
  17   2.0000      -0.322040        -8.7631
  18   2.0000      -0.276085        -7.5126
  19   2.0000      -0.266776        -7.2593
  20   2.0000      -0.239686        -6.5222
  21   2.0000      -0.228062        -6.2059
  22   2.0000      -0.207451        -5.6450
  23   2.0000      -0.200818        -5.4645
  24   2.0000      -0.177851        -4.8396
  25   2.0000      -0.171475        -4.6661
  26   2.0000      -0.161022        -4.3816
  27   2.0000      -0.101698        -2.7674
  28   2.0000      -0.099928        -2.7192
  29   2.0000      -0.071191        -1.9372
  30   2.0000      -0.063491        -1.7277
  31   2.0000      -0.052635        -1.4323
  32   2.0000      -0.017764        -0.4834
  33   0.0000       0.118022         3.2115
  34   0.0000       0.144946         3.9442
  35   0.0000       0.152830         4.1587
  36   0.0000       0.162151         4.4124
  37   0.0000       0.180967         4.9244

MULLIKEN ATOMIC CHARGES
-----------------------
   0 C :    0.010325
   1 C :    0.268479
   2 H :   -0.151235
   3 H :   -0.155152
   4 S :    1.158698
   5 O :   -0.791467
   6 O :   -0.764517
   7 C :    1.229746
   8 H :   -0.265846
   9 H :   -0.176443
  10 O :   -0.717911
  11 H :   -0.256777
  12 H :   -0.236119
  13 H :   -0.151781
Sum of atomic charges:   -1.0000000

LOEWDIN ATOMIC CHARGES
----------------------
   0 C :   -0.086295
   1 C :   -0.094417
   2 H :    0.000198
   3 H :    0.003705
   4 S :    0.823709
   5 O :   -0.564972
   6 O :   -0.565013
   7 C :    0.131558
   8 H :   -0.000324
   9 H :    0.010656
  10 O :   -0.547805
  11 H :   -0.046130
  12 H :   -0.039970
  13 H :   -0.024899

  Mayer bond orders larger than 0.100000
B(  0-C ,  1-C ) :   1.2369 B(  0-C ,  2-H ) :   0.1833 B(  0-C ,  3-H ) :   0.1777
B(  0-C ,  7-C ) :   1.2441 B(  0-C ,  8-H ) :   0.7299 B(  0-C ,  9-H ) :   0.8173
B(  0-C , 11-H ) :   0.3061 B(  0-C , 12-H ) :   0.2818 B(  0-C , 13-H ) :   0.2913
B(  1-C ,  2-H ) :   0.8656 B(  1-C ,  3-H ) :   0.8350 B(  1-C ,  4-S ) :   0.8842
B(  1-C ,  6-O ) :   0.1038 B(  1-C ,  8-H ) :   0.2259 B(  1-C ,  9-H ) :   0.1730
B(  4-S ,  5-O ) :   1.2718 B(  4-S ,  6-O ) :   1.3680 B(  4-S , 10-O ) :   1.3227
B(  7-C ,  9-H ) :   0.1256 B(  7-C , 11-H ) :   0.6786 B(  7-C , 12-H ) :   0.6133
B(  7-C , 13-H ) :   0.6237 B( 11-H , 13-H ) :   0.1392

Dispersion correction           -0.027819190
FINAL SINGLE POINT ENERGY      -741.978274122038

DIPOLE MOMENT
-------------
                                X             Y             Z
Electronic contribution:     -3.07770      -0.29629     -10.22742
Nuclear contribution   :      3.14317       0.05805      12.49367
                        -----------------------------------------
Total Dipole Moment    :      0.06547      -0.23824       2.26626
                        -----------------------------------------
Magnitude (a.u.)       :      2.27969
Magnitude (Debye)      :      5.79450

Rotational constants in cm-1:     0.133431     0.055055     0.052069
Rotational constants in MHz :  4000.170974  1650.506165  1561.001383

                             ****ORCA TERMINATED NORMALLY****
TOTAL RUN TIME: 0 days 0 hours 0 minutes 6 seconds 211 msec
