                         Program Version 5.0.0 -  RELEASE  -
|  1> !BLYP D3BJ RIJCOSX def2-SVPD def2/J TightSCF
|  2> *xyz 1 1
|  3> C          5.55821       -1.99291       -6.21505
|  4> C          4.18188       -2.58967       -6.29891
|  5> N          3.14587       -1.76843       -6.48675
|  6> N          4.01910       -3.86431       -6.22743
|  7> H          4.76849       -4.59115       -5.99077
|  8> H          3.12241       -4.33339       -6.31462
|  9> H          3.28164       -0.77779       -6.56655
| 10> H          2.21255       -2.13419       -6.56225
| 11> C          6.41926       -2.54294       -5.07763
| 12> C          5.89651       -2.16931       -3.69455
| 13> H          7.42888       -2.14367       -5.20808
| 14> H          6.50589       -3.62754       -5.17550
| 15> H          6.03683       -2.19819       -7.17685
| 16> H          5.46761       -0.90737       -6.12797
| 17> H          5.81870       -1.10488       -3.61824
| 18> H          6.57185       -2.53200       -2.94804
| 19> H          4.93221       -2.60892       -3.54698
| 20> *
| 21>
| 22> %MaxCore 64000
| 23>
| 24> %pal nprocs 8
| 25> end
| 26>
| 27> %scf
| 28>   MaxIter 150
| 29> end
| 30>
| 31>
| 32>                          ****END OF INPUT****

CARTESIAN COORDINATES (ANGSTROEM)
---------------------------------
  C      5.558210   -1.992910   -6.215050
  C      4.181880   -2.589670   -6.298910
  N      3.145870   -1.768430   -6.486750
  N      4.019100   -3.864310   -6.227430
  H      4.768490   -4.591150   -5.990770
  H      3.122410   -4.333390   -6.314620
  H      3.281640   -0.777790   -6.566550
  H      2.212550   -2.134190   -6.562250
  C      6.419260   -2.542940   -5.077630
  C      5.896510   -2.169310   -3.694550
  H      7.428880   -2.143670   -5.208080
  H      6.505890   -3.627540   -5.175500
  H      6.036830   -2.198190   -7.176850
  H      5.467610   -0.907370   -6.127970
  H      5.818700   -1.104880   -3.618240
  H      6.571850   -2.532000   -2.948040
  H      4.932210   -2.608920   -3.546980

 Total Charge           Charge          ....    1
 Multiplicity           Mult            ....    1
 Number of Electrons    NEL             ....   48
 Basis Dimension        Dim             ....  208

ORBITAL ENERGIES
----------------

  NO   OCC          E(Eh)            E(eV)
   0   2.0000     -14.272406      -388.3719
   1   2.0000     -14.262543      -388.1035
   2   2.0000     -10.234691      -278.5001
   3   2.0000     -10.113927      -275.2140
   4   2.0000     -10.082212      -274.3509
   5   2.0000     -10.047576      -273.4084
   6   2.0000      -1.102499       -30.0005
   7   2.0000      -1.012126       -27.5413
   8   2.0000      -0.887646       -24.1541
   9   2.0000      -0.810943       -22.0669
  10   2.0000      -0.768271       -20.9057
  11   2.0000      -0.720026       -19.5929
  12   2.0000      -0.708013       -19.2660
  13   2.0000      -0.666961       -18.1489
  14   2.0000      -0.644353       -17.5337
  15   2.0000      -0.598659       -16.2903
  16   2.0000      -0.575889       -15.6707
  17   2.0000      -0.538551       -14.6547
  18   2.0000      -0.525375       -14.2962
  19   2.0000      -0.512548       -13.9471
  20   2.0000      -0.457321       -12.4443
  21   2.0000      -0.455038       -12.3822
  22   2.0000      -0.449644       -12.2354
  23   2.0000      -0.447598       -12.1798
  24   0.0000      -0.237007        -6.4493
  25   0.0000      -0.181582        -4.9411
  26   0.0000      -0.149761        -4.0752
  27   0.0000      -0.137361        -3.7378
  28   0.0000      -0.117480        -3.1968

MULLIKEN ATOMIC CHARGES
-----------------------
   0 C :    0.336496
   1 C :    0.602721
   2 N :    0.323513
   3 N :    0.318574
   4 H :    0.013109
   5 H :   -0.238129
   6 H :   -0.076992
   7 H :   -0.219051
   8 C :   -0.002272
   9 C :    1.127914
  10 H :   -0.263988
  11 H :   -0.241240
  12 H :   -0.204596
  13 H :    0.000280
  14 H :   -0.081019
  15 H :   -0.209915
  16 H :   -0.185405
Sum of atomic charges:    1.0000000

LOEWDIN ATOMIC CHARGES
----------------------
   0 C :    0.051963
   1 C :   -0.064531
   2 N :    0.308789
   3 N :    0.283076
   4 H :    0.091773
   5 H :    0.045847
   6 H :    0.035955
   7 H :    0.034793
   8 C :   -0.045338
   9 C :    0.160308
  10 H :    0.038348
  11 H :    0.009296
  12 H :    0.051264
  13 H :    0.035751
  14 H :   -0.008983
  15 H :   -0.004055
  16 H :   -0.024257

  Mayer bond orders larger than 0.100000
B(  0-C ,  1-C ) :   1.0467 B(  0-C ,  2-N ) :   0.1149 B(  0-C ,  8-C ) :   1.2271
B(  0-C , 10-H ) :   0.1768 B(  0-C , 11-H ) :   0.1800 B(  0-C , 12-H ) :   0.7665
B(  0-C , 13-H ) :   0.7395 B(  1-C ,  2-N ) :   1.0322 B(  1-C ,  3-N ) :   1.2049
B(  1-C ,  4-H ) :  -0.1169 B(  1-C ,  5-H ) :  -0.2490 B(  1-C ,  6-H ) :  -0.1033
B(  1-C ,  7-H ) :  -0.2232 B(  1-C , 12-H ) :   0.1889 B(  1-C , 13-H ) :   0.1777
B(  2-N ,  3-N ) :   0.1811 B(  2-N ,  6-H ) :   1.1446 B(  2-N ,  7-H ) :   1.3164
B(  3-N ,  4-H ) :   1.1431 B(  3-N ,  5-H ) :   1.3134 B(  4-H ,  5-H ) :  -0.2083
B(  6-H ,  7-H ) :  -0.1977 B(  8-C ,  9-C ) :   1.3311 B(  8-C , 10-H ) :   0.8400
B(  8-C , 11-H ) :   0.8005 B(  8-C , 12-H ) :   0.1393 B(  8-C , 13-H ) :   0.1794
B(  8-C , 14-H ) :   0.2777 B(  8-C , 15-H ) :   0.2774 B(  8-C , 16-H ) :   0.2725
B(  9-C , 11-H ) :   0.1150 B(  9-C , 14-H ) :   0.6715 B(  9-C , 15-H ) :   0.6482
B(  9-C , 16-H ) :   0.7276

Dispersion correction           -0.027363742
FINAL SINGLE POINT ENERGY      -268.053417555071

DIPOLE MOMENT
-------------
                                X             Y             Z
Electronic contribution:     -4.02101      -0.93147      -3.71868
Nuclear contribution   :      2.70373       0.48594       2.85544
                        -----------------------------------------
Total Dipole Moment    :     -1.31728      -0.44553      -0.86324
                        -----------------------------------------
Magnitude (a.u.)       :      1.63674
Magnitude (Debye)      :      4.16025

Rotational constants in cm-1:     0.185545     0.074107     0.068805
Rotational constants in MHz :  5562.487769  2221.680591  2062.713441

                             ****ORCA TERMINATED NORMALLY****
TOTAL RUN TIME: 0 days 0 hours 0 minutes 5 seconds 496 msec
