                         Program Version 5.0.0 -  RELEASE  -
|  1> !BLYP D3BJ RIJCOSX def2-SVPD def2/J TightSCF
|  2> *xyz 0 1
|  3> C          4.93020       -7.37532       -2.64962
|  4> C          3.84189       -6.95161       -3.63283
|  5> H          3.45814       -5.95442       -3.40712
|  6> H          2.98848       -7.64361       -3.56708
|  7> S          4.31812       -6.91593       -5.36869
|  8> F          5.40615       -5.89948       -5.51297
|  9> O          3.11191       -6.44508       -6.04379
| 10> C          6.17399       -6.48552       -2.60631
| 11> H          4.46961       -7.40617       -1.65588
| 12> H          5.23013       -8.39868       -2.88591
| 13> O          4.76340       -8.23942       -5.69863
| 14> H          6.62449       -6.45478       -3.57637
| 15> H          6.87304       -6.88376       -1.90088
| 16> H          5.89434       -5.49571       -2.31140
| 17> *
| 18>
| 19> %MaxCore 64000
| 20>
| 21> %pal nprocs 8
| 22> end
| 23>
| 24> %scf
| 25>   MaxIter 150
| 26> end
| 27>
| 28>
| 29>                          ****END OF INPUT****

CARTESIAN COORDINATES (ANGSTROEM)
---------------------------------
  C      4.930200   -7.375320   -2.649620
  C      3.841890   -6.951610   -3.632830
  H      3.458140   -5.954420   -3.407120
  H      2.988480   -7.643610   -3.567080
  S      4.318120   -6.915930   -5.368690
  F      5.406150   -5.899480   -5.512970
  O      3.111910   -6.445080   -6.043790
  C      6.173990   -6.485520   -2.606310
  H      4.469610   -7.406170   -1.655880
  H      5.230130   -8.398680   -2.885910
  O      4.763400   -8.239420   -5.698630
  H      6.624490   -6.454780   -3.576370
  H      6.873040   -6.883760   -1.900880
  H      5.894340   -5.495710   -2.311400

 Total Charge           Charge          ....    0
 Multiplicity           Mult            ....    1
 Number of Electrons    NEL             ....   66
 Basis Dimension        Dim             ....  212

ORBITAL ENERGIES
----------------

  NO   OCC          E(Eh)            E(eV)
   0   2.0000     -88.379479     -2404.9279
   1   2.0000     -24.394855      -663.8177
   2   2.0000     -18.806266      -511.7445
   3   2.0000     -18.796361      -511.4750
   4   2.0000      -9.983376      -271.6615
   5   2.0000      -9.953608      -270.8514
   6   2.0000      -9.930643      -270.2265
   7   2.0000      -7.916989      -215.4322
   8   2.0000      -5.956129      -162.0745
   9   2.0000      -5.950077      -161.9098
  10   2.0000      -5.948435      -161.8651
  11   2.0000      -1.223020       -33.2801
  12   2.0000      -1.018806       -27.7231
  13   2.0000      -0.926404       -25.2087
  14   2.0000      -0.750753       -20.4290
  15   2.0000      -0.674314       -18.3490
  16   2.0000      -0.626465       -17.0470
  17   2.0000      -0.571250       -15.5445
  18   2.0000      -0.507313       -13.8047
  19   2.0000      -0.490910       -13.3583
  20   2.0000      -0.484266       -13.1775
  21   2.0000      -0.439067       -11.9476
  22   2.0000      -0.426878       -11.6160
  23   2.0000      -0.411747       -11.2042
  24   2.0000      -0.400205       -10.8901
  25   2.0000      -0.386727       -10.5234
  26   2.0000      -0.347349        -9.4518
  27   2.0000      -0.340797        -9.2735
  28   2.0000      -0.328776        -8.9465
  29   2.0000      -0.321687        -8.7536
  30   2.0000      -0.292354        -7.9554
  31   2.0000      -0.281343        -7.6557
  32   2.0000      -0.268973        -7.3191
  33   0.0000      -0.031656        -0.8614
  34   0.0000      -0.002055        -0.0559
  35   0.0000       0.009839         0.2677
  36   0.0000       0.018063         0.4915
  37   0.0000       0.022206         0.6043

MULLIKEN ATOMIC CHARGES
-----------------------
   0 C :    0.064960
   1 C :    0.240437
   2 H :   -0.095144
   3 H :   -0.105755
   4 S :    1.310904
   5 F :   -0.391312
   6 O :   -0.619353
   7 C :    1.227725
   8 H :   -0.232407
   9 H :   -0.162999
  10 O :   -0.590965
  11 H :   -0.299411
  12 H :   -0.211309
  13 H :   -0.135369
Sum of atomic charges:   -0.0000000

LOEWDIN ATOMIC CHARGES
----------------------
   0 C :   -0.068008
   1 C :   -0.049418
   2 H :    0.019745
   3 H :    0.036988
   4 S :    1.076467
   5 F :   -0.264379
   6 O :   -0.451000
   7 C :    0.150908
   8 H :    0.026449
   9 H :    0.024336
  10 O :   -0.435739
  11 H :   -0.038578
  12 H :   -0.014585
  13 H :   -0.013185

  Mayer bond orders larger than 0.100000
B(  0-C ,  1-C ) :   1.2683 B(  0-C ,  2-H ) :   0.1759 B(  0-C ,  3-H ) :   0.1674
B(  0-C ,  7-C ) :   1.2680 B(  0-C ,  8-H ) :   0.7191 B(  0-C ,  9-H ) :   0.8257
B(  0-C , 11-H ) :   0.2848 B(  0-C , 12-H ) :   0.2671 B(  0-C , 13-H ) :   0.2799
B(  1-C ,  2-H ) :   0.8752 B(  1-C ,  3-H ) :   0.8253 B(  1-C ,  4-S ) :   0.9479
B(  1-C ,  8-H ) :   0.2165 B(  1-C ,  9-H ) :   0.1725 B(  4-S ,  5-F ) :   0.6445
B(  4-S ,  6-O ) :   1.5733 B(  4-S , 10-O ) :   1.5425 B(  6-O , 10-O ) :   0.1167
B(  7-C ,  9-H ) :   0.1204 B(  7-C , 11-H ) :   0.6839 B(  7-C , 12-H ) :   0.6296
B(  7-C , 13-H ) :   0.6358 B( 11-H , 13-H ) :   0.1243

Dispersion correction           -0.026661075
FINAL SINGLE POINT ENERGY      -766.488429841244

DIPOLE MOMENT
-------------
                                X             Y             Z
Electronic contribution:     -1.90739       1.37790     -11.78153
Nuclear contribution   :      2.27444      -1.01744      13.40618
                        -----------------------------------------
Total Dipole Moment    :      0.36705       0.36046       1.62466
                        -----------------------------------------
Magnitude (a.u.)       :      1.70416
Magnitude (Debye)      :      4.33163

Rotational constants in cm-1:     0.126966     0.054929     0.051005
Rotational constants in MHz :  3806.345018  1646.729702  1529.089209

                             ****ORCA TERMINATED NORMALLY****
TOTAL RUN TIME: 0 days 0 hours 0 minutes 6 seconds 48 msec
