                         Program Version 5.0.0 -  RELEASE  -
|  1> !BLYP D3BJ RIJCOSX def2-SVPD def2/J TightSCF
|  2> *xyz 0 1
|  3> C          5.55821       -1.99291       -6.21505
|  4> C          4.18188       -2.58967       -6.29891
|  5> C          3.14587       -1.76843       -6.48675
|  6> N          4.01910       -3.86431       -6.22743
|  7> H          4.76849       -4.59115       -5.99077
|  8> H          3.12241       -4.33339       -6.31462
|  9> H          3.28164       -0.77779       -6.56655
| 10> H          2.21255       -2.13419       -6.56225
| 11> C          6.41926       -2.54294       -5.07763
| 12> C          5.89651       -2.16931       -3.69455
| 13> H          7.42888       -2.14367       -5.20808
| 14> H          6.50589       -3.62754       -5.17550
| 15> H          6.03683       -2.19819       -7.17685
| 16> H          5.46761       -0.90737       -6.12797
| 17> H          5.81870       -1.10488       -3.61824
| 18> H          6.57185       -2.53200       -2.94804
| 19> H          4.93221       -2.60892       -3.54698
| 20> *
| 21>
| 22> %MaxCore 64000
| 23>
| 24> %pal nprocs 8
| 25> end
| 26>
| 27> %scf
| 28>   MaxIter 150
| 29> end
| 30>
| 31>
| 32>                          ****END OF INPUT****

CARTESIAN COORDINATES (ANGSTROEM)
---------------------------------
  C      5.558210   -1.992910   -6.215050
  C      4.181880   -2.589670   -6.298910
  C      3.145870   -1.768430   -6.486750
  N      4.019100   -3.864310   -6.227430
  H      4.768490   -4.591150   -5.990770
  H      3.122410   -4.333390   -6.314620
  H      3.281640   -0.777790   -6.566550
  H      2.212550   -2.134190   -6.562250
  C      6.419260   -2.542940   -5.077630
  C      5.896510   -2.169310   -3.694550
  H      7.428880   -2.143670   -5.208080
  H      6.505890   -3.627540   -5.175500
  H      6.036830   -2.198190   -7.176850
  H      5.467610   -0.907370   -6.127970
  H      5.818700   -1.104880   -3.618240
  H      6.571850   -2.532000   -2.948040
  H      4.932210   -2.608920   -3.546980

 Total Charge           Charge          ....    0
 Multiplicity           Mult            ....    1
 Number of Electrons    NEL             ....   48
 Basis Dimension        Dim             ....  208

ORBITAL ENERGIES
----------------

  NO   OCC          E(Eh)            E(eV)
   0   2.0000     -14.034269      -381.8919
   1   2.0000      -9.939614      -270.4706
   2   2.0000      -9.920212      -269.9427
   3   2.0000      -9.917962      -269.8815
   4   2.0000      -9.903613      -269.4910
   5   2.0000      -9.852775      -268.1076
   6   2.0000      -0.839403       -22.8413
   7   2.0000      -0.707288       -19.2463
   8   2.0000      -0.651213       -17.7204
   9   2.0000      -0.601703       -16.3732
  10   2.0000      -0.533294       -14.5117
  11   2.0000      -0.514773       -14.0077
  12   2.0000      -0.462918       -12.5966
  13   2.0000      -0.411393       -11.1946
  14   2.0000      -0.401043       -10.9129
  15   2.0000      -0.394126       -10.7247
  16   2.0000      -0.346589        -9.4312
  17   2.0000      -0.341354        -9.2887
  18   2.0000      -0.326933        -8.8963
  19   2.0000      -0.319192        -8.6856
  20   2.0000      -0.294407        -8.0112
  21   2.0000      -0.281437        -7.6583
  22   2.0000      -0.278470        -7.5776
  23   2.0000      -0.151386        -4.1194
  24   0.0000      -0.009641        -0.2623
  25   0.0000       0.013278         0.3613
  26   0.0000       0.023825         0.6483
  27   0.0000       0.028529         0.7763
  28   0.0000       0.045194         1.2298

MULLIKEN ATOMIC CHARGES
-----------------------
   0 C :    0.573732
   1 C :   -0.205486
   2 C :    0.821635
   3 N :    0.405839
   4 H :   -0.135200
   5 H :   -0.313998
   6 H :   -0.346638
   7 H :   -0.641545
   8 C :   -0.038429
   9 C :    1.121363
  10 H :   -0.283501
  11 H :   -0.254163
  12 H :   -0.278459
  13 H :    0.076866
  14 H :   -0.100400
  15 H :   -0.216855
  16 H :   -0.184761
Sum of atomic charges:   -0.0000000

LOEWDIN ATOMIC CHARGES
----------------------
   0 C :    0.012996
   1 C :   -0.272958
   2 C :    0.194833
   3 N :    0.172705
   4 H :    0.033568
   5 H :    0.004693
   6 H :   -0.099641
   7 H :   -0.098942
   8 C :   -0.069719
   9 C :    0.140696
  10 H :    0.014485
  11 H :   -0.004350
  12 H :    0.021200
  13 H :    0.022013
  14 H :   -0.019738
  15 H :   -0.025864
  16 H :   -0.025979

  Mayer bond orders larger than 0.100000
B(  0-C ,  1-C ) :   1.0655 B(  0-C ,  2-C ) :   0.2069 B(  0-C ,  3-N ) :   0.1132
B(  0-C ,  6-H ) :  -0.1405 B(  0-C ,  8-C ) :   1.1764 B(  0-C , 10-H ) :   0.2130
B(  0-C , 11-H ) :   0.2000 B(  0-C , 12-H ) :   0.6752 B(  0-C , 13-H ) :   0.7110
B(  1-C ,  2-C ) :   1.3626 B(  1-C ,  3-N ) :   1.3738 B(  1-C ,  5-H ) :  -0.1137
B(  1-C ,  7-H ) :   0.3105 B(  1-C ,  8-C ) :   0.1277 B(  1-C , 12-H ) :   0.3167
B(  2-C ,  3-N ) :   0.3325 B(  2-C ,  6-H ) :   0.9985 B(  2-C ,  7-H ) :   0.3661
B(  3-N ,  4-H ) :   1.1833 B(  3-N ,  5-H ) :   1.2444 B(  4-H ,  5-H ) :  -0.1873
B(  8-C ,  9-C ) :   1.3031 B(  8-C , 10-H ) :   0.8036 B(  8-C , 11-H ) :   0.7963
B(  8-C , 12-H ) :   0.1109 B(  8-C , 13-H ) :   0.2153 B(  8-C , 14-H ) :   0.2933
B(  8-C , 15-H ) :   0.2828 B(  8-C , 16-H ) :   0.2820 B(  9-C , 11-H ) :   0.1199
B(  9-C , 14-H ) :   0.6764 B(  9-C , 15-H ) :   0.6313 B(  9-C , 16-H ) :   0.7325

Dispersion correction           -0.028294233
FINAL SINGLE POINT ENERGY      -251.580476843797

DIPOLE MOMENT
-------------
                                X             Y             Z
Electronic contribution:     -1.95253      -1.40665      -2.52565
Nuclear contribution   :      2.30279       0.65856       2.66048
                        -----------------------------------------
Total Dipole Moment    :      0.35027      -0.74809       0.13483
                        -----------------------------------------
Magnitude (a.u.)       :      0.83696
Magnitude (Debye)      :      2.12738

Rotational constants in cm-1:     0.189707     0.076319     0.071159
Rotational constants in MHz :  5687.269526  2287.988194  2133.283230

                             ****ORCA TERMINATED NORMALLY****
TOTAL RUN TIME: 0 days 0 hours 0 minutes 6 seconds 127 msec
