                         Program Version 5.0.0 -  RELEASE  -
|  1> !BLYP D3BJ RIJCOSX def2-SVPD def2/J TightSCF
|  2> *xyz 0 1
|  3> C          4.93020       -7.37532       -2.64962
|  4> C          3.84189       -6.95161       -3.63283
|  5> H          3.45814       -5.95442       -3.40712
|  6> H          2.98848       -7.64361       -3.56708
|  7> S          4.31812       -6.91593       -5.36869
|  8> O          5.40615       -5.89948       -5.51297
|  9> F          3.11191       -6.44508       -6.04379
| 10> C          6.17399       -6.48552       -2.60631
| 11> H          4.46961       -7.40617       -1.65588
| 12> H          5.23013       -8.39868       -2.88591
| 13> O          4.76340       -8.23942       -5.69863
| 14> H          6.62449       -6.45478       -3.57637
| 15> H          6.87304       -6.88376       -1.90088
| 16> H          5.89434       -5.49571       -2.31140
| 17> *
| 18>
| 19> %MaxCore 64000
| 20>
| 21> %pal nprocs 8
| 22> end
| 23>
| 24> %scf
| 25>   MaxIter 150
| 26> end
| 27>
| 28>
| 29>                          ****END OF INPUT****

CARTESIAN COORDINATES (ANGSTROEM)
---------------------------------
  C      4.930200   -7.375320   -2.649620
  C      3.841890   -6.951610   -3.632830
  H      3.458140   -5.954420   -3.407120
  H      2.988480   -7.643610   -3.567080
  S      4.318120   -6.915930   -5.368690
  O      5.406150   -5.899480   -5.512970
  F      3.111910   -6.445080   -6.043790
  C      6.173990   -6.485520   -2.606310
  H      4.469610   -7.406170   -1.655880
  H      5.230130   -8.398680   -2.885910
  O      4.763400   -8.239420   -5.698630
  H      6.624490   -6.454780   -3.576370
  H      6.873040   -6.883760   -1.900880
  H      5.894340   -5.495710   -2.311400

 Total Charge           Charge          ....    0
 Multiplicity           Mult            ....    1
 Number of Electrons    NEL             ....   66
 Basis Dimension        Dim             ....  212

ORBITAL ENERGIES
----------------

  NO   OCC          E(Eh)            E(eV)
   0   2.0000     -88.381828     -2404.9918
   1   2.0000     -24.409114      -664.2058
   2   2.0000     -18.806160      -511.7416
   3   2.0000     -18.789663      -511.2927
   4   2.0000      -9.984400      -271.6893
   5   2.0000      -9.952225      -270.8138
   6   2.0000      -9.914848      -269.7967
   7   2.0000      -7.919325      -215.4958
   8   2.0000      -5.958567      -162.1408
   9   2.0000      -5.952356      -161.9718
  10   2.0000      -5.950615      -161.9245
  11   2.0000      -1.249259       -33.9941
  12   2.0000      -1.013750       -27.5855
  13   2.0000      -0.909439       -24.7471
  14   2.0000      -0.748046       -20.3554
  15   2.0000      -0.678200       -18.4548
  16   2.0000      -0.629559       -17.1312
  17   2.0000      -0.566536       -15.4162
  18   2.0000      -0.509130       -13.8541
  19   2.0000      -0.508125       -13.8268
  20   2.0000      -0.492575       -13.4036
  21   2.0000      -0.439124       -11.9492
  22   2.0000      -0.431127       -11.7316
  23   2.0000      -0.400640       -10.9020
  24   2.0000      -0.393521       -10.7082
  25   2.0000      -0.381586       -10.3835
  26   2.0000      -0.339305        -9.2329
  27   2.0000      -0.330082        -8.9820
  28   2.0000      -0.327871        -8.9218
  29   2.0000      -0.316011        -8.5991
  30   2.0000      -0.290963        -7.9175
  31   2.0000      -0.270658        -7.3650
  32   2.0000      -0.257226        -6.9995
  33   0.0000      -0.024523        -0.6673
  34   0.0000      -0.010323        -0.2809
  35   0.0000       0.016959         0.4615
  36   0.0000       0.020173         0.5489
  37   0.0000       0.027053         0.7361

MULLIKEN ATOMIC CHARGES
-----------------------
   0 C :    0.012338
   1 C :    0.229685
   2 H :   -0.096867
   3 H :   -0.093966
   4 S :    1.361625
   5 O :   -0.660090
   6 F :   -0.398381
   7 C :    1.253941
   8 H :   -0.240679
   9 H :   -0.162202
  10 O :   -0.581267
  11 H :   -0.273302
  12 H :   -0.215035
  13 H :   -0.135799
Sum of atomic charges:    0.0000000

LOEWDIN ATOMIC CHARGES
----------------------
   0 C :   -0.055402
   1 C :   -0.061248
   2 H :    0.018226
   3 H :    0.022626
   4 S :    1.086687
   5 O :   -0.459381
   6 F :   -0.254087
   7 C :    0.154833
   8 H :    0.028228
   9 H :    0.025761
  10 O :   -0.437620
  11 H :   -0.039076
  12 H :   -0.017122
  13 H :   -0.012426

  Mayer bond orders larger than 0.100000
B(  0-C ,  1-C ) :   1.2952 B(  0-C ,  2-H ) :   0.1736 B(  0-C ,  3-H ) :   0.1837
B(  0-C ,  7-C ) :   1.2657 B(  0-C ,  8-H ) :   0.7318 B(  0-C ,  9-H ) :   0.8188
B(  0-C , 11-H ) :   0.2926 B(  0-C , 12-H ) :   0.2713 B(  0-C , 13-H ) :   0.2869
B(  1-C ,  2-H ) :   0.8639 B(  1-C ,  3-H ) :   0.8088 B(  1-C ,  4-S ) :   0.9176
B(  1-C ,  8-H ) :   0.2175 B(  1-C ,  9-H ) :   0.1688 B(  4-S ,  5-O ) :   1.4561
B(  4-S ,  6-F ) :   0.7132 B(  4-S , 10-O ) :   1.5282 B(  5-O , 10-O ) :   0.1116
B(  7-C ,  9-H ) :   0.1210 B(  7-C , 11-H ) :   0.6867 B(  7-C , 12-H ) :   0.6136
B(  7-C , 13-H ) :   0.6212 B( 11-H , 13-H ) :   0.1343

Dispersion correction           -0.026889294
FINAL SINGLE POINT ENERGY      -766.477450454370

DIPOLE MOMENT
-------------
                                X             Y             Z
Electronic contribution:     -5.80302       0.46646     -12.75597
Nuclear contribution   :      4.74176      -0.43068      13.97705
                        -----------------------------------------
Total Dipole Moment    :     -1.06126       0.03577       1.22108
                        -----------------------------------------
Magnitude (a.u.)       :      1.61821
Magnitude (Debye)      :      4.11315

Rotational constants in cm-1:     0.131248     0.052952     0.050354
Rotational constants in MHz :  3934.713341  1587.473971  1509.583923

                             ****ORCA TERMINATED NORMALLY****
TOTAL RUN TIME: 0 days 0 hours 0 minutes 6 seconds 23 msec
