                         Program Version 5.0.0 -  RELEASE  -
|  1> !BLYP D3BJ RIJCOSX def2-SVPD def2/J TightSCF
|  2> *xyz 0 1
|  3> C          5.55821       -1.99291       -6.21505
|  4> C          4.18188       -2.58967       -6.29891
|  5> N          3.14587       -1.76843       -6.48675
|  6> C          4.01910       -3.86431       -6.22743
|  7> H          4.76849       -4.59115       -5.99077
|  8> H          3.12241       -4.33339       -6.31462
|  9> H          3.28164       -0.77779       -6.56655
| 10> H          2.21255       -2.13419       -6.56225
| 11> C          6.41926       -2.54294       -5.07763
| 12> C          5.89651       -2.16931       -3.69455
| 13> H          7.42888       -2.14367       -5.20808
| 14> H          6.50589       -3.62754       -5.17550
| 15> H          6.03683       -2.19819       -7.17685
| 16> H          5.46761       -0.90737       -6.12797
| 17> H          5.81870       -1.10488       -3.61824
| 18> H          6.57185       -2.53200       -2.94804
| 19> H          4.93221       -2.60892       -3.54698
| 20> *
| 21>
| 22> %MaxCore 64000
| 23>
| 24> %pal nprocs 8
| 25> end
| 26>
| 27> %scf
| 28>   MaxIter 150
| 29> end
| 30>
| 31>
| 32>                          ****END OF INPUT****

CARTESIAN COORDINATES (ANGSTROEM)
---------------------------------
  C      5.558210   -1.992910   -6.215050
  C      4.181880   -2.589670   -6.298910
  N      3.145870   -1.768430   -6.486750
  C      4.019100   -3.864310   -6.227430
  H      4.768490   -4.591150   -5.990770
  H      3.122410   -4.333390   -6.314620
  H      3.281640   -0.777790   -6.566550
  H      2.212550   -2.134190   -6.562250
  C      6.419260   -2.542940   -5.077630
  C      5.896510   -2.169310   -3.694550
  H      7.428880   -2.143670   -5.208080
  H      6.505890   -3.627540   -5.175500
  H      6.036830   -2.198190   -7.176850
  H      5.467610   -0.907370   -6.127970
  H      5.818700   -1.104880   -3.618240
  H      6.571850   -2.532000   -2.948040
  H      4.932210   -2.608920   -3.546980

 Total Charge           Charge          ....    0
 Multiplicity           Mult            ....    1
 Number of Electrons    NEL             ....   48
 Basis Dimension        Dim             ....  208

ORBITAL ENERGIES
----------------

  NO   OCC          E(Eh)            E(eV)
   0   2.0000     -14.024293      -381.6204
   1   2.0000      -9.937783      -270.4208
   2   2.0000      -9.919424      -269.9213
   3   2.0000      -9.914690      -269.7924
   4   2.0000      -9.899785      -269.3868
   5   2.0000      -9.859118      -268.2802
   6   2.0000      -0.829885       -22.5823
   7   2.0000      -0.708266       -19.2729
   8   2.0000      -0.649075       -17.6622
   9   2.0000      -0.605286       -16.4707
  10   2.0000      -0.537238       -14.6190
  11   2.0000      -0.490825       -13.3560
  12   2.0000      -0.465847       -12.6763
  13   2.0000      -0.433557       -11.7977
  14   2.0000      -0.398951       -10.8560
  15   2.0000      -0.384897       -10.4736
  16   2.0000      -0.351558        -9.5664
  17   2.0000      -0.341457        -9.2915
  18   2.0000      -0.317439        -8.6380
  19   2.0000      -0.305365        -8.3094
  20   2.0000      -0.289949        -7.8899
  21   2.0000      -0.283232        -7.7071
  22   2.0000      -0.275785        -7.5045
  23   2.0000      -0.157895        -4.2965
  24   0.0000       0.000639         0.0174
  25   0.0000       0.012608         0.3431
  26   0.0000       0.022958         0.6247
  27   0.0000       0.033292         0.9059
  28   0.0000       0.047884         1.3030

MULLIKEN ATOMIC CHARGES
-----------------------
   0 C :    0.697417
   1 C :    0.202842
   2 N :    0.445487
   3 C :    0.365427
   4 H :   -0.057727
   5 H :   -0.761693
   6 H :   -0.256830
   7 H :   -0.266794
   8 C :   -0.067683
   9 C :    1.127110
  10 H :   -0.284588
  11 H :   -0.199966
  12 H :   -0.267016
  13 H :   -0.167410
  14 H :   -0.093073
  15 H :   -0.255270
  16 H :   -0.160234
Sum of atomic charges:    0.0000000

LOEWDIN ATOMIC CHARGES
----------------------
   0 C :    0.010528
   1 C :   -0.259394
   2 N :    0.201331
   3 C :    0.165135
   4 H :   -0.051343
   5 H :   -0.091284
   6 H :   -0.021031
   7 H :   -0.005329
   8 C :   -0.062337
   9 C :    0.140038
  10 H :    0.013943
  11 H :    0.003732
  12 H :    0.023782
  13 H :    0.008643
  14 H :   -0.024495
  15 H :   -0.025622
  16 H :   -0.026296

  Mayer bond orders larger than 0.100000
B(  0-C ,  1-C ) :   0.8944 B(  0-C ,  2-N ) :   0.1286 B(  0-C ,  3-C ) :   0.1049
B(  0-C ,  8-C ) :   1.2002 B(  0-C , 10-H ) :   0.1733 B(  0-C , 11-H ) :   0.1981
B(  0-C , 12-H ) :   0.7572 B(  0-C , 13-H ) :   0.5699 B(  1-C ,  2-N ) :   1.0994
B(  1-C ,  3-C ) :   1.3295 B(  1-C ,  5-H ) :   0.1387 B(  1-C ,  7-H ) :  -0.1360
B(  1-C , 11-H ) :  -0.1127 B(  1-C , 12-H ) :   0.1818 B(  1-C , 13-H ) :   0.2227
B(  2-N ,  3-C ) :   0.3751 B(  2-N ,  6-H ) :   1.1131 B(  2-N ,  7-H ) :   1.2768
B(  3-C ,  4-H ) :   0.7916 B(  3-C ,  5-H ) :   0.5960 B(  4-H ,  5-H ) :  -0.1823
B(  6-H ,  7-H ) :  -0.1696 B(  8-C ,  9-C ) :   1.3065 B(  8-C , 10-H ) :   0.8076
B(  8-C , 11-H ) :   0.7978 B(  8-C , 12-H ) :   0.1624 B(  8-C , 13-H ) :   0.2194
B(  8-C , 14-H ) :   0.2965 B(  8-C , 15-H ) :   0.2873 B(  8-C , 16-H ) :   0.2844
B(  9-C , 11-H ) :   0.1259 B(  9-C , 14-H ) :   0.6858 B(  9-C , 15-H ) :   0.6415
B(  9-C , 16-H ) :   0.7348 B( 12-H , 13-H ) :  -0.1039

Dispersion correction           -0.028412299
FINAL SINGLE POINT ENERGY      -251.589338209550

DIPOLE MOMENT
-------------
                                X             Y             Z
Electronic contribution:     -2.71354       0.43051      -2.79270
Nuclear contribution   :      2.50934       0.16282       2.72182
                        -----------------------------------------
Total Dipole Moment    :     -0.20419       0.59333      -0.07089
                        -----------------------------------------
Magnitude (a.u.)       :      0.63148
Magnitude (Debye)      :      1.60509

Rotational constants in cm-1:     0.192764     0.074934     0.070466
Rotational constants in MHz :  5778.908020  2246.454937  2112.518546

                             ****ORCA TERMINATED NORMALLY****
TOTAL RUN TIME: 0 days 0 hours 0 minutes 6 seconds 2 msec
