                         Program Version 5.0.0 -  RELEASE  -
|  1> !BLYP D3BJ RIJCOSX def2-SVPD def2/J TightSCF
|  2> *xyz 0 1
|  3> C          4.93020       -7.37532       -2.64962
|  4> C          3.84189       -6.95161       -3.63283
|  5> H          3.45814       -5.95442       -3.40712
|  6> H          2.98848       -7.64361       -3.56708
|  7> S          4.31812       -6.91593       -5.36869
|  8> O          5.40615       -5.89948       -5.51297
|  9> O          3.11191       -6.44508       -6.04379
| 10> C          6.17399       -6.48552       -2.60631
| 11> H          4.46961       -7.40617       -1.65588
| 12> H          5.23013       -8.39868       -2.88591
| 13> F          4.76340       -8.23942       -5.69863
| 14> H          6.62449       -6.45478       -3.57637
| 15> H          6.87304       -6.88376       -1.90088
| 16> H          5.89434       -5.49571       -2.31140
| 17> *
| 18>
| 19> %MaxCore 64000
| 20>
| 21> %pal nprocs 8
| 22> end
| 23>
| 24> %scf
| 25>   MaxIter 150
| 26> end
| 27>
| 28>
| 29>                          ****END OF INPUT****

CARTESIAN COORDINATES (ANGSTROEM)
---------------------------------
  C      4.930200   -7.375320   -2.649620
  C      3.841890   -6.951610   -3.632830
  H      3.458140   -5.954420   -3.407120
  H      2.988480   -7.643610   -3.567080
  S      4.318120   -6.915930   -5.368690
  O      5.406150   -5.899480   -5.512970
  O      3.111910   -6.445080   -6.043790
  C      6.173990   -6.485520   -2.606310
  H      4.469610   -7.406170   -1.655880
  H      5.230130   -8.398680   -2.885910
  F      4.763400   -8.239420   -5.698630
  H      6.624490   -6.454780   -3.576370
  H      6.873040   -6.883760   -1.900880
  H      5.894340   -5.495710   -2.311400

 Total Charge           Charge          ....    0
 Multiplicity           Mult            ....    1
 Number of Electrons    NEL             ....   66
 Basis Dimension        Dim             ....  212

ORBITAL ENERGIES
----------------

  NO   OCC          E(Eh)            E(eV)
   0   2.0000     -88.383504     -2405.0374
   1   2.0000     -24.423019      -664.5841
   2   2.0000     -18.796981      -511.4919
   3   2.0000     -18.790268      -511.3092
   4   2.0000      -9.984707      -271.6977
   5   2.0000      -9.954287      -270.8699
   6   2.0000      -9.918478      -269.8955
   7   2.0000      -7.920933      -215.5396
   8   2.0000      -5.960509      -162.1937
   9   2.0000      -5.953689      -162.0081
  10   2.0000      -5.952054      -161.9636
  11   2.0000      -1.271841       -34.6086
  12   2.0000      -1.002716       -27.2853
  13   2.0000      -0.901940       -24.5430
  14   2.0000      -0.751001       -20.4358
  15   2.0000      -0.679160       -18.4809
  16   2.0000      -0.640967       -17.4416
  17   2.0000      -0.570366       -15.5204
  18   2.0000      -0.530878       -14.4459
  19   2.0000      -0.523178       -14.2364
  20   2.0000      -0.485826       -13.2200
  21   2.0000      -0.438874       -11.9424
  22   2.0000      -0.432310       -11.7637
  23   2.0000      -0.404702       -11.0125
  24   2.0000      -0.387485       -10.5440
  25   2.0000      -0.384368       -10.4592
  26   2.0000      -0.335821        -9.1382
  27   2.0000      -0.335262        -9.1229
  28   2.0000      -0.331616        -9.0237
  29   2.0000      -0.316262        -8.6059
  30   2.0000      -0.279340        -7.6012
  31   2.0000      -0.272161        -7.4059
  32   2.0000      -0.250184        -6.8078
  33   0.0000      -0.032759        -0.8914
  34   0.0000      -0.001851        -0.0504
  35   0.0000       0.012495         0.3400
  36   0.0000       0.017719         0.4822
  37   0.0000       0.020579         0.5600

MULLIKEN ATOMIC CHARGES
-----------------------
   0 C :    0.046309
   1 C :    0.248563
   2 H :   -0.106966
   3 H :   -0.111729
   4 S :    1.321557
   5 O :   -0.646339
   6 O :   -0.606686
   7 C :    1.266069
   8 H :   -0.245883
   9 H :   -0.184018
  10 F :   -0.354410
  11 H :   -0.278500
  12 H :   -0.213564
  13 H :   -0.134402
Sum of atomic charges:    0.0000000

LOEWDIN ATOMIC CHARGES
----------------------
   0 C :   -0.070614
   1 C :   -0.050085
   2 H :    0.032472
   3 H :    0.023644
   4 S :    1.086365
   5 O :   -0.454420
   6 O :   -0.450699
   7 C :    0.151428
   8 H :    0.025484
   9 H :    0.018356
  10 F :   -0.239147
  11 H :   -0.044599
  12 H :   -0.017965
  13 H :   -0.010222

  Mayer bond orders larger than 0.100000
B(  0-C ,  1-C ) :   1.2467 B(  0-C ,  2-H ) :   0.1725 B(  0-C ,  3-H ) :   0.1696
B(  0-C ,  7-C ) :   1.2737 B(  0-C ,  8-H ) :   0.7286 B(  0-C ,  9-H ) :   0.8050
B(  0-C , 11-H ) :   0.3027 B(  0-C , 12-H ) :   0.2702 B(  0-C , 13-H ) :   0.2906
B(  1-C ,  2-H ) :   0.8714 B(  1-C ,  3-H ) :   0.8383 B(  1-C ,  4-S ) :   0.9443
B(  1-C ,  8-H ) :   0.2123 B(  1-C ,  9-H ) :   0.1644 B(  4-S ,  5-O ) :   1.4910
B(  4-S ,  6-O ) :   1.5822 B(  4-S , 10-F ) :   0.7133 B(  7-C ,  9-H ) :   0.1204
B(  7-C , 11-H ) :   0.6750 B(  7-C , 12-H ) :   0.6186 B(  7-C , 13-H ) :   0.6229
B( 11-H , 13-H ) :   0.1365

Dispersion correction           -0.026749669
FINAL SINGLE POINT ENERGY      -766.465217112041

DIPOLE MOMENT
-------------
                                X             Y             Z
Electronic contribution:     -3.00555      -2.54258     -12.15718
Nuclear contribution   :      2.96568       1.49902      13.60585
                        -----------------------------------------
Total Dipole Moment    :     -0.03987      -1.04355       1.44867
                        -----------------------------------------
Magnitude (a.u.)       :      1.78584
Magnitude (Debye)      :      4.53924

Rotational constants in cm-1:     0.127173     0.053596     0.051689
Rotational constants in MHz :  3812.547794  1606.772866  1549.597841

                             ****ORCA TERMINATED NORMALLY****
TOTAL RUN TIME: 0 days 0 hours 0 minutes 5 seconds 439 msec
