                         Program Version 5.0.0 -  RELEASE  -
|  1> !BLYP D3BJ RIJCOSX def2-SVPD def2/J TightSCF xyzfile
|  2>
|  3> *xyzfile 0 1 D2.xyz
|  4>
|  5> %MaxCore 64000
|  6>
|  7> %pal nprocs 4
|  8> end
|  9>
| 10> %scf
| 11>   MaxIter 150
| 12> end
| 13>
| 14>
| 15>                          ****END OF INPUT****

CARTESIAN COORDINATES (ANGSTROEM)
---------------------------------
  C      5.558206   -1.992914   -6.215054
  C      4.930199   -7.375319   -2.649623
  C      3.841892   -6.951611   -3.632829
  H      3.458144   -5.954425   -3.407121
  H      2.988484   -7.643606   -3.567078
  S      4.318115   -6.915930   -5.368692
  C      4.181880   -2.589671   -6.298911
  N      3.145873   -1.768431   -6.486753
  C      4.019102   -3.864307   -6.227427
  H      4.768490   -4.591153   -5.990773
  H      3.122405   -4.333392   -6.314620
  H      3.281635   -0.777786   -6.566549
  H      2.212549   -2.134193   -6.562246
  F      5.406154   -5.899480   -5.512972
  O      3.111910   -6.445079   -6.043792
  C      6.419260   -2.542944   -5.077630
  C      5.872267   -5.002756   -2.427819
  C      6.173994   -6.485522   -2.606315
  H      6.734852   -6.613767   -3.534015
  H      6.821463   -6.831018   -1.793617
  H      4.469612   -7.406168   -1.655876
  H      5.230134   -8.398678   -2.885906
  C      5.896512   -2.169314   -3.694552
  H      7.428880   -2.143665   -5.208078
  H      6.505894   -3.627541   -5.175502
  C      6.807804   -2.623428   -2.551019
  H      4.894708   -2.589732   -3.557501
  H      5.778823   -1.081255   -3.635790
  C      7.111544   -4.122463   -2.520363
  H      7.751615   -2.071393   -2.614406
  H      6.345837   -2.326401   -1.604086
  H      5.362882   -4.828697   -1.471335
  H      5.174429   -4.702577   -3.211298
  H      7.778329   -4.329347   -1.677651
  H      7.673189   -4.402845   -3.417586
  O      4.763396   -8.239424   -5.698629
  H      6.036826   -2.198189   -7.176852
  H      5.467610   -0.907371   -6.127968

 Total Charge           Charge          ....    0
 Multiplicity           Mult            ....    1
 Number of Electrons    NEL             ....  136
 Basis Dimension        Dim             ....  512

ORBITAL ENERGIES
----------------

  NO   OCC          E(Eh)            E(eV)
   0   2.0000     -88.378267     -2404.8949
   1   2.0000     -24.395088      -663.8241
   2   2.0000     -18.803592      -511.6717
   3   2.0000     -18.790929      -511.3272
   4   2.0000     -14.017608      -381.4385
   5   2.0000      -9.977462      -271.5005
   6   2.0000      -9.946535      -270.6590
   7   2.0000      -9.931658      -270.2542
   8   2.0000      -9.927852      -270.1506
   9   2.0000      -9.923967      -270.0449
  10   2.0000      -9.919677      -269.9281
  11   2.0000      -9.916829      -269.8506
  12   2.0000      -9.916660      -269.8460
  13   2.0000      -9.915651      -269.8186
  14   2.0000      -9.912538      -269.7339
  15   2.0000      -9.836476      -267.6641
  16   2.0000      -7.914472      -215.3637
  17   2.0000      -5.953855      -162.0126
  18   2.0000      -5.947507      -161.8399
  19   2.0000      -5.945896      -161.7960
  20   2.0000      -1.228577       -33.4313
  21   2.0000      -1.016323       -27.6556
  22   2.0000      -0.923278       -25.1237
  23   2.0000      -0.822617       -22.3846
  24   2.0000      -0.754285       -20.5251
  25   2.0000      -0.728810       -19.8319
  26   2.0000      -0.702395       -19.1132
  27   2.0000      -0.677299       -18.4302
  28   2.0000      -0.644468       -17.5369
  29   2.0000      -0.634746       -17.2723
  30   2.0000      -0.609672       -16.5900
  31   2.0000      -0.585418       -15.9300
  32   2.0000      -0.552853       -15.0439
  33   2.0000      -0.538171       -14.6444
  34   2.0000      -0.521181       -14.1820
  35   2.0000      -0.499964       -13.6047
  36   2.0000      -0.497820       -13.5464
  37   2.0000      -0.482977       -13.1425
  38   2.0000      -0.478126       -13.0105
  39   2.0000      -0.458474       -12.4757
  40   2.0000      -0.440368       -11.9830
  41   2.0000      -0.435189       -11.8421
  42   2.0000      -0.429931       -11.6990
  43   2.0000      -0.416481       -11.3330
  44   2.0000      -0.404258       -11.0004
  45   2.0000      -0.402000       -10.9390
  46   2.0000      -0.395679       -10.7670
  47   2.0000      -0.383657       -10.4398
  48   2.0000      -0.368980       -10.0405
  49   2.0000      -0.364607        -9.9215
  50   2.0000      -0.357148        -9.7185
  51   2.0000      -0.353502        -9.6193
  52   2.0000      -0.329519        -8.9667
  53   2.0000      -0.326695        -8.8898
  54   2.0000      -0.321604        -8.7513
  55   2.0000      -0.316160        -8.6031
  56   2.0000      -0.306767        -8.3475
  57   2.0000      -0.303526        -8.2594
  58   2.0000      -0.294700        -8.0192
  59   2.0000      -0.291622        -7.9354
  60   2.0000      -0.286885        -7.8065
  61   2.0000      -0.281611        -7.6630
  62   2.0000      -0.276386        -7.5209
  63   2.0000      -0.275183        -7.4881
  64   2.0000      -0.272120        -7.4048
  65   2.0000      -0.265252        -7.2179
  66   2.0000      -0.255923        -6.9640
  67   2.0000      -0.149394        -4.0652
  68   0.0000      -0.026674        -0.7258
  69   0.0000      -0.001170        -0.0318
  70   0.0000       0.002052         0.0558
  71   0.0000       0.003995         0.1087
  72   0.0000       0.013733         0.3737

MULLIKEN ATOMIC CHARGES
-----------------------
   0 C :    1.207463
   1 C :    0.815411
   2 C :    0.330215
   3 H :    0.122263
   4 H :   -0.454813
   5 S :    1.329979
   6 C :   -0.026825
   7 N :    0.462415
   8 C :    1.642962
   9 H :   -0.458162
  10 H :   -1.294510
  11 H :   -0.239368
  12 H :   -0.278466
  13 F :   -0.633603
  14 O :   -0.643819
  15 C :    0.677437
  16 C :    0.321251
  17 C :    0.525544
  18 H :   -0.081951
  19 H :   -0.484970
  20 H :   -0.055582
  21 H :   -0.173231
  22 C :    0.163808
  23 H :   -0.280409
  24 H :   -0.768909
  25 C :    0.930695
  26 H :    0.047957
  27 H :   -0.517239
  28 C :    0.424865
  29 H :   -0.114657
  30 H :   -0.197291
  31 H :   -0.094363
  32 H :   -0.576400
  33 H :   -0.500604
  34 H :   -0.036420
  35 O :   -0.677931
  36 H :   -0.291362
  37 H :   -0.121379
Sum of atomic charges:    0.0000000

LOEWDIN ATOMIC CHARGES
----------------------
   0 C :    0.023134
   1 C :   -0.021758
   2 C :   -0.034266
   3 H :    0.012641
   4 H :    0.036688
   5 S :    1.098322
   6 C :   -0.239295
   7 N :    0.202486
   8 C :    0.189319
   9 H :   -0.131766
  10 H :   -0.101918
  11 H :   -0.023382
  12 H :   -0.004130
  13 F :   -0.276769
  14 O :   -0.431644
  15 C :   -0.013667
  16 C :   -0.025128
  17 C :   -0.020682
  18 H :    0.011271
  19 H :    0.027184
  20 H :    0.030456
  21 H :    0.025134
  22 C :   -0.022731
  23 H :    0.024299
  24 H :   -0.009722
  25 C :   -0.021946
  26 H :    0.009053
  27 H :    0.018735
  28 C :   -0.023987
  29 H :    0.016897
  30 H :    0.016416
  31 H :    0.035894
  32 H :   -0.020017
  33 H :    0.019928
  34 H :    0.013216
  35 O :   -0.422540
  36 H :    0.026021
  37 H :    0.008253

  Mayer bond orders larger than 0.100000
B(  0-C ,  6-C ) :   0.9260 B(  0-C ,  7-N ) :   0.1022 B(  0-C ,  8-C ) :   0.2121
B(  0-C ,  9-H ) :  -0.2017 B(  0-C , 15-C ) :   1.1550 B(  0-C , 24-H ) :   0.1599
B(  0-C , 36-H ) :   0.3580 B(  0-C , 37-H ) :   0.5253 B(  1-C ,  2-C ) :   1.2007
B(  1-C ,  3-H ) :   0.1150 B(  1-C ,  4-H ) :   0.2035 B(  1-C , 17-C ) :   1.1769
B(  1-C , 20-H ) :   0.5619 B(  1-C , 21-H ) :   0.5130 B(  2-C ,  3-H ) :   0.8195
B(  2-C ,  4-H ) :   0.6033 B(  2-C ,  5-S ) :   0.9480 B(  2-C , 17-C ) :   0.1377
B(  2-C , 20-H ) :   0.2565 B(  2-C , 21-H ) :   0.1537 B(  2-C , 35-O ) :   0.1250
B(  4-H ,  5-S ) :   0.1743 B(  5-S , 13-F ) :   0.6303 B(  5-S , 14-O ) :   1.5498
B(  5-S , 35-O ) :   1.5284 B(  6-C ,  7-N ) :   0.9553 B(  6-C ,  8-C ) :   1.7924
B(  6-C ,  9-H ) :  -0.1856 B(  6-C , 10-H ) :   0.2383 B(  6-C , 12-H ) :  -0.1357
B(  6-C , 24-H ) :  -0.1021 B(  6-C , 36-H ) :   0.2991 B(  6-C , 37-H ) :   0.1762
B(  7-N ,  8-C ) :   0.5546 B(  7-N ,  9-H ) :   0.1249 B(  7-N , 10-H ) :  -0.1289
B(  7-N , 11-H ) :   1.1021 B(  7-N , 12-H ) :   1.2777 B(  8-C , 10-H ) :  -0.8141
B(  8-C , 14-O ) :  -0.2892 B(  8-C , 24-H ) :   0.1689 B(  9-H , 10-H ) :  -0.2079
B(  9-H , 15-C ) :   0.1401 B(  9-H , 24-H ) :   0.1657 B( 10-H , 14-O ) :   0.3456
B( 10-H , 24-H ) :  -0.1714 B( 11-H , 12-H ) :  -0.1628 B( 13-F , 14-O ) :   0.1285
B( 13-F , 24-H ) :   0.1514 B( 13-F , 35-O ) :   0.1230 B( 15-C , 22-C ) :   1.1491
B( 15-C , 23-H ) :   0.5792 B( 15-C , 24-H ) :   0.4133 B( 15-C , 26-H ) :   0.1810
B( 15-C , 27-H ) :   0.1946 B( 15-C , 36-H ) :   0.4168 B( 15-C , 37-H ) :   0.2000
B( 16-C , 17-C ) :   1.1713 B( 16-C , 18-H ) :   0.1872 B( 16-C , 19-H ) :   0.2108
B( 16-C , 28-C ) :   1.1698 B( 16-C , 31-H ) :   0.6479 B( 16-C , 32-H ) :   0.8622
B( 16-C , 33-H ) :   0.2454 B( 16-C , 34-H ) :   0.1992 B( 17-C , 18-H ) :   0.7657
B( 17-C , 19-H ) :   0.6459 B( 17-C , 20-H ) :   0.1131 B( 17-C , 21-H ) :   0.3207
B( 17-C , 28-C ) :   0.1887 B( 17-C , 31-H ) :   0.1261 B( 17-C , 32-H ) :   0.1295
B( 18-H , 19-H ) :  -0.1273 B( 20-H , 21-H ) :  -0.1517 B( 22-C , 23-H ) :   0.1942
B( 22-C , 24-H ) :   0.2756 B( 22-C , 25-C ) :   1.0347 B( 22-C , 26-H ) :   0.7917
B( 22-C , 27-H ) :   0.8992 B( 22-C , 28-C ) :   0.2280 B( 22-C , 29-H ) :   0.1908
B( 22-C , 30-H ) :   0.3406 B( 22-C , 34-H ) :  -0.1037 B( 25-C , 28-C ) :   1.0772
B( 25-C , 29-H ) :   0.5108 B( 25-C , 30-H ) :   0.5228 B( 25-C , 34-H ) :   0.1104
B( 26-H , 27-H ) :  -0.1325 B( 26-H , 32-H ) :   0.1896 B( 28-C , 29-H ) :   0.3053
B( 28-C , 30-H ) :   0.1389 B( 28-C , 31-H ) :   0.1422 B( 28-C , 32-H ) :   0.1314
B( 28-C , 33-H ) :   0.7692 B( 28-C , 34-H ) :   0.7377 B( 29-H , 30-H ) :  -0.1649
B( 33-H , 34-H ) :  -0.1095 B( 36-H , 37-H ) :  -0.1924

Dispersion correction           -0.092276197
FINAL SINGLE POINT ENERGY     -1134.666942815616

DIPOLE MOMENT
-------------
                                X             Y             Z
Electronic contribution:     -7.77126     -16.95236     -13.64925
Nuclear contribution   :      7.91684      17.85507      15.13212
                        -----------------------------------------
Total Dipole Moment    :      0.14558       0.90272       1.48287
                        -----------------------------------------
Magnitude (a.u.)       :      1.74212
Magnitude (Debye)      :      4.42812

Rotational constants in cm-1:     0.018015     0.012410     0.008313
Rotational constants in MHz :   540.084467   372.038374   249.228144

                             ****ORCA TERMINATED NORMALLY****
TOTAL RUN TIME: 0 days 0 hours 0 minutes 59 seconds 352 msec
