                         Program Version 5.0.0 -  RELEASE  -
|  1> !BLYP D3BJ RIJCOSX def2-SVPD def2/J TightSCF xyzfile
|  2>
|  3> *xyzfile 0 1 D5.xyz
|  4>
|  5> %MaxCore 64000
|  6>
|  7> %pal nprocs 4
|  8> end
|  9>
| 10> %scf
| 11>   MaxIter 150
| 12> end
| 13>
| 14>
| 15>                          ****END OF INPUT****

CARTESIAN COORDINATES (ANGSTROEM)
---------------------------------
  C      5.558206   -1.992914   -6.215054
  C      4.930199   -7.375319   -2.649623
  C      3.841892   -6.951611   -3.632829
  H      3.458144   -5.954425   -3.407121
  H      2.988484   -7.643606   -3.567078
  S      4.318115   -6.915930   -5.368692
  C      4.181880   -2.589671   -6.298911
  C      3.145873   -1.768431   -6.486753
  N      4.019102   -3.864307   -6.227427
  H      4.768490   -4.591153   -5.990773
  H      3.122405   -4.333392   -6.314620
  H      3.281635   -0.777786   -6.566549
  H      2.212549   -2.134193   -6.562246
  O      5.406154   -5.899480   -5.512972
  O      3.111910   -6.445079   -6.043792
  C      6.419260   -2.542944   -5.077630
  C      5.872267   -5.002756   -2.427819
  C      6.173994   -6.485522   -2.606315
  H      6.734852   -6.613767   -3.534015
  H      6.821463   -6.831018   -1.793617
  H      4.469612   -7.406168   -1.655876
  H      5.230134   -8.398678   -2.885906
  C      5.896512   -2.169314   -3.694552
  H      7.428880   -2.143665   -5.208078
  H      6.505894   -3.627541   -5.175502
  C      6.807804   -2.623428   -2.551019
  H      4.894708   -2.589732   -3.557501
  H      5.778823   -1.081255   -3.635790
  C      7.111544   -4.122463   -2.520363
  H      7.751615   -2.071393   -2.614406
  H      6.345837   -2.326401   -1.604086
  H      5.362882   -4.828697   -1.471335
  H      5.174429   -4.702577   -3.211298
  H      7.778329   -4.329347   -1.677651
  H      7.673189   -4.402845   -3.417586
  F      4.763396   -8.239424   -5.698629
  H      6.036826   -2.198189   -7.176852
  H      5.467610   -0.907371   -6.127968

 Total Charge           Charge          ....    0
 Multiplicity           Mult            ....    1
 Number of Electrons    NEL             ....  136
 Basis Dimension        Dim             ....  512

ORBITAL ENERGIES
----------------

  NO   OCC          E(Eh)            E(eV)
   0   2.0000     -88.412701     -2405.8319
   1   2.0000     -24.445756      -665.2028
   2   2.0000     -18.822909      -512.1974
   3   2.0000     -18.822547      -512.1875
   4   2.0000     -13.980071      -380.4171
   5   2.0000      -9.999654      -272.1044
   6   2.0000      -9.962660      -271.0978
   7   2.0000      -9.934121      -270.3212
   8   2.0000      -9.922258      -269.9984
   9   2.0000      -9.915198      -269.8062
  10   2.0000      -9.909899      -269.6621
  11   2.0000      -9.909572      -269.6532
  12   2.0000      -9.902356      -269.4568
  13   2.0000      -9.901607      -269.4364
  14   2.0000      -9.897415      -269.3223
  15   2.0000      -9.825253      -267.3587
  16   2.0000      -7.948819      -216.2984
  17   2.0000      -5.988299      -162.9499
  18   2.0000      -5.982086      -162.7808
  19   2.0000      -5.979756      -162.7174
  20   2.0000      -1.293829       -35.2069
  21   2.0000      -1.034553       -28.1516
  22   2.0000      -0.936242       -25.4764
  23   2.0000      -0.801826       -21.8188
  24   2.0000      -0.770152       -20.9569
  25   2.0000      -0.726396       -19.7662
  26   2.0000      -0.703681       -19.1481
  27   2.0000      -0.678836       -18.4721
  28   2.0000      -0.660912       -17.9843
  29   2.0000      -0.631163       -17.1748
  30   2.0000      -0.608265       -16.5517
  31   2.0000      -0.579581       -15.7712
  32   2.0000      -0.559758       -15.2318
  33   2.0000      -0.549687       -14.9578
  34   2.0000      -0.536809       -14.6073
  35   2.0000      -0.524480       -14.2718
  36   2.0000      -0.509931       -13.8759
  37   2.0000      -0.492047       -13.3893
  38   2.0000      -0.482094       -13.1184
  39   2.0000      -0.456517       -12.4225
  40   2.0000      -0.453015       -12.3272
  41   2.0000      -0.448342       -12.2000
  42   2.0000      -0.429088       -11.6761
  43   2.0000      -0.411268       -11.1912
  44   2.0000      -0.409087       -11.1318
  45   2.0000      -0.399767       -10.8782
  46   2.0000      -0.386982       -10.5303
  47   2.0000      -0.382355       -10.4044
  48   2.0000      -0.371538       -10.1100
  49   2.0000      -0.368941       -10.0394
  50   2.0000      -0.354309        -9.6412
  51   2.0000      -0.350304        -9.5323
  52   2.0000      -0.344591        -9.3768
  53   2.0000      -0.329281        -8.9602
  54   2.0000      -0.319791        -8.7020
  55   2.0000      -0.313962        -8.5434
  56   2.0000      -0.311218        -8.4687
  57   2.0000      -0.303812        -8.2672
  58   2.0000      -0.300793        -8.1850
  59   2.0000      -0.295084        -8.0296
  60   2.0000      -0.286810        -7.8045
  61   2.0000      -0.280998        -7.6463
  62   2.0000      -0.277842        -7.5605
  63   2.0000      -0.270692        -7.3659
  64   2.0000      -0.265465        -7.2237
  65   2.0000      -0.254525        -6.9260
  66   2.0000      -0.249210        -6.7813
  67   2.0000      -0.121823        -3.3150
  68   0.0000      -0.048709        -1.3254
  69   0.0000      -0.016135        -0.4390
  70   0.0000      -0.005179        -0.1409
  71   0.0000       0.000370         0.0101
  72   0.0000       0.005927         0.1613

MULLIKEN ATOMIC CHARGES
-----------------------
   0 C :    1.129871
   1 C :    0.790869
   2 C :    0.276305
   3 H :    0.110947
   4 H :   -0.404786
   5 S :    1.453337
   6 C :   -0.546536
   7 C :    0.675292
   8 N :    1.306728
   9 H :   -0.452966
  10 H :   -0.373641
  11 H :   -0.457652
  12 H :   -0.551541
  13 O :   -0.935794
  14 O :   -0.666775
  15 C :    0.771920
  16 C :    0.273716
  17 C :    0.591861
  18 H :   -0.039810
  19 H :   -0.510589
  20 H :   -0.068413
  21 H :   -0.179518
  22 C :    0.194644
  23 H :   -0.277290
  24 H :   -0.835244
  25 C :    0.913252
  26 H :    0.012613
  27 H :   -0.506337
  28 C :    0.395013
  29 H :   -0.109044
  30 H :   -0.215408
  31 H :   -0.086289
  32 H :   -0.512231
  33 H :   -0.513144
  34 H :   -0.002365
  35 F :   -0.473236
  36 H :   -0.323438
  37 H :    0.145679
Sum of atomic charges:    0.0000000

LOEWDIN ATOMIC CHARGES
----------------------
   0 C :    0.024148
   1 C :   -0.021869
   2 C :   -0.030744
   3 H :    0.027416
   4 H :    0.027608
   5 S :    1.151547
   6 C :   -0.262117
   7 C :    0.183394
   8 N :    0.208959
   9 H :   -0.112130
  10 H :   -0.027607
  11 H :   -0.110372
  12 H :   -0.104258
  13 O :   -0.428190
  14 O :   -0.426012
  15 C :   -0.016746
  16 C :   -0.022792
  17 C :   -0.021245
  18 H :    0.006622
  19 H :    0.026445
  20 H :    0.033193
  21 H :    0.020799
  22 C :   -0.021241
  23 H :    0.021846
  24 H :   -0.015086
  25 C :   -0.022606
  26 H :    0.010258
  27 H :    0.021473
  28 C :   -0.022181
  29 H :    0.016723
  30 H :    0.015197
  31 H :    0.034582
  32 H :   -0.018683
  33 H :    0.018419
  34 H :    0.015554
  35 F :   -0.220447
  36 H :    0.021805
  37 H :    0.018336

  Mayer bond orders larger than 0.100000
B(  0-C ,  6-C ) :   0.8550 B(  0-C ,  8-N ) :   0.2170 B(  0-C , 15-C ) :   1.0677
B(  0-C , 23-H ) :   0.1483 B(  0-C , 24-H ) :   0.2199 B(  0-C , 36-H ) :   0.2539
B(  0-C , 37-H ) :   0.5934 B(  1-C ,  2-C ) :   1.2145 B(  1-C ,  3-H ) :   0.1193
B(  1-C ,  4-H ) :   0.2069 B(  1-C , 16-C ) :   0.1196 B(  1-C , 17-C ) :   1.1725
B(  1-C , 18-H ) :   0.1055 B(  1-C , 20-H ) :   0.5717 B(  1-C , 21-H ) :   0.4968
B(  2-C ,  3-H ) :   0.8043 B(  2-C ,  4-H ) :   0.6623 B(  2-C ,  5-S ) :   0.9536
B(  2-C , 17-C ) :   0.1171 B(  2-C , 20-H ) :   0.2506 B(  2-C , 21-H ) :   0.1336
B(  2-C , 35-F ) :   0.1155 B(  3-H , 17-C ) :  -0.1127 B(  4-H ,  5-S ) :   0.1393
B(  5-S , 13-O ) :   1.2576 B(  5-S , 14-O ) :   1.5007 B(  5-S , 35-F ) :   0.6172
B(  6-C ,  7-C ) :   1.3450 B(  6-C ,  8-N ) :   1.4066 B(  6-C , 10-H ) :  -0.2010
B(  6-C , 11-H ) :   0.1602 B(  6-C , 12-H ) :   0.3943 B(  6-C , 15-C ) :   0.1996
B(  6-C , 24-H ) :  -0.1338 B(  6-C , 36-H ) :   0.3812 B(  6-C , 37-H ) :   0.1814
B(  7-C ,  8-N ) :   0.1857 B(  7-C , 10-H ) :  -0.1382 B(  7-C , 11-H ) :   0.7371
B(  7-C , 12-H ) :   0.4237 B(  8-N ,  9-H ) :   0.4605 B(  8-N , 10-H ) :   0.8267
B(  8-N , 13-O ) :  -0.1807 B(  8-N , 24-H ) :   0.1126 B(  9-H , 10-H ) :  -0.2092
B(  9-H , 13-O ) :   0.2500 B( 10-H , 14-O ) :   0.1731 B( 13-O , 14-O ) :   0.1844
B( 13-O , 24-H ) :   0.2207 B( 13-O , 35-F ) :   0.1249 B( 15-C , 22-C ) :   1.1468
B( 15-C , 23-H ) :   0.5660 B( 15-C , 24-H ) :   0.2012 B( 15-C , 26-H ) :   0.1826
B( 15-C , 27-H ) :   0.2211 B( 15-C , 36-H ) :   0.3545 B( 15-C , 37-H ) :   0.2057
B( 16-C , 17-C ) :   1.1752 B( 16-C , 18-H ) :   0.1838 B( 16-C , 19-H ) :   0.1905
B( 16-C , 28-C ) :   1.1944 B( 16-C , 31-H ) :   0.6497 B( 16-C , 32-H ) :   0.8595
B( 16-C , 33-H ) :   0.2402 B( 16-C , 34-H ) :   0.1923 B( 17-C , 18-H ) :   0.7477
B( 17-C , 19-H ) :   0.6250 B( 17-C , 20-H ) :   0.1226 B( 17-C , 21-H ) :   0.3262
B( 17-C , 28-C ) :   0.1981 B( 17-C , 31-H ) :   0.1264 B( 17-C , 32-H ) :   0.1195
B( 18-H , 19-H ) :  -0.1128 B( 20-H , 21-H ) :  -0.1590 B( 22-C , 23-H ) :   0.1810
B( 22-C , 24-H ) :   0.3111 B( 22-C , 25-C ) :   1.0235 B( 22-C , 26-H ) :   0.7926
B( 22-C , 27-H ) :   0.8561 B( 22-C , 28-C ) :   0.2167 B( 22-C , 29-H ) :   0.1695
B( 22-C , 30-H ) :   0.3190 B( 23-H , 27-H ) :   0.1008 B( 24-H , 34-H ) :   0.1218
B( 25-C , 28-C ) :   1.0814 B( 25-C , 29-H ) :   0.5475 B( 25-C , 30-H ) :   0.5378
B( 25-C , 34-H ) :   0.1063 B( 26-H , 27-H ) :  -0.1161 B( 26-H , 32-H ) :   0.1757
B( 28-C , 29-H ) :   0.2978 B( 28-C , 30-H ) :   0.1505 B( 28-C , 31-H ) :   0.1368
B( 28-C , 32-H ) :   0.1240 B( 28-C , 33-H ) :   0.7774 B( 28-C , 34-H ) :   0.7320
B( 29-H , 30-H ) :  -0.1728 B( 33-H , 34-H ) :  -0.1146 B( 36-H , 37-H ) :  -0.1436

Dispersion correction           -0.092453379
FINAL SINGLE POINT ENERGY     -1134.663304226556

DIPOLE MOMENT
-------------
                                X             Y             Z
Electronic contribution:     -8.10879     -23.31922     -13.62951
Nuclear contribution   :      8.54118      20.92489      15.31138
                        -----------------------------------------
Total Dipole Moment    :      0.43239      -2.39433       1.68187
                        -----------------------------------------
Magnitude (a.u.)       :      2.95778
Magnitude (Debye)      :      7.51808

Rotational constants in cm-1:     0.018156     0.012306     0.008278
Rotational constants in MHz :   544.309022   368.914527   248.178402

                             ****ORCA TERMINATED NORMALLY****
TOTAL RUN TIME: 0 days 0 hours 1 minutes 2 seconds 24 msec
