                         Program Version 5.0.0 -  RELEASE  -
|  1> !BLYP D3BJ RIJCOSX def2-SVPD def2/J TightSCF xyzfile
|  2>
|  3> *xyzfile 0 1 D6.xyz
|  4>
|  5> %MaxCore 64000
|  6>
|  7> %pal nprocs 4
|  8> end
|  9>
| 10> %scf
| 11>   MaxIter 150
| 12> end
| 13>
| 14>
| 15>                          ****END OF INPUT****

CARTESIAN COORDINATES (ANGSTROEM)
---------------------------------
  C      5.558206   -1.992914   -6.215054
  C      4.930199   -7.375319   -2.649623
  C      3.841892   -6.951611   -3.632829
  H      3.458144   -5.954425   -3.407121
  H      2.988484   -7.643606   -3.567078
  S      4.318115   -6.915930   -5.368692
  C      4.181880   -2.589671   -6.298911
  N      3.145873   -1.768431   -6.486753
  C      4.019102   -3.864307   -6.227427
  H      4.768490   -4.591153   -5.990773
  H      3.122405   -4.333392   -6.314620
  H      3.281635   -0.777786   -6.566549
  H      2.212549   -2.134193   -6.562246
  O      5.406154   -5.899480   -5.512972
  O      3.111910   -6.445079   -6.043792
  C      6.419260   -2.542944   -5.077630
  C      5.872267   -5.002756   -2.427819
  C      6.173994   -6.485522   -2.606315
  H      6.734852   -6.613767   -3.534015
  H      6.821463   -6.831018   -1.793617
  H      4.469612   -7.406168   -1.655876
  H      5.230134   -8.398678   -2.885906
  C      5.896512   -2.169314   -3.694552
  H      7.428880   -2.143665   -5.208078
  H      6.505894   -3.627541   -5.175502
  C      6.807804   -2.623428   -2.551019
  H      4.894708   -2.589732   -3.557501
  H      5.778823   -1.081255   -3.635790
  C      7.111544   -4.122463   -2.520363
  H      7.751615   -2.071393   -2.614406
  H      6.345837   -2.326401   -1.604086
  H      5.362882   -4.828697   -1.471335
  H      5.174429   -4.702577   -3.211298
  H      7.778329   -4.329347   -1.677651
  H      7.673189   -4.402845   -3.417586
  F      4.763396   -8.239424   -5.698629
  H      6.036826   -2.198189   -7.176852
  H      5.467610   -0.907371   -6.127968

 Total Charge           Charge          ....    0
 Multiplicity           Mult            ....    1
 Number of Electrons    NEL             ....  136
 Basis Dimension        Dim             ....  512

ORBITAL ENERGIES
----------------

  NO   OCC          E(Eh)            E(eV)
   0   2.0000     -88.387824     -2405.1550
   1   2.0000     -24.423667      -664.6018
   2   2.0000     -18.798451      -511.5319
   3   2.0000     -18.794491      -511.4241
   4   2.0000     -14.002256      -381.0207
   5   2.0000      -9.982276      -271.6315
   6   2.0000      -9.950000      -270.7533
   7   2.0000      -9.923298      -270.0267
   8   2.0000      -9.913067      -269.7483
   9   2.0000      -9.909032      -269.6385
  10   2.0000      -9.908987      -269.6373
  11   2.0000      -9.906409      -269.5671
  12   2.0000      -9.901405      -269.4309
  13   2.0000      -9.899913      -269.3903
  14   2.0000      -9.898912      -269.3631
  15   2.0000      -9.812598      -267.0144
  16   2.0000      -7.923799      -215.6175
  17   2.0000      -5.963363      -162.2714
  18   2.0000      -5.956728      -162.0908
  19   2.0000      -5.955031      -162.0446
  20   2.0000      -1.271850       -34.6088
  21   2.0000      -1.008748       -27.4494
  22   2.0000      -0.909961       -24.7613
  23   2.0000      -0.806913       -21.9572
  24   2.0000      -0.754835       -20.5401
  25   2.0000      -0.719563       -19.5803
  26   2.0000      -0.694319       -18.8934
  27   2.0000      -0.673639       -18.3306
  28   2.0000      -0.648927       -17.6582
  29   2.0000      -0.625767       -17.0280
  30   2.0000      -0.601903       -16.3786
  31   2.0000      -0.574585       -15.6352
  32   2.0000      -0.548706       -14.9310
  33   2.0000      -0.534796       -14.5525
  34   2.0000      -0.527372       -14.3505
  35   2.0000      -0.514915       -14.0115
  36   2.0000      -0.493734       -13.4352
  37   2.0000      -0.484641       -13.1878
  38   2.0000      -0.468111       -12.7379
  39   2.0000      -0.448780       -12.2119
  40   2.0000      -0.440995       -12.0001
  41   2.0000      -0.434870       -11.8334
  42   2.0000      -0.418119       -11.3776
  43   2.0000      -0.412561       -11.2264
  44   2.0000      -0.406017       -11.0483
  45   2.0000      -0.396025       -10.7764
  46   2.0000      -0.391645       -10.6572
  47   2.0000      -0.370878       -10.0921
  48   2.0000      -0.366981        -9.9861
  49   2.0000      -0.361381        -9.8337
  50   2.0000      -0.359093        -9.7714
  51   2.0000      -0.344716        -9.3802
  52   2.0000      -0.326210        -8.8766
  53   2.0000      -0.319939        -8.7060
  54   2.0000      -0.311020        -8.4633
  55   2.0000      -0.301887        -8.2148
  56   2.0000      -0.298623        -8.1260
  57   2.0000      -0.295350        -8.0369
  58   2.0000      -0.285691        -7.7740
  59   2.0000      -0.279888        -7.6161
  60   2.0000      -0.274857        -7.4792
  61   2.0000      -0.273337        -7.4379
  62   2.0000      -0.271335        -7.3834
  63   2.0000      -0.264129        -7.1873
  64   2.0000      -0.258850        -7.0437
  65   2.0000      -0.251266        -6.8373
  66   2.0000      -0.222870        -6.0646
  67   2.0000      -0.131143        -3.5686
  68   0.0000      -0.029759        -0.8098
  69   0.0000      -0.002666        -0.0725
  70   0.0000       0.007269         0.1978
  71   0.0000       0.011258         0.3064
  72   0.0000       0.014975         0.4075

MULLIKEN ATOMIC CHARGES
-----------------------
   0 C :    1.209238
   1 C :    0.804705
   2 C :    0.283435
   3 H :    0.112705
   4 H :   -0.414626
   5 S :    1.432957
   6 C :   -0.045880
   7 N :    0.465837
   8 C :    1.514103
   9 H :   -0.324378
  10 H :   -1.360463
  11 H :   -0.244591
  12 H :   -0.283005
  13 O :   -0.859542
  14 O :   -0.665656
  15 C :    0.717659
  16 C :    0.272985
  17 C :    0.600204
  18 H :   -0.037045
  19 H :   -0.505929
  20 H :   -0.077195
  21 H :   -0.180473
  22 C :    0.174431
  23 H :   -0.258308
  24 H :   -0.806128
  25 C :    0.930393
  26 H :    0.056596
  27 H :   -0.519723
  28 C :    0.401298
  29 H :   -0.115685
  30 H :   -0.201553
  31 H :   -0.085441
  32 H :   -0.533038
  33 H :   -0.500221
  34 H :   -0.021610
  35 F :   -0.508676
  36 H :   -0.305470
  37 H :   -0.121910
Sum of atomic charges:    0.0000000

LOEWDIN ATOMIC CHARGES
----------------------
   0 C :    0.021767
   1 C :   -0.023967
   2 C :   -0.034265
   3 H :    0.025267
   4 H :    0.024314
   5 S :    1.140795
   6 C :   -0.242772
   7 N :    0.194883
   8 C :    0.191556
   9 H :   -0.162817
  10 H :   -0.102781
  11 H :   -0.028645
  12 H :   -0.008874
  13 O :   -0.441114
  14 O :   -0.430812
  15 C :   -0.009829
  16 C :   -0.022192
  17 C :   -0.022055
  18 H :    0.006452
  19 H :    0.024445
  20 H :    0.030395
  21 H :    0.019536
  22 C :   -0.023108
  23 H :    0.022159
  24 H :   -0.007161
  25 C :   -0.023473
  26 H :    0.008811
  27 H :    0.016735
  28 C :   -0.022154
  29 H :    0.015594
  30 H :    0.014423
  31 H :    0.033055
  32 H :   -0.016740
  33 H :    0.017670
  34 H :    0.016093
  35 F :   -0.230740
  36 H :    0.024349
  37 H :    0.005202

  Mayer bond orders larger than 0.100000
B(  0-C ,  6-C ) :   0.9257 B(  0-C ,  8-C ) :   0.2187 B(  0-C ,  9-H ) :  -0.1872
B(  0-C , 15-C ) :   1.1445 B(  0-C , 24-H ) :   0.1653 B(  0-C , 36-H ) :   0.3384
B(  0-C , 37-H ) :   0.5326 B(  1-C ,  2-C ) :   1.1961 B(  1-C ,  3-H ) :   0.1201
B(  1-C ,  4-H ) :   0.1985 B(  1-C , 16-C ) :   0.1227 B(  1-C , 17-C ) :   1.1642
B(  1-C , 18-H ) :   0.1034 B(  1-C , 20-H ) :   0.5717 B(  1-C , 21-H ) :   0.4925
B(  2-C ,  3-H ) :   0.8054 B(  2-C ,  4-H ) :   0.6570 B(  2-C ,  5-S ) :   0.9550
B(  2-C , 17-C ) :   0.1150 B(  2-C , 20-H ) :   0.2526 B(  2-C , 21-H ) :   0.1392
B(  2-C , 35-F ) :   0.1311 B(  3-H , 17-C ) :  -0.1135 B(  4-H ,  5-S ) :   0.1395
B(  5-S , 13-O ) :   1.3419 B(  5-S , 14-O ) :   1.5094 B(  5-S , 35-F ) :   0.5857
B(  6-C ,  7-N ) :   0.9453 B(  6-C ,  8-C ) :   1.8521 B(  6-C ,  9-H ) :  -0.2888
B(  6-C , 10-H ) :   0.2844 B(  6-C , 12-H ) :  -0.1298 B(  6-C , 36-H ) :   0.3249
B(  6-C , 37-H ) :   0.1683 B(  7-N ,  8-C ) :   0.5635 B(  7-N ,  9-H ) :   0.1346
B(  7-N , 10-H ) :  -0.1321 B(  7-N , 11-H ) :   1.1056 B(  7-N , 12-H ) :   1.2778
B(  8-C ,  9-H ) :   0.1629 B(  8-C , 10-H ) :  -0.9153 B(  8-C , 14-O ) :  -0.2293
B(  8-C , 24-H ) :   0.2049 B(  9-H , 10-H ) :  -0.2658 B(  9-H , 15-C ) :   0.1318
B(  9-H , 24-H ) :   0.1351 B( 10-H , 14-O ) :   0.3805 B( 10-H , 24-H ) :  -0.1805
B( 11-H , 12-H ) :  -0.1614 B( 13-O , 14-O ) :   0.1757 B( 13-O , 24-H ) :   0.2000
B( 13-O , 35-F ) :   0.1067 B( 15-C , 22-C ) :   1.1419 B( 15-C , 23-H ) :   0.5612
B( 15-C , 24-H ) :   0.3108 B( 15-C , 26-H ) :   0.1864 B( 15-C , 27-H ) :   0.2177
B( 15-C , 36-H ) :   0.4209 B( 15-C , 37-H ) :   0.2188 B( 16-C , 17-C ) :   1.1707
B( 16-C , 18-H ) :   0.1878 B( 16-C , 19-H ) :   0.1838 B( 16-C , 28-C ) :   1.1872
B( 16-C , 31-H ) :   0.6420 B( 16-C , 32-H ) :   0.8667 B( 16-C , 33-H ) :   0.2478
B( 16-C , 34-H ) :   0.2056 B( 17-C , 18-H ) :   0.7489 B( 17-C , 19-H ) :   0.6205
B( 17-C , 20-H ) :   0.1201 B( 17-C , 21-H ) :   0.3293 B( 17-C , 28-C ) :   0.2017
B( 17-C , 31-H ) :   0.1244 B( 17-C , 32-H ) :   0.1210 B( 20-H , 21-H ) :  -0.1594
B( 22-C , 23-H ) :   0.1929 B( 22-C , 24-H ) :   0.2851 B( 22-C , 25-C ) :   1.0306
B( 22-C , 26-H ) :   0.7858 B( 22-C , 27-H ) :   0.9004 B( 22-C , 28-C ) :   0.2264
B( 22-C , 29-H ) :   0.1945 B( 22-C , 30-H ) :   0.3388 B( 22-C , 34-H ) :  -0.1022
B( 24-H , 34-H ) :   0.1120 B( 25-C , 28-C ) :   1.0759 B( 25-C , 29-H ) :   0.5097
B( 25-C , 30-H ) :   0.5192 B( 25-C , 34-H ) :   0.1105 B( 26-H , 27-H ) :  -0.1434
B( 26-H , 32-H ) :   0.1912 B( 28-C , 29-H ) :   0.3026 B( 28-C , 30-H ) :   0.1421
B( 28-C , 31-H ) :   0.1425 B( 28-C , 32-H ) :   0.1267 B( 28-C , 33-H ) :   0.7738
B( 28-C , 34-H ) :   0.7321 B( 29-H , 30-H ) :  -0.1650 B( 33-H , 34-H ) :  -0.1042
B( 36-H , 37-H ) :  -0.1959

Dispersion correction           -0.093134728
FINAL SINGLE POINT ENERGY     -1134.646579072195

DIPOLE MOMENT
-------------
                                X             Y             Z
Electronic contribution:     -8.85219     -21.41805     -14.07836
Nuclear contribution   :      8.67311      20.60825      15.35056
                        -----------------------------------------
Total Dipole Moment    :     -0.17908      -0.80980       1.27220
                        -----------------------------------------
Magnitude (a.u.)       :      1.51867
Magnitude (Debye)      :      3.86014

Rotational constants in cm-1:     0.017976     0.012151     0.008188
Rotational constants in MHz :   538.898457   364.286417   245.482451

                             ****ORCA TERMINATED NORMALLY****
TOTAL RUN TIME: 0 days 0 hours 1 minutes 7 seconds 782 msec
