                         Program Version 5.0.0 -  RELEASE  -
|  1> !PBE D3BJ RIJCOSX def2-TZVP def2/J TightSCF
|  2> *xyz -1 1
|  3> C          0.13297        2.38587       -4.02462
|  4> C         -1.36646        2.47911       -4.31393
|  5> C         -2.35773        2.30686       -3.13675
|  6> H         -1.63680        1.72709       -5.06399
|  7> H         -1.58235        3.44561       -4.76869
|  8> O         -3.44376        2.84652       -3.25274
|  9> O         -1.97092        1.58304       -2.15123
| 10> H          0.68084        2.52514       -4.93310
| 11> H          0.35823        1.42282       -3.61633
| 12> H          0.40851        3.14443       -3.32208
| 13> *
| 14> %MaxCore 64000
| 15>
| 16> %pal nprocs 4
| 17> end
| 18>
| 19> %scf
| 20>   MaxIter 150
| 21> end
| 22>
| 23>
| 24>                          ****END OF INPUT****

CARTESIAN COORDINATES (ANGSTROEM)
---------------------------------
  C      0.132970    2.385870   -4.024620
  C     -1.366460    2.479110   -4.313930
  C     -2.357730    2.306860   -3.136750
  H     -1.636800    1.727090   -5.063990
  H     -1.582350    3.445610   -4.768690
  O     -3.443760    2.846520   -3.252740
  O     -1.970920    1.583040   -2.151230
  H      0.680840    2.525140   -4.933100
  H      0.358230    1.422820   -3.616330
  H      0.408510    3.144430   -3.322080

 Total Charge           Charge          ....   -1
 Multiplicity           Mult            ....    1
 Number of Electrons    NEL             ....   40
 Basis Dimension        Dim             ....  185

ORBITAL ENERGIES
----------------

  NO   OCC          E(Eh)            E(eV)
   0   2.0000     -18.478986      -502.8388
   1   2.0000     -18.470729      -502.6141
   2   2.0000      -9.744271      -265.1551
   3   2.0000      -9.708205      -264.1737
   4   2.0000      -9.698925      -263.9212
   5   2.0000      -0.728958       -19.8359
   6   2.0000      -0.633925       -17.2500
   7   2.0000      -0.524738       -14.2788
   8   2.0000      -0.402317       -10.9476
   9   2.0000      -0.254704        -6.9309
  10   2.0000      -0.238812        -6.4984
  11   2.0000      -0.203028        -5.5247
  12   2.0000      -0.173410        -4.7187
  13   2.0000      -0.162139        -4.4120
  14   2.0000      -0.151083        -4.1112
  15   2.0000      -0.124014        -3.3746
  16   2.0000      -0.110216        -2.9991
  17   2.0000      -0.001807        -0.0492
  18   2.0000       0.011722         0.3190
  19   2.0000       0.027787         0.7561
  20   0.0000       0.165478         4.5029
  21   0.0000       0.208537         5.6746
  22   0.0000       0.213700         5.8151
  23   0.0000       0.228074         6.2062
  24   0.0000       0.239566         6.5189

MULLIKEN ATOMIC CHARGES
-----------------------
   0 C :   -0.277649
   1 C :   -0.185336
   2 C :    0.109785
   3 H :    0.039964
   4 H :    0.036716
   5 O :   -0.417059
   6 O :   -0.504829
   7 H :    0.045428
   8 H :    0.077216
   9 H :    0.075764
Sum of atomic charges:   -1.0000000

LOEWDIN ATOMIC CHARGES
----------------------
   0 C :   -0.340729
   1 C :   -0.309546
   2 C :   -0.743383
   3 H :    0.123638
   4 H :    0.118908
   5 O :   -0.029262
   6 O :   -0.125663
   7 H :    0.091700
   8 H :    0.107389
   9 H :    0.106948

  Mayer bond orders larger than 0.100000
B(  0-C ,  1-C ) :   0.9562 B(  0-C ,  7-H ) :   0.9519 B(  0-C ,  8-H ) :   0.9653
B(  0-C ,  9-H ) :   0.9744 B(  1-C ,  2-C ) :   0.9314 B(  1-C ,  3-H ) :   0.9492
B(  1-C ,  4-H ) :   0.9447 B(  2-C ,  5-O ) :   1.9713 B(  2-C ,  6-O ) :   1.8750

Dispersion correction           -0.006464762
FINAL SINGLE POINT ENERGY      -267.634584528753

DIPOLE MOMENT
-------------
                                X             Y             Z
Electronic contribution:     -5.43570      -0.40874       3.36238
Nuclear contribution   :      6.75610       0.63068      -4.53972
                        -----------------------------------------
Total Dipole Moment    :      1.32040       0.22194      -1.17735
                        -----------------------------------------
Magnitude (a.u.)       :      1.78293
Magnitude (Debye)      :      4.53186

Rotational constants in cm-1:     0.335096     0.130241     0.099025
Rotational constants in MHz : 10045.924902  3904.536250  2968.708333

                             ****ORCA TERMINATED NORMALLY****
TOTAL RUN TIME: 0 days 0 hours 0 minutes 6 seconds 880 msec
