                         Program Version 5.0.0 -  RELEASE  -
|  1> !PBE D3BJ RIJCOSX def2-TZVP def2/J TightSCF
|  2> *xyz 1 1
|  3> C          0.64866        1.00359       -3.64560
|  4> N          0.28128        0.67645       -2.24018
|  5> C          0.13297        2.38587       -4.02462
|  6> H          0.39079       -0.31925       -2.02649
|  7> H         -0.69269        0.99010       -2.13812
|  8> H          0.85421        1.21221       -1.57528
|  9> H          0.19099        0.23965       -4.27575
| 10> H          1.73157        0.93173       -3.75075
| 11> H          0.40589        2.60338       -5.03610
| 12> H          0.56342        3.11797       -3.37374
| 13> H         -0.93265        2.40724       -3.93025
| 14> *
| 15> %MaxCore 64000
| 16>
| 17> %pal nprocs 4
| 18> end
| 19>
| 20> %scf
| 21>   MaxIter 150
| 22> end
| 23>
| 24>
| 25>                          ****END OF INPUT****

CARTESIAN COORDINATES (ANGSTROEM)
---------------------------------
  C      0.648660    1.003590   -3.645600
  N      0.281280    0.676450   -2.240180
  C      0.132970    2.385870   -4.024620
  H      0.390790   -0.319250   -2.026490
  H     -0.692690    0.990100   -2.138120
  H      0.854210    1.212210   -1.575280
  H      0.190990    0.239650   -4.275750
  H      1.731570    0.931730   -3.750750
  H      0.405890    2.603380   -5.036100
  H      0.563420    3.117970   -3.373740
  H     -0.932650    2.407240   -3.930250

 Total Charge           Charge          ....    1
 Multiplicity           Mult            ....    1
 Number of Electrons    NEL             ....   26
 Basis Dimension        Dim             ....  141

ORBITAL ENERGIES
----------------

  NO   OCC          E(Eh)            E(eV)
   0   2.0000     -14.317703      -389.6045
   1   2.0000     -10.134655      -275.7780
   2   2.0000     -10.058219      -273.6981
   3   2.0000      -1.138189       -30.9717
   4   2.0000      -0.897858       -24.4319
   5   2.0000      -0.785862       -21.3844
   6   2.0000      -0.749199       -20.3867
   7   2.0000      -0.741988       -20.1905
   8   2.0000      -0.648553       -17.6480
   9   2.0000      -0.595699       -16.2098
  10   2.0000      -0.542306       -14.7569
  11   2.0000      -0.528999       -14.3948
  12   2.0000      -0.510874       -13.9016
  13   0.0000      -0.218463        -5.9447
  14   0.0000      -0.159696        -4.3455
  15   0.0000      -0.156680        -4.2635
  16   0.0000      -0.135568        -3.6890
  17   0.0000      -0.100206        -2.7268

MULLIKEN ATOMIC CHARGES
-----------------------
   0 C :   -0.210324
   1 N :   -0.251756
   2 C :   -0.363578
   3 H :    0.326509
   4 H :    0.315229
   5 H :    0.318706
   6 H :    0.187156
   7 H :    0.192298
   8 H :    0.182976
   9 H :    0.151395
  10 H :    0.151388
Sum of atomic charges:    1.0000000

LOEWDIN ATOMIC CHARGES
----------------------
   0 C :   -0.285477
   1 N :    0.177019
   2 C :   -0.280332
   3 H :    0.219691
   4 H :    0.223575
   5 H :    0.221148
   6 H :    0.154843
   7 H :    0.153725
   8 H :    0.150987
   9 H :    0.132847
  10 H :    0.131974

  Mayer bond orders larger than 0.100000
B(  0-C ,  1-N ) :   0.8885 B(  0-C ,  2-C ) :   1.0230 B(  0-C ,  6-H ) :   0.9396
B(  0-C ,  7-H ) :   0.9426 B(  1-N ,  3-H ) :   0.8750 B(  1-N ,  4-H ) :   0.8765
B(  1-N ,  5-H ) :   0.8796 B(  2-C ,  8-H ) :   0.9498 B(  2-C ,  9-H ) :   0.9548
B(  2-C , 10-H ) :   0.9509

Dispersion correction           -0.006192585
FINAL SINGLE POINT ENERGY      -135.399559314972

DIPOLE MOMENT
-------------
                                X             Y             Z
Electronic contribution:      0.16965      -1.29525       1.31428
Nuclear contribution   :     -0.22655       0.48066      -0.09136
                        -----------------------------------------
Total Dipole Moment    :     -0.05689      -0.81459       1.22293
                        -----------------------------------------
Magnitude (a.u.)       :      1.47049
Magnitude (Debye)      :      3.73769

Rotational constants in cm-1:     0.998155     0.284845     0.251232
Rotational constants in MHz : 29923.943568  8539.431565  7531.732866

                             ****ORCA TERMINATED NORMALLY****
TOTAL RUN TIME: 0 days 0 hours 0 minutes 5 seconds 84 msec
