                         Program Version 5.0.0 -  RELEASE  -
|  1> !PBE D3BJ RIJCOSX def2-TZVP def2/J TightSCF xyzfile
|  2>
|  3> *xyzfile 0 1 B.xyz
|  4>
|  5> %MaxCore 64000
|  6>
|  7> %pal nprocs 18
|  8> end
|  9>
| 10> %scf
| 11>   MaxIter 150
| 12> end
| 13>
| 14>
| 15>                          ****END OF INPUT****

CARTESIAN COORDINATES (ANGSTROEM)
---------------------------------
  C      0.648656    1.003595   -3.645601
  N      0.281280    0.676454   -2.240179
  C      0.132968    2.385869   -4.024618
  C     -1.366462    2.479106   -4.313932
  C     -2.357732    2.306858   -3.136753
  H     -1.636802    1.727095   -5.063993
  H     -1.582347    3.445605   -4.768687
  H      0.390790   -0.319253   -2.026495
  H     -0.692686    0.990104   -2.138123
  H      0.854206    1.212214   -1.575279
  O     -3.443763    2.846518   -3.252744
  O     -1.970922    1.583042   -2.151229
  H      0.190993    0.239655   -4.275752
  H      1.731572    0.931729   -3.750751
  H      0.414839    3.102847   -3.245165
  H      0.683167    2.687560   -4.919721

 Total Charge           Charge          ....    0
 Multiplicity           Mult            ....    1
 Number of Electrons    NEL             ....   56
 Basis Dimension        Dim             ....  271

ORBITAL ENERGIES
----------------

  NO   OCC          E(Eh)            E(eV)
   0   2.0000     -18.675043      -508.1738
   1   2.0000     -18.651625      -507.5365
   2   2.0000     -14.091789      -383.4571
   3   2.0000      -9.966391      -271.1993
   4   2.0000      -9.928431      -270.1663
   5   2.0000      -9.907918      -269.6082
   6   2.0000      -9.868681      -268.5405
   7   2.0000      -0.938105       -25.5271
   8   2.0000      -0.910701       -24.7814
   9   2.0000      -0.831584       -22.6286
  10   2.0000      -0.738881       -20.1060
  11   2.0000      -0.649004       -17.6603
  12   2.0000      -0.576364       -15.6837
  13   2.0000      -0.548098       -14.9145
  14   2.0000      -0.540741       -14.7143
  15   2.0000      -0.473766       -12.8918
  16   2.0000      -0.429258       -11.6807
  17   2.0000      -0.427523       -11.6335
  18   2.0000      -0.389376       -10.5955
  19   2.0000      -0.372334       -10.1317
  20   2.0000      -0.341433        -9.2909
  21   2.0000      -0.337440        -9.1822
  22   2.0000      -0.328424        -8.9369
  23   2.0000      -0.307710        -8.3732
  24   2.0000      -0.289433        -7.8759
  25   2.0000      -0.191969        -5.2238
  26   2.0000      -0.185433        -5.0459
  27   2.0000      -0.153371        -4.1734
  28   0.0000      -0.047699        -1.2980
  29   0.0000      -0.003290        -0.0895
  30   0.0000       0.005989         0.1630
  31   0.0000       0.031835         0.8663
  32   0.0000       0.044404         1.2083

MULLIKEN ATOMIC CHARGES
-----------------------
   0 C :   -0.171527
   1 N :   -0.249344
   2 C :   -0.199972
   3 C :   -0.242855
   4 C :    0.185325
   5 H :    0.091088
   6 H :    0.113339
   7 H :    0.258939
   8 H :    0.263914
   9 H :    0.257895
  10 O :   -0.332129
  11 O :   -0.475798
  12 H :    0.138464
  13 H :    0.140453
  14 H :    0.107956
  15 H :    0.114252
Sum of atomic charges:   -0.0000000

LOEWDIN ATOMIC CHARGES
----------------------
   0 C :   -0.281335
   1 N :    0.144897
   2 C :   -0.278707
   3 C :   -0.261703
   4 C :   -0.675720
   5 H :    0.144565
   6 H :    0.148885
   7 H :    0.185488
   8 H :    0.104379
   9 H :    0.191644
  10 O :    0.052405
  11 O :   -0.042894
  12 H :    0.143598
  13 H :    0.132829
  14 H :    0.143458
  15 H :    0.148210

  Mayer bond orders larger than 0.100000
B(  0-C ,  1-N ) :   0.9317 B(  0-C ,  2-C ) :   1.0029 B(  0-C , 12-H ) :   0.9500
B(  0-C , 13-H ) :   0.9584 B(  1-N ,  7-H ) :   0.8977 B(  1-N ,  8-H ) :   0.6711
B(  1-N ,  9-H ) :   0.9021 B(  2-C ,  3-C ) :   0.9607 B(  2-C , 14-H ) :   0.9510
B(  2-C , 15-H ) :   0.9376 B(  3-C ,  4-C ) :   0.9604 B(  3-C ,  5-H ) :   0.9411
B(  3-C ,  6-H ) :   0.9401 B(  4-C , 10-O ) :   2.0587 B(  4-C , 11-O ) :   1.4876
B(  8-H , 11-O ) :   0.3657

Dispersion correction           -0.013710539
FINAL SINGLE POINT ENERGY      -362.761927695987

DIPOLE MOMENT
-------------
                                X             Y             Z
Electronic contribution:     -5.98867       0.97377       2.60254
Nuclear contribution   :      9.92875      -2.62114      -2.63866
                        -----------------------------------------
Total Dipole Moment    :      3.94008      -1.64737      -0.03612
                        -----------------------------------------
Magnitude (a.u.)       :      4.27076
Magnitude (Debye)      :     10.85541

Rotational constants in cm-1:     0.159108     0.062474     0.047603
Rotational constants in MHz :  4769.938632  1872.932224  1427.103830

                             ****ORCA TERMINATED NORMALLY****
TOTAL RUN TIME: 0 days 0 hours 0 minutes 6 seconds 984 msec
