                         Program Version 5.0.0 -  RELEASE  -
|  1> !PBE D3BJ RIJCOSX def2-TZVP def2/J TightSCF
|  2> *xyz 0 1
|  3> C          0.13297        2.38587       -4.02462
|  4> C         -1.36646        2.47911       -4.31393
|  5> C         -2.35773        2.30686       -3.13675
|  6> H         -1.63680        1.72709       -5.06399
|  7> H         -1.58235        3.44561       -4.76869
|  8> F         -3.44376        2.84652       -3.25274
|  9> O         -1.97092        1.58304       -2.15123
| 10> H          0.68084        2.52514       -4.93310
| 11> H          0.35823        1.42282       -3.61633
| 12> H          0.40851        3.14443       -3.32208
| 13> *
| 14> %MaxCore 64000
| 15>
| 16> %pal nprocs 4
| 17> end
| 18>
| 19> %scf
| 20>   MaxIter 150
| 21> end
| 22>
| 23>
| 24>                          ****END OF INPUT****

CARTESIAN COORDINATES (ANGSTROEM)
---------------------------------
  C      0.132970    2.385870   -4.024620
  C     -1.366460    2.479110   -4.313930
  C     -2.357730    2.306860   -3.136750
  H     -1.636800    1.727090   -5.063990
  H     -1.582350    3.445610   -4.768690
  F     -3.443760    2.846520   -3.252740
  O     -1.970920    1.583040   -2.151230
  H      0.680840    2.525140   -4.933100
  H      0.358230    1.422820   -3.616330
  H      0.408510    3.144430   -3.322080

 Total Charge           Charge          ....    0
 Multiplicity           Mult            ....    1
 Number of Electrons    NEL             ....   40
 Basis Dimension        Dim             ....  185

ORBITAL ENERGIES
----------------

  NO   OCC          E(Eh)            E(eV)
   0   2.0000     -24.337914      -662.2683
   1   2.0000     -18.747207      -510.1374
   2   2.0000     -10.049362      -273.4570
   3   2.0000      -9.912034      -269.7202
   4   2.0000      -9.879284      -268.8290
   5   2.0000      -1.242034       -33.7975
   6   2.0000      -0.927186       -25.2300
   7   2.0000      -0.722887       -19.6707
   8   2.0000      -0.630951       -17.1690
   9   2.0000      -0.581248       -15.8166
  10   2.0000      -0.502427       -13.6717
  11   2.0000      -0.483607       -13.1596
  12   2.0000      -0.448776       -12.2118
  13   2.0000      -0.416849       -11.3430
  14   2.0000      -0.379560       -10.3284
  15   2.0000      -0.347613        -9.4590
  16   2.0000      -0.328997        -8.9525
  17   2.0000      -0.323669        -8.8075
  18   2.0000      -0.300573        -8.1790
  19   2.0000      -0.235437        -6.4066
  20   0.0000      -0.063794        -1.7359
  21   0.0000       0.012043         0.3277
  22   0.0000       0.052828         1.4375
  23   0.0000       0.069280         1.8852
  24   0.0000       0.076255         2.0750

MULLIKEN ATOMIC CHARGES
-----------------------
   0 C :   -0.323844
   1 C :   -0.236392
   2 C :    0.298618
   3 H :    0.125945
   4 H :    0.111720
   5 F :   -0.027558
   6 O :   -0.315586
   7 H :    0.119376
   8 H :    0.130363
   9 H :    0.117357
Sum of atomic charges:    0.0000000

LOEWDIN ATOMIC CHARGES
----------------------
   0 C :   -0.295619
   1 C :   -0.273081
   2 C :   -0.551916
   3 H :    0.155884
   4 H :    0.142443
   5 F :    0.404848
   6 O :    0.049332
   7 H :    0.120533
   8 H :    0.125190
   9 H :    0.122386

  Mayer bond orders larger than 0.100000
B(  0-C ,  1-C ) :   1.0093 B(  0-C ,  7-H ) :   0.9582 B(  0-C ,  8-H ) :   0.9643
B(  0-C ,  9-H ) :   0.9721 B(  1-C ,  2-C ) :   1.0080 B(  1-C ,  3-H ) :   0.9188
B(  1-C ,  4-H ) :   0.9429 B(  2-C ,  5-F ) :   1.2308 B(  2-C ,  6-O ) :   2.0572

Dispersion correction           -0.006151643
FINAL SINGLE POINT ENERGY      -292.180484211120

DIPOLE MOMENT
-------------
                                X             Y             Z
Electronic contribution:     -8.41672       0.44714       3.64212
Nuclear contribution   :      8.54799       0.05434      -4.66633
                        -----------------------------------------
Total Dipole Moment    :      0.13127       0.50148      -1.02421
                        -----------------------------------------
Magnitude (a.u.)       :      1.14792
Magnitude (Debye)      :      2.91778

Rotational constants in cm-1:     0.325803     0.123345     0.094275
Rotational constants in MHz :  9767.324172  3697.779805  2826.305733

                             ****ORCA TERMINATED NORMALLY****
TOTAL RUN TIME: 0 days 0 hours 0 minutes 6 seconds 668 msec
