                         Program Version 5.0.0 -  RELEASE  -
|  1> !PBE D3BJ RIJCOSX def2-TZVP def2/J TightSCF
|  2> *xyz 0 1
|  3> C          0.64866        1.00359       -3.64560
|  4> C          0.28128        0.67645       -2.24018
|  5> C          0.13297        2.38587       -4.02462
|  6> H          0.39079       -0.31925       -2.02649
|  7> H         -0.69269        0.99010       -2.13812
|  8> H          0.85421        1.21221       -1.57528
|  9> H          0.19099        0.23965       -4.27575
| 10> H          1.73157        0.93173       -3.75075
| 11> H          0.40589        2.60338       -5.03610
| 12> H          0.56342        3.11797       -3.37374
| 13> H         -0.93265        2.40724       -3.93025
| 14> *
| 15> %MaxCore 64000
| 16>
| 17> %pal nprocs 4
| 18> end
| 19>
| 20> %scf
| 21>   MaxIter 150
| 22> end
| 23>
| 24>
| 25>                          ****END OF INPUT****

CARTESIAN COORDINATES (ANGSTROEM)
---------------------------------
  C      0.648660    1.003590   -3.645600
  C      0.281280    0.676450   -2.240180
  C      0.132970    2.385870   -4.024620
  H      0.390790   -0.319250   -2.026490
  H     -0.692690    0.990100   -2.138120
  H      0.854210    1.212210   -1.575280
  H      0.190990    0.239650   -4.275750
  H      1.731570    0.931730   -3.750750
  H      0.405890    2.603380   -5.036100
  H      0.563420    3.117970   -3.373740
  H     -0.932650    2.407240   -3.930250

 Total Charge           Charge          ....    0
 Multiplicity           Mult            ....    1
 Number of Electrons    NEL             ....   26
 Basis Dimension        Dim             ....  141

ORBITAL ENERGIES
----------------

  NO   OCC          E(Eh)            E(eV)
   0   2.0000      -9.867375      -268.5049
   1   2.0000      -9.858031      -268.2507
   2   2.0000      -9.839263      -267.7400
   3   2.0000      -0.719942       -19.5906
   4   2.0000      -0.621623       -16.9152
   5   2.0000      -0.525278       -14.2935
   6   2.0000      -0.418796       -11.3960
   7   2.0000      -0.401535       -10.9263
   8   2.0000      -0.357049        -9.7158
   9   2.0000      -0.341314        -9.2876
  10   2.0000      -0.296782        -8.0759
  11   2.0000      -0.292973        -7.9722
  12   2.0000      -0.284816        -7.7502
  13   0.0000       0.022730         0.6185
  14   0.0000       0.065429         1.7804
  15   0.0000       0.071358         1.9417
  16   0.0000       0.074229         2.0199
  17   0.0000       0.092881         2.5274

MULLIKEN ATOMIC CHARGES
-----------------------
   0 C :   -0.155310
   1 C :   -0.323633
   2 C :   -0.337848
   3 H :    0.112770
   4 H :    0.098234
   5 H :    0.107181
   6 H :    0.086010
   7 H :    0.087012
   8 H :    0.112552
   9 H :    0.105396
  10 H :    0.107635
Sum of atomic charges:    0.0000000

LOEWDIN ATOMIC CHARGES
----------------------
   0 C :   -0.326324
   1 C :   -0.307688
   2 C :   -0.310905
   3 H :    0.107491
   4 H :    0.114522
   5 H :    0.109718
   6 H :    0.133071
   7 H :    0.130384
   8 H :    0.116203
   9 H :    0.117147
  10 H :    0.116379

  Mayer bond orders larger than 0.100000
B(  0-C ,  1-C ) :   1.0003 B(  0-C ,  2-C ) :   1.0093 B(  0-C ,  6-H ) :   0.9585
B(  0-C ,  7-H ) :   0.9595 B(  1-C ,  3-H ) :   0.9725 B(  1-C ,  4-H ) :   0.9735
B(  1-C ,  5-H ) :   0.9754 B(  2-C ,  8-H ) :   0.9708 B(  2-C ,  9-H ) :   0.9713
B(  2-C , 10-H ) :   0.9703

Dispersion correction           -0.006189810
FINAL SINGLE POINT ENERGY      -118.990381790931

DIPOLE MOMENT
-------------
                                X             Y             Z
Electronic contribution:      0.26100      -0.28275      -0.24529
Nuclear contribution   :     -0.24754       0.26111       0.24628
                        -----------------------------------------
Total Dipole Moment    :      0.01346      -0.02164       0.00098
                        -----------------------------------------
Magnitude (a.u.)       :      0.02550
Magnitude (Debye)      :      0.06482

Rotational constants in cm-1:     1.006509     0.299509     0.263145
Rotational constants in MHz : 30174.379724  8979.049324  7888.875355

                             ****ORCA TERMINATED NORMALLY****
TOTAL RUN TIME: 0 days 0 hours 0 minutes 7 seconds 775 msec
