                         Program Version 5.0.0 -  RELEASE  -
|  1> !PBE D3BJ RIJCOSX def2-TZVP def2/J TightSCF
|  2> *xyz 0 1
|  3> C          0.13297        2.38587       -4.02462
|  4> C         -1.36646        2.47911       -4.31393
|  5> C         -2.35773        2.30686       -3.13675
|  6> H         -1.63680        1.72709       -5.06399
|  7> H         -1.58235        3.44561       -4.76869
|  8> O         -3.44376        2.84652       -3.25274
|  9> F         -1.97092        1.58304       -2.15123
| 10> H          0.68084        2.52514       -4.93310
| 11> H          0.35823        1.42282       -3.61633
| 12> H          0.40851        3.14443       -3.32208
| 13> *
| 14> %MaxCore 64000
| 15>
| 16> %pal nprocs 4
| 17> end
| 18>
| 19> %scf
| 20>   MaxIter 150
| 21> end
| 22>
| 23>
| 24>                          ****END OF INPUT****

CARTESIAN COORDINATES (ANGSTROEM)
---------------------------------
  C      0.132970    2.385870   -4.024620
  C     -1.366460    2.479110   -4.313930
  C     -2.357730    2.306860   -3.136750
  H     -1.636800    1.727090   -5.063990
  H     -1.582350    3.445610   -4.768690
  O     -3.443760    2.846520   -3.252740
  F     -1.970920    1.583040   -2.151230
  H      0.680840    2.525140   -4.933100
  H      0.358230    1.422820   -3.616330
  H      0.408510    3.144430   -3.322080

 Total Charge           Charge          ....    0
 Multiplicity           Mult            ....    1
 Number of Electrons    NEL             ....   40
 Basis Dimension        Dim             ....  185

ORBITAL ENERGIES
----------------

  NO   OCC          E(Eh)            E(eV)
   0   2.0000     -24.314907      -661.6423
   1   2.0000     -18.755542      -510.3642
   2   2.0000     -10.043881      -273.3079
   3   2.0000      -9.910704      -269.6840
   4   2.0000      -9.883980      -268.9568
   5   2.0000      -1.195218       -32.5235
   6   2.0000      -0.965578       -26.2747
   7   2.0000      -0.725304       -19.7365
   8   2.0000      -0.614209       -16.7135
   9   2.0000      -0.573592       -15.6082
  10   2.0000      -0.479136       -13.0379
  11   2.0000      -0.473390       -12.8816
  12   2.0000      -0.437370       -11.9014
  13   2.0000      -0.415726       -11.3125
  14   2.0000      -0.382522       -10.4089
  15   2.0000      -0.356396        -9.6980
  16   2.0000      -0.342927        -9.3315
  17   2.0000      -0.329076        -8.9546
  18   2.0000      -0.312445        -8.5021
  19   2.0000      -0.247648        -6.7389
  20   0.0000      -0.059097        -1.6081
  21   0.0000       0.006824         0.1857
  22   0.0000       0.055256         1.5036
  23   0.0000       0.071966         1.9583
  24   0.0000       0.075564         2.0562

MULLIKEN ATOMIC CHARGES
-----------------------
   0 C :   -0.332760
   1 C :   -0.240736
   2 C :    0.277719
   3 H :    0.126074
   4 H :    0.132415
   5 O :   -0.241750
   6 F :   -0.083545
   7 H :    0.123981
   8 H :    0.117676
   9 H :    0.120925
Sum of atomic charges:   -0.0000000

LOEWDIN ATOMIC CHARGES
----------------------
   0 C :   -0.307113
   1 C :   -0.268274
   2 C :   -0.536653
   3 H :    0.155918
   4 H :    0.154023
   5 O :    0.135164
   6 F :    0.304084
   7 H :    0.122093
   8 H :    0.119866
   9 H :    0.120892

  Mayer bond orders larger than 0.100000
B(  0-C ,  1-C ) :   0.9840 B(  0-C ,  7-H ) :   0.9605 B(  0-C ,  8-H ) :   0.9653
B(  0-C ,  9-H ) :   0.9711 B(  1-C ,  2-C ) :   1.0159 B(  1-C ,  3-H ) :   0.9273
B(  1-C ,  4-H ) :   0.9511 B(  2-C ,  5-O ) :   2.1396 B(  2-C ,  6-F ) :   1.1626

Dispersion correction           -0.006104705
FINAL SINGLE POINT ENERGY      -292.197022237536

DIPOLE MOMENT
-------------
                                X             Y             Z
Electronic contribution:     -5.96410      -1.62684       5.43015
Nuclear contribution   :      6.94213       1.43193      -5.86732
                        -----------------------------------------
Total Dipole Moment    :      0.97804      -0.19491      -0.43716
                        -----------------------------------------
Magnitude (a.u.)       :      1.08888
Magnitude (Debye)      :      2.76771

Rotational constants in cm-1:     0.306336     0.129048     0.095707
Rotational constants in MHz :  9183.725605  3868.769583  2869.236577

                             ****ORCA TERMINATED NORMALLY****
TOTAL RUN TIME: 0 days 0 hours 0 minutes 9 seconds 506 msec
