                         Program Version 5.0.0 -  RELEASE  -
|  1> !PBE D3BJ RIJCOSX def2-TZVP def2/J TightSCF xyzfile
|  2>
|  3> *xyzfile 0 1 D2.xyz
|  4>
|  5> %MaxCore 64000
|  6>
|  7> %pal nprocs 18
|  8> end
|  9>
| 10> %scf
| 11>   MaxIter 150
| 12> end
| 13>
| 14>
| 15>                          ****END OF INPUT****

CARTESIAN COORDINATES (ANGSTROEM)
---------------------------------
  C      0.648656    1.003595   -3.645601
  C      0.281280    0.676454   -2.240179
  C      0.132968    2.385869   -4.024618
  C     -1.366462    2.479106   -4.313932
  C     -2.357732    2.306858   -3.136753
  H     -1.636802    1.727095   -5.063993
  H     -1.582347    3.445605   -4.768687
  H      0.390790   -0.319253   -2.026495
  H     -0.692686    0.990104   -2.138123
  H      0.854206    1.212214   -1.575279
  O     -3.443763    2.846518   -3.252744
  F     -1.970922    1.583042   -2.151229
  H      0.190993    0.239655   -4.275752
  H      1.731572    0.931729   -3.750751
  H      0.414839    3.102847   -3.245165
  H      0.683167    2.687560   -4.919721

 Total Charge           Charge          ....    0
 Multiplicity           Mult            ....    1
 Number of Electrons    NEL             ....   56
 Basis Dimension        Dim             ....  271

ORBITAL ENERGIES
----------------

  NO   OCC          E(Eh)            E(eV)
   0   2.0000     -24.327495      -661.9848
   1   2.0000     -18.763250      -510.5740
   2   2.0000     -10.052024      -273.5295
   3   2.0000      -9.913664      -269.7645
   4   2.0000      -9.892054      -269.1765
   5   2.0000      -9.874304      -268.6935
   6   2.0000      -9.821281      -267.2507
   7   2.0000      -1.217459       -33.1287
   8   2.0000      -0.973709       -26.4960
   9   2.0000      -0.749240       -20.3879
  10   2.0000      -0.692765       -18.8511
  11   2.0000      -0.613979       -16.7072
  12   2.0000      -0.610296       -16.6070
  13   2.0000      -0.525161       -14.2904
  14   2.0000      -0.499244       -13.5851
  15   2.0000      -0.489411       -13.3176
  16   2.0000      -0.451078       -12.2745
  17   2.0000      -0.419530       -11.4160
  18   2.0000      -0.402311       -10.9474
  19   2.0000      -0.400508       -10.8984
  20   2.0000      -0.372671       -10.1409
  21   2.0000      -0.346438        -9.4270
  22   2.0000      -0.338373        -9.2076
  23   2.0000      -0.322854        -8.7853
  24   2.0000      -0.295531        -8.0418
  25   2.0000      -0.290602        -7.9077
  26   2.0000      -0.278800        -7.5865
  27   2.0000      -0.245549        -6.6817
  28   0.0000      -0.067594        -1.8393
  29   0.0000       0.007399         0.2013
  30   0.0000       0.039851         1.0844
  31   0.0000       0.045815         1.2467
  32   0.0000       0.055292         1.5046

MULLIKEN ATOMIC CHARGES
-----------------------
   0 C :   -0.153814
   1 C :   -0.408922
   2 C :   -0.167809
   3 C :   -0.258025
   4 C :    0.258879
   5 H :    0.126168
   6 H :    0.141273
   7 H :    0.105196
   8 H :    0.145229
   9 H :    0.102029
  10 O :   -0.228291
  11 F :   -0.038955
  12 H :    0.078234
  13 H :    0.093799
  14 H :    0.101609
  15 H :    0.103401
Sum of atomic charges:    0.0000000

LOEWDIN ATOMIC CHARGES
----------------------
   0 C :   -0.304103
   1 C :   -0.321145
   2 C :   -0.271439
   3 C :   -0.237185
   4 C :   -0.521513
   5 H :    0.159774
   6 H :    0.159048
   7 H :    0.104908
   8 H :    0.079990
   9 H :    0.107554
  10 O :    0.142398
  11 F :    0.346170
  12 H :    0.136059
  13 H :    0.134221
  14 H :    0.142376
  15 H :    0.142886

  Mayer bond orders larger than 0.100000
B(  0-C ,  1-C ) :   0.9938 B(  0-C ,  2-C ) :   0.9900 B(  0-C , 12-H ) :   0.9559
B(  0-C , 13-H ) :   0.9513 B(  1-C ,  7-H ) :   0.9657 B(  1-C ,  8-H ) :   0.9702
B(  1-C ,  9-H ) :   0.9682 B(  2-C ,  3-C ) :   0.9781 B(  2-C , 14-H ) :   0.9587
B(  2-C , 15-H ) :   0.9375 B(  3-C ,  4-C ) :   1.0242 B(  3-C ,  5-H ) :   0.9252
B(  3-C ,  6-H ) :   0.9438 B(  4-C , 10-O ) :   2.1601 B(  4-C , 11-F ) :   1.1139

Dispersion correction           -0.013183502
FINAL SINGLE POINT ENERGY      -370.686590998961

DIPOLE MOMENT
-------------
                                X             Y             Z
Electronic contribution:    -10.34340       2.34774       3.32916
Nuclear contribution   :     11.08738      -2.45618      -3.73478
                        -----------------------------------------
Total Dipole Moment    :      0.74398      -0.10844      -0.40562
                        -----------------------------------------
Magnitude (a.u.)       :      0.85428
Magnitude (Debye)      :      2.17141

Rotational constants in cm-1:     0.156244     0.063730     0.048063
Rotational constants in MHz :  4684.071402  1910.571278  1440.877811

                             ****ORCA TERMINATED NORMALLY****
TOTAL RUN TIME: 0 days 0 hours 0 minutes 5 seconds 963 msec
