                         Program Version 5.0.0 -  RELEASE  -
|  1> !LC-PBE RIJCOSX def2-SVP def2/J TightSCF
|  2> *xyz -1 1
|  3> C          4.93020       -7.37532       -2.64962
|  4> C          3.84189       -6.95161       -3.63283
|  5> H          3.45814       -5.95442       -3.40712
|  6> H          2.98848       -7.64361       -3.56708
|  7> S          4.31812       -6.91593       -5.36869
|  8> O          5.40615       -5.89948       -5.51297
|  9> O          3.11191       -6.44508       -6.04379
| 10> O          4.76340       -8.23942       -5.69863
| 11> H          5.27901       -8.35440       -2.90385
| 12> H          4.53000       -7.38577       -1.65734
| 13> H          5.74437       -6.68276       -2.69856
| 14> *
| 15>
| 16> %MaxCore 64000
| 17>
| 18> %pal nprocs 4
| 19> end
| 20>
| 21> %scf
| 22>   MaxIter 150
| 23> end
| 24>
| 25>
| 26>                          ****END OF INPUT****

CARTESIAN COORDINATES (ANGSTROEM)
---------------------------------
  C      4.930200   -7.375320   -2.649620
  C      3.841890   -6.951610   -3.632830
  H      3.458140   -5.954420   -3.407120
  H      2.988480   -7.643610   -3.567080
  S      4.318120   -6.915930   -5.368690
  O      5.406150   -5.899480   -5.512970
  O      3.111910   -6.445080   -6.043790
  O      4.763400   -8.239420   -5.698630
  H      5.279010   -8.354400   -2.903850
  H      4.530000   -7.385770   -1.657340
  H      5.744370   -6.682760   -2.698560

 Total Charge           Charge          ....   -1
 Multiplicity           Mult            ....    1
 Number of Electrons    NEL             ....   58
 Basis Dimension        Dim             ....  113

ORBITAL ENERGIES
----------------

  NO   OCC          E(Eh)            E(eV)
   0   2.0000     -88.275874     -2402.1087
   1   2.0000     -18.743771      -510.0439
   2   2.0000     -18.732701      -509.7427
   3   2.0000     -18.723105      -509.4816
   4   2.0000      -9.981639      -271.6142
   5   2.0000      -9.981211      -271.6025
   6   2.0000      -7.905490      -215.1193
   7   2.0000      -5.927506      -161.2956
   8   2.0000      -5.927085      -161.2842
   9   2.0000      -5.926972      -161.2811
  10   2.0000      -1.080064       -29.3900
  11   2.0000      -0.926201       -25.2032
  12   2.0000      -0.894104       -24.3298
  13   2.0000      -0.801418       -21.8077
  14   2.0000      -0.662580       -18.0297
  15   2.0000      -0.519196       -14.1280
  16   2.0000      -0.459739       -12.5101
  17   2.0000      -0.447294       -12.1715
  18   2.0000      -0.409549       -11.1444
  19   2.0000      -0.388055       -10.5595
  20   2.0000      -0.382325       -10.4036
  21   2.0000      -0.358588        -9.7577
  22   2.0000      -0.337211        -9.1760
  23   2.0000      -0.264308        -7.1922
  24   2.0000      -0.260512        -7.0889
  25   2.0000      -0.225539        -6.1372
  26   2.0000      -0.212785        -5.7902
  27   2.0000      -0.205694        -5.5972
  28   2.0000      -0.166805        -4.5390
  29   0.0000       0.289704         7.8832
  30   0.0000       0.344756         9.3813
  31   0.0000       0.350380         9.5343
  32   0.0000       0.357296         9.7225
  33   0.0000       0.384381        10.4595

MULLIKEN ATOMIC CHARGES
-----------------------
   0 C :   -0.108215
   1 C :   -0.223834
   2 H :    0.060762
   3 H :    0.057077
   4 S :    0.823383
   5 O :   -0.613357
   6 O :   -0.579456
   7 O :   -0.551613
   8 H :    0.057023
   9 H :    0.020261
  10 H :    0.057969
Sum of atomic charges:   -1.0000000

LOEWDIN ATOMIC CHARGES
----------------------
   0 C :   -0.108376
   1 C :   -0.215430
   2 H :    0.025482
   3 H :    0.024884
   4 S :    1.090553
   5 O :   -0.665442
   6 O :   -0.629263
   7 O :   -0.601150
   8 H :    0.030787
   9 H :    0.016771
  10 H :    0.031184

  Mayer bond orders larger than 0.100000
B(  0-C ,  1-C ) :   1.0293 B(  0-C ,  8-H ) :   0.9710 B(  0-C ,  9-H ) :   0.9745
B(  0-C , 10-H ) :   0.9710 B(  1-C ,  2-H ) :   0.9522 B(  1-C ,  3-H ) :   0.9504
B(  1-C ,  4-S ) :   0.9021 B(  4-S ,  5-O ) :   1.5965 B(  4-S ,  6-O ) :   1.6360
B(  4-S ,  7-O ) :   1.6591

FINAL SINGLE POINT ENERGY      -701.517495646815

DIPOLE MOMENT
-------------
                                X             Y             Z
Electronic contribution:     -0.37639       0.80002      -7.81180
Nuclear contribution   :      0.07504      -1.14369       9.75001
                        -----------------------------------------
Total Dipole Moment    :     -0.30135      -0.34367       1.93821
                        -----------------------------------------
Magnitude (a.u.)       :      1.99138
Magnitude (Debye)      :      5.06168

Rotational constants in cm-1:     0.160553     0.082191     0.080550
Rotational constants in MHz :  4813.250478  2464.013016  2414.833054

                             ****ORCA TERMINATED NORMALLY****
TOTAL RUN TIME: 0 days 0 hours 0 minutes 14 seconds 704 msec
