                         Program Version 5.0.0 -  RELEASE  -
|  1> !LC-PBE RIJCOSX def2-SVP def2/J TightSCF
|  2> *xyz 1 1
|  3> C          5.55821       -1.99291       -6.21505
|  4> C          4.18188       -2.58967       -6.29891
|  5> N          3.14587       -1.76843       -6.48675
|  6> N          4.01910       -3.86431       -6.22743
|  7> H          4.76849       -4.59115       -5.99077
|  8> H          3.12241       -4.33339       -6.31462
|  9> H          3.28164       -0.77779       -6.56655
| 10> H          2.21255       -2.13419       -6.56225
| 11> C          6.41926       -2.54294       -5.07763
| 12> H          6.03683       -2.19819       -7.17685
| 13> H          5.46761       -0.90737       -6.12797
| 14> H          6.50056       -3.60553       -5.17358
| 15> H          5.96544       -2.30329       -4.13874
| 16> H          7.39438       -2.10494       -5.12457
| 17> *
| 18>
| 19> %MaxCore 64000
| 20>
| 21> %pal nprocs 4
| 22> end
| 23>
| 24> %scf
| 25>   MaxIter 150
| 26> end
| 27>
| 28>
| 29>                          ****END OF INPUT****

CARTESIAN COORDINATES (ANGSTROEM)
---------------------------------
  C      5.558210   -1.992910   -6.215050
  C      4.181880   -2.589670   -6.298910
  N      3.145870   -1.768430   -6.486750
  N      4.019100   -3.864310   -6.227430
  H      4.768490   -4.591150   -5.990770
  H      3.122410   -4.333390   -6.314620
  H      3.281640   -0.777790   -6.566550
  H      2.212550   -2.134190   -6.562250
  C      6.419260   -2.542940   -5.077630
  H      6.036830   -2.198190   -7.176850
  H      5.467610   -0.907370   -6.127970
  H      6.500560   -3.605530   -5.173580
  H      5.965440   -2.303290   -4.138740
  H      7.394380   -2.104940   -5.124570

 Total Charge           Charge          ....    1
 Multiplicity           Mult            ....    1
 Number of Electrons    NEL             ....   40
 Basis Dimension        Dim             ....  115

ORBITAL ENERGIES
----------------

  NO   OCC          E(Eh)            E(eV)
   0   2.0000     -14.481320      -394.0568
   1   2.0000     -14.468407      -393.7054
   2   2.0000     -10.458699      -284.5957
   3   2.0000     -10.324604      -280.9468
   4   2.0000     -10.280872      -279.7568
   5   2.0000      -1.374658       -37.4063
   6   2.0000      -1.265953       -34.4483
   7   2.0000      -1.140570       -31.0365
   8   2.0000      -1.023732       -27.8572
   9   2.0000      -0.971768       -26.4431
  10   2.0000      -0.924269       -25.1506
  11   2.0000      -0.894591       -24.3431
  12   2.0000      -0.838200       -22.8086
  13   2.0000      -0.805865       -21.9287
  14   2.0000      -0.763552       -20.7773
  15   2.0000      -0.746383       -20.3101
  16   2.0000      -0.684145       -18.6165
  17   2.0000      -0.671402       -18.2698
  18   2.0000      -0.653226       -17.7752
  19   2.0000      -0.621956       -16.9243
  20   0.0000      -0.104775        -2.8511
  21   0.0000      -0.046438        -1.2637
  22   0.0000      -0.011080        -0.3015
  23   0.0000      -0.000257        -0.0070
  24   0.0000       0.023597         0.6421

MULLIKEN ATOMIC CHARGES
-----------------------
   0 C :   -0.134589
   1 C :   -0.001417
   2 N :   -0.070895
   3 N :   -0.075856
   4 H :    0.243817
   5 H :    0.206008
   6 H :    0.208588
   7 H :    0.196242
   8 C :   -0.139268
   9 H :    0.156055
  10 H :    0.108856
  11 H :    0.073422
  12 H :    0.104526
  13 H :    0.124512
Sum of atomic charges:    1.0000000

LOEWDIN ATOMIC CHARGES
----------------------
   0 C :   -0.060725
   1 C :    0.157678
   2 N :    0.072111
   3 N :    0.070311
   4 H :    0.159327
   5 H :    0.123230
   6 H :    0.122034
   7 H :    0.114734
   8 C :   -0.063853
   9 H :    0.084578
  10 H :    0.065089
  11 H :    0.036798
  12 H :    0.052730
  13 H :    0.065957

  Mayer bond orders larger than 0.100000
B(  0-C ,  1-C ) :   1.0007 B(  0-C ,  8-C ) :   1.0608 B(  0-C ,  9-H ) :   0.9182
B(  0-C , 10-H ) :   0.9372 B(  1-C ,  2-N ) :   1.4976 B(  1-C ,  3-N ) :   1.5245
B(  2-N ,  6-H ) :   0.9178 B(  2-N ,  7-H ) :   0.9304 B(  3-N ,  4-H ) :   0.9042
B(  3-N ,  5-H ) :   0.9262 B(  8-C , 11-H ) :   0.9725 B(  8-C , 12-H ) :   0.9739
B(  8-C , 13-H ) :   0.9601

FINAL SINGLE POINT ENERGY      -228.118801325978

DIPOLE MOMENT
-------------
                                X             Y             Z
Electronic contribution:     -3.81786      -0.50512      -1.58739
Nuclear contribution   :      2.76041       0.12669       1.26265
                        -----------------------------------------
Total Dipole Moment    :     -1.05745      -0.37843      -0.32474
                        -----------------------------------------
Magnitude (a.u.)       :      1.16913
Magnitude (Debye)      :      2.97168

Rotational constants in cm-1:     0.280918     0.124524     0.094121
Rotational constants in MHz :  8421.697738  3733.133254  2821.684112

                             ****ORCA TERMINATED NORMALLY****
TOTAL RUN TIME: 0 days 0 hours 0 minutes 14 seconds 885 msec
