                         Program Version 5.0.0 -  RELEASE  -
|  1> !LC-PBE RIJCOSX def2-TZVP def2/J TightSCF xyzfile
|  2>
|  3> *xyzfile 0 1 B.xyz
|  4>
|  5> %MaxCore 64000
|  6>
|  7> %pal nprocs 18
|  8> end
|  9>
| 10> %scf
| 11>   MaxIter 150
| 12> end
| 13>
| 14>
| 15>                          ****END OF INPUT****

CARTESIAN COORDINATES (ANGSTROEM)
---------------------------------
  C      5.558206   -1.992914   -6.215054
  C      4.930199   -7.375319   -2.649623
  C      3.841892   -6.951611   -3.632829
  H      3.458144   -5.954425   -3.407121
  H      2.988484   -7.643606   -3.567078
  S      4.318115   -6.915930   -5.368692
  C      4.181880   -2.589671   -6.298911
  N      3.145873   -1.768431   -6.486753
  N      4.019102   -3.864307   -6.227427
  H      4.768490   -4.591153   -5.990773
  H      3.122405   -4.333392   -6.314620
  H      3.281635   -0.777786   -6.566549
  H      2.212549   -2.134193   -6.562246
  O      5.406154   -5.899480   -5.512972
  O      3.111910   -6.445079   -6.043792
  C      6.419260   -2.542944   -5.077630
  C      5.872267   -5.002756   -2.427819
  C      6.173994   -6.485522   -2.606315
  H      6.734852   -6.613767   -3.534015
  H      6.821463   -6.831018   -1.793617
  H      4.469612   -7.406168   -1.655876
  H      5.230134   -8.398678   -2.885906
  C      5.896512   -2.169314   -3.694552
  H      7.428880   -2.143665   -5.208078
  H      6.505894   -3.627541   -5.175502
  C      6.807804   -2.623428   -2.551019
  H      4.894708   -2.589732   -3.557501
  H      5.778823   -1.081255   -3.635790
  C      7.111544   -4.122463   -2.520363
  H      7.751615   -2.071393   -2.614406
  H      6.345837   -2.326401   -1.604086
  H      5.362882   -4.828697   -1.471335
  H      5.174429   -4.702577   -3.211298
  H      7.778329   -4.329347   -1.677651
  H      7.673189   -4.402845   -3.417586
  O      4.763396   -8.239424   -5.698629
  H      6.036826   -2.198189   -7.176852
  H      5.467610   -0.907371   -6.127968

 Total Charge           Charge          ....    0
 Multiplicity           Mult            ....    1
 Number of Electrons    NEL             ....  136
 Basis Dimension        Dim             ....  634

ORBITAL ENERGIES
----------------

  NO   OCC          E(Eh)            E(eV)
   0   2.0000     -88.425885     -2406.1907
   1   2.0000     -18.921675      -514.8850
   2   2.0000     -18.909428      -514.5517
   3   2.0000     -18.902108      -514.3525
   4   2.0000     -14.304861      -389.2551
   5   2.0000     -14.267182      -388.2297
   6   2.0000     -10.283581      -279.8305
   7   2.0000     -10.175136      -276.8795
   8   2.0000     -10.141067      -275.9525
   9   2.0000     -10.128781      -275.6181
  10   2.0000     -10.117130      -275.3011
  11   2.0000     -10.111297      -275.1424
  12   2.0000     -10.104388      -274.9544
  13   2.0000     -10.097983      -274.7801
  14   2.0000     -10.095858      -274.7223
  15   2.0000     -10.088445      -274.5205
  16   2.0000      -8.036838      -218.6935
  17   2.0000      -6.053537      -164.7251
  18   2.0000      -6.052775      -164.7044
  19   2.0000      -6.051476      -164.6690
  20   2.0000      -1.256467       -34.1902
  21   2.0000      -1.218405       -33.1545
  22   2.0000      -1.116111       -30.3709
  23   2.0000      -1.103829       -30.0367
  24   2.0000      -1.099097       -29.9079
  25   2.0000      -1.024443       -27.8765
  26   2.0000      -0.987920       -26.8827
  27   2.0000      -0.962306       -26.1857
  28   2.0000      -0.917507       -24.9666
  29   2.0000      -0.877717       -23.8839
  30   2.0000      -0.840561       -22.8728
  31   2.0000      -0.818189       -22.2640
  32   2.0000      -0.790100       -21.4997
  33   2.0000      -0.759631       -20.6706
  34   2.0000      -0.751120       -20.4390
  35   2.0000      -0.734159       -19.9775
  36   2.0000      -0.718054       -19.5392
  37   2.0000      -0.690538       -18.7905
  38   2.0000      -0.663167       -18.0457
  39   2.0000      -0.655218       -17.8294
  40   2.0000      -0.637497       -17.3472
  41   2.0000      -0.620787       -16.8925
  42   2.0000      -0.614910       -16.7326
  43   2.0000      -0.598877       -16.2963
  44   2.0000      -0.591123       -16.0853
  45   2.0000      -0.583248       -15.8710
  46   2.0000      -0.574168       -15.6239
  47   2.0000      -0.568059       -15.4577
  48   2.0000      -0.553241       -15.0545
  49   2.0000      -0.536766       -14.6062
  50   2.0000      -0.533631       -14.5208
  51   2.0000      -0.530329       -14.4310
  52   2.0000      -0.507657       -13.8141
  53   2.0000      -0.499790       -13.6000
  54   2.0000      -0.494327       -13.4513
  55   2.0000      -0.472621       -12.8607
  56   2.0000      -0.465530       -12.6677
  57   2.0000      -0.459565       -12.5054
  58   2.0000      -0.458968       -12.4891
  59   2.0000      -0.448297       -12.1988
  60   2.0000      -0.446809       -12.1583
  61   2.0000      -0.439356       -11.9555
  62   2.0000      -0.430106       -11.7038
  63   2.0000      -0.426144       -11.5960
  64   2.0000      -0.400363       -10.8944
  65   2.0000      -0.398112       -10.8332
  66   2.0000      -0.379908       -10.3378
  67   2.0000      -0.362263        -9.8577
  68   0.0000       0.045564         1.2399
  69   0.0000       0.065238         1.7752
  70   0.0000       0.101382         2.7588
  71   0.0000       0.112585         3.0636
  72   0.0000       0.125577         3.4171

MULLIKEN ATOMIC CHARGES
-----------------------
   0 C :   -0.286408
   1 C :   -0.257625
   2 C :   -0.394440
   3 H :    0.164417
   4 H :    0.186583
   5 S :    0.793281
   6 C :    0.243867
   7 N :   -0.435201
   8 N :   -0.317890
   9 H :    0.347226
  10 H :    0.294389
  11 H :    0.284714
  12 H :    0.283644
  13 O :   -0.584056
  14 O :   -0.563957
  15 C :   -0.404039
  16 C :   -0.260195
  17 C :   -0.336613
  18 H :    0.201286
  19 H :    0.140020
  20 H :    0.141118
  21 H :    0.177142
  22 C :   -0.341925
  23 H :    0.169509
  24 H :    0.235990
  25 C :   -0.253219
  26 H :    0.177701
  27 H :    0.148541
  28 C :   -0.358429
  29 H :    0.154502
  30 H :    0.153436
  31 H :    0.141405
  32 H :    0.109109
  33 H :    0.154673
  34 H :    0.179408
  35 O :   -0.452937
  36 H :    0.203734
  37 H :    0.161239
Sum of atomic charges:   -0.0000000

LOEWDIN ATOMIC CHARGES
----------------------
   0 C :   -0.221827
   1 C :   -0.305423
   2 C :   -0.404078
   3 H :    0.133066
   4 H :    0.148905
   5 S :    0.446317
   6 C :   -0.327825
   7 N :    0.046296
   8 N :    0.116979
   9 H :    0.171490
  10 H :    0.192268
  11 H :    0.187321
  12 H :    0.187796
  13 O :   -0.371467
  14 O :   -0.375725
  15 C :   -0.270034
  16 C :   -0.289440
  17 C :   -0.291306
  18 H :    0.152953
  19 H :    0.141984
  20 H :    0.144977
  21 H :    0.153442
  22 C :   -0.288970
  23 H :    0.154602
  24 H :    0.160114
  25 C :   -0.283950
  26 H :    0.145312
  27 H :    0.143053
  28 C :   -0.286050
  29 H :    0.145147
  30 H :    0.146341
  31 H :    0.141425
  32 H :    0.138250
  33 H :    0.145405
  34 H :    0.148840
  35 O :   -0.307328
  36 H :    0.175560
  37 H :    0.155580

  Mayer bond orders larger than 0.100000
B(  0-C ,  6-C ) :   0.9391 B(  0-C , 15-C ) :   0.9523 B(  0-C , 36-H ) :   0.9425
B(  0-C , 37-H ) :   0.9910 B(  1-C ,  2-C ) :   0.9213 B(  1-C , 17-C ) :   0.9590
B(  1-C , 20-H ) :   0.9725 B(  1-C , 21-H ) :   0.9715 B(  2-C ,  3-H ) :   0.9532
B(  2-C ,  4-H ) :   0.9562 B(  2-C ,  5-S ) :   0.9276 B(  5-S , 13-O ) :   1.4890
B(  5-S , 14-O ) :   1.7032 B(  5-S , 35-O ) :   1.9384 B(  6-C ,  7-N ) :   1.3234
B(  6-C ,  8-N ) :   1.6197 B(  7-N , 11-H ) :   0.9030 B(  7-N , 12-H ) :   0.9003
B(  8-N ,  9-H ) :   0.7045 B(  8-N , 10-H ) :   0.8708 B(  9-H , 13-O ) :   0.2219
B( 15-C , 22-C ) :   0.8772 B( 15-C , 23-H ) :   0.9672 B( 15-C , 24-H ) :   0.9577
B( 16-C , 17-C ) :   0.9226 B( 16-C , 28-C ) :   0.9210 B( 16-C , 31-H ) :   0.9617
B( 16-C , 32-H ) :   0.9693 B( 17-C , 18-H ) :   0.9716 B( 17-C , 19-H ) :   0.9762
B( 22-C , 25-C ) :   0.9528 B( 22-C , 26-H ) :   0.9764 B( 22-C , 27-H ) :   0.9724
B( 25-C , 28-C ) :   0.9308 B( 25-C , 29-H ) :   0.9901 B( 25-C , 30-H ) :   0.9894
B( 28-C , 33-H ) :   0.9780 B( 28-C , 34-H ) :   0.9917

FINAL SINGLE POINT ENERGY     -1125.382695619515

DIPOLE MOMENT
-------------
                                X             Y             Z
Electronic contribution:     -9.22416     -11.34640     -14.16068
Nuclear contribution   :      8.53517      16.50844      14.36520
                        -----------------------------------------
Total Dipole Moment    :     -0.68899       5.16204       0.20452
                        -----------------------------------------
Magnitude (a.u.)       :      5.21184
Magnitude (Debye)      :     13.24743

Rotational constants in cm-1:     0.017951     0.012436     0.008288
Rotational constants in MHz :   538.163255   372.824050   248.467077

                             ****ORCA TERMINATED NORMALLY****
TOTAL RUN TIME: 0 days 0 hours 1 minutes 47 seconds 740 msec
