                         Program Version 5.0.0 -  RELEASE  -
|  1> !LC-PBE RIJCOSX def2-SVP def2/J TightSCF
|  2> *xyz 0 1
|  3> C          4.93020       -7.37532       -2.64962
|  4> C          3.84189       -6.95161       -3.63283
|  5> H          3.45814       -5.95442       -3.40712
|  6> H          2.98848       -7.64361       -3.56708
|  7> S          4.31812       -6.91593       -5.36869
|  8> F          5.40615       -5.89948       -5.51297
|  9> O          3.11191       -6.44508       -6.04379
| 10> O          4.76340       -8.23942       -5.69863
| 11> H          5.27901       -8.35440       -2.90385
| 12> H          4.53000       -7.38577       -1.65734
| 13> H          5.74437       -6.68276       -2.69856
| 14> *
| 15>
| 16> %MaxCore 64000
| 17>
| 18> %pal nprocs 4
| 19> end
| 20>
| 21> %scf
| 22>   MaxIter 150
| 23> end
| 24>
| 25>
| 26>                          ****END OF INPUT****

CARTESIAN COORDINATES (ANGSTROEM)
---------------------------------
  C      4.930200   -7.375320   -2.649620
  C      3.841890   -6.951610   -3.632830
  H      3.458140   -5.954420   -3.407120
  H      2.988480   -7.643610   -3.567080
  S      4.318120   -6.915930   -5.368690
  F      5.406150   -5.899480   -5.512970
  O      3.111910   -6.445080   -6.043790
  O      4.763400   -8.239420   -5.698630
  H      5.279010   -8.354400   -2.903850
  H      4.530000   -7.385770   -1.657340
  H      5.744370   -6.682760   -2.698560

 Total Charge           Charge          ....    0
 Multiplicity           Mult            ....    1
 Number of Electrons    NEL             ....   58
 Basis Dimension        Dim             ....  113

ORBITAL ENERGIES
----------------

  NO   OCC          E(Eh)            E(eV)
   0   2.0000     -88.549431     -2409.5525
   1   2.0000     -24.591269      -669.1624
   2   2.0000     -18.996362      -516.9173
   3   2.0000     -18.985148      -516.6122
   4   2.0000     -10.191865      -277.3348
   5   2.0000     -10.150898      -276.2200
   6   2.0000      -8.181262      -222.6234
   7   2.0000      -6.207557      -168.9162
   8   2.0000      -6.200539      -168.7252
   9   2.0000      -6.199634      -168.7006
  10   2.0000      -1.491372       -40.5823
  11   2.0000      -1.279605       -34.8198
  12   2.0000      -1.174322       -31.9549
  13   2.0000      -1.000502       -27.2250
  14   2.0000      -0.877791       -23.8859
  15   2.0000      -0.829088       -22.5606
  16   2.0000      -0.732289       -19.9266
  17   2.0000      -0.707481       -19.2515
  18   2.0000      -0.688851       -18.7446
  19   2.0000      -0.640875       -17.4391
  20   2.0000      -0.622517       -16.9395
  21   2.0000      -0.594280       -16.1712
  22   2.0000      -0.572953       -15.5908
  23   2.0000      -0.545485       -14.8434
  24   2.0000      -0.539719       -14.6865
  25   2.0000      -0.512388       -13.9428
  26   2.0000      -0.468922       -12.7600
  27   2.0000      -0.454100       -12.3567
  28   2.0000      -0.444710       -12.1012
  29   0.0000       0.115534         3.1438
  30   0.0000       0.151793         4.1305
  31   0.0000       0.183710         4.9990
  32   0.0000       0.186738         5.0814
  33   0.0000       0.190223         5.1762

MULLIKEN ATOMIC CHARGES
-----------------------
   0 C :   -0.132047
   1 C :   -0.260772
   2 H :    0.123604
   3 H :    0.150900
   4 S :    0.917117
   5 F :   -0.202139
   6 O :   -0.445367
   7 O :   -0.418824
   8 H :    0.097991
   9 H :    0.090272
  10 H :    0.079264
Sum of atomic charges:    0.0000000

LOEWDIN ATOMIC CHARGES
----------------------
   0 C :   -0.096308
   1 C :   -0.177485
   2 H :    0.051393
   3 H :    0.070878
   4 S :    1.155694
   5 F :   -0.159426
   6 O :   -0.504666
   7 O :   -0.476497
   8 H :    0.046753
   9 H :    0.049804
  10 H :    0.039859

  Mayer bond orders larger than 0.100000
B(  0-C ,  1-C ) :   1.0224 B(  0-C ,  8-H ) :   0.9690 B(  0-C ,  9-H ) :   0.9668
B(  0-C , 10-H ) :   0.9754 B(  1-C ,  2-H ) :   0.9367 B(  1-C ,  3-H ) :   0.9335
B(  1-C ,  4-S ) :   0.9275 B(  4-S ,  5-F ) :   0.9947 B(  4-S ,  6-O ) :   1.7876
B(  4-S ,  7-O ) :   1.8130

FINAL SINGLE POINT ENERGY      -726.007865865503

DIPOLE MOMENT
-------------
                                X             Y             Z
Electronic contribution:      1.31225       2.65204      -8.73269
Nuclear contribution   :     -0.98922      -2.24849      10.35711
                        -----------------------------------------
Total Dipole Moment    :      0.32303       0.40355       1.62441
                        -----------------------------------------
Magnitude (a.u.)       :      1.70468
Magnitude (Debye)      :      4.33294

Rotational constants in cm-1:     0.151436     0.080885     0.078670
Rotational constants in MHz :  4539.936009  2424.868817  2358.476812

                             ****ORCA TERMINATED NORMALLY****
TOTAL RUN TIME: 0 days 0 hours 0 minutes 15 seconds 895 msec
