                         Program Version 5.0.0 -  RELEASE  -
|  1> !LC-PBE RIJCOSX def2-SVP def2/J TightSCF
|  2> *xyz 0 1
|  3> C          5.55821       -1.99291       -6.21505
|  4> C          4.18188       -2.58967       -6.29891
|  5> C          3.14587       -1.76843       -6.48675
|  6> N          4.01910       -3.86431       -6.22743
|  7> H          4.76849       -4.59115       -5.99077
|  8> H          3.12241       -4.33339       -6.31462
|  9> H          3.28164       -0.77779       -6.56655
| 10> H          2.21255       -2.13419       -6.56225
| 11> C          6.41926       -2.54294       -5.07763
| 12> H          6.03683       -2.19819       -7.17685
| 13> H          5.46761       -0.90737       -6.12797
| 14> H          6.50056       -3.60553       -5.17358
| 15> H          5.96544       -2.30329       -4.13874
| 16> H          7.39438       -2.10494       -5.12457
| 17> *
| 18>
| 19> %MaxCore 64000
| 20>
| 21> %pal nprocs 4
| 22> end
| 23>
| 24> %scf
| 25>   MaxIter 150
| 26> end
| 27>
| 28>
| 29>                          ****END OF INPUT****

CARTESIAN COORDINATES (ANGSTROEM)
---------------------------------
  C      5.558210   -1.992910   -6.215050
  C      4.181880   -2.589670   -6.298910
  C      3.145870   -1.768430   -6.486750
  N      4.019100   -3.864310   -6.227430
  H      4.768490   -4.591150   -5.990770
  H      3.122410   -4.333390   -6.314620
  H      3.281640   -0.777790   -6.566550
  H      2.212550   -2.134190   -6.562250
  C      6.419260   -2.542940   -5.077630
  H      6.036830   -2.198190   -7.176850
  H      5.467610   -0.907370   -6.127970
  H      6.500560   -3.605530   -5.173580
  H      5.965440   -2.303290   -4.138740
  H      7.394380   -2.104940   -5.124570

 Total Charge           Charge          ....    0
 Multiplicity           Mult            ....    1
 Number of Electrons    NEL             ....   40
 Basis Dimension        Dim             ....  115

ORBITAL ENERGIES
----------------

  NO   OCC          E(Eh)            E(eV)
   0   2.0000     -14.229180      -387.1957
   1   2.0000     -10.148385      -276.1516
   2   2.0000     -10.123116      -275.4640
   3   2.0000     -10.114422      -275.2274
   4   2.0000     -10.048647      -273.4376
   5   2.0000      -1.095179       -29.8013
   6   2.0000      -0.945715       -25.7342
   7   2.0000      -0.877793       -23.8860
   8   2.0000      -0.786206       -21.3938
   9   2.0000      -0.728453       -19.8222
  10   2.0000      -0.660478       -17.9725
  11   2.0000      -0.615668       -16.7532
  12   2.0000      -0.583671       -15.8825
  13   2.0000      -0.560387       -15.2489
  14   2.0000      -0.525470       -14.2988
  15   2.0000      -0.515508       -14.0277
  16   2.0000      -0.487833       -13.2746
  17   2.0000      -0.464898       -12.6505
  18   2.0000      -0.455091       -12.3836
  19   2.0000      -0.296803        -8.0764
  20   0.0000       0.137256         3.7349
  21   0.0000       0.156849         4.2681
  22   0.0000       0.186691         5.0801
  23   0.0000       0.189628         5.1601
  24   0.0000       0.215788         5.8719

MULLIKEN ATOMIC CHARGES
-----------------------
   0 C :   -0.076628
   1 C :   -0.098919
   2 C :   -0.147257
   3 N :   -0.157273
   4 H :    0.156273
   5 H :    0.147491
   6 H :    0.000523
   7 H :   -0.008963
   8 C :   -0.130621
   9 H :    0.075755
  10 H :    0.063977
  11 H :    0.040293
  12 H :    0.070441
  13 H :    0.064907
Sum of atomic charges:    0.0000000

LOEWDIN ATOMIC CHARGES
----------------------
   0 C :   -0.054749
   1 C :    0.000867
   2 C :   -0.210473
   3 N :   -0.029743
   4 H :    0.100030
   5 H :    0.086381
   6 H :    0.004919
   7 H :   -0.000586
   8 C :   -0.086722
   9 H :    0.043880
  10 H :    0.046963
  11 H :    0.023715
  12 H :    0.038267
  13 H :    0.037251

  Mayer bond orders larger than 0.100000
B(  0-C ,  1-C ) :   1.0087 B(  0-C ,  8-C ) :   1.0647 B(  0-C ,  9-H ) :   0.9466
B(  0-C , 10-H ) :   0.9495 B(  1-C ,  2-C ) :   1.8640 B(  1-C ,  3-N ) :   1.2520
B(  2-C ,  6-H ) :   0.9532 B(  2-C ,  7-H ) :   0.9649 B(  3-N ,  4-H ) :   0.9474
B(  3-N ,  5-H ) :   0.9510 B(  8-C , 11-H ) :   0.9756 B(  8-C , 12-H ) :   0.9757
B(  8-C , 13-H ) :   0.9734

FINAL SINGLE POINT ENERGY      -211.672293024371

DIPOLE MOMENT
-------------
                                X             Y             Z
Electronic contribution:     -1.98450      -1.14207      -1.01481
Nuclear contribution   :      2.41345       0.31141       1.16343
                        -----------------------------------------
Total Dipole Moment    :      0.42896      -0.83066       0.14862
                        -----------------------------------------
Magnitude (a.u.)       :      0.94661
Magnitude (Debye)      :      2.40610

Rotational constants in cm-1:     0.287957     0.129204     0.097498
Rotational constants in MHz :  8632.737925  3873.424745  2922.919500

                             ****ORCA TERMINATED NORMALLY****
TOTAL RUN TIME: 0 days 0 hours 0 minutes 15 seconds 270 msec
