                         Program Version 5.0.0 -  RELEASE  -
|  1> !LC-PBE RIJCOSX def2-SVP def2/J TightSCF
|  2> *xyz 0 1
|  3> C          4.93020       -7.37532       -2.64962
|  4> C          3.84189       -6.95161       -3.63283
|  5> H          3.45814       -5.95442       -3.40712
|  6> H          2.98848       -7.64361       -3.56708
|  7> S          4.31812       -6.91593       -5.36869
|  8> O          5.40615       -5.89948       -5.51297
|  9> F          3.11191       -6.44508       -6.04379
| 10> O          4.76340       -8.23942       -5.69863
| 11> H          5.27901       -8.35440       -2.90385
| 12> H          4.53000       -7.38577       -1.65734
| 13> H          5.74437       -6.68276       -2.69856
| 14> *
| 15>
| 16> %MaxCore 64000
| 17>
| 18> %pal nprocs 4
| 19> end
| 20>
| 21> %scf
| 22>   MaxIter 150
| 23> end
| 24>
| 25>
| 26>                          ****END OF INPUT****

CARTESIAN COORDINATES (ANGSTROEM)
---------------------------------
  C      4.930200   -7.375320   -2.649620
  C      3.841890   -6.951610   -3.632830
  H      3.458140   -5.954420   -3.407120
  H      2.988480   -7.643610   -3.567080
  S      4.318120   -6.915930   -5.368690
  O      5.406150   -5.899480   -5.512970
  F      3.111910   -6.445080   -6.043790
  O      4.763400   -8.239420   -5.698630
  H      5.279010   -8.354400   -2.903850
  H      4.530000   -7.385770   -1.657340
  H      5.744370   -6.682760   -2.698560

 Total Charge           Charge          ....    0
 Multiplicity           Mult            ....    1
 Number of Electrons    NEL             ....   58
 Basis Dimension        Dim             ....  113

ORBITAL ENERGIES
----------------

  NO   OCC          E(Eh)            E(eV)
   0   2.0000     -88.550607     -2409.5845
   1   2.0000     -24.607436      -669.6024
   2   2.0000     -18.995077      -516.8823
   3   2.0000     -18.975339      -516.3452
   4   2.0000     -10.192981      -277.3651
   5   2.0000     -10.148629      -276.1582
   6   2.0000      -8.182577      -222.6593
   7   2.0000      -6.208997      -168.9554
   8   2.0000      -6.201770      -168.7587
   9   2.0000      -6.200704      -168.7297
  10   2.0000      -1.519651       -41.3518
  11   2.0000      -1.273274       -34.6475
  12   2.0000      -1.154419       -31.4133
  13   2.0000      -0.999746       -27.2045
  14   2.0000      -0.892098       -24.2752
  15   2.0000      -0.829793       -22.5798
  16   2.0000      -0.735289       -20.0082
  17   2.0000      -0.728685       -19.8285
  18   2.0000      -0.698951       -19.0194
  19   2.0000      -0.643503       -17.5106
  20   2.0000      -0.625162       -17.0115
  21   2.0000      -0.576932       -15.6991
  22   2.0000      -0.569653       -15.5011
  23   2.0000      -0.549315       -14.9476
  24   2.0000      -0.522346       -14.2138
  25   2.0000      -0.520079       -14.1521
  26   2.0000      -0.462742       -12.5918
  27   2.0000      -0.446340       -12.1455
  28   2.0000      -0.430112       -11.7039
  29   0.0000       0.134076         3.6484
  30   0.0000       0.140492         3.8230
  31   0.0000       0.175213         4.7678
  32   0.0000       0.184374         5.0171
  33   0.0000       0.189372         5.1531

MULLIKEN ATOMIC CHARGES
-----------------------
   0 C :   -0.119222
   1 C :   -0.255076
   2 H :    0.120173
   3 H :    0.120326
   4 S :    0.910274
   5 O :   -0.477000
   6 F :   -0.169062
   7 O :   -0.416200
   8 H :    0.097180
   9 H :    0.089286
  10 H :    0.099320
Sum of atomic charges:   -0.0000000

LOEWDIN ATOMIC CHARGES
----------------------
   0 C :   -0.081621
   1 C :   -0.181967
   2 H :    0.049958
   3 H :    0.051710
   4 S :    1.152051
   5 O :   -0.538892
   6 F :   -0.123869
   7 O :   -0.474974
   8 H :    0.048449
   9 H :    0.049861
  10 H :    0.049295

  Mayer bond orders larger than 0.100000
B(  0-C ,  1-C ) :   1.0446 B(  0-C ,  8-H ) :   0.9697 B(  0-C ,  9-H ) :   0.9683
B(  0-C , 10-H ) :   0.9702 B(  1-C ,  2-H ) :   0.9331 B(  1-C ,  3-H ) :   0.9316
B(  1-C ,  4-S ) :   0.9238 B(  4-S ,  5-O ) :   1.7476 B(  4-S ,  6-F ) :   1.0340
B(  4-S ,  7-O ) :   1.8097

FINAL SINGLE POINT ENERGY      -725.994763828733

DIPOLE MOMENT
-------------
                                X             Y             Z
Electronic contribution:     -2.65856       1.70628      -9.66041
Nuclear contribution   :      1.40145      -1.67996      10.91024
                        -----------------------------------------
Total Dipole Moment    :     -1.25711       0.02632       1.24983
                        -----------------------------------------
Magnitude (a.u.)       :      1.77287
Magnitude (Debye)      :      4.50628

Rotational constants in cm-1:     0.155875     0.079864     0.077188
Rotational constants in MHz :  4673.017506  2394.277415  2314.027118

                             ****ORCA TERMINATED NORMALLY****
TOTAL RUN TIME: 0 days 0 hours 0 minutes 15 seconds 232 msec
