                         Program Version 5.0.0 -  RELEASE  -
|  1> !LC-PBE RIJCOSX def2-SVP def2/J TightSCF
|  2> *xyz 0 1
|  3> C          5.55821       -1.99291       -6.21505
|  4> C          4.18188       -2.58967       -6.29891
|  5> N          3.14587       -1.76843       -6.48675
|  6> C          4.01910       -3.86431       -6.22743
|  7> H          4.76849       -4.59115       -5.99077
|  8> H          3.12241       -4.33339       -6.31462
|  9> H          3.28164       -0.77779       -6.56655
| 10> H          2.21255       -2.13419       -6.56225
| 11> C          6.41926       -2.54294       -5.07763
| 12> H          6.03683       -2.19819       -7.17685
| 13> H          5.46761       -0.90737       -6.12797
| 14> H          6.50056       -3.60553       -5.17358
| 15> H          5.96544       -2.30329       -4.13874
| 16> H          7.39438       -2.10494       -5.12457
| 17> *
| 18>
| 19> %MaxCore 64000
| 20>
| 21> %pal nprocs 4
| 22> end
| 23>
| 24> %scf
| 25>   MaxIter 150
| 26> end
| 27>
| 28>
| 29>                          ****END OF INPUT****

CARTESIAN COORDINATES (ANGSTROEM)
---------------------------------
  C      5.558210   -1.992910   -6.215050
  C      4.181880   -2.589670   -6.298910
  N      3.145870   -1.768430   -6.486750
  C      4.019100   -3.864310   -6.227430
  H      4.768490   -4.591150   -5.990770
  H      3.122410   -4.333390   -6.314620
  H      3.281640   -0.777790   -6.566550
  H      2.212550   -2.134190   -6.562250
  C      6.419260   -2.542940   -5.077630
  H      6.036830   -2.198190   -7.176850
  H      5.467610   -0.907370   -6.127970
  H      6.500560   -3.605530   -5.173580
  H      5.965440   -2.303290   -4.138740
  H      7.394380   -2.104940   -5.124570

 Total Charge           Charge          ....    0
 Multiplicity           Mult            ....    1
 Number of Electrons    NEL             ....   40
 Basis Dimension        Dim             ....  115

ORBITAL ENERGIES
----------------

  NO   OCC          E(Eh)            E(eV)
   0   2.0000     -14.216888      -386.8612
   1   2.0000     -10.145680      -276.0780
   2   2.0000     -10.124161      -275.4924
   3   2.0000     -10.107522      -275.0396
   4   2.0000     -10.057178      -273.6697
   5   2.0000      -1.084416       -29.5085
   6   2.0000      -0.948746       -25.8167
   7   2.0000      -0.872151       -23.7324
   8   2.0000      -0.798117       -21.7179
   9   2.0000      -0.701751       -19.0956
  10   2.0000      -0.663456       -18.0536
  11   2.0000      -0.629680       -17.1345
  12   2.0000      -0.590632       -16.0719
  13   2.0000      -0.554003       -15.0752
  14   2.0000      -0.521809       -14.1992
  15   2.0000      -0.503100       -13.6900
  16   2.0000      -0.480080       -13.0637
  17   2.0000      -0.462230       -12.5779
  18   2.0000      -0.455574       -12.3968
  19   2.0000      -0.306738        -8.3468
  20   0.0000       0.148703         4.0464
  21   0.0000       0.158901         4.3239
  22   0.0000       0.188905         5.1404
  23   0.0000       0.195285         5.3140
  24   0.0000       0.217365         5.9148

MULLIKEN ATOMIC CHARGES
-----------------------
   0 C :   -0.078483
   1 C :   -0.042350
   2 N :   -0.165332
   3 C :   -0.214799
   4 H :    0.033192
   5 H :    0.001277
   6 H :    0.133273
   7 H :    0.139713
   8 C :   -0.122415
   9 H :    0.086991
  10 H :    0.039266
  11 H :    0.067430
  12 H :    0.065347
  13 H :    0.056889
Sum of atomic charges:   -0.0000000

LOEWDIN ATOMIC CHARGES
----------------------
   0 C :   -0.057637
   1 C :    0.007235
   2 N :   -0.032390
   3 C :   -0.206969
   4 H :    0.023961
   5 H :    0.005144
   6 H :    0.071838
   7 H :    0.080986
   8 C :   -0.076810
   9 H :    0.050779
  10 H :    0.028932
  11 H :    0.035361
  12 H :    0.036664
  13 H :    0.032907

  Mayer bond orders larger than 0.100000
B(  0-C ,  1-C ) :   0.9788 B(  0-C ,  8-C ) :   1.0846 B(  0-C ,  9-H ) :   0.9447
B(  0-C , 10-H ) :   0.9542 B(  1-C ,  2-N ) :   1.2393 B(  1-C ,  3-C ) :   1.8932
B(  2-N ,  6-H ) :   0.9553 B(  2-N ,  7-H ) :   0.9542 B(  3-C ,  4-H ) :   0.9666
B(  3-C ,  5-H ) :   0.9639 B(  8-C , 11-H ) :   0.9740 B(  8-C , 12-H ) :   0.9776
B(  8-C , 13-H ) :   0.9735

FINAL SINGLE POINT ENERGY      -211.682967798568

DIPOLE MOMENT
-------------
                                X             Y             Z
Electronic contribution:     -2.80821       0.85735      -1.29926
Nuclear contribution   :      2.61570      -0.17401       1.22349
                        -----------------------------------------
Total Dipole Moment    :     -0.19251       0.68334      -0.07577
                        -----------------------------------------
Magnitude (a.u.)       :      0.71397
Magnitude (Debye)      :      1.81477

Rotational constants in cm-1:     0.298189     0.125314     0.096441
Rotational constants in MHz :  8939.495008  3756.825352  2891.223400

                             ****ORCA TERMINATED NORMALLY****
TOTAL RUN TIME: 0 days 0 hours 0 minutes 17 seconds 481 msec
