                         Program Version 5.0.0 -  RELEASE  -
|  1> !LC-PBE RIJCOSX def2-SVP def2/J TightSCF
|  2> *xyz 0 1
|  3> C          4.93020       -7.37532       -2.64962
|  4> C          3.84189       -6.95161       -3.63283
|  5> H          3.45814       -5.95442       -3.40712
|  6> H          2.98848       -7.64361       -3.56708
|  7> S          4.31812       -6.91593       -5.36869
|  8> O          5.40615       -5.89948       -5.51297
|  9> O          3.11191       -6.44508       -6.04379
| 10> F          4.76340       -8.23942       -5.69863
| 11> H          5.27901       -8.35440       -2.90385
| 12> H          4.53000       -7.38577       -1.65734
| 13> H          5.74437       -6.68276       -2.69856
| 14> *
| 15>
| 16> %MaxCore 64000
| 17>
| 18> %pal nprocs 4
| 19> end
| 20>
| 21> %scf
| 22>   MaxIter 150
| 23> end
| 24>
| 25>
| 26>                          ****END OF INPUT****

CARTESIAN COORDINATES (ANGSTROEM)
---------------------------------
  C      4.930200   -7.375320   -2.649620
  C      3.841890   -6.951610   -3.632830
  H      3.458140   -5.954420   -3.407120
  H      2.988480   -7.643610   -3.567080
  S      4.318120   -6.915930   -5.368690
  O      5.406150   -5.899480   -5.512970
  O      3.111910   -6.445080   -6.043790
  F      4.763400   -8.239420   -5.698630
  H      5.279010   -8.354400   -2.903850
  H      4.530000   -7.385770   -1.657340
  H      5.744370   -6.682760   -2.698560

 Total Charge           Charge          ....    0
 Multiplicity           Mult            ....    1
 Number of Electrons    NEL             ....   58
 Basis Dimension        Dim             ....  113

ORBITAL ENERGIES
----------------

  NO   OCC          E(Eh)            E(eV)
   0   2.0000     -88.551381     -2409.6056
   1   2.0000     -24.621078      -669.9736
   2   2.0000     -18.984810      -516.6030
   3   2.0000     -18.976295      -516.3712
   4   2.0000     -10.192966      -277.3647
   5   2.0000     -10.151959      -276.2489
   6   2.0000      -8.183479      -222.6838
   7   2.0000      -6.210145      -168.9866
   8   2.0000      -6.202396      -168.7758
   9   2.0000      -6.201473      -168.7507
  10   2.0000      -1.541647       -41.9503
  11   2.0000      -1.262543       -34.3555
  12   2.0000      -1.146343       -31.1936
  13   2.0000      -1.002652       -27.2836
  14   2.0000      -0.893181       -24.3047
  15   2.0000      -0.842959       -22.9381
  16   2.0000      -0.756263       -20.5790
  17   2.0000      -0.743061       -20.2197
  18   2.0000      -0.692492       -18.8437
  19   2.0000      -0.641265       -17.4497
  20   2.0000      -0.621008       -16.8985
  21   2.0000      -0.591486       -16.0951
  22   2.0000      -0.564995       -15.3743
  23   2.0000      -0.545941       -14.8558
  24   2.0000      -0.532283       -14.4842
  25   2.0000      -0.507390       -13.8068
  26   2.0000      -0.453488       -12.3400
  27   2.0000      -0.445850       -12.1322
  28   2.0000      -0.424020       -11.5382
  29   0.0000       0.120637         3.2827
  30   0.0000       0.151032         4.1098
  31   0.0000       0.176602         4.8056
  32   0.0000       0.185472         5.0470
  33   0.0000       0.188619         5.1326

MULLIKEN ATOMIC CHARGES
-----------------------
   0 C :   -0.132103
   1 C :   -0.258659
   2 H :    0.150384
   3 H :    0.123621
   4 S :    0.904503
   5 O :   -0.472902
   6 O :   -0.438652
   7 F :   -0.143520
   8 H :    0.075605
   9 H :    0.091070
  10 H :    0.100653
Sum of atomic charges:    0.0000000

LOEWDIN ATOMIC CHARGES
----------------------
   0 C :   -0.096497
   1 C :   -0.177230
   2 H :    0.069077
   3 H :    0.052840
   4 S :    1.148634
   5 O :   -0.535117
   6 O :   -0.499428
   7 F :   -0.098607
   8 H :    0.038355
   9 H :    0.050119
  10 H :    0.047855

  Mayer bond orders larger than 0.100000
B(  0-C ,  1-C ) :   1.0214 B(  0-C ,  8-H ) :   0.9750 B(  0-C ,  9-H ) :   0.9666
B(  0-C , 10-H ) :   0.9691 B(  1-C ,  2-H ) :   0.9340 B(  1-C ,  3-H ) :   0.9348
B(  1-C ,  4-S ) :   0.9244 B(  4-S ,  5-O ) :   1.7456 B(  4-S ,  6-O ) :   1.7824
B(  4-S ,  7-F ) :   1.0590

FINAL SINGLE POINT ENERGY      -725.982397807108

DIPOLE MOMENT
-------------
                                X             Y             Z
Electronic contribution:      0.19457      -1.37751      -9.05877
Nuclear contribution   :     -0.31946       0.18980      10.55057
                        -----------------------------------------
Total Dipole Moment    :     -0.12489      -1.18771       1.49180
                        -----------------------------------------
Magnitude (a.u.)       :      1.91095
Magnitude (Debye)      :      4.85724

Rotational constants in cm-1:     0.151421     0.081183     0.078684
Rotational constants in MHz :  4539.489207  2433.790160  2358.892966

                             ****ORCA TERMINATED NORMALLY****
TOTAL RUN TIME: 0 days 0 hours 0 minutes 15 seconds 585 msec
