                         Program Version 5.0.0 -  RELEASE  -
|  1> !LC-PBE RIJCOSX def2-TZVP def2/J TightSCF xyzfile
|  2>
|  3> *xyzfile 0 1 D1.xyz
|  4>
|  5> %MaxCore 64000
|  6>
|  7> %pal nprocs 18
|  8> end
|  9>
| 10> %scf
| 11>   MaxIter 150
| 12> end
| 13>
| 14>
| 15>                          ****END OF INPUT****

CARTESIAN COORDINATES (ANGSTROEM)
---------------------------------
  C      5.558206   -1.992914   -6.215054
  C      4.930199   -7.375319   -2.649623
  C      3.841892   -6.951611   -3.632829
  H      3.458144   -5.954425   -3.407121
  H      2.988484   -7.643606   -3.567078
  S      4.318115   -6.915930   -5.368692
  C      4.181880   -2.589671   -6.298911
  C      3.145873   -1.768431   -6.486753
  N      4.019102   -3.864307   -6.227427
  H      4.768490   -4.591153   -5.990773
  H      3.122405   -4.333392   -6.314620
  H      3.281635   -0.777786   -6.566549
  H      2.212549   -2.134193   -6.562246
  F      5.406154   -5.899480   -5.512972
  O      3.111910   -6.445079   -6.043792
  C      6.419260   -2.542944   -5.077630
  C      5.872267   -5.002756   -2.427819
  C      6.173994   -6.485522   -2.606315
  H      6.734852   -6.613767   -3.534015
  H      6.821463   -6.831018   -1.793617
  H      4.469612   -7.406168   -1.655876
  H      5.230134   -8.398678   -2.885906
  C      5.896512   -2.169314   -3.694552
  H      7.428880   -2.143665   -5.208078
  H      6.505894   -3.627541   -5.175502
  C      6.807804   -2.623428   -2.551019
  H      4.894708   -2.589732   -3.557501
  H      5.778823   -1.081255   -3.635790
  C      7.111544   -4.122463   -2.520363
  H      7.751615   -2.071393   -2.614406
  H      6.345837   -2.326401   -1.604086
  H      5.362882   -4.828697   -1.471335
  H      5.174429   -4.702577   -3.211298
  H      7.778329   -4.329347   -1.677651
  H      7.673189   -4.402845   -3.417586
  O      4.763396   -8.239424   -5.698629
  H      6.036826   -2.198189   -7.176852
  H      5.467610   -0.907371   -6.127968

 Total Charge           Charge          ....    0
 Multiplicity           Mult            ....    1
 Number of Electrons    NEL             ....  136
 Basis Dimension        Dim             ....  634

ORBITAL ENERGIES
----------------

  NO   OCC          E(Eh)            E(eV)
   0   2.0000     -88.552278     -2409.6300
   1   2.0000     -24.623720      -670.0455
   2   2.0000     -19.014526      -517.4116
   3   2.0000     -19.007550      -517.2217
   4   2.0000     -14.195106      -386.2685
   5   2.0000     -10.192475      -277.3514
   6   2.0000     -10.153473      -276.2901
   7   2.0000     -10.136276      -275.8221
   8   2.0000     -10.130411      -275.6625
   9   2.0000     -10.127010      -275.5700
  10   2.0000     -10.119756      -275.3726
  11   2.0000     -10.114382      -275.2263
  12   2.0000     -10.113576      -275.2044
  13   2.0000     -10.108796      -275.0743
  14   2.0000     -10.107852      -275.0486
  15   2.0000     -10.029164      -272.9074
  16   2.0000      -8.163684      -222.1451
  17   2.0000      -6.184635      -168.2925
  18   2.0000      -6.176816      -168.0797
  19   2.0000      -6.176189      -168.0627
  20   2.0000      -1.542735       -41.9799
  21   2.0000      -1.305922       -35.5359
  22   2.0000      -1.206148       -32.8210
  23   2.0000      -1.095346       -29.8059
  24   2.0000      -1.037528       -28.2326
  25   2.0000      -1.003091       -27.2955
  26   2.0000      -0.970937       -26.4205
  27   2.0000      -0.935203       -25.4482
  28   2.0000      -0.911340       -24.7988
  29   2.0000      -0.879717       -23.9383
  30   2.0000      -0.869108       -23.6496
  31   2.0000      -0.827221       -22.5098
  32   2.0000      -0.788001       -21.4426
  33   2.0000      -0.777838       -21.1660
  34   2.0000      -0.771786       -21.0014
  35   2.0000      -0.744555       -20.2604
  36   2.0000      -0.728056       -19.8114
  37   2.0000      -0.716741       -19.5035
  38   2.0000      -0.709030       -19.2937
  39   2.0000      -0.662760       -18.0346
  40   2.0000      -0.654018       -17.7967
  41   2.0000      -0.639572       -17.4036
  42   2.0000      -0.632651       -17.2153
  43   2.0000      -0.623236       -16.9591
  44   2.0000      -0.612410       -16.6645
  45   2.0000      -0.607840       -16.5402
  46   2.0000      -0.597706       -16.2644
  47   2.0000      -0.578466       -15.7409
  48   2.0000      -0.573952       -15.6180
  49   2.0000      -0.564837       -15.3700
  50   2.0000      -0.551882       -15.0175
  51   2.0000      -0.547007       -14.8848
  52   2.0000      -0.530937       -14.4475
  53   2.0000      -0.515159       -14.0182
  54   2.0000      -0.508610       -13.8400
  55   2.0000      -0.505687       -13.7604
  56   2.0000      -0.501450       -13.6452
  57   2.0000      -0.491618       -13.3776
  58   2.0000      -0.489114       -13.3095
  59   2.0000      -0.478487       -13.0203
  60   2.0000      -0.471770       -12.8375
  61   2.0000      -0.469066       -12.7639
  62   2.0000      -0.465742       -12.6735
  63   2.0000      -0.457392       -12.4463
  64   2.0000      -0.445264       -12.1162
  65   2.0000      -0.438675       -11.9369
  66   2.0000      -0.434995       -11.8368
  67   2.0000      -0.291832        -7.9412
  68   0.0000       0.081859         2.2275
  69   0.0000       0.108368         2.9488
  70   0.0000       0.114512         3.1160
  71   0.0000       0.117510         3.1976
  72   0.0000       0.127078         3.4580

MULLIKEN ATOMIC CHARGES
-----------------------
   0 C :   -0.277142
   1 C :   -0.266011
   2 C :   -0.415532
   3 H :    0.233885
   4 H :    0.231104
   5 S :    0.793119
   6 C :    0.145189
   7 C :   -0.521366
   8 N :   -0.470091
   9 H :    0.267169
  10 H :    0.280523
  11 H :    0.126882
  12 H :    0.130663
  13 F :   -0.112580
  14 O :   -0.420774
  15 C :   -0.359212
  16 C :   -0.300168
  17 C :   -0.372110
  18 H :    0.185026
  19 H :    0.166887
  20 H :    0.170394
  21 H :    0.196066
  22 C :   -0.333054
  23 H :    0.158044
  24 H :    0.135992
  25 C :   -0.251514
  26 H :    0.186145
  27 H :    0.157750
  28 C :   -0.342437
  29 H :    0.155637
  30 H :    0.153065
  31 H :    0.159700
  32 H :    0.121946
  33 H :    0.159726
  34 H :    0.171331
  35 O :   -0.365001
  36 H :    0.162177
  37 H :    0.158573
Sum of atomic charges:    0.0000000

LOEWDIN ATOMIC CHARGES
----------------------
   0 C :   -0.226952
   1 C :   -0.302016
   2 C :   -0.378189
   3 H :    0.154196
   4 H :    0.168242
   5 S :    0.547442
   6 C :   -0.389878
   7 C :   -0.299474
   8 N :   -0.021117
   9 H :    0.155233
  10 H :    0.177812
  11 H :    0.102883
  12 H :    0.099465
  13 F :    0.074462
  14 O :   -0.269813
  15 C :   -0.285387
  16 C :   -0.289581
  17 C :   -0.292539
  18 H :    0.144131
  19 H :    0.151807
  20 H :    0.157084
  21 H :    0.156164
  22 C :   -0.283433
  23 H :    0.147828
  24 H :    0.133337
  25 C :   -0.285507
  26 H :    0.148050
  27 H :    0.149282
  28 C :   -0.287393
  29 H :    0.146254
  30 H :    0.145304
  31 H :    0.148202
  32 H :    0.136735
  33 H :    0.146019
  34 H :    0.145545
  35 O :   -0.237802
  36 H :    0.155104
  37 H :    0.158500

  Mayer bond orders larger than 0.100000
B(  0-C ,  6-C ) :   0.9293 B(  0-C , 15-C ) :   0.9475 B(  0-C , 36-H ) :   0.9783
B(  0-C , 37-H ) :   0.9929 B(  1-C ,  2-C ) :   0.9090 B(  1-C , 17-C ) :   0.9415
B(  1-C , 20-H ) :   0.9607 B(  1-C , 21-H ) :   0.9733 B(  2-C ,  3-H ) :   0.9305
B(  2-C ,  4-H ) :   0.9330 B(  2-C ,  5-S ) :   0.9280 B(  5-S , 13-F ) :   1.0564
B(  5-S , 14-O ) :   1.8773 B(  5-S , 35-O ) :   2.0061 B(  6-C ,  7-C ) :   1.7333
B(  6-C ,  8-N ) :   1.2068 B(  7-C , 11-H ) :   0.9971 B(  7-C , 12-H ) :   0.9974
B(  8-N ,  9-H ) :   0.8814 B(  8-N , 10-H ) :   0.8955 B( 15-C , 22-C ) :   0.8720
B( 15-C , 23-H ) :   0.9715 B( 15-C , 24-H ) :   0.9956 B( 16-C , 17-C ) :   0.8757
B( 16-C , 28-C ) :   0.9207 B( 16-C , 31-H ) :   0.9575 B( 16-C , 32-H ) :   0.9847
B( 17-C , 18-H ) :   0.9910 B( 17-C , 19-H ) :   0.9736 B( 22-C , 25-C ) :   0.9302
B( 22-C , 26-H ) :   0.9860 B( 22-C , 27-H ) :   0.9746 B( 25-C , 28-C ) :   0.9388
B( 25-C , 29-H ) :   0.9878 B( 25-C , 30-H ) :   0.9926 B( 28-C , 33-H ) :   0.9773
B( 28-C , 34-H ) :   0.9900

FINAL SINGLE POINT ENERGY     -1133.245239039416

DIPOLE MOMENT
-------------
                                X             Y             Z
Electronic contribution:     -6.96992     -18.76478     -13.14782
Nuclear contribution   :      7.78491      18.17172      15.09294
                        -----------------------------------------
Total Dipole Moment    :      0.81499      -0.59306       1.94511
                        -----------------------------------------
Magnitude (a.u.)       :      2.19075
Magnitude (Debye)      :      5.56845

Rotational constants in cm-1:     0.018190     0.012573     0.008405
Rotational constants in MHz :   545.327178   376.916509   251.974803

                             ****ORCA TERMINATED NORMALLY****
TOTAL RUN TIME: 0 days 0 hours 1 minutes 54 seconds 175 msec
