                         Program Version 5.0.0 -  RELEASE  -
|  1> !LC-PBE RIJCOSX def2-TZVP def2/J TightSCF xyzfile
|  2>
|  3> *xyzfile 0 1 D4.xyz
|  4>
|  5> %MaxCore 64000
|  6>
|  7> %pal nprocs 18
|  8> end
|  9>
| 10> %scf
| 11>   MaxIter 150
| 12> end
| 13>
| 14>
| 15>                          ****END OF INPUT****

CARTESIAN COORDINATES (ANGSTROEM)
---------------------------------
  C      5.558206   -1.992914   -6.215054
  C      4.930199   -7.375319   -2.649623
  C      3.841892   -6.951611   -3.632829
  H      3.458144   -5.954425   -3.407121
  H      2.988484   -7.643606   -3.567078
  S      4.318115   -6.915930   -5.368692
  C      4.181880   -2.589671   -6.298911
  N      3.145873   -1.768431   -6.486753
  C      4.019102   -3.864307   -6.227427
  H      4.768490   -4.591153   -5.990773
  H      3.122405   -4.333392   -6.314620
  H      3.281635   -0.777786   -6.566549
  H      2.212549   -2.134193   -6.562246
  O      5.406154   -5.899480   -5.512972
  F      3.111910   -6.445079   -6.043792
  C      6.419260   -2.542944   -5.077630
  C      5.872267   -5.002756   -2.427819
  C      6.173994   -6.485522   -2.606315
  H      6.734852   -6.613767   -3.534015
  H      6.821463   -6.831018   -1.793617
  H      4.469612   -7.406168   -1.655876
  H      5.230134   -8.398678   -2.885906
  C      5.896512   -2.169314   -3.694552
  H      7.428880   -2.143665   -5.208078
  H      6.505894   -3.627541   -5.175502
  C      6.807804   -2.623428   -2.551019
  H      4.894708   -2.589732   -3.557501
  H      5.778823   -1.081255   -3.635790
  C      7.111544   -4.122463   -2.520363
  H      7.751615   -2.071393   -2.614406
  H      6.345837   -2.326401   -1.604086
  H      5.362882   -4.828697   -1.471335
  H      5.174429   -4.702577   -3.211298
  H      7.778329   -4.329347   -1.677651
  H      7.673189   -4.402845   -3.417586
  O      4.763396   -8.239424   -5.698629
  H      6.036826   -2.198189   -7.176852
  H      5.467610   -0.907371   -6.127968

 Total Charge           Charge          ....    0
 Multiplicity           Mult            ....    1
 Number of Electrons    NEL             ....  136
 Basis Dimension        Dim             ....  634

ORBITAL ENERGIES
----------------

  NO   OCC          E(Eh)            E(eV)
   0   2.0000     -88.538872     -2409.2652
   1   2.0000     -24.607566      -669.6059
   2   2.0000     -18.998752      -516.9823
   3   2.0000     -18.982015      -516.5269
   4   2.0000     -14.196283      -386.3005
   5   2.0000     -10.181229      -277.0453
   6   2.0000     -10.142774      -275.9989
   7   2.0000     -10.122680      -275.4521
   8   2.0000     -10.112990      -275.1885
   9   2.0000     -10.104774      -274.9649
  10   2.0000     -10.101899      -274.8866
  11   2.0000     -10.101670      -274.8804
  12   2.0000     -10.100925      -274.8601
  13   2.0000     -10.096069      -274.7280
  14   2.0000     -10.095810      -274.7210
  15   2.0000     -10.014150      -272.4989
  16   2.0000      -8.149822      -221.7679
  17   2.0000      -6.170093      -167.8968
  18   2.0000      -6.163137      -167.7075
  19   2.0000      -6.162956      -167.7026
  20   2.0000      -1.534343       -41.7516
  21   2.0000      -1.283679       -34.9307
  22   2.0000      -1.178941       -32.0806
  23   2.0000      -1.086277       -29.5591
  24   2.0000      -1.020254       -27.7625
  25   2.0000      -0.989638       -26.9294
  26   2.0000      -0.957942       -26.0669
  27   2.0000      -0.929659       -25.2973
  28   2.0000      -0.891397       -24.2561
  29   2.0000      -0.872999       -23.7555
  30   2.0000      -0.845915       -23.0185
  31   2.0000      -0.817673       -22.2500
  32   2.0000      -0.780102       -21.2276
  33   2.0000      -0.760479       -20.6937
  34   2.0000      -0.743285       -20.2258
  35   2.0000      -0.723278       -19.6814
  36   2.0000      -0.720507       -19.6060
  37   2.0000      -0.706108       -19.2142
  38   2.0000      -0.689025       -18.7493
  39   2.0000      -0.661173       -17.9914
  40   2.0000      -0.645650       -17.5690
  41   2.0000      -0.640443       -17.4274
  42   2.0000      -0.626241       -17.0409
  43   2.0000      -0.613588       -16.6966
  44   2.0000      -0.600664       -16.3449
  45   2.0000      -0.592126       -16.1126
  46   2.0000      -0.588009       -16.0006
  47   2.0000      -0.568519       -15.4702
  48   2.0000      -0.553143       -15.0518
  49   2.0000      -0.549946       -14.9648
  50   2.0000      -0.545834       -14.8529
  51   2.0000      -0.529155       -14.3990
  52   2.0000      -0.524878       -14.2827
  53   2.0000      -0.506902       -13.7935
  54   2.0000      -0.499461       -13.5910
  55   2.0000      -0.488937       -13.3046
  56   2.0000      -0.481646       -13.1062
  57   2.0000      -0.476199       -12.9580
  58   2.0000      -0.473086       -12.8733
  59   2.0000      -0.465391       -12.6639
  60   2.0000      -0.452110       -12.3025
  61   2.0000      -0.450074       -12.2471
  62   2.0000      -0.446677       -12.1547
  63   2.0000      -0.431752       -11.7486
  64   2.0000      -0.426166       -11.5966
  65   2.0000      -0.423426       -11.5220
  66   2.0000      -0.397551       -10.8179
  67   2.0000      -0.296962        -8.0807
  68   0.0000       0.105387         2.8677
  69   0.0000       0.117387         3.1943
  70   0.0000       0.123671         3.3653
  71   0.0000       0.124580         3.3900
  72   0.0000       0.131799         3.5864

MULLIKEN ATOMIC CHARGES
-----------------------
   0 C :   -0.263086
   1 C :   -0.269208
   2 C :   -0.408377
   3 H :    0.225198
   4 H :    0.209588
   5 S :    0.811804
   6 C :    0.133723
   7 N :   -0.491983
   8 C :   -0.503978
   9 H :    0.189509
  10 H :    0.115853
  11 H :    0.242411
  12 H :    0.242949
  13 O :   -0.436547
  14 F :   -0.078204
  15 C :   -0.356569
  16 C :   -0.278117
  17 C :   -0.361463
  18 H :    0.205085
  19 H :    0.154305
  20 H :    0.168532
  21 H :    0.188870
  22 C :   -0.340587
  23 H :    0.145761
  24 H :    0.189699
  25 C :   -0.246078
  26 H :    0.181219
  27 H :    0.142788
  28 C :   -0.354830
  29 H :    0.150179
  30 H :    0.145218
  31 H :    0.145219
  32 H :    0.144396
  33 H :    0.150139
  34 H :    0.178003
  35 O :   -0.368902
  36 H :    0.163824
  37 H :    0.133655
Sum of atomic charges:   -0.0000000

LOEWDIN ATOMIC CHARGES
----------------------
   0 C :   -0.227927
   1 C :   -0.293317
   2 C :   -0.384693
   3 H :    0.152356
   4 H :    0.153814
   5 S :    0.557154
   6 C :   -0.380905
   7 N :   -0.024124
   8 C :   -0.328403
   9 H :    0.102488
  10 H :    0.093345
  11 H :    0.162952
  12 H :    0.169494
  13 O :   -0.272740
  14 F :    0.108208
  15 C :   -0.273187
  16 C :   -0.288174
  17 C :   -0.289572
  18 H :    0.152828
  19 H :    0.147037
  20 H :    0.156614
  21 H :    0.155989
  22 C :   -0.285798
  23 H :    0.144408
  24 H :    0.151678
  25 C :   -0.286763
  26 H :    0.146786
  27 H :    0.142886
  28 C :   -0.285957
  29 H :    0.144311
  30 H :    0.142809
  31 H :    0.142440
  32 H :    0.144261
  33 H :    0.143184
  34 H :    0.148982
  35 O :   -0.244765
  36 H :    0.159838
  37 H :    0.142462

  Mayer bond orders larger than 0.100000
B(  0-C ,  6-C ) :   0.9190 B(  0-C , 15-C ) :   0.9707 B(  0-C , 36-H ) :   0.9640
B(  0-C , 37-H ) :   1.0077 B(  1-C ,  2-C ) :   0.9261 B(  1-C , 17-C ) :   0.9526
B(  1-C , 20-H ) :   0.9639 B(  1-C , 21-H ) :   0.9713 B(  2-C ,  3-H ) :   0.9303
B(  2-C ,  4-H ) :   0.9387 B(  2-C ,  5-S ) :   0.9377 B(  5-S , 13-O ) :   1.7608
B(  5-S , 14-F ) :   1.1636 B(  5-S , 35-O ) :   2.0003 B(  6-C ,  7-N ) :   1.1380
B(  6-C ,  8-C ) :   1.8020 B(  7-N , 11-H ) :   0.9264 B(  7-N , 12-H ) :   0.9269
B(  8-C ,  9-H ) :   0.9626 B(  8-C , 10-H ) :   0.9674 B( 15-C , 22-C ) :   0.8895
B( 15-C , 23-H ) :   0.9739 B( 15-C , 24-H ) :   0.9701 B( 16-C , 17-C ) :   0.9022
B( 16-C , 28-C ) :   0.9324 B( 16-C , 31-H ) :   0.9628 B( 16-C , 32-H ) :   0.9665
B( 17-C , 18-H ) :   0.9747 B( 17-C , 19-H ) :   0.9763 B( 22-C , 25-C ) :   0.9404
B( 22-C , 26-H ) :   0.9836 B( 22-C , 27-H ) :   0.9776 B( 25-C , 28-C ) :   0.9394
B( 25-C , 29-H ) :   0.9889 B( 25-C , 30-H ) :   0.9940 B( 28-C , 33-H ) :   0.9792
B( 28-C , 34-H ) :   0.9879

FINAL SINGLE POINT ENERGY     -1133.231882063347

DIPOLE MOMENT
-------------
                                X             Y             Z
Electronic contribution:    -11.76146     -18.14469     -14.61475
Nuclear contribution   :     10.61624      18.49702      15.75668
                        -----------------------------------------
Total Dipole Moment    :     -1.14522       0.35234       1.14193
                        -----------------------------------------
Magnitude (a.u.)       :      1.65520
Magnitude (Debye)      :      4.20718

Rotational constants in cm-1:     0.017796     0.012372     0.008231
Rotational constants in MHz :   533.524905   370.895973   246.762347

                             ****ORCA TERMINATED NORMALLY****
TOTAL RUN TIME: 0 days 0 hours 1 minutes 43 seconds 650 msec
