                         Program Version 5.0.0 -  RELEASE  -
|  1> !LC-BLYP RIJCOSX def2-SVPD def2/J TightSCF
|  2> *xyz -1 1
|  3> C          4.26524        2.50052       -0.79589
|  4> C          4.98224        1.65026        0.24742
|  5> O          4.36806        1.38927        1.31371
|  6> O          6.12892        1.23351       -0.04562
|  7> H          4.90412        2.63966       -1.64287
|  8> H          4.02079        3.45265       -0.37328
|  9> H          3.36773        2.00584       -1.10356
| 10> *
| 11> %MaxCore 64000
| 12> %pal nprocs 8
| 13> end
| 14> %scf
| 15>   MaxIter 150
| 16> end
| 17>
| 18>
| 19>                          ****END OF INPUT****

CARTESIAN COORDINATES (ANGSTROEM)
---------------------------------
  C      4.265240    2.500520   -0.795890
  C      4.982240    1.650260    0.247420
  O      4.368060    1.389270    1.313710
  O      6.128920    1.233510   -0.045620
  H      4.904120    2.639660   -1.642870
  H      4.020790    3.452650   -0.373280
  H      3.367730    2.005840   -1.103560

 Total Charge           Charge          ....   -1
 Multiplicity           Mult            ....    1
 Number of Electrons    NEL             ....   32
 Basis Dimension        Dim             ....  110

ORBITAL ENERGIES
----------------

  NO   OCC          E(Eh)            E(eV)
   0   2.0000     -18.693711      -508.6817
   1   2.0000     -18.692683      -508.6538
   2   2.0000      -9.974622      -271.4233
   3   2.0000      -9.899750      -269.3859
   4   2.0000      -0.904624       -24.6161
   5   2.0000      -0.808970       -22.0132
   6   2.0000      -0.649860       -17.6836
   7   2.0000      -0.407064       -11.0768
   8   2.0000      -0.369517       -10.0551
   9   2.0000      -0.350853        -9.5472
  10   2.0000      -0.329844        -8.9755
  11   2.0000      -0.286831        -7.8051
  12   2.0000      -0.272742        -7.4217
  13   2.0000      -0.148133        -4.0309
  14   2.0000      -0.142976        -3.8906
  15   2.0000      -0.126396        -3.4394
  16   0.0000       0.221186         6.0188
  17   0.0000       0.257217         6.9992
  18   0.0000       0.280676         7.6376
  19   0.0000       0.291721         7.9381
  20   0.0000       0.316767         8.6197

MULLIKEN ATOMIC CHARGES
-----------------------
   0 C :    0.710106
   1 C :   -0.204086
   2 O :   -0.554524
   3 O :   -0.529101
   4 H :   -0.149008
   5 H :   -0.135907
   6 H :   -0.137479
Sum of atomic charges:   -1.0000000

LOEWDIN ATOMIC CHARGES
----------------------
   0 C :    0.131033
   1 C :   -0.378727
   2 O :   -0.327207
   3 O :   -0.322919
   4 H :   -0.038772
   5 H :   -0.032298
   6 H :   -0.031110

  Mayer bond orders larger than 0.100000
B(  0-C ,  1-C ) :   1.1884 B(  0-C ,  4-H ) :   0.8148 B(  0-C ,  5-H ) :   0.7647
B(  0-C ,  6-H ) :   0.7711 B(  1-C ,  2-O ) :   1.6315 B(  1-C ,  3-O ) :   1.6247
B(  1-C ,  4-H ) :   0.2892 B(  1-C ,  5-H ) :   0.1960 B(  1-C ,  6-H ) :   0.1904

FINAL SINGLE POINT ENERGY      -227.895059715536

DIPOLE MOMENT
-------------
                                X             Y             Z
Electronic contribution:      1.66523      -1.97243       2.39657
Nuclear contribution   :     -2.34880       2.82033      -3.41655
                        -----------------------------------------
Total Dipole Moment    :     -0.68357       0.84790      -1.01998
                        -----------------------------------------
Magnitude (a.u.)       :      1.49216
Magnitude (Debye)      :      3.79278

Rotational constants in cm-1:     0.393413     0.334516     0.186969
Rotational constants in MHz : 11794.232386 10028.538646  5605.197050

                             ****ORCA TERMINATED NORMALLY****
TOTAL RUN TIME: 0 days 0 hours 0 minutes 5 seconds 514 msec
