                         Program Version 5.0.0 -  RELEASE  -
|  1> !LC-BLYP RIJCOSX def2-SVPD def2/J TightSCF
|  2> *xyz 1 1
|  3> C          3.91385       -1.65829        3.01513
|  4> N          5.03927       -0.90115        2.49282
|  5> C          6.21038       -1.41726        2.17824
|  6> N          6.53591       -2.67712        2.55608
|  7> N          7.07675       -0.70082        1.47891
|  8> H          7.95464       -1.12155        1.20755
|  9> H          6.75616        0.10664        0.96028
| 10> H          4.84217        0.01761        2.11519
| 11> H          5.99388       -3.12692        3.28278
| 12> H          7.49844       -2.97548        2.46878
| 13> H          3.08844       -0.99893        3.18495
| 14> H          4.19412       -2.12366        3.93697
| 15> H          3.63051       -2.40965        2.30798
| 16> *
| 17> %MaxCore 64000
| 18> %pal nprocs 8
| 19> end
| 20> %scf
| 21>   MaxIter 150
| 22> end
| 23>
| 24>
| 25>                          ****END OF INPUT****

CARTESIAN COORDINATES (ANGSTROEM)
---------------------------------
  C      3.913850   -1.658290    3.015130
  N      5.039270   -0.901150    2.492820
  C      6.210380   -1.417260    2.178240
  N      6.535910   -2.677120    2.556080
  N      7.076750   -0.700820    1.478910
  H      7.954640   -1.121550    1.207550
  H      6.756160    0.106640    0.960280
  H      4.842170    0.017610    2.115190
  H      5.993880   -3.126920    3.282780
  H      7.498440   -2.975480    2.468780
  H      3.088440   -0.998930    3.184950
  H      4.194120   -2.123660    3.936970
  H      3.630510   -2.409650    2.307980

 Total Charge           Charge          ....    1
 Multiplicity           Mult            ....    1
 Number of Electrons    NEL             ....   40
 Basis Dimension        Dim             ....  164

ORBITAL ENERGIES
----------------

  NO   OCC          E(Eh)            E(eV)
   0   2.0000     -14.421579      -392.4311
   1   2.0000     -14.416647      -392.2969
   2   2.0000     -14.415792      -392.2737
   3   2.0000     -10.429433      -283.7993
   4   2.0000     -10.291615      -280.0491
   5   2.0000      -1.316837       -35.8329
   6   2.0000      -1.206675       -32.8353
   7   2.0000      -1.189617       -32.3711
   8   2.0000      -1.015008       -27.6198
   9   2.0000      -0.933961       -25.4144
  10   2.0000      -0.898415       -24.4471
  11   2.0000      -0.862898       -23.4807
  12   2.0000      -0.800761       -21.7898
  13   2.0000      -0.793211       -21.5844
  14   2.0000      -0.768518       -20.9124
  15   2.0000      -0.750008       -20.4088
  16   2.0000      -0.700017       -19.0484
  17   2.0000      -0.682598       -18.5744
  18   2.0000      -0.584114       -15.8945
  19   2.0000      -0.558621       -15.2008
  20   0.0000      -0.099675        -2.7123
  21   0.0000      -0.097617        -2.6563
  22   0.0000      -0.060135        -1.6363
  23   0.0000      -0.058834        -1.6010
  24   0.0000      -0.028189        -0.7671

MULLIKEN ATOMIC CHARGES
-----------------------
   0 C :    1.278820
   1 N :   -0.339095
   2 C :    0.914933
   3 N :    0.141934
   4 N :    0.176608
   5 H :   -0.072653
   6 H :   -0.080238
   7 H :   -0.229208
   8 H :   -0.093368
   9 H :   -0.123455
  10 H :   -0.392289
  11 H :   -0.107734
  12 H :   -0.074256
Sum of atomic charges:    1.0000000

LOEWDIN ATOMIC CHARGES
----------------------
   0 C :    0.235323
   1 N :    0.031095
   2 C :   -0.065239
   3 N :    0.291432
   4 N :    0.271868
   5 H :    0.040766
   6 H :    0.042695
   7 H :    0.061444
   8 H :    0.017682
   9 H :    0.036427
  10 H :    0.018471
  11 H :    0.003168
  12 H :    0.014869

  Mayer bond orders larger than 0.100000
B(  0-C ,  1-N ) :   1.0203 B(  0-C ,  7-H ) :  -0.1172 B(  0-C , 10-H ) :   0.7403
B(  0-C , 11-H ) :   0.7803 B(  0-C , 12-H ) :   0.7911 B(  1-N ,  2-C ) :   1.1504
B(  1-N ,  3-N ) :   0.2375 B(  1-N ,  4-N ) :   0.2222 B(  1-N ,  7-H ) :   1.2547
B(  1-N , 10-H ) :   0.1991 B(  1-N , 11-H ) :   0.1569 B(  1-N , 12-H ) :   0.1220
B(  2-C ,  3-N ) :   1.0423 B(  2-C ,  4-N ) :   0.9747 B(  2-C ,  5-H ) :  -0.1121
B(  2-C ,  6-H ) :  -0.1457 B(  2-C ,  7-H ) :  -0.2376 B(  2-C ,  8-H ) :  -0.1467
B(  2-C ,  9-H ) :  -0.1136 B(  3-N ,  4-N ) :   0.1395 B(  3-N ,  8-H ) :   1.1096
B(  3-N ,  9-H ) :   1.1951 B(  4-N ,  5-H ) :   1.1623 B(  4-N ,  6-H ) :   1.1805
B(  5-H ,  6-H ) :  -0.1668 B(  8-H ,  9-H ) :  -0.1775

FINAL SINGLE POINT ENERGY      -244.310673912395

DIPOLE MOMENT
-------------
                                X             Y             Z
Electronic contribution:      2.42437       0.85373      -0.96382
Nuclear contribution   :     -2.01473      -0.74897       0.69347
                        -----------------------------------------
Total Dipole Moment    :      0.40964       0.10476      -0.27035
                        -----------------------------------------
Magnitude (a.u.)       :      0.50187
Magnitude (Debye)      :      1.27565

Rotational constants in cm-1:     0.313249     0.134439     0.096258
Rotational constants in MHz :  9390.961986  4030.377472  2885.728233

                             ****ORCA TERMINATED NORMALLY****
TOTAL RUN TIME: 0 days 0 hours 0 minutes 9 seconds 454 msec
