                         Program Version 5.0.0 -  RELEASE  -
|  1> !LC-BLYP RIJCOSX def2-SVPD def2/J TightSCF xyzfile
|  2>
|  3> *xyzfile 0 1 B.xyz
|  4>
|  5> %MaxCore 64000
|  6>
|  7> %pal nprocs 4
|  8> end
|  9>
| 10> %scf
| 11>   MaxIter 150
| 12> end
| 13>
| 14>
| 15>                          ****END OF INPUT****

CARTESIAN COORDINATES (ANGSTROEM)
---------------------------------
  C      3.913853   -1.658291    3.015134
  N      5.039266   -0.901154    2.492821
  C      4.084215    1.742081   -2.114724
  C      4.265245    2.500518   -0.795890
  H      4.868534    3.392674   -0.981134
  H      3.307640    2.824571   -0.387809
  C      4.982240    1.650257    0.247422
  C      6.210384   -1.417261    2.178244
  N      6.535913   -2.677122    2.556078
  N      7.076754   -0.700820    1.478906
  H      7.954643   -1.121554    1.207554
  H      6.756161    0.106637    0.960278
  H      4.842168    0.017609    2.115191
  H      5.993876   -3.126918    3.282784
  H      7.498441   -2.975482    2.468776
  O      4.368065    1.389270    1.313706
  O      6.128919    1.233512   -0.045620
  C      3.139159   -2.376572    1.910609
  H      3.267235   -0.939401    3.520693
  H      4.247195   -2.355095    3.790065
  C      1.997274    0.430918   -1.399218
  C      3.412746    0.376886   -1.965497
  H      4.047407   -0.246590   -1.326706
  H      3.390774   -0.118719   -2.942839
  H      5.068475    1.598504   -2.565728
  H      3.503356    2.363939   -2.804565
  C      2.399946   -1.389579    1.009490
  H      2.440750   -3.087118    2.362976
  H      3.844475   -2.970462    1.318677
  C      2.070177   -1.936705   -0.372401
  H      1.481611   -1.061542    1.509912
  H      3.008628   -0.490001    0.897451
  C      1.322238   -0.935775   -1.256413
  H      1.472747   -2.850902   -0.283997
  H      3.003539   -2.234041   -0.862535
  H      1.376444    1.058920   -2.047420
  H      2.015341    0.929780   -0.426535
  H      0.316648   -0.787213   -0.848278
  H      1.185611   -1.379252   -2.248613

 Total Charge           Charge          ....    0
 Multiplicity           Mult            ....    1
 Number of Electrons    NEL             ....  126
 Basis Dimension        Dim             ....  510

ORBITAL ENERGIES
----------------

  NO   OCC          E(Eh)            E(eV)
   0   2.0000     -18.881336      -513.7873
   1   2.0000     -18.880165      -513.7554
   2   2.0000     -14.256250      -387.9323
   3   2.0000     -14.220228      -386.9521
   4   2.0000     -14.214559      -386.7978
   5   2.0000     -10.248754      -278.8828
   6   2.0000     -10.151449      -276.2350
   7   2.0000     -10.142456      -275.9902
   8   2.0000     -10.092651      -274.6350
   9   2.0000     -10.070437      -274.0305
  10   2.0000     -10.069962      -274.0176
  11   2.0000     -10.066279      -273.9174
  12   2.0000     -10.057406      -273.6759
  13   2.0000     -10.056107      -273.6406
  14   2.0000     -10.055346      -273.6199
  15   2.0000     -10.046951      -273.3914
  16   2.0000      -1.137834       -30.9620
  17   2.0000      -1.096230       -29.8299
  18   2.0000      -1.030288       -28.0356
  19   2.0000      -1.014193       -27.5976
  20   2.0000      -0.998161       -27.1613
  21   2.0000      -0.916816       -24.9478
  22   2.0000      -0.892171       -24.2772
  23   2.0000      -0.863309       -23.4918
  24   2.0000      -0.822929       -22.3930
  25   2.0000      -0.784444       -21.3458
  26   2.0000      -0.767718       -20.8907
  27   2.0000      -0.737695       -20.0737
  28   2.0000      -0.724984       -19.7278
  29   2.0000      -0.709394       -19.3036
  30   2.0000      -0.680777       -18.5249
  31   2.0000      -0.675302       -18.3759
  32   2.0000      -0.643307       -17.5053
  33   2.0000      -0.628970       -17.1151
  34   2.0000      -0.624625       -16.9969
  35   2.0000      -0.607401       -16.5282
  36   2.0000      -0.579501       -15.7690
  37   2.0000      -0.573209       -15.5978
  38   2.0000      -0.567927       -15.4541
  39   2.0000      -0.560132       -15.2420
  40   2.0000      -0.547756       -14.9052
  41   2.0000      -0.527933       -14.3658
  42   2.0000      -0.526549       -14.3281
  43   2.0000      -0.522338       -14.2135
  44   2.0000      -0.511500       -13.9186
  45   2.0000      -0.503981       -13.7140
  46   2.0000      -0.487808       -13.2739
  47   2.0000      -0.475911       -12.9502
  48   2.0000      -0.467544       -12.7225
  49   2.0000      -0.457366       -12.4456
  50   2.0000      -0.448397       -12.2015
  51   2.0000      -0.440475       -11.9859
  52   2.0000      -0.426770       -11.6130
  53   2.0000      -0.418393       -11.3851
  54   2.0000      -0.413638       -11.2557
  55   2.0000      -0.408011       -11.1025
  56   2.0000      -0.396712       -10.7951
  57   2.0000      -0.392140       -10.6707
  58   2.0000      -0.384452       -10.4615
  59   2.0000      -0.374121       -10.1804
  60   2.0000      -0.335438        -9.1277
  61   2.0000      -0.323864        -8.8128
  62   2.0000      -0.319084        -8.6827
  63   0.0000       0.040829         1.1110
  64   0.0000       0.066660         1.8139
  65   0.0000       0.072986         1.9860
  66   0.0000       0.086216         2.3461
  67   0.0000       0.092758         2.5241

MULLIKEN ATOMIC CHARGES
-----------------------
   0 C :    1.358656
   1 N :    0.419332
   2 C :    0.575602
   3 C :    0.536652
   4 H :   -0.208435
   5 H :    0.061973
   6 C :   -0.097343
   7 C :    0.766811
   8 N :    0.297714
   9 N :    0.694390
  10 H :   -0.120885
  11 H :   -0.539889
  12 H :   -1.157158
  13 H :   -0.082449
  14 H :   -0.215533
  15 O :   -0.515692
  16 O :   -0.434573
  17 C :    0.550563
  18 H :   -0.378207
  19 H :   -0.386284
  20 C :    0.075075
  21 C :    0.059811
  22 H :   -0.142837
  23 H :   -0.258900
  24 H :   -0.075608
  25 H :   -0.213633
  26 C :    0.984771
  27 H :   -0.202486
  28 H :   -0.101397
  29 C :    0.192117
  30 H :   -0.089810
  31 H :   -1.239005
  32 C :    0.881011
  33 H :   -0.512732
  34 H :    0.071954
  35 H :   -0.504706
  36 H :    0.107582
  37 H :   -0.062631
  38 H :   -0.093820
Sum of atomic charges:    0.0000000

LOEWDIN ATOMIC CHARGES
----------------------
   0 C :    0.057701
   1 N :    0.093248
   2 C :   -0.033294
   3 C :    0.022849
   4 H :    0.034692
   5 H :    0.019817
   6 C :   -0.224437
   7 C :   -0.058970
   8 N :    0.257987
   9 N :    0.295643
  10 H :    0.023791
  11 H :   -0.118665
  12 H :   -0.087424
  13 H :   -0.008576
  14 H :    0.012935
  15 O :   -0.219461
  16 O :   -0.208590
  17 C :   -0.025335
  18 H :    0.046103
  19 H :    0.011278
  20 C :   -0.042206
  21 C :   -0.041076
  22 H :    0.015774
  23 H :    0.031203
  24 H :    0.026729
  25 H :    0.024969
  26 C :   -0.037136
  27 H :    0.031362
  28 H :    0.022338
  29 C :   -0.051033
  30 H :    0.045303
  31 H :   -0.019346
  32 C :   -0.042738
  33 H :    0.026831
  34 H :    0.022063
  35 H :    0.030024
  36 H :    0.013735
  37 H :    0.026425
  38 H :    0.025486

  Mayer bond orders larger than 0.100000
B(  0-C ,  1-N ) :   0.9960 B(  0-C , 12-H ) :  -0.5422 B(  0-C , 17-C ) :   1.0298
B(  0-C , 18-H ) :   0.5256 B(  0-C , 19-H ) :   0.6715 B(  0-C , 26-C ) :   0.2228
B(  1-N ,  7-C ) :   1.2470 B(  1-N ,  8-N ) :   0.2143 B(  1-N , 12-H ) :   1.0854
B(  1-N , 18-H ) :   0.2584 B(  1-N , 19-H ) :   0.1117 B(  2-C ,  3-C ) :   1.1466
B(  2-C ,  4-H ) :   0.1779 B(  2-C ,  5-H ) :   0.1083 B(  2-C ,  6-C ) :   0.1341
B(  2-C , 21-C ) :   1.2152 B(  2-C , 22-H ) :   0.1177 B(  2-C , 24-H ) :   0.5989
B(  2-C , 25-H ) :   0.7441 B(  3-C ,  4-H ) :   0.5838 B(  3-C ,  5-H ) :   0.6979
B(  3-C ,  6-C ) :   1.1228 B(  3-C , 21-C ) :   0.1746 B(  3-C , 24-H ) :   0.1141
B(  3-C , 25-H ) :   0.1765 B(  4-H ,  6-C ) :   0.2929 B(  5-H ,  6-C ) :   0.3086
B(  6-C , 15-O ) :   1.5964 B(  6-C , 16-O ) :   1.5256 B(  7-C ,  8-N ) :   0.9572
B(  7-C ,  9-N ) :   1.0434 B(  7-C , 11-H ) :  -0.2613 B(  7-C , 12-H ) :  -0.7223
B(  7-C , 13-H ) :  -0.1048 B(  8-N ,  9-N ) :   0.1283 B(  8-N , 13-H ) :   1.0739
B(  8-N , 14-H ) :   1.1936 B(  9-N , 10-H ) :   1.1182 B(  9-N , 11-H ) :   1.1358
B( 10-H , 11-H ) :  -0.2475 B( 11-H , 16-O ) :   0.1498 B( 12-H , 15-O ) :   0.3025
B( 12-H , 18-H ) :   0.1886 B( 13-H , 14-H ) :  -0.2093 B( 15-O , 31-H ) :   0.1302
B( 17-C , 19-H ) :   0.2184 B( 17-C , 26-C ) :   1.1227 B( 17-C , 27-H ) :   0.8270
B( 17-C , 28-H ) :   0.8382 B( 17-C , 29-C ) :   0.1326 B( 17-C , 30-H ) :   0.1678
B( 18-H , 19-H ) :  -0.2832 B( 20-C , 21-C ) :   1.2194 B( 20-C , 22-H ) :   0.1383
B( 20-C , 23-H ) :   0.1596 B( 20-C , 29-C ) :   0.1746 B( 20-C , 32-C ) :   1.1266
B( 20-C , 35-H ) :   0.9393 B( 20-C , 36-H ) :   0.8174 B( 20-C , 37-H ) :   0.3387
B( 20-C , 38-H ) :   0.1429 B( 21-C , 22-H ) :   0.9061 B( 21-C , 23-H ) :   0.8186
B( 21-C , 24-H ) :   0.2988 B( 21-C , 25-H ) :   0.1925 B( 21-C , 35-H ) :   0.1197
B( 21-C , 36-H ) :   0.1317 B( 22-H , 33-H ) :  -0.1012 B( 22-H , 34-H ) :   0.1077
B( 24-H , 25-H ) :  -0.1648 B( 26-C , 27-H ) :   0.1774 B( 26-C , 29-C ) :   1.2351
B( 26-C , 30-H ) :   0.5405 B( 26-C , 31-H ) :  -0.5792 B( 26-C , 32-C ) :   0.1179
B( 26-C , 34-H ) :   0.1851 B( 27-H , 31-H ) :   0.1419 B( 28-H , 33-H ) :  -0.1214
B( 29-C , 31-H ) :   0.2015 B( 29-C , 32-C ) :   1.0837 B( 29-C , 33-H ) :   0.9483
B( 29-C , 34-H ) :   0.7875 B( 29-C , 37-H ) :   0.1081 B( 29-C , 38-H ) :   0.2819
B( 30-H , 31-H ) :   0.3097 B( 31-H , 36-H ) :   0.1319 B( 32-C , 37-H ) :   0.5819
B( 32-C , 38-H ) :   0.6102 B( 33-H , 34-H ) :  -0.1021 B( 37-H , 38-H ) :  -0.1531

FINAL SINGLE POINT ENERGY      -745.417612310010

DIPOLE MOMENT
-------------
                                X             Y             Z
Electronic contribution:     12.26641       3.29795       7.67361
Nuclear contribution   :    -11.44764      -6.21818      -6.18483
                        -----------------------------------------
Total Dipole Moment    :      0.81878      -2.92022       1.48878
                        -----------------------------------------
Magnitude (a.u.)       :      3.37854
Magnitude (Debye)      :      8.58758

Rotational constants in cm-1:     0.020281     0.013510     0.009451
Rotational constants in MHz :   608.005987   405.034308   283.324538

                             ****ORCA TERMINATED NORMALLY****
TOTAL RUN TIME: 0 days 0 hours 5 minutes 28 seconds 197 msec
