                         Program Version 5.0.0 -  RELEASE  -
|  1> !LC-BLYP RIJCOSX def2-SVPD def2/J TightSCF
|  2> *xyz 0 1
|  3> C          4.26524        2.50052       -0.79589
|  4> C          4.98224        1.65026        0.24742
|  5> F          4.36806        1.38927        1.31371
|  6> O          6.12892        1.23351       -0.04562
|  7> H          4.90412        2.63966       -1.64287
|  8> H          4.02079        3.45265       -0.37328
|  9> H          3.36773        2.00584       -1.10356
| 10> *
| 11> %MaxCore 64000
| 12> %pal nprocs 8
| 13> end
| 14> %scf
| 15>   MaxIter 150
| 16> end
| 17>
| 18>
| 19>                          ****END OF INPUT****

CARTESIAN COORDINATES (ANGSTROEM)
---------------------------------
  C      4.265240    2.500520   -0.795890
  C      4.982240    1.650260    0.247420
  F      4.368060    1.389270    1.313710
  O      6.128920    1.233510   -0.045620
  H      4.904120    2.639660   -1.642870
  H      4.020790    3.452650   -0.373280
  H      3.367730    2.005840   -1.103560

 Total Charge           Charge          ....    0
 Multiplicity           Mult            ....    1
 Number of Electrons    NEL             ....   32
 Basis Dimension        Dim             ....  110

ORBITAL ENERGIES
----------------

  NO   OCC          E(Eh)            E(eV)
   0   2.0000     -24.551001      -668.0667
   1   2.0000     -18.971056      -516.2287
   2   2.0000     -10.277462      -279.6640
   3   2.0000     -10.115257      -275.2501
   4   2.0000      -1.390662       -37.8418
   5   2.0000      -1.123989       -30.5853
   6   2.0000      -0.880194       -23.9513
   7   2.0000      -0.764079       -20.7916
   8   2.0000      -0.663225       -18.0473
   9   2.0000      -0.654256       -17.8032
  10   2.0000      -0.608516       -16.5585
  11   2.0000      -0.550718       -14.9858
  12   2.0000      -0.539868       -14.6905
  13   2.0000      -0.508485       -13.8366
  14   2.0000      -0.464901       -12.6506
  15   2.0000      -0.399608       -10.8739
  16   0.0000       0.050463         1.3732
  17   0.0000       0.061444         1.6720
  18   0.0000       0.103184         2.8078
  19   0.0000       0.134665         3.6644
  20   0.0000       0.142607         3.8805

MULLIKEN ATOMIC CHARGES
-----------------------
   0 C :    0.669913
   1 C :    0.182674
   2 F :   -0.280008
   3 O :   -0.318434
   4 H :   -0.124760
   5 H :   -0.065421
   6 H :   -0.063963
Sum of atomic charges:    0.0000000

LOEWDIN ATOMIC CHARGES
----------------------
   0 C :    0.202815
   1 C :   -0.079627
   2 F :   -0.015258
   3 O :   -0.118193
   4 H :    0.004095
   5 H :    0.002406
   6 H :    0.003762

  Mayer bond orders larger than 0.100000
B(  0-C ,  1-C ) :   1.2226 B(  0-C ,  4-H ) :   0.8342 B(  0-C ,  5-H ) :   0.7634
B(  0-C ,  6-H ) :   0.7678 B(  1-C ,  2-F ) :   0.8904 B(  1-C ,  3-O ) :   1.9714
B(  1-C ,  4-H ) :   0.2458 B(  1-C ,  5-H ) :   0.1575 B(  1-C ,  6-H ) :   0.1539

FINAL SINGLE POINT ENERGY      -252.413450666665

DIPOLE MOMENT
-------------
                                X             Y             Z
Electronic contribution:      0.75540      -2.50198       4.30364
Nuclear contribution   :     -1.76261       3.13449      -4.58927
                        -----------------------------------------
Total Dipole Moment    :     -1.00721       0.63251      -0.28564
                        -----------------------------------------
Magnitude (a.u.)       :      1.22316
Magnitude (Debye)      :      3.10903

Rotational constants in cm-1:     0.370628     0.320375     0.177409
Rotational constants in MHz : 11111.155899  9604.607061  5318.597912

                             ****ORCA TERMINATED NORMALLY****
TOTAL RUN TIME: 0 days 0 hours 0 minutes 5 seconds 499 msec
