                         Program Version 5.0.0 -  RELEASE  -
|  1> !LC-BLYP RIJCOSX def2-SVPD def2/J TightSCF
|  2> *xyz 0 1
|  3> C          3.91385       -1.65829        3.01513
|  4> C          5.03927       -0.90115        2.49282
|  5> C          6.21038       -1.41726        2.17824
|  6> N          6.53591       -2.67712        2.55608
|  7> N          7.07675       -0.70082        1.47891
|  8> H          7.95464       -1.12155        1.20755
|  9> H          6.75616        0.10664        0.96028
| 10> H          4.84217        0.01761        2.11519
| 11> H          5.99388       -3.12692        3.28278
| 12> H          7.49844       -2.97548        2.46878
| 13> H          3.08844       -0.99893        3.18495
| 14> H          4.19412       -2.12366        3.93697
| 15> H          3.63051       -2.40965        2.30798
| 16> *
| 17> %MaxCore 64000
| 18> %pal nprocs 8
| 19> end
| 20> %scf
| 21>   MaxIter 150
| 22> end
| 23>
| 24>
| 25>                          ****END OF INPUT****

CARTESIAN COORDINATES (ANGSTROEM)
---------------------------------
  C      3.913850   -1.658290    3.015130
  C      5.039270   -0.901150    2.492820
  C      6.210380   -1.417260    2.178240
  N      6.535910   -2.677120    2.556080
  N      7.076750   -0.700820    1.478910
  H      7.954640   -1.121550    1.207550
  H      6.756160    0.106640    0.960280
  H      4.842170    0.017610    2.115190
  H      5.993880   -3.126920    3.282780
  H      7.498440   -2.975480    2.468780
  H      3.088440   -0.998930    3.184950
  H      4.194120   -2.123660    3.936970
  H      3.630510   -2.409650    2.307980

 Total Charge           Charge          ....    0
 Multiplicity           Mult            ....    1
 Number of Electrons    NEL             ....   40
 Basis Dimension        Dim             ....  164

ORBITAL ENERGIES
----------------

  NO   OCC          E(Eh)            E(eV)
   0   2.0000     -14.189906      -386.1270
   1   2.0000     -14.185544      -386.0083
   2   2.0000     -10.127065      -275.5715
   3   2.0000     -10.049450      -273.4594
   4   2.0000     -10.008991      -272.3585
   5   2.0000      -1.053511       -28.6675
   6   2.0000      -0.962055       -26.1788
   7   2.0000      -0.856667       -23.3111
   8   2.0000      -0.759396       -20.6642
   9   2.0000      -0.687936       -18.7197
  10   2.0000      -0.644665       -17.5422
  11   2.0000      -0.612028       -16.6541
  12   2.0000      -0.573236       -15.5985
  13   2.0000      -0.528045       -14.3688
  14   2.0000      -0.520473       -14.1628
  15   2.0000      -0.479426       -13.0459
  16   2.0000      -0.462246       -12.5784
  17   2.0000      -0.438435       -11.9304
  18   2.0000      -0.367139        -9.9904
  19   2.0000      -0.253908        -6.9092
  20   0.0000       0.071119         1.9352
  21   0.0000       0.097361         2.6493
  22   0.0000       0.108894         2.9632
  23   0.0000       0.136771         3.7217
  24   0.0000       0.139367         3.7924

MULLIKEN ATOMIC CHARGES
-----------------------
   0 C :    1.038673
   1 C :   -0.592369
   2 C :    0.627774
   3 N :    0.149140
   4 N :    0.252744
   5 H :   -0.193156
   6 H :   -0.091350
   7 H :   -0.453224
   8 H :   -0.093897
   9 H :   -0.271258
  10 H :   -0.156953
  11 H :   -0.086933
  12 H :   -0.129190
Sum of atomic charges:   -0.0000000

LOEWDIN ATOMIC CHARGES
----------------------
   0 C :    0.073420
   1 C :   -0.075936
   2 C :   -0.252014
   3 N :    0.213348
   4 N :    0.184919
   5 H :   -0.011989
   6 H :    0.005819
   7 H :   -0.050384
   8 H :   -0.015680
   9 H :   -0.014859
  10 H :   -0.014619
  11 H :   -0.027083
  12 H :   -0.014941

  Mayer bond orders larger than 0.100000
B(  0-C ,  1-C ) :   1.1863 B(  0-C ,  7-H ) :   0.2406 B(  0-C , 10-H ) :   0.6659
B(  0-C , 11-H ) :   0.6254 B(  0-C , 12-H ) :   0.6794 B(  1-C ,  2-C ) :   1.5273
B(  1-C ,  3-N ) :   0.3056 B(  1-C ,  4-N ) :   0.3378 B(  1-C ,  7-H ) :   0.9756
B(  1-C , 10-H ) :   0.3465 B(  1-C , 11-H ) :   0.3371 B(  1-C , 12-H ) :   0.1940
B(  2-C ,  3-N ) :   0.9794 B(  2-C ,  4-N ) :   0.9480 B(  2-C ,  7-H ) :   0.1349
B(  2-C ,  9-H ) :  -0.1245 B(  3-N ,  8-H ) :   1.0722 B(  3-N ,  9-H ) :   1.2490
B(  4-N ,  5-H ) :   1.1176 B(  4-N ,  6-H ) :   1.1654 B(  5-H ,  6-H ) :  -0.1618
B(  7-H , 10-H ) :  -0.1290 B(  8-H ,  9-H ) :  -0.1680 B( 10-H , 11-H ) :   0.1250

FINAL SINGLE POINT ENERGY      -227.850976739514

DIPOLE MOMENT
-------------
                                X             Y             Z
Electronic contribution:      2.95334       0.36691      -1.00495
Nuclear contribution   :     -2.16157      -0.63191       0.72436
                        -----------------------------------------
Total Dipole Moment    :      0.79178      -0.26500      -0.28059
                        -----------------------------------------
Magnitude (a.u.)       :      0.88083
Magnitude (Debye)      :      2.23890

Rotational constants in cm-1:     0.318470     0.135474     0.097247
Rotational constants in MHz :  9547.495553  4061.405016  2915.385882

                             ****ORCA TERMINATED NORMALLY****
TOTAL RUN TIME: 0 days 0 hours 0 minutes 10 seconds 379 msec
