                         Program Version 5.0.0 -  RELEASE  -
|  1> !LC-BLYP RIJCOSX def2-SVPD def2/J TightSCF
|  2> *xyz 0 1
|  3> C          4.26524        2.50052       -0.79589
|  4> C          4.98224        1.65026        0.24742
|  5> O          4.36806        1.38927        1.31371
|  6> F          6.12892        1.23351       -0.04562
|  7> H          4.90412        2.63966       -1.64287
|  8> H          4.02079        3.45265       -0.37328
|  9> H          3.36773        2.00584       -1.10356
| 10> *
| 11> %MaxCore 64000
| 12> %pal nprocs 8
| 13> end
| 14> %scf
| 15>   MaxIter 150
| 16> end
| 17>
| 18>
| 19>                          ****END OF INPUT****

CARTESIAN COORDINATES (ANGSTROEM)
---------------------------------
  C      4.265240    2.500520   -0.795890
  C      4.982240    1.650260    0.247420
  O      4.368060    1.389270    1.313710
  F      6.128920    1.233510   -0.045620
  H      4.904120    2.639660   -1.642870
  H      4.020790    3.452650   -0.373280
  H      3.367730    2.005840   -1.103560

 Total Charge           Charge          ....    0
 Multiplicity           Mult            ....    1
 Number of Electrons    NEL             ....   32
 Basis Dimension        Dim             ....  110

ORBITAL ENERGIES
----------------

  NO   OCC          E(Eh)            E(eV)
   0   2.0000     -24.551537      -668.0813
   1   2.0000     -18.970850      -516.2231
   2   2.0000     -10.277986      -279.6782
   3   2.0000     -10.115586      -275.2591
   4   2.0000      -1.392836       -37.9010
   5   2.0000      -1.121960       -30.5301
   6   2.0000      -0.880737       -23.9661
   7   2.0000      -0.765169       -20.8213
   8   2.0000      -0.663762       -18.0619
   9   2.0000      -0.655558       -17.8386
  10   2.0000      -0.609295       -16.5798
  11   2.0000      -0.551758       -15.0141
  12   2.0000      -0.538978       -14.6663
  13   2.0000      -0.508181       -13.8283
  14   2.0000      -0.461268       -12.5517
  15   2.0000      -0.401164       -10.9162
  16   0.0000       0.046785         1.2731
  17   0.0000       0.061273         1.6673
  18   0.0000       0.103322         2.8115
  19   0.0000       0.137356         3.7377
  20   0.0000       0.140029         3.8104

MULLIKEN ATOMIC CHARGES
-----------------------
   0 C :    0.650258
   1 C :    0.166950
   2 O :   -0.341603
   3 F :   -0.250843
   4 H :   -0.113345
   5 H :   -0.056634
   6 H :   -0.054782
Sum of atomic charges:    0.0000000

LOEWDIN ATOMIC CHARGES
----------------------
   0 C :    0.203482
   1 C :   -0.078543
   2 O :   -0.119880
   3 F :   -0.015382
   4 H :   -0.008163
   5 H :    0.008922
   6 H :    0.009563

  Mayer bond orders larger than 0.100000
B(  0-C ,  1-C ) :   1.2447 B(  0-C ,  4-H ) :   0.8344 B(  0-C ,  5-H ) :   0.7602
B(  0-C ,  6-H ) :   0.7672 B(  1-C ,  2-O ) :   1.9469 B(  1-C ,  3-F ) :   0.9331
B(  1-C ,  4-H ) :   0.1927 B(  1-C ,  5-H ) :   0.1730 B(  1-C ,  6-H ) :   0.1657

FINAL SINGLE POINT ENERGY      -252.412585381541

DIPOLE MOMENT
-------------
                                X             Y             Z
Electronic contribution:      3.63050      -2.75625       2.08494
Nuclear contribution   :     -3.58210       3.29544      -3.18468
                        -----------------------------------------
Total Dipole Moment    :      0.04840       0.53919      -1.09974
                        -----------------------------------------
Magnitude (a.u.)       :      1.22576
Magnitude (Debye)      :      3.11564

Rotational constants in cm-1:     0.368075     0.322590     0.177495
Rotational constants in MHz : 11034.605942  9670.991558  5321.154504

                             ****ORCA TERMINATED NORMALLY****
TOTAL RUN TIME: 0 days 0 hours 0 minutes 5 seconds 552 msec
