                         Program Version 5.0.0 -  RELEASE  -
|  1> !LC-BLYP RIJCOSX def2-SVPD def2/J TightSCF
|  2> *xyz 0 1
|  3> C          3.91385       -1.65829        3.01513
|  4> N          5.03927       -0.90115        2.49282
|  5> C          6.21038       -1.41726        2.17824
|  6> C          6.53591       -2.67712        2.55608
|  7> N          7.07675       -0.70082        1.47891
|  8> H          7.95464       -1.12155        1.20755
|  9> H          6.75616        0.10664        0.96028
| 10> H          4.84217        0.01761        2.11519
| 11> H          5.99388       -3.12692        3.28278
| 12> H          7.49844       -2.97548        2.46878
| 13> H          3.08844       -0.99893        3.18495
| 14> H          4.19412       -2.12366        3.93697
| 15> H          3.63051       -2.40965        2.30798
| 16> *
| 17> %MaxCore 64000
| 18> %pal nprocs 8
| 19> end
| 20> %scf
| 21>   MaxIter 150
| 22> end
| 23>
| 24>
| 25>                          ****END OF INPUT****

CARTESIAN COORDINATES (ANGSTROEM)
---------------------------------
  C      3.913850   -1.658290    3.015130
  N      5.039270   -0.901150    2.492820
  C      6.210380   -1.417260    2.178240
  C      6.535910   -2.677120    2.556080
  N      7.076750   -0.700820    1.478910
  H      7.954640   -1.121550    1.207550
  H      6.756160    0.106640    0.960280
  H      4.842170    0.017610    2.115190
  H      5.993880   -3.126920    3.282780
  H      7.498440   -2.975480    2.468780
  H      3.088440   -0.998930    3.184950
  H      4.194120   -2.123660    3.936970
  H      3.630510   -2.409650    2.307980

 Total Charge           Charge          ....    0
 Multiplicity           Mult            ....    1
 Number of Electrons    NEL             ....   40
 Basis Dimension        Dim             ....  164

ORBITAL ENERGIES
----------------

  NO   OCC          E(Eh)            E(eV)
   0   2.0000     -14.195485      -386.2788
   1   2.0000     -14.190506      -386.1433
   2   2.0000     -10.136347      -275.8240
   3   2.0000     -10.109545      -275.0947
   4   2.0000      -9.999260      -272.0937
   5   2.0000      -1.068094       -29.0643
   6   2.0000      -0.982454       -26.7339
   7   2.0000      -0.821389       -22.3511
   8   2.0000      -0.800595       -21.7853
   9   2.0000      -0.674327       -18.3494
  10   2.0000      -0.658123       -17.9084
  11   2.0000      -0.624546       -16.9948
  12   2.0000      -0.560560       -15.2536
  13   2.0000      -0.550503       -14.9800
  14   2.0000      -0.517888       -14.0924
  15   2.0000      -0.487893       -13.2762
  16   2.0000      -0.475140       -12.9292
  17   2.0000      -0.465206       -12.6589
  18   2.0000      -0.351319        -9.5599
  19   2.0000      -0.261410        -7.1133
  20   0.0000       0.069307         1.8859
  21   0.0000       0.090451         2.4613
  22   0.0000       0.106992         2.9114
  23   0.0000       0.138423         3.7667
  24   0.0000       0.141418         3.8482

MULLIKEN ATOMIC CHARGES
-----------------------
   0 C :    1.263380
   1 N :   -0.305176
   2 C :    0.384375
   3 C :    0.601848
   4 N :    0.229011
   5 H :   -0.072001
   6 H :   -0.199321
   7 H :   -0.375315
   8 H :   -0.256875
   9 H :   -0.678216
  10 H :   -0.477642
  11 H :   -0.015906
  12 H :   -0.098162
Sum of atomic charges:   -0.0000000

LOEWDIN ATOMIC CHARGES
----------------------
   0 C :    0.187865
   1 N :   -0.036033
   2 C :   -0.262197
   3 C :    0.152486
   4 N :    0.191544
   5 H :    0.007528
   6 H :   -0.007734
   7 H :    0.019164
   8 H :   -0.118575
   9 H :   -0.106203
  10 H :   -0.009869
  11 H :   -0.012428
  12 H :   -0.005547

  Mayer bond orders larger than 0.100000
B(  0-C ,  1-N ) :   1.0051 B(  0-C ,  7-H ) :  -0.1349 B(  0-C , 10-H ) :   0.7521
B(  0-C , 11-H ) :   0.7832 B(  0-C , 12-H ) :   0.7896 B(  1-N ,  2-C ) :   1.1234
B(  1-N ,  3-C ) :   0.3842 B(  1-N ,  4-N ) :   0.1267 B(  1-N ,  7-H ) :   1.3154
B(  1-N , 10-H ) :   0.1826 B(  1-N , 11-H ) :   0.1077 B(  1-N , 12-H ) :   0.1428
B(  2-C ,  3-C ) :   1.6751 B(  2-C ,  4-N ) :   0.9786 B(  2-C ,  7-H ) :  -0.2382
B(  2-C ,  8-H ) :   0.2925 B(  2-C ,  9-H ) :   0.1927 B(  3-C ,  4-N ) :   0.2358
B(  3-C ,  8-H ) :   0.6856 B(  3-C ,  9-H ) :   0.7139 B(  4-N ,  5-H ) :   1.1365
B(  4-N ,  6-H ) :   1.1917 B(  5-H ,  6-H ) :  -0.1632 B(  8-H ,  9-H ) :   0.1058

FINAL SINGLE POINT ENERGY      -227.840301492546

DIPOLE MOMENT
-------------
                                X             Y             Z
Electronic contribution:      1.47650       1.99807      -1.15793
Nuclear contribution   :     -1.85843      -0.99162       0.73717
                        -----------------------------------------
Total Dipole Moment    :     -0.38193       1.00645      -0.42076
                        -----------------------------------------
Magnitude (a.u.)       :      1.15579
Magnitude (Debye)      :      2.93778

Rotational constants in cm-1:     0.336495     0.135025     0.098658
Rotational constants in MHz : 10087.870488  4047.943278  2957.678786

                             ****ORCA TERMINATED NORMALLY****
TOTAL RUN TIME: 0 days 0 hours 0 minutes 10 seconds 221 msec
