                         Program Version 5.0.0 -  RELEASE  -
|  1> !LC-BLYP RIJCOSX def2-SVPD def2/J TightSCF
|  2> *xyz 0 1
|  3> C          3.91385       -1.65829        3.01513
|  4> N          5.03927       -0.90115        2.49282
|  5> C          6.21038       -1.41726        2.17824
|  6> N          6.53591       -2.67712        2.55608
|  7> C          7.07675       -0.70082        1.47891
|  8> H          7.95464       -1.12155        1.20755
|  9> H          6.75616        0.10664        0.96028
| 10> H          4.84217        0.01761        2.11519
| 11> H          5.99388       -3.12692        3.28278
| 12> H          7.49844       -2.97548        2.46878
| 13> H          3.08844       -0.99893        3.18495
| 14> H          4.19412       -2.12366        3.93697
| 15> H          3.63051       -2.40965        2.30798
| 16> *
| 17> %MaxCore 64000
| 18> %pal nprocs 8
| 19> end
| 20> %scf
| 21>   MaxIter 150
| 22> end
| 23>
| 24>
| 25>                          ****END OF INPUT****

CARTESIAN COORDINATES (ANGSTROEM)
---------------------------------
  C      3.913850   -1.658290    3.015130
  N      5.039270   -0.901150    2.492820
  C      6.210380   -1.417260    2.178240
  N      6.535910   -2.677120    2.556080
  C      7.076750   -0.700820    1.478910
  H      7.954640   -1.121550    1.207550
  H      6.756160    0.106640    0.960280
  H      4.842170    0.017610    2.115190
  H      5.993880   -3.126920    3.282780
  H      7.498440   -2.975480    2.468780
  H      3.088440   -0.998930    3.184950
  H      4.194120   -2.123660    3.936970
  H      3.630510   -2.409650    2.307980

 Total Charge           Charge          ....    0
 Multiplicity           Mult            ....    1
 Number of Electrons    NEL             ....   40
 Basis Dimension        Dim             ....  164

ORBITAL ENERGIES
----------------

  NO   OCC          E(Eh)            E(eV)
   0   2.0000     -14.190460      -386.1421
   1   2.0000     -14.189279      -386.1099
   2   2.0000     -10.133468      -275.7457
   3   2.0000     -10.117772      -275.3186
   4   2.0000      -9.995839      -272.0006
   5   2.0000      -1.063243       -28.9323
   6   2.0000      -0.975357       -26.5408
   7   2.0000      -0.849007       -23.1027
   8   2.0000      -0.769646       -20.9431
   9   2.0000      -0.706661       -19.2292
  10   2.0000      -0.639631       -17.4052
  11   2.0000      -0.596801       -16.2398
  12   2.0000      -0.577436       -15.7128
  13   2.0000      -0.565768       -15.3953
  14   2.0000      -0.507908       -13.8209
  15   2.0000      -0.493238       -13.4217
  16   2.0000      -0.483969       -13.1695
  17   2.0000      -0.463227       -12.6051
  18   2.0000      -0.357701        -9.7335
  19   2.0000      -0.257647        -7.0109
  20   0.0000       0.065587         1.7847
  21   0.0000       0.100254         2.7280
  22   0.0000       0.105483         2.8703
  23   0.0000       0.136516         3.7148
  24   0.0000       0.139905         3.8070

MULLIKEN ATOMIC CHARGES
-----------------------
   0 C :    1.286096
   1 N :   -0.294432
   2 C :    0.597061
   3 N :    0.194585
   4 C :    0.446684
   5 H :   -0.470941
   6 H :   -0.435831
   7 H :   -0.281249
   8 H :   -0.204364
   9 H :   -0.119295
  10 H :   -0.444695
  11 H :   -0.167376
  12 H :   -0.106243
Sum of atomic charges:    0.0000000

LOEWDIN ATOMIC CHARGES
----------------------
   0 C :    0.181735
   1 N :   -0.031142
   2 C :   -0.255767
   3 N :    0.211057
   4 C :    0.127220
   5 H :   -0.101152
   6 H :   -0.099219
   7 H :    0.032790
   8 H :   -0.028541
   9 H :    0.003058
  10 H :   -0.007973
  11 H :   -0.020832
  12 H :   -0.011234

  Mayer bond orders larger than 0.100000
B(  0-C ,  1-N ) :   1.0059 B(  0-C ,  7-H ) :  -0.1291 B(  0-C , 10-H ) :   0.7184
B(  0-C , 11-H ) :   0.7750 B(  0-C , 12-H ) :   0.7906 B(  1-N ,  2-C ) :   1.1443
B(  1-N ,  3-N ) :   0.1584 B(  1-N ,  4-C ) :   0.2520 B(  1-N ,  7-H ) :   1.2310
B(  1-N , 10-H ) :   0.1954 B(  1-N , 11-H ) :   0.1776 B(  1-N , 12-H ) :   0.1314
B(  2-C ,  3-N ) :   0.9843 B(  2-C ,  4-C ) :   1.3965 B(  2-C ,  5-H ) :   0.1741
B(  2-C ,  6-H ) :   0.1010 B(  2-C ,  7-H ) :  -0.1888 B(  3-N ,  4-C ) :   0.2174
B(  3-N ,  8-H ) :   1.1000 B(  3-N ,  9-H ) :   1.1634 B(  4-C ,  5-H ) :   0.7254
B(  4-C ,  6-H ) :   0.7977 B(  5-H ,  6-H ) :   0.1056 B(  8-H ,  9-H ) :  -0.1775

FINAL SINGLE POINT ENERGY      -227.838269776783

DIPOLE MOMENT
-------------
                                X             Y             Z
Electronic contribution:      0.94791       0.10585       0.01995
Nuclear contribution   :     -1.74889      -0.59133       0.51900
                        -----------------------------------------
Total Dipole Moment    :     -0.80098      -0.48549       0.53895
                        -----------------------------------------
Magnitude (a.u.)       :      1.08062
Magnitude (Debye)      :      2.74671

Rotational constants in cm-1:     0.319878     0.140238     0.099847
Rotational constants in MHz :  9589.703832  4204.215525  2993.343846

                             ****ORCA TERMINATED NORMALLY****
TOTAL RUN TIME: 0 days 0 hours 0 minutes 10 seconds 201 msec
