                         Program Version 5.0.0 -  RELEASE  -
|  1> !LC-BLYP RIJCOSX def2-SVPD def2/J TightSCF xyzfile
|  2>
|  3> *xyzfile 0 1 D1.xyz
|  4>
|  5> %MaxCore 64000
|  6>
|  7> %pal nprocs 4
|  8> end
|  9>
| 10> %scf
| 11>   MaxIter 150
| 12> end
| 13>
| 14>
| 15>                          ****END OF INPUT****

CARTESIAN COORDINATES (ANGSTROEM)
---------------------------------
  C      3.913853   -1.658291    3.015134
  C      5.039266   -0.901154    2.492821
  C      4.084215    1.742081   -2.114724
  C      4.265245    2.500518   -0.795890
  H      4.868534    3.392674   -0.981134
  H      3.307640    2.824571   -0.387809
  C      4.982240    1.650257    0.247422
  C      6.210384   -1.417261    2.178244
  N      6.535913   -2.677122    2.556078
  N      7.076754   -0.700820    1.478906
  H      7.954643   -1.121554    1.207554
  H      6.756161    0.106637    0.960278
  H      4.842168    0.017609    2.115191
  H      5.993876   -3.126918    3.282784
  H      7.498441   -2.975482    2.468776
  F      4.368065    1.389270    1.313706
  O      6.128919    1.233512   -0.045620
  C      3.139159   -2.376572    1.910609
  H      3.267235   -0.939401    3.520693
  H      4.247195   -2.355095    3.790065
  C      1.997274    0.430918   -1.399218
  C      3.412746    0.376886   -1.965497
  H      4.047407   -0.246590   -1.326706
  H      3.390774   -0.118719   -2.942839
  H      5.068475    1.598504   -2.565728
  H      3.503356    2.363939   -2.804565
  C      2.399946   -1.389579    1.009490
  H      2.440750   -3.087118    2.362976
  H      3.844475   -2.970462    1.318677
  C      2.070177   -1.936705   -0.372401
  H      1.481611   -1.061542    1.509912
  H      3.008628   -0.490001    0.897451
  C      1.322238   -0.935775   -1.256413
  H      1.472747   -2.850902   -0.283997
  H      3.003539   -2.234041   -0.862535
  H      1.376444    1.058920   -2.047420
  H      2.015341    0.929780   -0.426535
  H      0.316648   -0.787213   -0.848278
  H      1.185611   -1.379252   -2.248613

 Total Charge           Charge          ....    0
 Multiplicity           Mult            ....    1
 Number of Electrons    NEL             ....  126
 Basis Dimension        Dim             ....  510

ORBITAL ENERGIES
----------------

  NO   OCC          E(Eh)            E(eV)
   0   2.0000     -24.562734      -668.3860
   1   2.0000     -18.990785      -516.7655
   2   2.0000     -14.173786      -385.6883
   3   2.0000     -14.146849      -384.9553
   4   2.0000     -10.291648      -280.0500
   5   2.0000     -10.124380      -275.4984
   6   2.0000     -10.110522      -275.1213
   7   2.0000     -10.103980      -274.9433
   8   2.0000     -10.088189      -274.5136
   9   2.0000     -10.083056      -274.3739
  10   2.0000     -10.076726      -274.2017
  11   2.0000     -10.068939      -273.9898
  12   2.0000     -10.062643      -273.8184
  13   2.0000     -10.054038      -273.5843
  14   2.0000     -10.049055      -273.4487
  15   2.0000      -9.984072      -271.6804
  16   2.0000      -1.405986       -38.2588
  17   2.0000      -1.148820       -31.2610
  18   2.0000      -1.032083       -28.0844
  19   2.0000      -0.941628       -25.6230
  20   2.0000      -0.937170       -25.5017
  21   2.0000      -0.909523       -24.7494
  22   2.0000      -0.880008       -23.9462
  23   2.0000      -0.850716       -23.1492
  24   2.0000      -0.812436       -22.1075
  25   2.0000      -0.792003       -21.5515
  26   2.0000      -0.765938       -20.8422
  27   2.0000      -0.740831       -20.1590
  28   2.0000      -0.710746       -19.3404
  29   2.0000      -0.694170       -18.8893
  30   2.0000      -0.679834       -18.4992
  31   2.0000      -0.667195       -18.1553
  32   2.0000      -0.663052       -18.0426
  33   2.0000      -0.656990       -17.8776
  34   2.0000      -0.630339       -17.1524
  35   2.0000      -0.620598       -16.8873
  36   2.0000      -0.595158       -16.1951
  37   2.0000      -0.588851       -16.0235
  38   2.0000      -0.585416       -15.9300
  39   2.0000      -0.567260       -15.4359
  40   2.0000      -0.552137       -15.0244
  41   2.0000      -0.540177       -14.6990
  42   2.0000      -0.532712       -14.4958
  43   2.0000      -0.523522       -14.2458
  44   2.0000      -0.518782       -14.1168
  45   2.0000      -0.513565       -13.9748
  46   2.0000      -0.496438       -13.5088
  47   2.0000      -0.493124       -13.4186
  48   2.0000      -0.475364       -12.9353
  49   2.0000      -0.467001       -12.7077
  50   2.0000      -0.466535       -12.6951
  51   2.0000      -0.461846       -12.5675
  52   2.0000      -0.449566       -12.2333
  53   2.0000      -0.437413       -11.9026
  54   2.0000      -0.434695       -11.8287
  55   2.0000      -0.422159       -11.4875
  56   2.0000      -0.410044       -11.1579
  57   2.0000      -0.405918       -11.0456
  58   2.0000      -0.401878       -10.9357
  59   2.0000      -0.396442       -10.7877
  60   2.0000      -0.389678       -10.6037
  61   2.0000      -0.343971        -9.3599
  62   2.0000      -0.237133        -6.4527
  63   0.0000       0.027446         0.7468
  64   0.0000       0.066175         1.8007
  65   0.0000       0.080084         2.1792
  66   0.0000       0.083186         2.2636
  67   0.0000       0.087063         2.3691

MULLIKEN ATOMIC CHARGES
-----------------------
   0 C :    0.797434
   1 C :    0.605530
   2 C :    0.597970
   3 C :    0.479328
   4 H :   -0.194720
   5 H :    0.088012
   6 C :    0.209567
   7 C :    0.354941
   8 N :    0.196969
   9 N :    0.619469
  10 H :   -0.200822
  11 H :   -0.525910
  12 H :   -1.131129
  13 H :   -0.062807
  14 H :   -0.309117
  15 F :   -0.391440
  16 O :   -0.247294
  17 C :    0.611227
  18 H :   -0.015689
  19 H :   -0.344180
  20 C :    0.075899
  21 C :    0.101510
  22 H :   -0.164662
  23 H :   -0.242286
  24 H :   -0.067511
  25 H :   -0.191562
  26 C :    0.916331
  27 H :   -0.178136
  28 H :   -0.134905
  29 C :    0.171603
  30 H :    0.003947
  31 H :   -1.296335
  32 C :    0.873076
  33 H :   -0.516812
  34 H :    0.082640
  35 H :   -0.518345
  36 H :    0.087318
  37 H :   -0.059999
  38 H :   -0.079112
Sum of atomic charges:   -0.0000000

LOEWDIN ATOMIC CHARGES
----------------------
   0 C :   -0.059687
   1 C :   -0.026376
   2 C :   -0.021913
   3 C :    0.048559
   4 H :    0.049768
   5 H :    0.029708
   6 C :    0.019867
   7 C :   -0.214942
   8 N :    0.212436
   9 N :    0.217707
  10 H :   -0.008029
  11 H :   -0.130025
  12 H :   -0.112605
  13 H :   -0.021275
  14 H :   -0.016029
  15 F :   -0.009812
  16 O :   -0.075389
  17 C :   -0.037363
  18 H :    0.024408
  19 H :    0.004414
  20 C :   -0.046856
  21 C :   -0.036872
  22 H :    0.019920
  23 H :    0.039382
  24 H :    0.034768
  25 H :    0.035586
  26 C :   -0.043510
  27 H :    0.023037
  28 H :    0.024604
  29 C :   -0.049453
  30 H :    0.041177
  31 H :   -0.021515
  32 C :   -0.041646
  33 H :    0.030678
  34 H :    0.023392
  35 H :    0.030846
  36 H :    0.007901
  37 H :    0.028363
  38 H :    0.026774

  Mayer bond orders larger than 0.100000
B(  0-C ,  1-C ) :   0.7570 B(  0-C ,  7-C ) :   0.1491 B(  0-C , 12-H ) :   0.9272
B(  0-C , 17-C ) :   1.0462 B(  0-C , 18-H ) :   0.6292 B(  0-C , 19-H ) :   0.4272
B(  0-C , 26-C ) :   0.1053 B(  1-C ,  7-C ) :   1.7628 B(  1-C ,  8-N ) :   0.2854
B(  1-C ,  9-N ) :   0.2418 B(  1-C , 12-H ) :  -0.9386 B(  1-C , 13-H ) :  -0.1102
B(  1-C , 15-F ) :  -0.1049 B(  1-C , 18-H ) :   0.3806 B(  1-C , 19-H ) :   0.3847
B(  2-C ,  3-C ) :   1.1200 B(  2-C ,  4-H ) :   0.1797 B(  2-C ,  5-H ) :   0.1071
B(  2-C ,  6-C ) :   0.1433 B(  2-C , 21-C ) :   1.2153 B(  2-C , 22-H ) :   0.1269
B(  2-C , 24-H ) :   0.6109 B(  2-C , 25-H ) :   0.7468 B(  3-C ,  4-H ) :   0.5495
B(  3-C ,  5-H ) :   0.7221 B(  3-C ,  6-C ) :   1.2727 B(  3-C , 21-C ) :   0.1673
B(  3-C , 24-H ) :   0.1063 B(  3-C , 25-H ) :   0.1813 B(  4-H ,  6-C ) :   0.3271
B(  5-H ,  6-C ) :   0.2621 B(  6-C , 15-F ) :   0.8874 B(  6-C , 16-O ) :   1.8320
B(  7-C ,  8-N ) :   0.9335 B(  7-C ,  9-N ) :   0.8671 B(  7-C , 11-H ) :  -0.3119
B(  7-C , 12-H ) :   0.5867 B(  7-C , 14-H ) :  -0.1466 B(  7-C , 19-H ) :  -0.1133
B(  8-N , 13-H ) :   1.0372 B(  8-N , 14-H ) :   1.2553 B(  9-N , 10-H ) :   1.0991
B(  9-N , 11-H ) :   1.2148 B( 10-H , 11-H ) :  -0.2090 B( 10-H , 12-H ) :  -0.1304
B( 12-H , 15-F ) :   0.2594 B( 12-H , 18-H ) :  -0.1128 B( 12-H , 19-H ) :   0.1198
B( 13-H , 14-H ) :  -0.1980 B( 15-F , 31-H ) :   0.1352 B( 17-C , 19-H ) :   0.1421
B( 17-C , 26-C ) :   1.1168 B( 17-C , 27-H ) :   0.7665 B( 17-C , 28-H ) :   0.8418
B( 17-C , 29-C ) :   0.1194 B( 17-C , 30-H ) :   0.1972 B( 18-H , 19-H ) :  -0.1602
B( 20-C , 21-C ) :   1.2106 B( 20-C , 22-H ) :   0.1315 B( 20-C , 23-H ) :   0.1646
B( 20-C , 29-C ) :   0.1834 B( 20-C , 32-C ) :   1.1212 B( 20-C , 35-H ) :   0.9589
B( 20-C , 36-H ) :   0.8130 B( 20-C , 37-H ) :   0.3441 B( 20-C , 38-H ) :   0.1372
B( 21-C , 22-H ) :   0.8989 B( 21-C , 23-H ) :   0.8151 B( 21-C , 24-H ) :   0.2972
B( 21-C , 25-H ) :   0.1853 B( 21-C , 35-H ) :   0.1127 B( 21-C , 36-H ) :   0.1301
B( 22-H , 33-H ) :  -0.1055 B( 22-H , 34-H ) :   0.1092 B( 24-H , 25-H ) :  -0.1657
B( 26-C , 27-H ) :   0.2204 B( 26-C , 28-H ) :   0.1334 B( 26-C , 29-C ) :   1.2182
B( 26-C , 30-H ) :   0.5635 B( 26-C , 31-H ) :  -0.4476 B( 26-C , 32-C ) :   0.1253
B( 26-C , 33-H ) :   0.1237 B( 26-C , 34-H ) :   0.1493 B( 27-H , 31-H ) :   0.1081
B( 28-H , 33-H ) :  -0.1227 B( 29-C , 31-H ) :   0.1943 B( 29-C , 32-C ) :   1.0747
B( 29-C , 33-H ) :   0.9472 B( 29-C , 34-H ) :   0.8080 B( 29-C , 37-H ) :   0.1091
B( 29-C , 38-H ) :   0.2989 B( 30-H , 31-H ) :   0.2450 B( 31-H , 36-H ) :   0.1260
B( 32-C , 37-H ) :   0.5795 B( 32-C , 38-H ) :   0.5951 B( 33-H , 34-H ) :  -0.1053
B( 37-H , 38-H ) :  -0.1494

FINAL SINGLE POINT ENERGY      -753.263041169040

DIPOLE MOMENT
-------------
                                X             Y             Z
Electronic contribution:     11.25588       8.97120       5.90363
Nuclear contribution   :    -11.48003      -8.36271      -6.78621
                        -----------------------------------------
Total Dipole Moment    :     -0.22415       0.60848      -0.88259
                        -----------------------------------------
Magnitude (a.u.)       :      1.09520
Magnitude (Debye)      :      2.78377

Rotational constants in cm-1:     0.020055     0.013548     0.009477
Rotational constants in MHz :   601.234832   406.162779   284.104317

                             ****ORCA TERMINATED NORMALLY****
TOTAL RUN TIME: 0 days 0 hours 5 minutes 24 seconds 821 msec
