                         Program Version 5.0.0 -  RELEASE  -
|  1> !LC-BLYP RIJCOSX def2-SVPD def2/J TightSCF xyzfile
|  2>
|  3> *xyzfile 0 1 D2.xyz
|  4>
|  5> %MaxCore 64000
|  6>
|  7> %pal nprocs 4
|  8> end
|  9>
| 10> %scf
| 11>   MaxIter 150
| 12> end
| 13>
| 14>
| 15>                          ****END OF INPUT****

CARTESIAN COORDINATES (ANGSTROEM)
---------------------------------
  C      3.913853   -1.658291    3.015134
  N      5.039266   -0.901154    2.492821
  C      4.084215    1.742081   -2.114724
  C      4.265245    2.500518   -0.795890
  H      4.868534    3.392674   -0.981134
  H      3.307640    2.824571   -0.387809
  C      4.982240    1.650257    0.247422
  C      6.210384   -1.417261    2.178244
  C      6.535913   -2.677122    2.556078
  N      7.076754   -0.700820    1.478906
  H      7.954643   -1.121554    1.207554
  H      6.756161    0.106637    0.960278
  H      4.842168    0.017609    2.115191
  H      5.993876   -3.126918    3.282784
  H      7.498441   -2.975482    2.468776
  F      4.368065    1.389270    1.313706
  O      6.128919    1.233512   -0.045620
  C      3.139159   -2.376572    1.910609
  H      3.267235   -0.939401    3.520693
  H      4.247195   -2.355095    3.790065
  C      1.997274    0.430918   -1.399218
  C      3.412746    0.376886   -1.965497
  H      4.047407   -0.246590   -1.326706
  H      3.390774   -0.118719   -2.942839
  H      5.068475    1.598504   -2.565728
  H      3.503356    2.363939   -2.804565
  C      2.399946   -1.389579    1.009490
  H      2.440750   -3.087118    2.362976
  H      3.844475   -2.970462    1.318677
  C      2.070177   -1.936705   -0.372401
  H      1.481611   -1.061542    1.509912
  H      3.008628   -0.490001    0.897451
  C      1.322238   -0.935775   -1.256413
  H      1.472747   -2.850902   -0.283997
  H      3.003539   -2.234041   -0.862535
  H      1.376444    1.058920   -2.047420
  H      2.015341    0.929780   -0.426535
  H      0.316648   -0.787213   -0.848278
  H      1.185611   -1.379252   -2.248613

 Total Charge           Charge          ....    0
 Multiplicity           Mult            ....    1
 Number of Electrons    NEL             ....  126
 Basis Dimension        Dim             ....  510

ORBITAL ENERGIES
----------------

  NO   OCC          E(Eh)            E(eV)
   0   2.0000     -24.590772      -669.1489
   1   2.0000     -19.006268      -517.1868
   2   2.0000     -14.168978      -385.5575
   3   2.0000     -14.147847      -384.9825
   4   2.0000     -10.307601      -280.4841
   5   2.0000     -10.136489      -275.8279
   6   2.0000     -10.113556      -275.2038
   7   2.0000     -10.113518      -275.2028
   8   2.0000     -10.104229      -274.9501
   9   2.0000     -10.097698      -274.7723
  10   2.0000     -10.092716      -274.6368
  11   2.0000     -10.085911      -274.4516
  12   2.0000     -10.079604      -274.2800
  13   2.0000     -10.078367      -274.2463
  14   2.0000     -10.069116      -273.9946
  15   2.0000      -9.976681      -271.4793
  16   2.0000      -1.432190       -38.9719
  17   2.0000      -1.164327       -31.6830
  18   2.0000      -1.045822       -28.4583
  19   2.0000      -0.960572       -26.1385
  20   2.0000      -0.949695       -25.8425
  21   2.0000      -0.917934       -24.9783
  22   2.0000      -0.882185       -24.0055
  23   2.0000      -0.848631       -23.0924
  24   2.0000      -0.820795       -22.3350
  25   2.0000      -0.797214       -21.6933
  26   2.0000      -0.783547       -21.3214
  27   2.0000      -0.761306       -20.7162
  28   2.0000      -0.727337       -19.7919
  29   2.0000      -0.708248       -19.2724
  30   2.0000      -0.699604       -19.0372
  31   2.0000      -0.685871       -18.6635
  32   2.0000      -0.675249       -18.3745
  33   2.0000      -0.655895       -17.8478
  34   2.0000      -0.638190       -17.3660
  35   2.0000      -0.619678       -16.8623
  36   2.0000      -0.605417       -16.4742
  37   2.0000      -0.597994       -16.2722
  38   2.0000      -0.594984       -16.1903
  39   2.0000      -0.574729       -15.6392
  40   2.0000      -0.560856       -15.2617
  41   2.0000      -0.554549       -15.0900
  42   2.0000      -0.539240       -14.6735
  43   2.0000      -0.535924       -14.5832
  44   2.0000      -0.524299       -14.2669
  45   2.0000      -0.514826       -14.0091
  46   2.0000      -0.507507       -13.8100
  47   2.0000      -0.494609       -13.4590
  48   2.0000      -0.485612       -13.2142
  49   2.0000      -0.479301       -13.0424
  50   2.0000      -0.473137       -12.8747
  51   2.0000      -0.463859       -12.6222
  52   2.0000      -0.461057       -12.5460
  53   2.0000      -0.450298       -12.2532
  54   2.0000      -0.445522       -12.1233
  55   2.0000      -0.437724       -11.9111
  56   2.0000      -0.427502       -11.6329
  57   2.0000      -0.416827       -11.3425
  58   2.0000      -0.416654       -11.3377
  59   2.0000      -0.413638       -11.2557
  60   2.0000      -0.409453       -11.1418
  61   2.0000      -0.326061        -8.8726
  62   2.0000      -0.238720        -6.4959
  63   0.0000       0.012115         0.3297
  64   0.0000       0.055698         1.5156
  65   0.0000       0.074202         2.0191
  66   0.0000       0.076719         2.0876
  67   0.0000       0.082760         2.2520

MULLIKEN ATOMIC CHARGES
-----------------------
   0 C :    1.290130
   1 N :    0.697252
   2 C :    0.587837
   3 C :    0.480080
   4 H :   -0.192343
   5 H :    0.081270
   6 C :    0.252381
   7 C :    0.397844
   8 C :    0.766093
   9 N :    0.759882
  10 H :   -0.110246
  11 H :   -0.709891
  12 H :   -1.371058
  13 H :   -0.181901
  14 H :   -0.777914
  15 F :   -0.411702
  16 O :   -0.274596
  17 C :    0.579772
  18 H :   -0.465905
  19 H :   -0.245845
  20 C :    0.089385
  21 C :    0.098262
  22 H :   -0.168428
  23 H :   -0.243099
  24 H :   -0.062963
  25 H :   -0.189535
  26 C :    0.896963
  27 H :   -0.220518
  28 H :   -0.111806
  29 C :    0.207595
  30 H :   -0.087647
  31 H :   -1.205872
  32 C :    0.875794
  33 H :   -0.502996
  34 H :    0.061460
  35 H :   -0.505431
  36 H :    0.068878
  37 H :   -0.063733
  38 H :   -0.087447
Sum of atomic charges:    0.0000000

LOEWDIN ATOMIC CHARGES
----------------------
   0 C :    0.046984
   1 N :    0.023455
   2 C :   -0.019704
   3 C :    0.050096
   4 H :    0.051658
   5 H :    0.030132
   6 C :    0.017135
   7 C :   -0.235218
   8 C :    0.143877
   9 N :    0.225861
  10 H :    0.010521
  11 H :   -0.139436
  12 H :   -0.064625
  13 H :   -0.125234
  14 H :   -0.108562
  15 F :   -0.001097
  16 O :   -0.070595
  17 C :   -0.021562
  18 H :    0.028327
  19 H :    0.017176
  20 C :   -0.046870
  21 C :   -0.036193
  22 H :    0.019439
  23 H :    0.041161
  24 H :    0.036395
  25 H :    0.037257
  26 C :   -0.049769
  27 H :    0.030497
  28 H :    0.024997
  29 C :   -0.046629
  30 H :    0.040471
  31 H :   -0.025795
  32 C :   -0.039785
  33 H :    0.033122
  34 H :    0.026000
  35 H :    0.032100
  36 H :    0.006648
  37 H :    0.029204
  38 H :    0.028561

  Mayer bond orders larger than 0.100000
B(  0-C ,  1-N ) :   1.0553 B(  0-C , 12-H ) :  -0.5608 B(  0-C , 17-C ) :   1.0152
B(  0-C , 18-H ) :   0.5752 B(  0-C , 19-H ) :   0.6642 B(  0-C , 26-C ) :   0.2163
B(  1-N ,  7-C ) :   0.9704 B(  1-N ,  8-C ) :   0.4802 B(  1-N , 12-H ) :   0.4365
B(  1-N , 18-H ) :   0.2344 B(  2-C ,  3-C ) :   1.1337 B(  2-C ,  4-H ) :   0.1857
B(  2-C ,  5-H ) :   0.1093 B(  2-C ,  6-C ) :   0.1403 B(  2-C , 21-C ) :   1.2214
B(  2-C , 22-H ) :   0.1148 B(  2-C , 24-H ) :   0.6165 B(  2-C , 25-H ) :   0.7507
B(  3-C ,  4-H ) :   0.5738 B(  3-C ,  5-H ) :   0.7200 B(  3-C ,  6-C ) :   1.2382
B(  3-C , 21-C ) :   0.1624 B(  3-C , 24-H ) :   0.1001 B(  3-C , 25-H ) :   0.1768
B(  4-H ,  6-C ) :   0.3034 B(  5-H ,  6-C ) :   0.2529 B(  6-C , 15-F ) :   0.8407
B(  6-C , 16-O ) :   1.8556 B(  7-C ,  8-C ) :   1.5246 B(  7-C ,  9-N ) :   0.9722
B(  7-C , 11-H ) :  -0.1312 B(  7-C , 12-H ) :  -0.6200 B(  7-C , 13-H ) :   0.3952
B(  7-C , 14-H ) :   0.3915 B(  8-C ,  9-N ) :   0.2409 B(  8-C , 12-H ) :  -0.1400
B(  8-C , 13-H ) :   0.5358 B(  8-C , 14-H ) :   0.4217 B(  9-N , 10-H ) :   1.1114
B(  9-N , 11-H ) :   0.9706 B(  9-N , 12-H ) :  -0.1034 B( 10-H , 11-H ) :  -0.2679
B( 11-H , 12-H ) :   0.1612 B( 11-H , 16-O ) :   0.1198 B( 12-H , 15-F ) :   0.3458
B( 12-H , 18-H ) :   0.1631 B( 13-H , 18-H ) :  -0.1238 B( 13-H , 19-H ) :   0.1629
B( 15-F , 31-H ) :   0.1221 B( 17-C , 19-H ) :   0.1882 B( 17-C , 26-C ) :   1.1237
B( 17-C , 27-H ) :   0.8475 B( 17-C , 28-H ) :   0.8603 B( 17-C , 29-C ) :   0.1247
B( 17-C , 30-H ) :   0.1627 B( 18-H , 19-H ) :  -0.3297 B( 20-C , 21-C ) :   1.2064
B( 20-C , 22-H ) :   0.1305 B( 20-C , 23-H ) :   0.1644 B( 20-C , 29-C ) :   0.1818
B( 20-C , 32-C ) :   1.1379 B( 20-C , 35-H ) :   0.9343 B( 20-C , 36-H ) :   0.8150
B( 20-C , 37-H ) :   0.3453 B( 20-C , 38-H ) :   0.1444 B( 21-C , 22-H ) :   0.9041
B( 21-C , 23-H ) :   0.8206 B( 21-C , 24-H ) :   0.2924 B( 21-C , 25-H ) :   0.1862
B( 21-C , 35-H ) :   0.1211 B( 21-C , 36-H ) :   0.1295 B( 22-H , 34-H ) :   0.1131
B( 24-H , 25-H ) :  -0.1670 B( 26-C , 27-H ) :   0.1930 B( 26-C , 29-C ) :   1.2351
B( 26-C , 30-H ) :   0.5406 B( 26-C , 31-H ) :  -0.3893 B( 26-C , 32-C ) :   0.1069
B( 26-C , 34-H ) :   0.1746 B( 27-H , 31-H ) :   0.1250 B( 28-H , 33-H ) :  -0.1162
B( 29-C , 31-H ) :   0.1905 B( 29-C , 32-C ) :   1.0776 B( 29-C , 33-H ) :   0.9519
B( 29-C , 34-H ) :   0.8009 B( 29-C , 37-H ) :   0.1074 B( 29-C , 38-H ) :   0.2843
B( 30-H , 31-H ) :   0.3141 B( 31-H , 36-H ) :   0.1266 B( 32-C , 37-H ) :   0.5760
B( 32-C , 38-H ) :   0.6137 B( 33-H , 34-H ) :  -0.1029 B( 37-H , 38-H ) :  -0.1515

FINAL SINGLE POINT ENERGY      -753.259553482404

DIPOLE MOMENT
-------------
                                X             Y             Z
Electronic contribution:      9.72353      10.55972       5.51167
Nuclear contribution   :    -11.22009      -8.67117      -6.77523
                        -----------------------------------------
Total Dipole Moment    :     -1.49656       1.88856      -1.26356
                        -----------------------------------------
Magnitude (a.u.)       :      2.72083
Magnitude (Debye)      :      6.91580

Rotational constants in cm-1:     0.020086     0.013778     0.009581
Rotational constants in MHz :   602.172053   413.051122   287.243919

                             ****ORCA TERMINATED NORMALLY****
TOTAL RUN TIME: 0 days 0 hours 5 minutes 12 seconds 777 msec
