                         Program Version 5.0.0 -  RELEASE  -
|  1> !LC-BLYP RIJCOSX def2-SVPD def2/J TightSCF xyzfile
|  2>
|  3> *xyzfile 0 1 D4.xyz
|  4>
|  5> %MaxCore 64000
|  6>
|  7> %pal nprocs 4
|  8> end
|  9>
| 10> %scf
| 11>   MaxIter 150
| 12> end
| 13>
| 14>
| 15>                          ****END OF INPUT****

CARTESIAN COORDINATES (ANGSTROEM)
---------------------------------
  C      3.913853   -1.658291    3.015134
  C      5.039266   -0.901154    2.492821
  C      4.084215    1.742081   -2.114724
  C      4.265245    2.500518   -0.795890
  H      4.868534    3.392674   -0.981134
  H      3.307640    2.824571   -0.387809
  C      4.982240    1.650257    0.247422
  C      6.210384   -1.417261    2.178244
  N      6.535913   -2.677122    2.556078
  N      7.076754   -0.700820    1.478906
  H      7.954643   -1.121554    1.207554
  H      6.756161    0.106637    0.960278
  H      4.842168    0.017609    2.115191
  H      5.993876   -3.126918    3.282784
  H      7.498441   -2.975482    2.468776
  O      4.368065    1.389270    1.313706
  F      6.128919    1.233512   -0.045620
  C      3.139159   -2.376572    1.910609
  H      3.267235   -0.939401    3.520693
  H      4.247195   -2.355095    3.790065
  C      1.997274    0.430918   -1.399218
  C      3.412746    0.376886   -1.965497
  H      4.047407   -0.246590   -1.326706
  H      3.390774   -0.118719   -2.942839
  H      5.068475    1.598504   -2.565728
  H      3.503356    2.363939   -2.804565
  C      2.399946   -1.389579    1.009490
  H      2.440750   -3.087118    2.362976
  H      3.844475   -2.970462    1.318677
  C      2.070177   -1.936705   -0.372401
  H      1.481611   -1.061542    1.509912
  H      3.008628   -0.490001    0.897451
  C      1.322238   -0.935775   -1.256413
  H      1.472747   -2.850902   -0.283997
  H      3.003539   -2.234041   -0.862535
  H      1.376444    1.058920   -2.047420
  H      2.015341    0.929780   -0.426535
  H      0.316648   -0.787213   -0.848278
  H      1.185611   -1.379252   -2.248613

 Total Charge           Charge          ....    0
 Multiplicity           Mult            ....    1
 Number of Electrons    NEL             ....  126
 Basis Dimension        Dim             ....  510

ORBITAL ENERGIES
----------------

  NO   OCC          E(Eh)            E(eV)
   0   2.0000     -24.576549      -668.7619
   1   2.0000     -18.980611      -516.4887
   2   2.0000     -14.172685      -385.6584
   3   2.0000     -14.163008      -385.3950
   4   2.0000     -10.286227      -279.9025
   5   2.0000     -10.123033      -275.4617
   6   2.0000     -10.107625      -275.0425
   7   2.0000     -10.106792      -275.0198
   8   2.0000     -10.089695      -274.5546
   9   2.0000     -10.079147      -274.2675
  10   2.0000     -10.073035      -274.1012
  11   2.0000     -10.064256      -273.8623
  12   2.0000     -10.053314      -273.5646
  13   2.0000     -10.048729      -273.4398
  14   2.0000     -10.042329      -273.2657
  15   2.0000      -9.974199      -271.4117
  16   2.0000      -1.419079       -38.6151
  17   2.0000      -1.138109       -30.9695
  18   2.0000      -1.035931       -28.1891
  19   2.0000      -0.946941       -25.7676
  20   2.0000      -0.939440       -25.5635
  21   2.0000      -0.905833       -24.6490
  22   2.0000      -0.875847       -23.8330
  23   2.0000      -0.846748       -23.0412
  24   2.0000      -0.813393       -22.1335
  25   2.0000      -0.790597       -21.5132
  26   2.0000      -0.772508       -21.0210
  27   2.0000      -0.737390       -20.0654
  28   2.0000      -0.711056       -19.3488
  29   2.0000      -0.696566       -18.9545
  30   2.0000      -0.687493       -18.7076
  31   2.0000      -0.676591       -18.4110
  32   2.0000      -0.657124       -17.8812
  33   2.0000      -0.645852       -17.5745
  34   2.0000      -0.637438       -17.3456
  35   2.0000      -0.616138       -16.7660
  36   2.0000      -0.590992       -16.0817
  37   2.0000      -0.588799       -16.0220
  38   2.0000      -0.586038       -15.9469
  39   2.0000      -0.564439       -15.3592
  40   2.0000      -0.553510       -15.0618
  41   2.0000      -0.541898       -14.7458
  42   2.0000      -0.532445       -14.4886
  43   2.0000      -0.516829       -14.0636
  44   2.0000      -0.512149       -13.9363
  45   2.0000      -0.505564       -13.7571
  46   2.0000      -0.497676       -13.5425
  47   2.0000      -0.490081       -13.3358
  48   2.0000      -0.482843       -13.1388
  49   2.0000      -0.475869       -12.9491
  50   2.0000      -0.465844       -12.6763
  51   2.0000      -0.461242       -12.5510
  52   2.0000      -0.441809       -12.0222
  53   2.0000      -0.432560       -11.7706
  54   2.0000      -0.431343       -11.7374
  55   2.0000      -0.426488       -11.6053
  56   2.0000      -0.405117       -11.0238
  57   2.0000      -0.400716       -10.9040
  58   2.0000      -0.394735       -10.7413
  59   2.0000      -0.390291       -10.6204
  60   2.0000      -0.361037        -9.8243
  61   2.0000      -0.349941        -9.5224
  62   2.0000      -0.234448        -6.3797
  63   0.0000       0.033038         0.8990
  64   0.0000       0.061409         1.6710
  65   0.0000       0.079007         2.1499
  66   0.0000       0.084071         2.2877
  67   0.0000       0.087286         2.3752

MULLIKEN ATOMIC CHARGES
-----------------------
   0 C :    0.784937
   1 C :    0.482076
   2 C :    0.599220
   3 C :    0.514558
   4 H :   -0.191683
   5 H :    0.060611
   6 C :    0.283926
   7 C :    0.355335
   8 N :    0.184371
   9 N :    0.671319
  10 H :   -0.201111
  11 H :   -0.483308
  12 H :   -1.090864
  13 H :   -0.066976
  14 H :   -0.311933
  15 O :   -0.380256
  16 F :   -0.304569
  17 C :    0.606080
  18 H :   -0.009841
  19 H :   -0.348660
  20 C :    0.060680
  21 C :    0.098164
  22 H :   -0.149766
  23 H :   -0.250428
  24 H :   -0.109054
  25 H :   -0.191232
  26 C :    0.992755
  27 H :   -0.179153
  28 H :   -0.131102
  29 C :    0.174618
  30 H :   -0.010683
  31 H :   -1.341288
  32 C :    0.892499
  33 H :   -0.532939
  34 H :    0.081574
  35 H :   -0.522966
  36 H :    0.103854
  37 H :   -0.054079
  38 H :   -0.084682
Sum of atomic charges:   -0.0000000

LOEWDIN ATOMIC CHARGES
----------------------
   0 C :   -0.054422
   1 C :   -0.018986
   2 C :   -0.030144
   3 C :    0.051006
   4 H :    0.044557
   5 H :    0.039023
   6 C :    0.012860
   7 C :   -0.219112
   8 N :    0.209895
   9 N :    0.213200
  10 H :   -0.008759
  11 H :   -0.089207
  12 H :   -0.142425
  13 H :   -0.021103
  14 H :   -0.018980
  15 O :   -0.088550
  16 F :    0.004501
  17 C :   -0.036929
  18 H :    0.027532
  19 H :    0.002988
  20 C :   -0.042271
  21 C :   -0.038604
  22 H :    0.019043
  23 H :    0.038209
  24 H :    0.029408
  25 H :    0.035229
  26 C :   -0.039268
  27 H :    0.022024
  28 H :    0.022842
  29 C :   -0.051014
  30 H :    0.042288
  31 H :   -0.021672
  32 C :   -0.041842
  33 H :    0.029468
  34 H :    0.021395
  35 H :    0.030690
  36 H :    0.013050
  37 H :    0.028660
  38 H :    0.025420

  Mayer bond orders larger than 0.100000
B(  0-C ,  1-C ) :   0.7808 B(  0-C ,  7-C ) :   0.1641 B(  0-C , 12-H ) :   0.9724
B(  0-C , 17-C ) :   1.0553 B(  0-C , 18-H ) :   0.6235 B(  0-C , 19-H ) :   0.4090
B(  0-C , 26-C ) :   0.1158 B(  1-C ,  7-C ) :   1.8065 B(  1-C ,  8-N ) :   0.2901
B(  1-C ,  9-N ) :   0.2543 B(  1-C , 12-H ) :  -0.7105 B(  1-C , 13-H ) :  -0.1067
B(  1-C , 18-H ) :   0.3784 B(  1-C , 19-H ) :   0.3871 B(  2-C ,  3-C ) :   1.1343
B(  2-C ,  4-H ) :   0.1820 B(  2-C ,  6-C ) :   0.1497 B(  2-C , 21-C ) :   1.1949
B(  2-C , 22-H ) :   0.1156 B(  2-C , 24-H ) :   0.6024 B(  2-C , 25-H ) :   0.7543
B(  3-C ,  4-H ) :   0.5592 B(  3-C ,  5-H ) :   0.7339 B(  3-C ,  6-C ) :   1.1950
B(  3-C , 21-C ) :   0.1562 B(  3-C , 24-H ) :   0.1044 B(  3-C , 25-H ) :   0.1827
B(  4-H ,  6-C ) :   0.3173 B(  5-H ,  6-C ) :   0.2370 B(  6-C , 15-O ) :   1.9569
B(  6-C , 16-F ) :   0.6891 B(  7-C ,  8-N ) :   0.9055 B(  7-C ,  9-N ) :   0.8558
B(  7-C , 11-H ) :  -0.2982 B(  7-C , 12-H ) :   0.5432 B(  7-C , 14-H ) :  -0.1553
B(  7-C , 19-H ) :  -0.1164 B(  8-N , 13-H ) :   1.0415 B(  8-N , 14-H ) :   1.2645
B(  9-N , 10-H ) :   1.0978 B(  9-N , 11-H ) :   1.2203 B( 10-H , 11-H ) :  -0.1798
B( 10-H , 12-H ) :  -0.1320 B( 12-H , 15-O ) :   0.1149 B( 12-H , 18-H ) :  -0.1034
B( 12-H , 19-H ) :   0.1370 B( 12-H , 31-H ) :   0.1073 B( 13-H , 14-H ) :  -0.1997
B( 15-O , 16-F ) :   0.1760 B( 15-O , 31-H ) :   0.1275 B( 17-C , 19-H ) :   0.1423
B( 17-C , 26-C ) :   1.1234 B( 17-C , 27-H ) :   0.7616 B( 17-C , 28-H ) :   0.8447
B( 17-C , 29-C ) :   0.1171 B( 17-C , 30-H ) :   0.1976 B( 18-H , 19-H ) :  -0.1557
B( 20-C , 21-C ) :   1.2288 B( 20-C , 22-H ) :   0.1449 B( 20-C , 23-H ) :   0.1627
B( 20-C , 29-C ) :   0.1798 B( 20-C , 32-C ) :   1.1138 B( 20-C , 35-H ) :   0.9608
B( 20-C , 36-H ) :   0.8153 B( 20-C , 37-H ) :   0.3419 B( 20-C , 38-H ) :   0.1360
B( 21-C , 22-H ) :   0.8827 B( 21-C , 23-H ) :   0.8245 B( 21-C , 24-H ) :   0.3058
B( 21-C , 25-H ) :   0.1746 B( 21-C , 35-H ) :   0.1145 B( 21-C , 36-H ) :   0.1355
B( 22-H , 33-H ) :  -0.1105 B( 22-H , 34-H ) :   0.1097 B( 24-H , 25-H ) :  -0.1653
B( 26-C , 27-H ) :   0.2216 B( 26-C , 28-H ) :   0.1227 B( 26-C , 29-C ) :   1.2155
B( 26-C , 30-H ) :   0.5397 B( 26-C , 31-H ) :  -0.6143 B( 26-C , 32-C ) :   0.1384
B( 26-C , 33-H ) :   0.1088 B( 26-C , 34-H ) :   0.1499 B( 27-H , 31-H ) :   0.1108
B( 28-H , 33-H ) :  -0.1324 B( 29-C , 31-H ) :   0.2028 B( 29-C , 32-C ) :   1.0744
B( 29-C , 33-H ) :   0.9458 B( 29-C , 34-H ) :   0.8072 B( 29-C , 37-H ) :   0.1129
B( 29-C , 38-H ) :   0.2977 B( 30-H , 31-H ) :   0.2827 B( 31-H , 36-H ) :   0.1293
B( 32-C , 37-H ) :   0.5830 B( 32-C , 38-H ) :   0.5884 B( 33-H , 34-H ) :  -0.1159
B( 37-H , 38-H ) :  -0.1527

FINAL SINGLE POINT ENERGY      -753.250165656286

DIPOLE MOMENT
-------------
                                X             Y             Z
Electronic contribution:     14.24130       8.78387       3.67077
Nuclear contribution   :    -13.61164      -8.17416      -5.14068
                        -----------------------------------------
Total Dipole Moment    :      0.62966       0.60971      -1.46991
                        -----------------------------------------
Magnitude (a.u.)       :      1.71139
Magnitude (Debye)      :      4.35000

Rotational constants in cm-1:     0.019858     0.013613     0.009401
Rotational constants in MHz :   595.331791   408.100423   281.843625

                             ****ORCA TERMINATED NORMALLY****
TOTAL RUN TIME: 0 days 0 hours 5 minutes 14 seconds 939 msec
