                         Program Version 5.0.0 -  RELEASE  -
|  1> !PBE0 D3BJ RIJCOSX def2-SVP def2/J TightSCF
|  2> *xyz -1 1
|  3> C         -0.77894        0.17197        1.80496
|  4> C         -0.60249       -0.63071        0.49224
|  5> H          0.31389       -1.24035        0.60350
|  6> H         -0.36383        0.11332       -0.30117
|  7> O         -1.71206       -1.37684        0.20253
|  8> H         -1.65864        0.77733        1.73736
|  9> H          0.07466        0.79896        1.95712
| 10> H         -0.87474       -0.50584        2.62734
| 11> *
| 12> %MaxCore 64000
| 13>
| 14> %pal nprocs 4
| 15> end
| 16>
| 17> %scf
| 18>   MaxIter 150
| 19> end
| 20>
| 21>
| 22>                          ****END OF INPUT****

CARTESIAN COORDINATES (ANGSTROEM)
---------------------------------
  C     -0.778940    0.171970    1.804960
  C     -0.602490   -0.630710    0.492240
  H      0.313890   -1.240350    0.603500
  H     -0.363830    0.113320   -0.301170
  O     -1.712060   -1.376840    0.202530
  H     -1.658640    0.777330    1.737360
  H      0.074660    0.798960    1.957120
  H     -0.874740   -0.505840    2.627340

 Total Charge           Charge          ....   -1
 Multiplicity           Mult            ....    1
 Number of Electrons    NEL             ....   26
 Basis Dimension        Dim             ....   67

ORBITAL ENERGIES
----------------

  NO   OCC          E(Eh)            E(eV)
   0   2.0000     -18.823865      -512.2234
   1   2.0000     -10.020345      -272.6674
   2   2.0000     -10.007023      -272.3050
   3   2.0000      -0.654396       -17.8070
   4   2.0000      -0.518237       -14.1020
   5   2.0000      -0.362796        -9.8722
   6   2.0000      -0.244514        -6.6536
   7   2.0000      -0.221196        -6.0191
   8   2.0000      -0.164040        -4.4638
   9   2.0000      -0.148779        -4.0485
  10   2.0000      -0.084266        -2.2930
  11   2.0000       0.064928         1.7668
  12   2.0000       0.066722         1.8156
  13   0.0000       0.263267         7.1639
  14   0.0000       0.306920         8.3517
  15   0.0000       0.319674         8.6988
  16   0.0000       0.328705         8.9445
  17   0.0000       0.370272        10.0756

MULLIKEN ATOMIC CHARGES
-----------------------
   0 C :   -0.012031
   1 C :    0.216585
   2 H :   -0.147155
   3 H :   -0.150806
   4 O :   -0.721035
   5 H :   -0.041424
   6 H :   -0.101842
   7 H :   -0.042291
Sum of atomic charges:   -1.0000000

LOEWDIN ATOMIC CHARGES
----------------------
   0 C :   -0.122363
   1 C :    0.004196
   2 H :   -0.077619
   3 H :   -0.080373
   4 O :   -0.666624
   5 H :   -0.011026
   6 H :   -0.034658
   7 H :   -0.011533

  Mayer bond orders larger than 0.100000
B(  0-C ,  1-C ) :   0.9907 B(  0-C ,  5-H ) :   0.9619 B(  0-C ,  6-H ) :   0.9220
B(  0-C ,  7-H ) :   0.9640 B(  1-C ,  2-H ) :   0.8735 B(  1-C ,  3-H ) :   0.8719
B(  1-C ,  4-O ) :   1.4811

Dispersion correction           -0.003049835
FINAL SINGLE POINT ENERGY      -154.099150448446

DIPOLE MOMENT
-------------
                                X             Y             Z
Electronic contribution:     -1.90102      -2.05630      -1.57837
Nuclear contribution   :      2.47835       2.80827       2.30058
                        -----------------------------------------
Total Dipole Moment    :      0.57732       0.75198       0.72221
                        -----------------------------------------
Magnitude (a.u.)       :      1.19179
Magnitude (Debye)      :      3.02928

Rotational constants in cm-1:     1.255775     0.327783     0.287473
Rotational constants in MHz : 37647.186859  9826.677683  8618.224821

                             ****ORCA TERMINATED NORMALLY****
TOTAL RUN TIME: 0 days 0 hours 0 minutes 8 seconds 361 msec
