                         Program Version 5.0.0 -  RELEASE  -
|  1> !PBE0 D3BJ RIJCOSX def2-SVP def2/J TightSCF
|  2> *xyz 1 1
|  3> C         -2.12050        0.88520        1.78951
|  4> C         -0.77894        0.17197        1.80496
|  5> H         -2.32419        1.47265        2.68608
|  6> H         -2.18770        1.54127        0.91948
|  7> N         -3.17690       -0.15948        1.61070
|  8> H         -4.06474        0.23127        1.28675
|  9> H         -3.34407       -0.67151        2.48493
| 10> H         -2.71686       -0.78189        0.93588
| 11> H         -0.65708       -0.37837        0.89547
| 12> H         -0.74207       -0.50050        2.63642
| 13> H          0.00707        0.89251        1.89389
| 14> *
| 15> %MaxCore 64000
| 16>
| 17> %pal nprocs 4
| 18> end
| 19>
| 20> %scf
| 21>   MaxIter 150
| 22> end
| 23>
| 24>
| 25>                          ****END OF INPUT****

CARTESIAN COORDINATES (ANGSTROEM)
---------------------------------
  C     -2.120500    0.885200    1.789510
  C     -0.778940    0.171970    1.804960
  H     -2.324190    1.472650    2.686080
  H     -2.187700    1.541270    0.919480
  N     -3.176900   -0.159480    1.610700
  H     -4.064740    0.231270    1.286750
  H     -3.344070   -0.671510    2.484930
  H     -2.716860   -0.781890    0.935880
  H     -0.657080   -0.378370    0.895470
  H     -0.742070   -0.500500    2.636420
  H      0.007070    0.892510    1.893890

 Total Charge           Charge          ....    1
 Multiplicity           Mult            ....    1
 Number of Electrons    NEL             ....   26
 Basis Dimension        Dim             ....   82

ORBITAL ENERGIES
----------------

  NO   OCC          E(Eh)            E(eV)
   0   2.0000     -14.732130      -400.8816
   1   2.0000     -10.488248      -285.3997
   2   2.0000     -10.412933      -283.3503
   3   2.0000      -1.237325       -33.6693
   4   2.0000      -0.985131       -26.8068
   5   2.0000      -0.861323       -23.4378
   6   2.0000      -0.822768       -22.3887
   7   2.0000      -0.811634       -22.0857
   8   2.0000      -0.708399       -19.2765
   9   2.0000      -0.658229       -17.9113
  10   2.0000      -0.598505       -16.2862
  11   2.0000      -0.590241       -16.0613
  12   2.0000      -0.568210       -15.4618
  13   0.0000      -0.171094        -4.6557
  14   0.0000      -0.112843        -3.0706
  15   0.0000      -0.109867        -2.9896
  16   0.0000      -0.079503        -2.1634
  17   0.0000      -0.042585        -1.1588

MULLIKEN ATOMIC CHARGES
-----------------------
   0 C :   -0.078993
   1 C :   -0.113345
   2 H :    0.131508
   3 H :    0.124706
   4 N :   -0.020303
   5 H :    0.228067
   6 H :    0.223784
   7 H :    0.217322
   8 H :    0.081453
   9 H :    0.085632
  10 H :    0.120170
Sum of atomic charges:    1.0000000

LOEWDIN ATOMIC CHARGES
----------------------
   0 C :    0.050147
   1 C :   -0.052887
   2 H :    0.059225
   3 H :    0.058674
   4 N :    0.293950
   5 H :    0.146496
   6 H :    0.146480
   7 H :    0.142735
   8 H :    0.042146
   9 H :    0.044220
  10 H :    0.068814

  Mayer bond orders larger than 0.100000
B(  0-C ,  1-C ) :   1.0839 B(  0-C ,  2-H ) :   0.9497 B(  0-C ,  3-H ) :   0.9499
B(  0-C ,  4-N ) :   0.9140 B(  1-C ,  8-H ) :   0.9612 B(  1-C ,  9-H ) :   0.9714
B(  1-C , 10-H ) :   0.9558 B(  4-N ,  5-H ) :   0.9267 B(  4-N ,  6-H ) :   0.9316
B(  4-N ,  7-H ) :   0.9322

Dispersion correction           -0.005073556
FINAL SINGLE POINT ENERGY      -135.271194455651

DIPOLE MOMENT
-------------
                                X             Y             Z
Electronic contribution:     -1.87494      -0.18131      -0.06725
Nuclear contribution   :      0.50278      -0.30871      -0.06979
                        -----------------------------------------
Total Dipole Moment    :     -1.37216      -0.49003      -0.13704
                        -----------------------------------------
Magnitude (a.u.)       :      1.46346
Magnitude (Debye)      :      3.71983

Rotational constants in cm-1:     0.963746     0.295157     0.256910
Rotational constants in MHz : 28892.375247  8848.576767  7701.963879

                             ****ORCA TERMINATED NORMALLY****
TOTAL RUN TIME: 0 days 0 hours 0 minutes 8 seconds 631 msec
