                         Program Version 5.0.0 -  RELEASE  -
|  1> !PBE0 D3BJ RIJCOSX def2-TZVP def2/J TightSCF xyzfile
|  2>
|  3> *xyzfile 0 1 B.xyz
|  4>
|  5> %MaxCore 64000
|  6>
|  7> %pal nprocs 18
|  8> end
|  9>
| 10> %scf
| 11>   MaxIter 150
| 12> end
| 13>
| 14>
| 15>                          ****END OF INPUT****

CARTESIAN COORDINATES (ANGSTROEM)
---------------------------------
  C     -2.120502    0.885196    1.789506
  C     -0.778939    0.171966    1.804965
  H     -2.324193    1.472649    2.686078
  H     -2.187698    1.541272    0.919482
  N     -3.176900   -0.159484    1.610700
  H      0.015695    0.910767    1.939153
  H     -0.743553   -0.506827    2.665420
  C     -0.602493   -0.630712    0.492240
  H      0.313894   -1.240346    0.603498
  H     -0.363829    0.113322   -0.301169
  O     -1.712061   -1.376836    0.202535
  H     -4.064736    0.231272    1.286754
  H     -3.344073   -0.671511    2.484928
  H     -2.716861   -0.781886    0.935880

 Total Charge           Charge          ....    0
 Multiplicity           Mult            ....    1
 Number of Electrons    NEL             ....   42
 Basis Dimension        Dim             ....  209

ORBITAL ENERGIES
----------------

  NO   OCC          E(Eh)            E(eV)
   0   2.0000     -19.071431      -518.9600
   1   2.0000     -14.463514      -393.5722
   2   2.0000     -10.283660      -279.8326
   3   2.0000     -10.214423      -277.9486
   4   2.0000     -10.213285      -277.9176
   5   2.0000      -1.017814       -27.6961
   6   2.0000      -0.917983       -24.9796
   7   2.0000      -0.792912       -21.5762
   8   2.0000      -0.673799       -18.3350
   9   2.0000      -0.608326       -16.5534
  10   2.0000      -0.586995       -15.9729
  11   2.0000      -0.560176       -15.2432
  12   2.0000      -0.499261       -13.5856
  13   2.0000      -0.449081       -12.2201
  14   2.0000      -0.415726       -11.3125
  15   2.0000      -0.413334       -11.2474
  16   2.0000      -0.369603       -10.0574
  17   2.0000      -0.350184        -9.5290
  18   2.0000      -0.327776        -8.9192
  19   2.0000      -0.192932        -5.2499
  20   2.0000      -0.183961        -5.0058
  21   0.0000       0.002514         0.0684
  22   0.0000       0.046524         1.2660
  23   0.0000       0.057314         1.5596
  24   0.0000       0.089914         2.4467
  25   0.0000       0.102957         2.8016

MULLIKEN ATOMIC CHARGES
-----------------------
   0 C :   -0.145768
   1 C :   -0.241496
   2 H :    0.133679
   3 H :    0.133386
   4 N :   -0.295036
   5 H :    0.102118
   6 H :    0.085246
   7 C :    0.026909
   8 H :    0.049147
   9 H :    0.020982
  10 O :   -0.669073
  11 H :    0.259589
  12 H :    0.258494
  13 H :    0.281820
Sum of atomic charges:    0.0000000

LOEWDIN ATOMIC CHARGES
----------------------
   0 C :   -0.277259
   1 C :   -0.298453
   2 H :    0.125283
   3 H :    0.141876
   4 N :    0.130827
   5 H :    0.137899
   6 H :    0.130847
   7 C :   -0.474619
   8 H :    0.102260
   9 H :    0.094005
  10 O :   -0.277314
  11 H :    0.180283
  12 H :    0.186970
  13 H :    0.097396

  Mayer bond orders larger than 0.100000
B(  0-C ,  1-C ) :   1.0115 B(  0-C ,  2-H ) :   0.9661 B(  0-C ,  3-H ) :   0.9540
B(  0-C ,  4-N ) :   0.9191 B(  1-C ,  5-H ) :   0.9493 B(  1-C ,  6-H ) :   0.9535
B(  1-C ,  7-C ) :   0.9872 B(  4-N , 11-H ) :   0.8986 B(  4-N , 12-H ) :   0.9025
B(  4-N , 13-H ) :   0.6090 B(  7-C ,  8-H ) :   0.9442 B(  7-C ,  9-H ) :   0.9346
B(  7-C , 10-O ) :   1.2514 B( 10-O , 13-H ) :   0.4290

Dispersion correction           -0.008648713
FINAL SINGLE POINT ENERGY      -249.469279459824

DIPOLE MOMENT
-------------
                                X             Y             Z
Electronic contribution:     -1.55548      -1.50514      -0.81518
Nuclear contribution   :      0.08650       3.01678       2.47433
                        -----------------------------------------
Total Dipole Moment    :     -1.46898       1.51164       1.65915
                        -----------------------------------------
Magnitude (a.u.)       :      2.68249
Magnitude (Debye)      :      6.81834

Rotational constants in cm-1:     0.238796     0.156489     0.106146
Rotational constants in MHz :  7158.916762  4691.413084  3182.185740

                             ****ORCA TERMINATED NORMALLY****
TOTAL RUN TIME: 0 days 0 hours 0 minutes 11 seconds 265 msec
