                         Program Version 5.0.0 -  RELEASE  -
|  1> !PBE0 D3BJ RIJCOSX def2-SVP def2/J TightSCF
|  2> *xyz 0 1
|  3> C         -0.77894        0.17197        1.80496
|  4> C         -0.60249       -0.63071        0.49224
|  5> H          0.31389       -1.24035        0.60350
|  6> H         -0.36383        0.11332       -0.30117
|  7> F         -1.71206       -1.37684        0.20253
|  8> H         -1.65864        0.77733        1.73736
|  9> H          0.07466        0.79896        1.95712
| 10> H         -0.87474       -0.50584        2.62734
| 11> *
| 12> %MaxCore 64000
| 13>
| 14> %pal nprocs 4
| 15> end
| 16>
| 17> %scf
| 18>   MaxIter 150
| 19> end
| 20>
| 21>
| 22>                          ****END OF INPUT****

CARTESIAN COORDINATES (ANGSTROEM)
---------------------------------
  C     -0.778940    0.171970    1.804960
  C     -0.602490   -0.630710    0.492240
  H      0.313890   -1.240350    0.603500
  H     -0.363830    0.113320   -0.301170
  F     -1.712060   -1.376840    0.202530
  H     -1.658640    0.777330    1.737360
  H      0.074660    0.798960    1.957120
  H     -0.874740   -0.505840    2.627340

 Total Charge           Charge          ....    0
 Multiplicity           Mult            ....    1
 Number of Electrons    NEL             ....   26
 Basis Dimension        Dim             ....   67

ORBITAL ENERGIES
----------------

  NO   OCC          E(Eh)            E(eV)
   0   2.0000     -24.750985      -673.5086
   1   2.0000     -10.306548      -280.4554
   2   2.0000     -10.225510      -278.2503
   3   2.0000      -1.202134       -32.7117
   4   2.0000      -0.774867       -21.0852
   5   2.0000      -0.640671       -17.4335
   6   2.0000      -0.517144       -14.0722
   7   2.0000      -0.505227       -13.7479
   8   2.0000      -0.466345       -12.6899
   9   2.0000      -0.412913       -11.2359
  10   2.0000      -0.410218       -11.1626
  11   2.0000      -0.341068        -9.2809
  12   2.0000      -0.337986        -9.1971
  13   0.0000       0.075189         2.0460
  14   0.0000       0.120754         3.2859
  15   0.0000       0.127122         3.4592
  16   0.0000       0.143310         3.8997
  17   0.0000       0.157131         4.2757

MULLIKEN ATOMIC CHARGES
-----------------------
   0 C :   -0.120197
   1 C :    0.189680
   2 H :    0.031186
   3 H :    0.031079
   4 F :   -0.271313
   5 H :    0.051548
   6 H :    0.037897
   7 H :    0.050120
Sum of atomic charges:   -0.0000000

LOEWDIN ATOMIC CHARGES
----------------------
   0 C :   -0.084334
   1 C :    0.104448
   2 H :    0.013135
   3 H :    0.013687
   4 F :   -0.136308
   5 H :    0.029325
   6 H :    0.032031
   7 H :    0.028016

  Mayer bond orders larger than 0.100000
B(  0-C ,  1-C ) :   1.0847 B(  0-C ,  5-H ) :   0.9720 B(  0-C ,  6-H ) :   0.9627
B(  0-C ,  7-H ) :   0.9733 B(  1-C ,  2-H ) :   0.9577 B(  1-C ,  3-H ) :   0.9585
B(  1-C ,  4-F ) :   0.9845

Dispersion correction           -0.002810418
FINAL SINGLE POINT ENERGY      -178.726689886773

DIPOLE MOMENT
-------------
                                X             Y             Z
Electronic contribution:     -2.75801      -3.31827      -2.84485
Nuclear contribution   :      3.27800       3.70743       3.04146
                        -----------------------------------------
Total Dipole Moment    :      0.51999       0.38916       0.19661
                        -----------------------------------------
Magnitude (a.u.)       :      0.67860
Magnitude (Debye)      :      1.72485

Rotational constants in cm-1:     1.234437     0.305084     0.268865
Rotational constants in MHz : 37007.496448  9146.194083  8060.380630

                             ****ORCA TERMINATED NORMALLY****
TOTAL RUN TIME: 0 days 0 hours 0 minutes 7 seconds 247 msec
