                         Program Version 5.0.0 -  RELEASE  -
|  1> !PBE0 D3BJ RIJCOSX def2-SVP def2/J TightSCF
|  2> *xyz 0 1
|  3> C         -2.12050        0.88520        1.78951
|  4> C         -0.77894        0.17197        1.80496
|  5> H         -2.32419        1.47265        2.68608
|  6> H         -2.18770        1.54127        0.91948
|  7> C         -3.17690       -0.15948        1.61070
|  8> H         -4.06474        0.23127        1.28675
|  9> H         -3.34407       -0.67151        2.48493
| 10> H         -2.71686       -0.78189        0.93588
| 11> H         -0.65708       -0.37837        0.89547
| 12> H         -0.74207       -0.50050        2.63642
| 13> H          0.00707        0.89251        1.89389
| 14> *
| 15> %MaxCore 64000
| 16>
| 17> %pal nprocs 4
| 18> end
| 19>
| 20> %scf
| 21>   MaxIter 150
| 22> end
| 23>
| 24>
| 25>                          ****END OF INPUT****

CARTESIAN COORDINATES (ANGSTROEM)
---------------------------------
  C     -2.120500    0.885200    1.789510
  C     -0.778940    0.171970    1.804960
  H     -2.324190    1.472650    2.686080
  H     -2.187700    1.541270    0.919480
  C     -3.176900   -0.159480    1.610700
  H     -4.064740    0.231270    1.286750
  H     -3.344070   -0.671510    2.484930
  H     -2.716860   -0.781890    0.935880
  H     -0.657080   -0.378370    0.895470
  H     -0.742070   -0.500500    2.636420
  H      0.007070    0.892510    1.893890

 Total Charge           Charge          ....    0
 Multiplicity           Mult            ....    1
 Number of Electrons    NEL             ....   26
 Basis Dimension        Dim             ....   82

ORBITAL ENERGIES
----------------

  NO   OCC          E(Eh)            E(eV)
   0   2.0000     -10.217462      -278.0313
   1   2.0000     -10.210556      -277.8434
   2   2.0000     -10.191879      -277.3351
   3   2.0000      -0.811570       -22.0839
   4   2.0000      -0.698751       -19.0140
   5   2.0000      -0.596567       -16.2334
   6   2.0000      -0.483766       -13.1639
   7   2.0000      -0.465180       -12.6582
   8   2.0000      -0.411368       -11.1939
   9   2.0000      -0.395340       -10.7577
  10   2.0000      -0.350745        -9.5443
  11   2.0000      -0.342223        -9.3124
  12   2.0000      -0.337339        -9.1795
  13   0.0000       0.076088         2.0705
  14   0.0000       0.121474         3.3055
  15   0.0000       0.123631         3.3642
  16   0.0000       0.131537         3.5793
  17   0.0000       0.156169         4.2496

MULLIKEN ATOMIC CHARGES
-----------------------
   0 C :   -0.148946
   1 C :   -0.066713
   2 H :    0.035347
   3 H :    0.032865
   4 C :    0.016635
   5 H :    0.014006
   6 H :    0.012840
   7 H :    0.003867
   8 H :    0.034665
   9 H :    0.033073
  10 H :    0.032361
Sum of atomic charges:   -0.0000000

LOEWDIN ATOMIC CHARGES
----------------------
   0 C :   -0.048403
   1 C :   -0.062703
   2 H :    0.020814
   3 H :    0.023046
   4 C :   -0.049719
   5 H :    0.014556
   6 H :    0.015911
   7 H :    0.016591
   8 H :    0.023327
   9 H :    0.023689
  10 H :    0.022891

  Mayer bond orders larger than 0.100000
B(  0-C ,  1-C ) :   1.0942 B(  0-C ,  2-H ) :   0.9580 B(  0-C ,  3-H ) :   0.9578
B(  0-C ,  4-C ) :   1.0834 B(  1-C ,  8-H ) :   0.9714 B(  1-C ,  9-H ) :   0.9770
B(  1-C , 10-H ) :   0.9708 B(  4-C ,  5-H ) :   0.9686 B(  4-C ,  6-H ) :   0.9729
B(  4-C ,  7-H ) :   0.9763

Dispersion correction           -0.005091972
FINAL SINGLE POINT ENERGY      -118.884039712979

DIPOLE MOMENT
-------------
                                X             Y             Z
Electronic contribution:     -0.13832       0.45792       0.10939
Nuclear contribution   :      0.13334      -0.45108      -0.10852
                        -----------------------------------------
Total Dipole Moment    :     -0.00498       0.00684       0.00088
                        -----------------------------------------
Magnitude (a.u.)       :      0.00851
Magnitude (Debye)      :      0.02162

Rotational constants in cm-1:     0.972269     0.310387     0.269029
Rotational constants in MHz : 29147.878530  9305.178981  8065.286472

                             ****ORCA TERMINATED NORMALLY****
TOTAL RUN TIME: 0 days 0 hours 0 minutes 8 seconds 567 msec
