                         Program Version 5.0.0 -  RELEASE  -
|  1> !PBE0 D3BJ RIJCOSX def2-TZVP def2/J TightSCF xyzfile
|  2>
|  3> *xyzfile 0 1 D.xyz
|  4>
|  5> %MaxCore 64000
|  6>
|  7> %pal nprocs 18
|  8> end
|  9>
| 10> %scf
| 11>   MaxIter 150
| 12> end
| 13>
| 14>
| 15>                          ****END OF INPUT****

CARTESIAN COORDINATES (ANGSTROEM)
---------------------------------
  C     -2.120502    0.885196    1.789506
  C     -0.778939    0.171966    1.804965
  H     -2.324193    1.472649    2.686078
  H     -2.187698    1.541272    0.919482
  C     -3.176900   -0.159484    1.610700
  H      0.015695    0.910767    1.939153
  H     -0.743553   -0.506827    2.665420
  C     -0.602493   -0.630712    0.492240
  H      0.313894   -1.240346    0.603498
  H     -0.363829    0.113322   -0.301169
  F     -1.712061   -1.376836    0.202535
  H     -4.064736    0.231272    1.286754
  H     -3.344073   -0.671511    2.484928
  H     -2.716861   -0.781886    0.935880

 Total Charge           Charge          ....    0
 Multiplicity           Mult            ....    1
 Number of Electrons    NEL             ....   42
 Basis Dimension        Dim             ....  209

ORBITAL ENERGIES
----------------

  NO   OCC          E(Eh)            E(eV)
   0   2.0000     -24.776793      -674.2108
   1   2.0000     -10.306805      -280.4624
   2   2.0000     -10.225084      -278.2387
   3   2.0000     -10.204822      -277.6873
   4   2.0000     -10.141596      -275.9669
   5   2.0000      -1.264209       -34.4009
   6   2.0000      -0.830173       -22.5901
   7   2.0000      -0.756803       -20.5937
   8   2.0000      -0.657346       -17.8873
   9   2.0000      -0.610104       -16.6018
  10   2.0000      -0.545983       -14.8570
  11   2.0000      -0.542249       -14.7553
  12   2.0000      -0.504408       -13.7257
  13   2.0000      -0.453493       -12.3402
  14   2.0000      -0.427099       -11.6220
  15   2.0000      -0.417594       -11.3633
  16   2.0000      -0.390673       -10.6307
  17   2.0000      -0.357710        -9.7338
  18   2.0000      -0.339270        -9.2320
  19   2.0000      -0.333956        -9.0874
  20   2.0000      -0.286929        -7.8077
  21   0.0000       0.046177         1.2565
  22   0.0000       0.077415         2.1066
  23   0.0000       0.081508         2.2179
  24   0.0000       0.095292         2.5930
  25   0.0000       0.108486         2.9521

MULLIKEN ATOMIC CHARGES
-----------------------
   0 C :   -0.166523
   1 C :   -0.224006
   2 H :    0.098966
   3 H :    0.082694
   4 C :   -0.414934
   5 H :    0.117013
   6 H :    0.103329
   7 C :   -0.008273
   8 H :    0.111056
   9 H :    0.097941
  10 F :   -0.167110
  11 H :    0.098858
  12 H :    0.092596
  13 H :    0.178394
Sum of atomic charges:    0.0000000

LOEWDIN ATOMIC CHARGES
----------------------
   0 C :   -0.306102
   1 C :   -0.279042
   2 H :    0.128737
   3 H :    0.136053
   4 C :   -0.319987
   5 H :    0.140977
   6 H :    0.139010
   7 C :   -0.334327
   8 H :    0.124062
   9 H :    0.126215
  10 F :    0.161886
  11 H :    0.100323
  12 H :    0.103057
  13 H :    0.079138

  Mayer bond orders larger than 0.100000
B(  0-C ,  1-C ) :   0.9992 B(  0-C ,  2-H ) :   0.9582 B(  0-C ,  3-H ) :   0.9634
B(  0-C ,  4-C ) :   0.9919 B(  1-C ,  5-H ) :   0.9485 B(  1-C ,  6-H ) :   0.9565
B(  1-C ,  7-C ) :   1.0246 B(  4-C , 11-H ) :   0.9680 B(  4-C , 12-H ) :   0.9743
B(  4-C , 13-H ) :   0.9521 B(  7-C ,  8-H ) :   0.9578 B(  7-C ,  9-H ) :   0.9670
B(  7-C , 10-F ) :   0.9738

Dispersion correction           -0.008270683
FINAL SINGLE POINT ENERGY      -257.439372091423

DIPOLE MOMENT
-------------
                                X             Y             Z
Electronic contribution:      0.88339      -4.21226      -3.74395
Nuclear contribution   :     -0.20666       4.43855       3.76066
                        -----------------------------------------
Total Dipole Moment    :      0.67673       0.22628       0.01670
                        -----------------------------------------
Magnitude (a.u.)       :      0.71375
Magnitude (Debye)      :      1.81422

Rotational constants in cm-1:     0.236353     0.155239     0.105045
Rotational constants in MHz :  7085.692869  4653.957069  3149.180346

                             ****ORCA TERMINATED NORMALLY****
TOTAL RUN TIME: 0 days 0 hours 0 minutes 9 seconds 835 msec
