                         Program Version 5.0.0 -  RELEASE  -
|  1> !M062X D3Zero RIJCOSX def2-SVP def2/J TightSCF
|  2> *xyz -1 1
|  3> C         -2.79070       -0.78527        5.70281
|  4> C         -2.45380        0.05510        6.94145
|  5> C         -2.07842        1.48042        6.56410
|  6> H         -1.62558       -0.38216        7.49891
|  7> H         -3.32527        0.08775        7.59917
|  8> O         -0.90125        1.85816        6.82810
|  9> O         -2.93658        2.17731        5.96415
| 10> H         -1.94052       -0.82114        5.05412
| 11> H         -3.61590       -0.34261        5.18514
| 12> H         -3.05063       -1.77815        6.00536
| 13> *
| 14> %MaxCore 64000
| 15>
| 16> %pal nprocs 4
| 17> end
| 18>
| 19> %scf
| 20>   MaxIter 150
| 21> end
| 22>
| 23>
| 24>                          ****END OF INPUT****

CARTESIAN COORDINATES (ANGSTROEM)
---------------------------------
  C     -2.790700   -0.785270    5.702810
  C     -2.453800    0.055100    6.941450
  C     -2.078420    1.480420    6.564100
  H     -1.625580   -0.382160    7.498910
  H     -3.325270    0.087750    7.599170
  O     -0.901250    1.858160    6.828100
  O     -2.936580    2.177310    5.964150
  H     -1.940520   -0.821140    5.054120
  H     -3.615900   -0.342610    5.185140
  H     -3.050630   -1.778150    6.005360

 Total Charge           Charge          ....   -1
 Multiplicity           Mult            ....    1
 Number of Electrons    NEL             ....   40
 Basis Dimension        Dim             ....   95

ORBITAL ENERGIES
----------------

  NO   OCC          E(Eh)            E(eV)
   0   2.0000     -19.331527      -526.0376
   1   2.0000     -19.329601      -525.9852
   2   2.0000     -10.406787      -283.1831
   3   2.0000     -10.382542      -282.5233
   4   2.0000     -10.360412      -281.9212
   5   2.0000      -0.892944       -24.2982
   6   2.0000      -0.791545       -21.5390
   7   2.0000      -0.683242       -18.5920
   8   2.0000      -0.543007       -14.7760
   9   2.0000      -0.378793       -10.3075
  10   2.0000      -0.351678        -9.5696
  11   2.0000      -0.312708        -8.5092
  12   2.0000      -0.281791        -7.6679
  13   2.0000      -0.266077        -7.2403
  14   2.0000      -0.258502        -7.0342
  15   2.0000      -0.222663        -6.0590
  16   2.0000      -0.207139        -5.6365
  17   2.0000      -0.080713        -2.1963
  18   2.0000      -0.075128        -2.0443
  19   2.0000      -0.068744        -1.8706
  20   0.0000       0.253532         6.8990
  21   0.0000       0.305538         8.3141
  22   0.0000       0.318472         8.6661
  23   0.0000       0.321541         8.7496
  24   0.0000       0.329854         8.9758

MULLIKEN ATOMIC CHARGES
-----------------------
   0 C :   -0.051299
   1 C :   -0.046380
   2 C :    0.101164
   3 H :   -0.025381
   4 H :   -0.016747
   5 O :   -0.484327
   6 O :   -0.484740
   7 H :    0.010692
   8 H :    0.020894
   9 H :   -0.023876
Sum of atomic charges:   -1.0000000

LOEWDIN ATOMIC CHARGES
----------------------
   0 C :   -0.065938
   1 C :   -0.095760
   2 C :   -0.027549
   3 H :    0.000710
   4 H :    0.005746
   5 O :   -0.421266
   6 O :   -0.420347
   7 H :    0.013426
   8 H :    0.015302
   9 H :   -0.004324

  Mayer bond orders larger than 0.100000
B(  0-C ,  1-C ) :   1.0871 B(  0-C ,  7-H ) :   0.9748 B(  0-C ,  8-H ) :   0.9673
B(  0-C ,  9-H ) :   0.9705 B(  1-C ,  2-C ) :   0.9212 B(  1-C ,  3-H ) :   0.9442
B(  1-C ,  4-H ) :   0.9394 B(  2-C ,  5-O ) :   1.8288 B(  2-C ,  6-O ) :   1.8087
B(  5-O ,  6-O ) :   0.1042

Dispersion correction           -0.000086182
FINAL SINGLE POINT ENERGY      -267.493452981048

DIPOLE MOMENT
-------------
                                X             Y             Z
Electronic contribution:      1.68013       5.68522       0.64532
Nuclear contribution   :     -2.24498      -7.51881      -0.57245
                        -----------------------------------------
Total Dipole Moment    :     -0.56486      -1.83359       0.07287
                        -----------------------------------------
Magnitude (a.u.)       :      1.92000
Magnitude (Debye)      :      4.88026

Rotational constants in cm-1:     0.305589     0.135336     0.107479
Rotational constants in MHz :  9161.317320  4057.276612  3222.126231

                             ****ORCA TERMINATED NORMALLY****
TOTAL RUN TIME: 0 days 0 hours 0 minutes 12 seconds 325 msec
