                         Program Version 5.0.0 -  RELEASE  -
|  1> !M062X D3Zero RIJCOSX def2-SVP def2/J TightSCF
|  2> *xyz 1 1
|  3> C         -0.69912        3.48945        3.75516
|  4> H         -0.96672        4.34901        3.14049
|  5> N         -1.08067        3.79296        5.15686
|  6> C          0.77696        3.13839        3.61741
|  7> H         -1.33146        2.65651        3.44632
|  8> H         -0.87449        4.76274        5.42734
|  9> H         -0.68079        3.13476        5.83900
| 10> H         -2.05755        3.53169        5.34620
| 11> H          0.99957        2.92898        2.59199
| 12> H          0.99576        2.27685        4.21303
| 13> H          1.37223        3.96279        3.95046
| 14> *
| 15> %MaxCore 64000
| 16>
| 17> %pal nprocs 4
| 18> end
| 19>
| 20> %scf
| 21>   MaxIter 150
| 22> end
| 23>
| 24>
| 25>                          ****END OF INPUT****

CARTESIAN COORDINATES (ANGSTROEM)
---------------------------------
  C     -0.699120    3.489450    3.755160
  H     -0.966720    4.349010    3.140490
  N     -1.080670    3.792960    5.156860
  C      0.776960    3.138390    3.617410
  H     -1.331460    2.656510    3.446320
  H     -0.874490    4.762740    5.427340
  H     -0.680790    3.134760    5.839000
  H     -2.057550    3.531690    5.346200
  H      0.999570    2.928980    2.591990
  H      0.995760    2.276850    4.213030
  H      1.372230    3.962790    3.950460

 Total Charge           Charge          ....    1
 Multiplicity           Mult            ....    1
 Number of Electrons    NEL             ....   26
 Basis Dimension        Dim             ....   82

ORBITAL ENERGIES
----------------

  NO   OCC          E(Eh)            E(eV)
   0   2.0000     -15.099384      -410.8751
   1   2.0000     -10.805343      -294.0283
   2   2.0000     -10.725002      -291.8421
   3   2.0000      -1.316740       -35.8303
   4   2.0000      -1.054886       -28.7049
   5   2.0000      -0.926230       -25.2040
   6   2.0000      -0.892278       -24.2801
   7   2.0000      -0.842498       -22.9255
   8   2.0000      -0.769145       -20.9295
   9   2.0000      -0.711675       -19.3657
  10   2.0000      -0.644573       -17.5397
  11   2.0000      -0.629676       -17.1344
  12   2.0000      -0.612440       -16.6653
  13   0.0000      -0.149008        -4.0547
  14   0.0000      -0.088794        -2.4162
  15   0.0000      -0.085400        -2.3238
  16   0.0000      -0.050810        -1.3826
  17   0.0000      -0.009654        -0.2627

MULLIKEN ATOMIC CHARGES
-----------------------
   0 C :   -0.077505
   1 H :    0.125898
   2 N :   -0.046135
   3 C :   -0.072887
   4 H :    0.116571
   5 H :    0.239693
   6 H :    0.216041
   7 H :    0.224814
   8 H :    0.115292
   9 H :    0.077950
  10 H :    0.080269
Sum of atomic charges:    1.0000000

LOEWDIN ATOMIC CHARGES
----------------------
   0 C :    0.048095
   1 H :    0.059137
   2 N :    0.277666
   3 C :   -0.043292
   4 H :    0.055596
   5 H :    0.151776
   6 H :    0.148036
   7 H :    0.153620
   8 H :    0.065710
   9 H :    0.041150
  10 H :    0.042505

  Mayer bond orders larger than 0.100000
B(  0-C ,  1-H ) :   0.9499 B(  0-C ,  2-N ) :   0.9039 B(  0-C ,  3-C ) :   1.0891
B(  0-C ,  4-H ) :   0.9532 B(  2-N ,  5-H ) :   0.9246 B(  2-N ,  6-H ) :   0.9264
B(  2-N ,  7-H ) :   0.9279 B(  3-C ,  8-H ) :   0.9585 B(  3-C ,  9-H ) :   0.9669
B(  3-C , 10-H ) :   0.9704

Dispersion correction           -0.000055245
FINAL SINGLE POINT ENERGY      -135.345200955618

DIPOLE MOMENT
-------------
                                X             Y             Z
Electronic contribution:     -1.35604       0.58131       1.13877
Nuclear contribution   :      0.33986      -0.24565       0.10678
                        -----------------------------------------
Total Dipole Moment    :     -1.01618       0.33566       1.24555
                        -----------------------------------------
Magnitude (a.u.)       :      1.64216
Magnitude (Debye)      :      4.17403

Rotational constants in cm-1:     1.016237     0.277523     0.247812
Rotational constants in MHz : 30466.024354  8319.937961  7429.230177

                             ****ORCA TERMINATED NORMALLY****
TOTAL RUN TIME: 0 days 0 hours 0 minutes 10 seconds 183 msec
