                         Program Version 5.0.0 -  RELEASE  -
|  1> !M062X D3Zero RIJCOSX def2-SVP def2/J TightSCF
|  2> *xyz 0 1
|  3> C         -2.79070       -0.78527        5.70281
|  4> C         -2.45380        0.05510        6.94145
|  5> C         -2.07842        1.48042        6.56410
|  6> H         -1.62558       -0.38216        7.49891
|  7> H         -3.32527        0.08775        7.59917
|  8> F         -0.90125        1.85816        6.82810
|  9> O         -2.93658        2.17731        5.96415
| 10> H         -1.94052       -0.82114        5.05412
| 11> H         -3.61590       -0.34261        5.18514
| 12> H         -3.05063       -1.77815        6.00536
| 13> *
| 14> %MaxCore 64000
| 15>
| 16> %pal nprocs 4
| 17> end
| 18>
| 19> %scf
| 20>   MaxIter 150
| 21> end
| 22>
| 23>
| 24>                          ****END OF INPUT****

CARTESIAN COORDINATES (ANGSTROEM)
---------------------------------
  C     -2.790700   -0.785270    5.702810
  C     -2.453800    0.055100    6.941450
  C     -2.078420    1.480420    6.564100
  H     -1.625580   -0.382160    7.498910
  H     -3.325270    0.087750    7.599170
  F     -0.901250    1.858160    6.828100
  O     -2.936580    2.177310    5.964150
  H     -1.940520   -0.821140    5.054120
  H     -3.615900   -0.342610    5.185140
  H     -3.050630   -1.778150    6.005360

 Total Charge           Charge          ....    0
 Multiplicity           Mult            ....    1
 Number of Electrons    NEL             ....   40
 Basis Dimension        Dim             ....   95

ORBITAL ENERGIES
----------------

  NO   OCC          E(Eh)            E(eV)
   0   2.0000     -25.310127      -688.7236
   1   2.0000     -19.635953      -534.3214
   2   2.0000     -10.727302      -291.9047
   3   2.0000     -10.579938      -287.8948
   4   2.0000     -10.557907      -287.2952
   5   2.0000      -1.429148       -38.8891
   6   2.0000      -1.134242       -30.8643
   7   2.0000      -0.891191       -24.2505
   8   2.0000      -0.774178       -21.0665
   9   2.0000      -0.720391       -19.6028
  10   2.0000      -0.632691       -17.2164
  11   2.0000      -0.619010       -16.8441
  12   2.0000      -0.584947       -15.9172
  13   2.0000      -0.535047       -14.5594
  14   2.0000      -0.505316       -13.7504
  15   2.0000      -0.464900       -12.6506
  16   2.0000      -0.446150       -12.1404
  17   2.0000      -0.437627       -11.9084
  18   2.0000      -0.407796       -11.0967
  19   2.0000      -0.364099        -9.9076
  20   0.0000       0.022215         0.6045
  21   0.0000       0.099085         2.6962
  22   0.0000       0.143650         3.9089
  23   0.0000       0.147765         4.0209
  24   0.0000       0.167190         4.5495

MULLIKEN ATOMIC CHARGES
-----------------------
   0 C :   -0.058002
   1 C :   -0.129850
   2 C :    0.294062
   3 H :    0.051110
   4 H :    0.084632
   5 F :   -0.114434
   6 O :   -0.290924
   7 H :    0.046340
   8 H :    0.066861
   9 H :    0.050204
Sum of atomic charges:   -0.0000000

LOEWDIN ATOMIC CHARGES
----------------------
   0 C :   -0.040610
   1 C :   -0.077603
   2 C :    0.129821
   3 H :    0.031515
   4 H :    0.053469
   5 F :    0.018870
   6 O :   -0.209304
   7 H :    0.028396
   8 H :    0.034722
   9 H :    0.030726

  Mayer bond orders larger than 0.100000
B(  0-C ,  1-C ) :   1.0812 B(  0-C ,  7-H ) :   0.9776 B(  0-C ,  8-H ) :   0.9713
B(  0-C ,  9-H ) :   0.9721 B(  1-C ,  2-C ) :   0.9951 B(  1-C ,  3-H ) :   0.9414
B(  1-C ,  4-H ) :   0.9349 B(  2-C ,  5-F ) :   1.1560 B(  2-C ,  6-O ) :   2.0575

Dispersion correction           -0.000089563
FINAL SINGLE POINT ENERGY      -292.046641479865

DIPOLE MOMENT
-------------
                                X             Y             Z
Electronic contribution:      3.94613       7.46035       1.47184
Nuclear contribution   :     -3.69486      -8.49563      -1.04945
                        -----------------------------------------
Total Dipole Moment    :      0.25127      -1.03529       0.42239
                        -----------------------------------------
Magnitude (a.u.)       :      1.14602
Magnitude (Debye)      :      2.91296

Rotational constants in cm-1:     0.293725     0.129218     0.102393
Rotational constants in MHz :  8805.653529  3873.869810  3069.666716

                             ****ORCA TERMINATED NORMALLY****
TOTAL RUN TIME: 0 days 0 hours 0 minutes 12 seconds 126 msec
