                         Program Version 5.0.0 -  RELEASE  -
|  1> !M062X D3Zero RIJCOSX def2-SVP def2/J TightSCF
|  2> *xyz 0 1
|  3> C         -0.69912        3.48945        3.75516
|  4> H         -0.96672        4.34901        3.14049
|  5> C         -1.08067        3.79296        5.15686
|  6> C          0.77696        3.13839        3.61741
|  7> H         -1.33146        2.65651        3.44632
|  8> H         -0.87449        4.76274        5.42734
|  9> H         -0.68079        3.13476        5.83900
| 10> H         -2.05755        3.53169        5.34620
| 11> H          0.99957        2.92898        2.59199
| 12> H          0.99576        2.27685        4.21303
| 13> H          1.37223        3.96279        3.95046
| 14> *
| 15> %MaxCore 64000
| 16>
| 17> %pal nprocs 4
| 18> end
| 19>
| 20> %scf
| 21>   MaxIter 150
| 22> end
| 23>
| 24>
| 25>                          ****END OF INPUT****

CARTESIAN COORDINATES (ANGSTROEM)
---------------------------------
  C     -0.699120    3.489450    3.755160
  H     -0.966720    4.349010    3.140490
  C     -1.080670    3.792960    5.156860
  C      0.776960    3.138390    3.617410
  H     -1.331460    2.656510    3.446320
  H     -0.874490    4.762740    5.427340
  H     -0.680790    3.134760    5.839000
  H     -2.057550    3.531690    5.346200
  H      0.999570    2.928980    2.591990
  H      0.995760    2.276850    4.213030
  H      1.372230    3.962790    3.950460

 Total Charge           Charge          ....    0
 Multiplicity           Mult            ....    1
 Number of Electrons    NEL             ....   26
 Basis Dimension        Dim             ....   82

ORBITAL ENERGIES
----------------

  NO   OCC          E(Eh)            E(eV)
   0   2.0000     -10.535156      -286.6762
   1   2.0000     -10.528247      -286.4882
   2   2.0000     -10.511364      -286.0287
   3   2.0000      -0.880127       -23.9495
   4   2.0000      -0.773919       -21.0594
   5   2.0000      -0.663130       -18.0447
   6   2.0000      -0.540753       -14.7146
   7   2.0000      -0.505741       -13.7619
   8   2.0000      -0.463854       -12.6221
   9   2.0000      -0.459170       -12.4946
  10   2.0000      -0.398873       -10.8539
  11   2.0000      -0.387610       -10.5474
  12   2.0000      -0.383174       -10.4267
  13   0.0000       0.102403         2.7865
  14   0.0000       0.150416         4.0930
  15   0.0000       0.154915         4.2155
  16   0.0000       0.156550         4.2599
  17   0.0000       0.186163         5.0657

MULLIKEN ATOMIC CHARGES
-----------------------
   0 C :   -0.143191
   1 H :    0.034018
   2 C :    0.011478
   3 C :   -0.047231
   4 H :    0.028621
   5 H :    0.024128
   6 H :   -0.003990
   7 H :    0.001741
   8 H :    0.032773
   9 H :    0.030578
  10 H :    0.031075
Sum of atomic charges:    0.0000000

LOEWDIN ATOMIC CHARGES
----------------------
   0 C :   -0.049133
   1 H :    0.022968
   2 C :   -0.057009
   3 C :   -0.057908
   4 H :    0.022143
   5 H :    0.015985
   6 H :    0.016839
   7 H :    0.020474
   8 H :    0.022241
   9 H :    0.021564
  10 H :    0.021836

  Mayer bond orders larger than 0.100000
B(  0-C ,  1-H ) :   0.9592 B(  0-C ,  2-C ) :   1.0971 B(  0-C ,  3-C ) :   1.0910
B(  0-C ,  4-H ) :   0.9607 B(  2-C ,  5-H ) :   0.9754 B(  2-C ,  6-H ) :   0.9640
B(  2-C ,  7-H ) :   0.9626 B(  3-C ,  8-H ) :   0.9732 B(  3-C ,  9-H ) :   0.9750
B(  3-C , 10-H ) :   0.9776

Dispersion correction           -0.000053822
FINAL SINGLE POINT ENERGY      -118.952225199112

DIPOLE MOMENT
-------------
                                X             Y             Z
Electronic contribution:     -0.13426       0.11842      -0.39140
Nuclear contribution   :      0.10024      -0.14218       0.41628
                        -----------------------------------------
Total Dipole Moment    :     -0.03402      -0.02376       0.02488
                        -----------------------------------------
Magnitude (a.u.)       :      0.04838
Magnitude (Debye)      :      0.12298

Rotational constants in cm-1:     1.024179     0.291605     0.259489
Rotational constants in MHz : 30704.103454  8742.106283  7779.285909

                             ****ORCA TERMINATED NORMALLY****
TOTAL RUN TIME: 0 days 0 hours 0 minutes 9 seconds 556 msec
