                         Program Version 5.0.0 -  RELEASE  -
|  1> !M062X D3Zero RIJCOSX def2-SVP def2/J TightSCF
|  2> *xyz 0 1
|  3> C         -2.79070       -0.78527        5.70281
|  4> C         -2.45380        0.05510        6.94145
|  5> C         -2.07842        1.48042        6.56410
|  6> H         -1.62558       -0.38216        7.49891
|  7> H         -3.32527        0.08775        7.59917
|  8> O         -0.90125        1.85816        6.82810
|  9> F         -2.93658        2.17731        5.96415
| 10> H         -1.94052       -0.82114        5.05412
| 11> H         -3.61590       -0.34261        5.18514
| 12> H         -3.05063       -1.77815        6.00536
| 13> *
| 14> %MaxCore 64000
| 15>
| 16> %pal nprocs 4
| 17> end
| 18>
| 19> %scf
| 20>   MaxIter 150
| 21> end
| 22>
| 23>
| 24>                          ****END OF INPUT****

CARTESIAN COORDINATES (ANGSTROEM)
---------------------------------
  C     -2.790700   -0.785270    5.702810
  C     -2.453800    0.055100    6.941450
  C     -2.078420    1.480420    6.564100
  H     -1.625580   -0.382160    7.498910
  H     -3.325270    0.087750    7.599170
  O     -0.901250    1.858160    6.828100
  F     -2.936580    2.177310    5.964150
  H     -1.940520   -0.821140    5.054120
  H     -3.615900   -0.342610    5.185140
  H     -3.050630   -1.778150    6.005360

 Total Charge           Charge          ....    0
 Multiplicity           Mult            ....    1
 Number of Electrons    NEL             ....   40
 Basis Dimension        Dim             ....   95

ORBITAL ENERGIES
----------------

  NO   OCC          E(Eh)            E(eV)
   0   2.0000     -25.314061      -688.8306
   1   2.0000     -19.633649      -534.2587
   2   2.0000     -10.726678      -291.8878
   3   2.0000     -10.579287      -287.8770
   4   2.0000     -10.561670      -287.3976
   5   2.0000      -1.435001       -39.0484
   6   2.0000      -1.128889       -30.7186
   7   2.0000      -0.894317       -24.3356
   8   2.0000      -0.771918       -21.0050
   9   2.0000      -0.727239       -19.7892
  10   2.0000      -0.637463       -17.3462
  11   2.0000      -0.626648       -17.0520
  12   2.0000      -0.577603       -15.7174
  13   2.0000      -0.535408       -14.5692
  14   2.0000      -0.505909       -13.7665
  15   2.0000      -0.467719       -12.7273
  16   2.0000      -0.449920       -12.2429
  17   2.0000      -0.439837       -11.9686
  18   2.0000      -0.408573       -11.1178
  19   2.0000      -0.357848        -9.7376
  20   0.0000       0.026020         0.7080
  21   0.0000       0.095267         2.5923
  22   0.0000       0.141430         3.8485
  23   0.0000       0.149377         4.0648
  24   0.0000       0.170204         4.6315

MULLIKEN ATOMIC CHARGES
-----------------------
   0 C :   -0.077614
   1 C :   -0.122067
   2 C :    0.291925
   3 H :    0.076460
   4 H :    0.067877
   5 O :   -0.291222
   6 F :   -0.110068
   7 H :    0.057224
   8 H :    0.051942
   9 H :    0.055543
Sum of atomic charges:    0.0000000

LOEWDIN ATOMIC CHARGES
----------------------
   0 C :   -0.049245
   1 C :   -0.073288
   2 C :    0.126813
   3 H :    0.047916
   4 H :    0.042279
   5 O :   -0.212117
   6 F :    0.025771
   7 H :    0.031090
   8 H :    0.027658
   9 H :    0.033123

  Mayer bond orders larger than 0.100000
B(  0-C ,  1-C ) :   1.0655 B(  0-C ,  7-H ) :   0.9762 B(  0-C ,  8-H ) :   0.9743
B(  0-C ,  9-H ) :   0.9713 B(  1-C ,  2-C ) :   1.0080 B(  1-C ,  3-H ) :   0.9512
B(  1-C ,  4-H ) :   0.9328 B(  2-C ,  5-O ) :   2.0629 B(  2-C ,  6-F ) :   1.1536

Dispersion correction           -0.000092382
FINAL SINGLE POINT ENERGY      -292.043972621919

DIPOLE MOMENT
-------------
                                X             Y             Z
Electronic contribution:      0.61861       7.97269       0.05581
Nuclear contribution   :     -1.47571      -8.84360      -0.10748
                        -----------------------------------------
Total Dipole Moment    :     -0.85710      -0.87091      -0.05167
                        -----------------------------------------
Magnitude (a.u.)       :      1.22302
Magnitude (Debye)      :      3.10867

Rotational constants in cm-1:     0.283081     0.133379     0.103386
Rotational constants in MHz :  8486.545774  3998.599544  3099.448040

                             ****ORCA TERMINATED NORMALLY****
TOTAL RUN TIME: 0 days 0 hours 0 minutes 12 seconds 246 msec
