                         Program Version 5.0.0 -  RELEASE  -
|  1> !M062X D3Zero RIJCOSX def2-TZVP def2/J TightSCF xyzfile
|  2>
|  3> *xyzfile 0 1 D2.xyz
|  4>
|  5> %MaxCore 64000
|  6>
|  7> %pal nprocs 18
|  8> end
|  9>
| 10> %scf
| 11>   MaxIter 150
| 12> end
| 13>
| 14>
| 15>                          ****END OF INPUT****

CARTESIAN COORDINATES (ANGSTROEM)
---------------------------------
  C     -0.699123    3.489451    3.755163
  H     -0.966716    4.349013    3.140491
  C     -1.080669    3.792957    5.156857
  C      0.776956    3.138391    3.617408
  H     -1.331455    2.656510    3.446323
  H      1.371398    3.888342    4.149744
  H      1.046926    3.232057    2.561331
  C      1.118917    1.731170    4.115155
  H      2.200573    1.654226    4.254882
  C      0.659466    0.635182    3.153306
  H      0.677024    1.576674    5.103150
  H      1.312288    0.638870    2.274207
  H     -0.339563    0.868049    2.772876
  C      0.639957   -0.771175    3.755619
  C     -0.341821   -0.965537    4.915046
  H      1.648266   -1.028665    4.097015
  H      0.398568   -1.482386    2.958453
  H     -0.279892   -2.005646    5.252547
  C     -1.789164   -0.639231    4.557496
  H     -0.032380   -0.352918    5.765118
  H     -2.107151   -1.270102    3.719619
  H     -1.856352    0.391636    4.197604
  C     -2.790700   -0.785275    5.702812
  H     -2.867308   -1.835651    6.001675
  H     -3.774554   -0.486577    5.334807
  C     -2.453797    0.055101    6.941445
  C     -2.078419    1.480421    6.564098
  H     -1.625584   -0.382163    7.498914
  H     -3.325274    0.087746    7.599175
  H     -0.874488    4.762737    5.427344
  H     -0.680793    3.134762    5.839000
  H     -2.057550    3.531691    5.346197
  O     -0.901252    1.858156    6.828104
  F     -2.936582    2.177309    5.964151

 Total Charge           Charge          ....    0
 Multiplicity           Mult            ....    1
 Number of Electrons    NEL             ....  104
 Basis Dimension        Dim             ....  529

ORBITAL ENERGIES
----------------

  NO   OCC          E(Eh)            E(eV)
   0   2.0000     -25.326273      -689.1629
   1   2.0000     -19.641574      -534.4744
   2   2.0000     -10.733012      -292.0601
   3   2.0000     -10.570904      -287.6489
   4   2.0000     -10.555968      -287.2425
   5   2.0000     -10.540002      -286.8080
   6   2.0000     -10.529124      -286.5120
   7   2.0000     -10.525057      -286.4014
   8   2.0000     -10.517694      -286.2010
   9   2.0000     -10.511020      -286.0194
  10   2.0000     -10.508377      -285.9475
  11   2.0000     -10.501615      -285.7635
  12   2.0000     -10.446631      -284.2673
  13   2.0000      -1.479421       -40.2571
  14   2.0000      -1.169764       -31.8309
  15   2.0000      -0.934464       -25.4281
  16   2.0000      -0.905301       -24.6345
  17   2.0000      -0.874674       -23.8011
  18   2.0000      -0.845410       -23.0048
  19   2.0000      -0.799775       -21.7630
  20   2.0000      -0.777723       -21.1629
  21   2.0000      -0.752896       -20.4873
  22   2.0000      -0.709218       -19.2988
  23   2.0000      -0.695208       -18.9176
  24   2.0000      -0.658801       -17.9269
  25   2.0000      -0.653229       -17.7753
  26   2.0000      -0.645260       -17.5584
  27   2.0000      -0.619989       -16.8708
  28   2.0000      -0.597321       -16.2539
  29   2.0000      -0.556029       -15.1303
  30   2.0000      -0.549271       -14.9464
  31   2.0000      -0.529991       -14.4218
  32   2.0000      -0.522930       -14.2297
  33   2.0000      -0.499179       -13.5834
  34   2.0000      -0.494174       -13.4471
  35   2.0000      -0.490340       -13.3428
  36   2.0000      -0.473684       -12.8896
  37   2.0000      -0.467907       -12.7324
  38   2.0000      -0.455237       -12.3876
  39   2.0000      -0.441145       -12.0042
  40   2.0000      -0.438540       -11.9333
  41   2.0000      -0.430395       -11.7116
  42   2.0000      -0.414107       -11.2684
  43   2.0000      -0.404101       -10.9961
  44   2.0000      -0.398612       -10.8468
  45   2.0000      -0.388346       -10.5674
  46   2.0000      -0.380221       -10.3463
  47   2.0000      -0.370017       -10.0687
  48   2.0000      -0.363644        -9.8953
  49   2.0000      -0.352727        -9.5982
  50   2.0000      -0.352472        -9.5912
  51   2.0000      -0.324097        -8.8191
  52   0.0000       0.002623         0.0714
  53   0.0000       0.055488         1.5099
  54   0.0000       0.078134         2.1261
  55   0.0000       0.078630         2.1396
  56   0.0000       0.089749         2.4422

MULLIKEN ATOMIC CHARGES
-----------------------
   0 C :   -0.253014
   1 H :    0.124823
   2 C :   -0.535435
   3 C :   -0.239002
   4 H :    0.124360
   5 H :    0.141855
   6 H :    0.131322
   7 C :   -0.315909
   8 H :    0.139746
   9 C :   -0.322811
  10 H :    0.167959
  11 H :    0.145878
  12 H :    0.161085
  13 C :   -0.266828
  14 C :   -0.341429
  15 H :    0.147328
  16 H :    0.145618
  17 H :    0.148055
  18 C :   -0.287869
  19 H :    0.185015
  20 H :    0.159677
  21 H :    0.140799
  22 C :   -0.290688
  23 H :    0.157764
  24 H :    0.162675
  25 C :   -0.333073
  26 C :    0.429300
  27 H :    0.191860
  28 H :    0.173091
  29 H :    0.134543
  30 H :    0.221067
  31 H :    0.132589
  32 O :   -0.362667
  33 F :   -0.117684
Sum of atomic charges:    0.0000000

LOEWDIN ATOMIC CHARGES
----------------------
   0 C :   -0.308987
   1 H :    0.132959
   2 C :   -0.332921
   3 C :   -0.269741
   4 H :    0.128132
   5 H :    0.138099
   6 H :    0.134331
   7 C :   -0.268076
   8 H :    0.136214
   9 C :   -0.275298
  10 H :    0.140980
  11 H :    0.137501
  12 H :    0.134058
  13 C :   -0.271656
  14 C :   -0.272901
  15 H :    0.139279
  16 H :    0.137232
  17 H :    0.138333
  18 C :   -0.271472
  19 H :    0.140452
  20 H :    0.143328
  21 H :    0.137543
  22 C :   -0.264060
  23 H :    0.143991
  24 H :    0.143013
  25 C :   -0.229087
  26 C :   -0.466027
  27 H :    0.157337
  28 H :    0.153317
  29 H :    0.102035
  30 H :    0.106616
  31 H :    0.104418
  32 O :    0.070540
  33 F :    0.330521

  Mayer bond orders larger than 0.100000
B(  0-C ,  1-H ) :   0.9889 B(  0-C ,  2-C ) :   0.8573 B(  0-C ,  3-C ) :   0.9084
B(  0-C ,  4-H ) :   1.0129 B(  2-C , 29-H ) :   0.9748 B(  2-C , 30-H ) :   0.9624
B(  2-C , 31-H ) :   0.9897 B(  3-C ,  5-H ) :   0.9814 B(  3-C ,  6-H ) :   0.9863
B(  3-C ,  7-C ) :   0.9221 B(  7-C ,  8-H ) :   0.9787 B(  7-C ,  9-C ) :   0.8719
B(  7-C , 10-H ) :   0.9957 B(  9-C , 11-H ) :   0.9776 B(  9-C , 12-H ) :   0.9974
B(  9-C , 13-C ) :   0.9108 B( 13-C , 14-C ) :   0.9264 B( 13-C , 15-H ) :   0.9887
B( 13-C , 16-H ) :   0.9910 B( 14-C , 17-H ) :   0.9778 B( 14-C , 18-C ) :   0.8582
B( 14-C , 19-H ) :   0.9812 B( 18-C , 20-H ) :   0.9763 B( 18-C , 21-H ) :   0.9808
B( 18-C , 22-C ) :   0.9148 B( 22-C , 23-H ) :   0.9782 B( 22-C , 24-H ) :   0.9869
B( 22-C , 25-C ) :   0.8891 B( 25-C , 26-C ) :   0.9593 B( 25-C , 27-H ) :   0.9837
B( 25-C , 28-H ) :   0.9600 B( 26-C , 32-O ) :   1.9428 B( 26-C , 33-F ) :   1.1003

Dispersion correction           -0.002042385
FINAL SINGLE POINT ENERGY      -606.792851392906

DIPOLE MOMENT
-------------
                                X             Y             Z
Electronic contribution:     -8.94690       2.99726       9.45562
Nuclear contribution   :      8.07181      -4.09641      -9.21610
                        -----------------------------------------
Total Dipole Moment    :     -0.87509      -1.09915       0.23952
                        -----------------------------------------
Magnitude (a.u.)       :      1.42523
Magnitude (Debye)      :      3.62265

Rotational constants in cm-1:     0.028400     0.023377     0.015073
Rotational constants in MHz :   851.414727   700.831775   451.871218

                             ****ORCA TERMINATED NORMALLY****
TOTAL RUN TIME: 0 days 0 hours 0 minutes 54 seconds 859 msec
