                         Program Version 5.0.0 -  RELEASE  -
|  1> !wB97X-D3 RIJCOSX def2-SVPD def2/J TightSCF CPCM(Water)
|  2> *xyz -1 1
|  3> C         -0.81136       -2.90878       -4.60763
|  4> C         -1.91658       -2.48508       -3.64367
|  5> H         -2.55452       -1.71243       -4.09199
|  6> C         -1.36353       -1.98134       -2.29361
|  7> H         -2.55345       -3.35567       -3.45881
|  8> O         -0.35039       -2.74969       -1.79601
|  9> H         -2.22622       -1.90839       -1.60204
| 10> H         -1.05135       -0.91567       -2.44333
| 11> H         -1.24783       -3.24801       -5.52377
| 12> H         -0.24047       -3.70079       -4.16978
| 13> H         -0.17107       -2.07453       -4.80501
| 14> *
| 15>
| 16> %MaxCore 64000
| 17> %pal nprocs 18
| 18> end
| 19>
| 20> %scf
| 21>   MaxIter 150
| 22> end
| 23>
| 24>
| 25>                          ****END OF INPUT****

CARTESIAN COORDINATES (ANGSTROEM)
---------------------------------
  C     -0.811360   -2.908780   -4.607630
  C     -1.916580   -2.485080   -3.643670
  H     -2.554520   -1.712430   -4.091990
  C     -1.363530   -1.981340   -2.293610
  H     -2.553450   -3.355670   -3.458810
  O     -0.350390   -2.749690   -1.796010
  H     -2.226220   -1.908390   -1.602040
  H     -1.051350   -0.915670   -2.443330
  H     -1.247830   -3.248010   -5.523770
  H     -0.240470   -3.700790   -4.169780
  H     -0.171070   -2.074530   -4.805010

 Total Charge           Charge          ....   -1
 Multiplicity           Mult            ....    1
 Number of Electrons    NEL             ....   34
 Basis Dimension        Dim             ....  139

ORBITAL ENERGIES
----------------

  NO   OCC          E(Eh)            E(eV)
   0   2.0000     -19.117992      -520.2270
   1   2.0000     -10.284839      -279.8647
   2   2.0000     -10.255235      -279.0591
   3   2.0000     -10.252404      -278.9821
   4   2.0000      -0.989690       -26.9308
   5   2.0000      -0.849107       -23.1054
   6   2.0000      -0.736502       -20.0413
   7   2.0000      -0.634766       -17.2729
   8   2.0000      -0.537155       -14.6167
   9   2.0000      -0.525210       -14.2917
  10   2.0000      -0.477672       -12.9981
  11   2.0000      -0.452748       -12.3199
  12   2.0000      -0.421084       -11.4583
  13   2.0000      -0.409163       -11.1339
  14   2.0000      -0.399007       -10.8575
  15   2.0000      -0.269737        -7.3399
  16   2.0000      -0.268040        -7.2937
  17   0.0000       0.102887         2.7997
  18   0.0000       0.127172         3.4605
  19   0.0000       0.135628         3.6906
  20   0.0000       0.147398         4.0109
  21   0.0000       0.172126         4.6838

MULLIKEN ATOMIC CHARGES
-----------------------
   0 C :    0.623735
   1 C :   -0.439571
   2 H :   -0.085266
   3 C :    0.413727
   4 H :   -0.077665
   5 O :   -0.944476
   6 H :   -0.169489
   7 H :   -0.118189
   8 H :   -0.066555
   9 H :   -0.065909
  10 H :   -0.070342
Sum of atomic charges:   -1.0000000

LOEWDIN ATOMIC CHARGES
----------------------
   0 C :    0.088881
   1 C :   -0.103521
   2 H :    0.010174
   3 C :   -0.228709
   4 H :    0.006279
   5 O :   -0.651838
   6 H :   -0.019045
   7 H :   -0.011400
   8 H :   -0.027150
   9 H :   -0.042085
  10 H :   -0.021587

  Mayer bond orders larger than 0.100000
B(  0-C ,  1-C ) :   1.2682 B(  0-C ,  8-H ) :   0.8208 B(  0-C ,  9-H ) :   0.8230
B(  0-C , 10-H ) :   0.8186 B(  1-C ,  2-H ) :   0.9767 B(  1-C ,  3-C ) :   1.0948
B(  1-C ,  4-H ) :   0.9367 B(  1-C ,  6-H ) :   0.1144 B(  1-C ,  7-H ) :   0.1157
B(  1-C ,  8-H ) :   0.1817 B(  1-C ,  9-H ) :   0.1930 B(  1-C , 10-H ) :   0.1829
B(  3-C ,  5-O ) :   1.2770 B(  3-C ,  6-H ) :   0.9366 B(  3-C ,  7-H ) :   0.9222

Dispersion correction           -0.001934106
FINAL SINGLE POINT ENERGY      -193.666490070907

DIPOLE MOMENT
-------------
                                X             Y             Z
Electronic contribution:      0.69718      -0.26920       1.86716
Nuclear contribution   :     -2.20255       0.75707      -4.26861
                        -----------------------------------------
Total Dipole Moment    :     -1.50538       0.48787      -2.40146
                        -----------------------------------------
Magnitude (a.u.)       :      2.87596
Magnitude (Debye)      :      7.31012

Rotational constants in cm-1:     0.480704     0.187939     0.150770
Rotational constants in MHz : 14411.155440  5634.276828  4519.982802

                             ****ORCA TERMINATED NORMALLY****
TOTAL RUN TIME: 0 days 0 hours 0 minutes 7 seconds 880 msec
