                         Program Version 5.0.0 -  RELEASE  -
|  1> !wB97X-D3 RIJCOSX def2-SVPD def2/J TightSCF CPCM(Water)
|  2> *xyz 1 1
|  3> C          1.64703       -2.34528       -5.02041
|  4> C          0.21763       -1.81402       -4.92439
|  5> C          2.20996       -2.81239       -3.66571
|  6> H          2.30838       -1.58870       -5.45713
|  7> H          1.67429       -3.20348       -5.69739
|  8> C          2.48901       -1.66851       -2.73754
|  9> N          3.59631       -0.94761       -2.95225
| 10> N          1.66394       -1.41369       -1.77781
| 11> H          0.81164       -1.96318       -1.70275
| 12> H          1.84550       -0.63508       -1.15875
| 13> H          4.20535       -1.17600       -3.73383
| 14> H          3.81723       -0.12585       -2.40604
| 15> H          3.14311       -3.36280       -3.81152
| 16> H          1.48768       -3.45893       -3.16521
| 17> H         -0.11459       -1.50684       -5.89401
| 18> H          0.19193       -0.97796       -4.25713
| 19> H         -0.42543       -2.58523       -4.55479
| 20> *
| 21>
| 22> %MaxCore 64000
| 23> %pal nprocs 18
| 24> end
| 25>
| 26> %scf
| 27>   MaxIter 150
| 28> end
| 29>
| 30>
| 31>                          ****END OF INPUT****

CARTESIAN COORDINATES (ANGSTROEM)
---------------------------------
  C      1.647030   -2.345280   -5.020410
  C      0.217630   -1.814020   -4.924390
  C      2.209960   -2.812390   -3.665710
  H      2.308380   -1.588700   -5.457130
  H      1.674290   -3.203480   -5.697390
  C      2.489010   -1.668510   -2.737540
  N      3.596310   -0.947610   -2.952250
  N      1.663940   -1.413690   -1.777810
  H      0.811640   -1.963180   -1.702750
  H      1.845500   -0.635080   -1.158750
  H      4.205350   -1.176000   -3.733830
  H      3.817230   -0.125850   -2.406040
  H      3.143110   -3.362800   -3.811520
  H      1.487680   -3.458930   -3.165210
  H     -0.114590   -1.506840   -5.894010
  H      0.191930   -0.977960   -4.257130
  H     -0.425430   -2.585230   -4.554790

 Total Charge           Charge          ....    1
 Multiplicity           Mult            ....    1
 Number of Electrons    NEL             ....   48
 Basis Dimension        Dim             ....  208

ORBITAL ENERGIES
----------------

  NO   OCC          E(Eh)            E(eV)
   0   2.0000     -14.503379      -394.6570
   1   2.0000     -14.494586      -394.4177
   2   2.0000     -10.434593      -283.9397
   3   2.0000     -10.318192      -280.7723
   4   2.0000     -10.301431      -280.3162
   5   2.0000     -10.275081      -279.5992
   6   2.0000      -1.132267       -30.8106
   7   2.0000      -1.032152       -28.0863
   8   2.0000      -0.923433       -25.1279
   9   2.0000      -0.838388       -22.8137
  10   2.0000      -0.762818       -20.7573
  11   2.0000      -0.724796       -19.7227
  12   2.0000      -0.692504       -18.8440
  13   2.0000      -0.670252       -18.2385
  14   2.0000      -0.617630       -16.8066
  15   2.0000      -0.589061       -16.0292
  16   2.0000      -0.565656       -15.3923
  17   2.0000      -0.531744       -14.4695
  18   2.0000      -0.514908       -14.0114
  19   2.0000      -0.502696       -13.6790
  20   2.0000      -0.447051       -12.1649
  21   2.0000      -0.446083       -12.1385
  22   2.0000      -0.439680       -11.9643
  23   2.0000      -0.402730       -10.9588
  24   0.0000       0.049815         1.3555
  25   0.0000       0.089464         2.4344
  26   0.0000       0.117156         3.1880
  27   0.0000       0.121068         3.2944
  28   0.0000       0.130870         3.5611

MULLIKEN ATOMIC CHARGES
-----------------------
   0 C :   -0.379362
   1 C :    0.620468
   2 C :   -0.067950
   3 H :    0.005365
   4 H :   -0.013348
   5 C :    0.662711
   6 N :   -0.080242
   7 N :   -0.042972
   8 H :    0.149326
   9 H :   -0.013671
  10 H :    0.105944
  11 H :   -0.060001
  12 H :    0.041526
  13 H :    0.123488
  14 H :   -0.031206
  15 H :   -0.075508
  16 H :    0.055432
Sum of atomic charges:    1.0000000

LOEWDIN ATOMIC CHARGES
----------------------
   0 C :   -0.049620
   1 C :    0.125446
   2 C :    0.045375
   3 H :    0.027234
   4 H :    0.030885
   5 C :   -0.042533
   6 N :    0.282620
   7 N :    0.293921
   8 H :    0.067287
   9 H :    0.065847
  10 H :    0.056049
  11 H :    0.051451
  12 H :    0.047679
  13 H :    0.040058
  14 H :   -0.012085
  15 H :   -0.020813
  16 H :   -0.008801

  Mayer bond orders larger than 0.100000
B(  0-C ,  1-C ) :   1.3063 B(  0-C ,  2-C ) :   1.1686 B(  0-C ,  3-H ) :   0.9349
B(  0-C ,  4-H ) :   0.9818 B(  0-C , 13-H ) :   0.1062 B(  0-C , 14-H ) :   0.1965
B(  0-C , 15-H ) :   0.2091 B(  0-C , 16-H ) :   0.1838 B(  1-C , 14-H ) :   0.8071
B(  1-C , 15-H ) :   0.8342 B(  1-C , 16-H ) :   0.7979 B(  2-C ,  3-H ) :   0.1266
B(  2-C ,  5-C ) :   1.1133 B(  2-C ,  6-N ) :   0.1017 B(  2-C , 12-H ) :   0.9248
B(  2-C , 13-H ) :   0.8462 B(  5-C ,  6-N ) :   1.0813 B(  5-C ,  7-N ) :   1.1166
B(  5-C ,  9-H ) :  -0.1420 B(  5-C , 11-H ) :  -0.1369 B(  5-C , 13-H ) :   0.1206
B(  6-N ,  7-N ) :   0.1515 B(  6-N , 10-H ) :   1.0669 B(  6-N , 11-H ) :   1.2779
B(  7-N ,  8-H ) :   1.0250 B(  7-N ,  9-H ) :   1.2778 B(  8-H ,  9-H ) :  -0.1589
B( 10-H , 11-H ) :  -0.1660

Dispersion correction           -0.004634589
FINAL SINGLE POINT ENERGY      -268.199296001130

DIPOLE MOMENT
-------------
                                X             Y             Z
Electronic contribution:      3.46089       1.43364       4.75577
Nuclear contribution   :     -2.54148      -0.64126      -3.14660
                        -----------------------------------------
Total Dipole Moment    :      0.91941       0.79238       1.60917
                        -----------------------------------------
Magnitude (a.u.)       :      2.01559
Magnitude (Debye)      :      5.12321

Rotational constants in cm-1:     0.179759     0.078784     0.067518
Rotational constants in MHz :  5389.046501  2361.884510  2024.132984

                             ****ORCA TERMINATED NORMALLY****
TOTAL RUN TIME: 0 days 0 hours 0 minutes 14 seconds 771 msec
