                         Program Version 5.0.0 -  RELEASE  -
|  1> !wB97X-D3 RIJCOSX def2-SVPD def2/J TightSCF CPCM(Water)
|  2> *xyz 0 1
|  3> C         -0.81136       -2.90878       -4.60763
|  4> C         -1.91658       -2.48508       -3.64367
|  5> H         -2.55452       -1.71243       -4.09199
|  6> C         -1.36353       -1.98134       -2.29361
|  7> H         -2.55345       -3.35567       -3.45881
|  8> F         -0.35039       -2.74969       -1.79601
|  9> H         -2.22622       -1.90839       -1.60204
| 10> H         -1.05135       -0.91567       -2.44333
| 11> H         -1.24783       -3.24801       -5.52377
| 12> H         -0.24047       -3.70079       -4.16978
| 13> H         -0.17107       -2.07453       -4.80501
| 14> *
| 15>
| 16> %MaxCore 64000
| 17> %pal nprocs 18
| 18> end
| 19>
| 20> %scf
| 21>   MaxIter 150
| 22> end
| 23>
| 24>
| 25>                          ****END OF INPUT****

CARTESIAN COORDINATES (ANGSTROEM)
---------------------------------
  C     -0.811360   -2.908780   -4.607630
  C     -1.916580   -2.485080   -3.643670
  H     -2.554520   -1.712430   -4.091990
  C     -1.363530   -1.981340   -2.293610
  H     -2.553450   -3.355670   -3.458810
  F     -0.350390   -2.749690   -1.796010
  H     -2.226220   -1.908390   -1.602040
  H     -1.051350   -0.915670   -2.443330
  H     -1.247830   -3.248010   -5.523770
  H     -0.240470   -3.700790   -4.169780
  H     -0.171070   -2.074530   -4.805010

 Total Charge           Charge          ....    0
 Multiplicity           Mult            ....    1
 Number of Electrons    NEL             ....   34
 Basis Dimension        Dim             ....  139

ORBITAL ENERGIES
----------------

  NO   OCC          E(Eh)            E(eV)
   0   2.0000     -24.798668      -674.8061
   1   2.0000     -10.362688      -281.9831
   2   2.0000     -10.287277      -279.9310
   3   2.0000     -10.268689      -279.4252
   4   2.0000      -1.309171       -35.6244
   5   2.0000      -0.892044       -24.2738
   6   2.0000      -0.793302       -21.5868
   7   2.0000      -0.696472       -18.9520
   8   2.0000      -0.614190       -16.7130
   9   2.0000      -0.598910       -16.2972
  10   2.0000      -0.577339       -15.7102
  11   2.0000      -0.533190       -14.5088
  12   2.0000      -0.496097       -13.4995
  13   2.0000      -0.467033       -12.7086
  14   2.0000      -0.445983       -12.1358
  15   2.0000      -0.418037       -11.3754
  16   2.0000      -0.410710       -11.1760
  17   0.0000       0.097587         2.6555
  18   0.0000       0.124811         3.3963
  19   0.0000       0.132342         3.6012
  20   0.0000       0.152156         4.1404
  21   0.0000       0.174383         4.7452

MULLIKEN ATOMIC CHARGES
-----------------------
   0 C :    0.537381
   1 C :   -0.574032
   2 H :   -0.024182
   3 C :    0.635737
   4 H :   -0.019857
   5 F :   -0.474420
   6 H :   -0.020383
   7 H :    0.027812
   8 H :   -0.041246
   9 H :   -0.009458
  10 H :   -0.037353
Sum of atomic charges:   -0.0000000

LOEWDIN ATOMIC CHARGES
----------------------
   0 C :    0.111326
   1 C :   -0.064368
   2 H :    0.033416
   3 C :    0.102122
   4 H :    0.021633
   5 F :   -0.234475
   6 H :    0.035355
   7 H :    0.044213
   8 H :   -0.015882
   9 H :   -0.020369
  10 H :   -0.012972

  Mayer bond orders larger than 0.100000
B(  0-C ,  1-C ) :   1.2775 B(  0-C ,  8-H ) :   0.8437 B(  0-C ,  9-H ) :   0.8379
B(  0-C , 10-H ) :   0.8429 B(  1-C ,  2-H ) :   0.9873 B(  1-C ,  3-C ) :   1.1880
B(  1-C ,  4-H ) :   0.9627 B(  1-C ,  6-H ) :   0.1034 B(  1-C ,  7-H ) :   0.1076
B(  1-C ,  8-H ) :   0.1736 B(  1-C ,  9-H ) :   0.1616 B(  1-C , 10-H ) :   0.1704
B(  3-C ,  5-F ) :   0.7063 B(  3-C ,  6-H ) :   0.9368 B(  3-C ,  7-H ) :   0.9122

Dispersion correction           -0.001926563
FINAL SINGLE POINT ENERGY      -218.168465436724

DIPOLE MOMENT
-------------
                                X             Y             Z
Electronic contribution:      2.42994      -0.57809       5.41256
Nuclear contribution   :     -3.10989       1.02097      -5.82098
                        -----------------------------------------
Total Dipole Moment    :     -0.67995       0.44289      -0.40842
                        -----------------------------------------
Magnitude (a.u.)       :      0.90845
Magnitude (Debye)      :      2.30910

Rotational constants in cm-1:     0.466172     0.177379     0.142652
Rotational constants in MHz : 13975.492374  5317.681709  4276.599690

                             ****ORCA TERMINATED NORMALLY****
TOTAL RUN TIME: 0 days 0 hours 0 minutes 7 seconds 37 msec
