                         Program Version 5.0.0 -  RELEASE  -
|  1> !wB97X-D3 RIJCOSX def2-SVPD def2/J TightSCF CPCM(Water)
|  2> *xyz 0 1
|  3> C          1.64703       -2.34528       -5.02041
|  4> C          0.21763       -1.81402       -4.92439
|  5> C          2.20996       -2.81239       -3.66571
|  6> H          2.30838       -1.58870       -5.45713
|  7> H          1.67429       -3.20348       -5.69739
|  8> C          2.48901       -1.66851       -2.73754
|  9> C          3.59631       -0.94761       -2.95225
| 10> N          1.66394       -1.41369       -1.77781
| 11> H          0.81164       -1.96318       -1.70275
| 12> H          1.84550       -0.63508       -1.15875
| 13> H          4.20535       -1.17600       -3.73383
| 14> H          3.81723       -0.12585       -2.40604
| 15> H          3.14311       -3.36280       -3.81152
| 16> H          1.48768       -3.45893       -3.16521
| 17> H         -0.11459       -1.50684       -5.89401
| 18> H          0.19193       -0.97796       -4.25713
| 19> H         -0.42543       -2.58523       -4.55479
| 20> *
| 21>
| 22> %MaxCore 64000
| 23> %pal nprocs 18
| 24> end
| 25>
| 26> %scf
| 27>   MaxIter 150
| 28> end
| 29>
| 30>
| 31>                          ****END OF INPUT****

CARTESIAN COORDINATES (ANGSTROEM)
---------------------------------
  C      1.647030   -2.345280   -5.020410
  C      0.217630   -1.814020   -4.924390
  C      2.209960   -2.812390   -3.665710
  H      2.308380   -1.588700   -5.457130
  H      1.674290   -3.203480   -5.697390
  C      2.489010   -1.668510   -2.737540
  C      3.596310   -0.947610   -2.952250
  N      1.663940   -1.413690   -1.777810
  H      0.811640   -1.963180   -1.702750
  H      1.845500   -0.635080   -1.158750
  H      4.205350   -1.176000   -3.733830
  H      3.817230   -0.125850   -2.406040
  H      3.143110   -3.362800   -3.811520
  H      1.487680   -3.458930   -3.165210
  H     -0.114590   -1.506840   -5.894010
  H      0.191930   -0.977960   -4.257130
  H     -0.425430   -2.585230   -4.554790

 Total Charge           Charge          ....    0
 Multiplicity           Mult            ....    1
 Number of Electrons    NEL             ....   48
 Basis Dimension        Dim             ....  208

ORBITAL ENERGIES
----------------

  NO   OCC          E(Eh)            E(eV)
   0   2.0000     -14.436229      -392.8298
   1   2.0000     -10.314961      -280.6843
   2   2.0000     -10.283291      -279.8226
   3   2.0000     -10.282490      -279.8008
   4   2.0000     -10.266385      -279.3625
   5   2.0000     -10.220827      -278.1228
   6   2.0000      -1.045495       -28.4494
   7   2.0000      -0.901244       -24.5241
   8   2.0000      -0.838482       -22.8163
   9   2.0000      -0.785690       -21.3797
  10   2.0000      -0.709813       -19.3150
  11   2.0000      -0.662565       -18.0293
  12   2.0000      -0.625324       -17.0159
  13   2.0000      -0.586864       -15.9694
  14   2.0000      -0.551996       -15.0206
  15   2.0000      -0.528437       -14.3795
  16   2.0000      -0.497951       -13.5499
  17   2.0000      -0.490320       -13.3423
  18   2.0000      -0.468702       -12.7540
  19   2.0000      -0.453028       -12.3275
  20   2.0000      -0.428614       -11.6632
  21   2.0000      -0.418815       -11.3965
  22   2.0000      -0.415312       -11.3012
  23   2.0000      -0.276430        -7.5220
  24   0.0000       0.094411         2.5691
  25   0.0000       0.112740         3.0678
  26   0.0000       0.121726         3.3123
  27   0.0000       0.125690         3.4202
  28   0.0000       0.141256         3.8438

MULLIKEN ATOMIC CHARGES
-----------------------
   0 C :   -0.403832
   1 C :    0.632589
   2 C :    0.207617
   3 H :   -0.038389
   4 H :   -0.059397
   5 C :   -0.255052
   6 C :    0.438325
   7 N :    0.109202
   8 H :    0.026045
   9 H :   -0.060877
  10 H :   -0.119159
  11 H :   -0.436370
  12 H :    0.049244
  13 H :   -0.004815
  14 H :   -0.047892
  15 H :   -0.086996
  16 H :    0.049757
Sum of atomic charges:    0.0000000

LOEWDIN ATOMIC CHARGES
----------------------
   0 C :   -0.065013
   1 C :    0.117129
   2 C :    0.004035
   3 H :    0.016597
   4 H :    0.019280
   5 C :   -0.275042
   6 C :    0.143819
   7 N :    0.180622
   8 H :    0.025994
   9 H :    0.029849
  10 H :   -0.090586
  11 H :   -0.098801
  12 H :    0.028295
  13 H :    0.021428
  14 H :   -0.017983
  15 H :   -0.025620
  16 H :   -0.014005

  Mayer bond orders larger than 0.100000
B(  0-C ,  1-C ) :   1.2973 B(  0-C ,  2-C ) :   1.1709 B(  0-C ,  3-H ) :   0.9599
B(  0-C ,  4-H ) :   0.9842 B(  0-C , 13-H ) :   0.1354 B(  0-C , 14-H ) :   0.2011
B(  0-C , 15-H ) :   0.2119 B(  0-C , 16-H ) :   0.1933 B(  1-C , 14-H ) :   0.8007
B(  1-C , 15-H ) :   0.8412 B(  1-C , 16-H ) :   0.7897 B(  2-C ,  3-H ) :   0.1370
B(  2-C ,  5-C ) :   1.0994 B(  2-C ,  6-C ) :   0.1821 B(  2-C ,  7-N ) :   0.1035
B(  2-C , 12-H ) :   0.8496 B(  2-C , 13-H ) :   0.7619 B(  5-C ,  6-C ) :   1.8404
B(  5-C ,  7-N ) :   1.2197 B(  5-C , 11-H ) :   0.1772 B(  5-C , 12-H ) :   0.1169
B(  5-C , 13-H ) :   0.1956 B(  6-C ,  7-N ) :   0.2452 B(  6-C , 10-H ) :   0.8175
B(  6-C , 11-H ) :   0.7805 B(  7-N ,  8-H ) :   1.0225 B(  7-N ,  9-H ) :   1.2165
B(  8-H ,  9-H ) :  -0.1443

Dispersion correction           -0.004626231
FINAL SINGLE POINT ENERGY      -251.648831183946

DIPOLE MOMENT
-------------
                                X             Y             Z
Electronic contribution:      1.08114       0.14655       3.41317
Nuclear contribution   :     -2.15663      -0.43764      -3.01766
                        -----------------------------------------
Total Dipole Moment    :     -1.07549      -0.29108       0.39551
                        -----------------------------------------
Magnitude (a.u.)       :      1.18230
Magnitude (Debye)      :      3.00518

Rotational constants in cm-1:     0.184410     0.080989     0.069427
Rotational constants in MHz :  5528.462717  2427.993314  2081.376031

                             ****ORCA TERMINATED NORMALLY****
TOTAL RUN TIME: 0 days 0 hours 0 minutes 14 seconds 804 msec
