                         Program Version 5.0.0 -  RELEASE  -
|  1> !wB97X-D3 RIJCOSX def2-SVPD def2/J TightSCF CPCM(Water)
|  2> *xyz 0 1
|  3> C          1.64703       -2.34528       -5.02041
|  4> C          0.21763       -1.81402       -4.92439
|  5> C          2.20996       -2.81239       -3.66571
|  6> H          2.30838       -1.58870       -5.45713
|  7> H          1.67429       -3.20348       -5.69739
|  8> C          2.48901       -1.66851       -2.73754
|  9> N          3.59631       -0.94761       -2.95225
| 10> C          1.66394       -1.41369       -1.77781
| 11> H          0.81164       -1.96318       -1.70275
| 12> H          1.84550       -0.63508       -1.15875
| 13> H          4.20535       -1.17600       -3.73383
| 14> H          3.81723       -0.12585       -2.40604
| 15> H          3.14311       -3.36280       -3.81152
| 16> H          1.48768       -3.45893       -3.16521
| 17> H         -0.11459       -1.50684       -5.89401
| 18> H          0.19193       -0.97796       -4.25713
| 19> H         -0.42543       -2.58523       -4.55479
| 20> *
| 21>
| 22> %MaxCore 64000
| 23> %pal nprocs 18
| 24> end
| 25>
| 26> %scf
| 27>   MaxIter 150
| 28> end
| 29>
| 30>
| 31>                          ****END OF INPUT****

CARTESIAN COORDINATES (ANGSTROEM)
---------------------------------
  C      1.647030   -2.345280   -5.020410
  C      0.217630   -1.814020   -4.924390
  C      2.209960   -2.812390   -3.665710
  H      2.308380   -1.588700   -5.457130
  H      1.674290   -3.203480   -5.697390
  C      2.489010   -1.668510   -2.737540
  N      3.596310   -0.947610   -2.952250
  C      1.663940   -1.413690   -1.777810
  H      0.811640   -1.963180   -1.702750
  H      1.845500   -0.635080   -1.158750
  H      4.205350   -1.176000   -3.733830
  H      3.817230   -0.125850   -2.406040
  H      3.143110   -3.362800   -3.811520
  H      1.487680   -3.458930   -3.165210
  H     -0.114590   -1.506840   -5.894010
  H      0.191930   -0.977960   -4.257130
  H     -0.425430   -2.585230   -4.554790

 Total Charge           Charge          ....    0
 Multiplicity           Mult            ....    1
 Number of Electrons    NEL             ....   48
 Basis Dimension        Dim             ....  208

ORBITAL ENERGIES
----------------

  NO   OCC          E(Eh)            E(eV)
   0   2.0000     -14.429768      -392.6540
   1   2.0000     -10.310102      -280.5521
   2   2.0000     -10.282147      -279.7914
   3   2.0000     -10.281916      -279.7852
   4   2.0000     -10.264573      -279.3132
   5   2.0000     -10.223453      -278.1943
   6   2.0000      -1.027057       -27.9477
   7   2.0000      -0.900314       -24.4988
   8   2.0000      -0.845951       -23.0195
   9   2.0000      -0.790611       -21.5136
  10   2.0000      -0.699491       -19.0341
  11   2.0000      -0.663887       -18.0653
  12   2.0000      -0.617015       -16.7898
  13   2.0000      -0.577931       -15.7263
  14   2.0000      -0.546776       -14.8785
  15   2.0000      -0.540586       -14.7101
  16   2.0000      -0.497422       -13.5356
  17   2.0000      -0.485725       -13.2172
  18   2.0000      -0.469062       -12.7638
  19   2.0000      -0.458928       -12.4881
  20   2.0000      -0.426238       -11.5985
  21   2.0000      -0.413552       -11.2533
  22   2.0000      -0.410363       -11.1665
  23   2.0000      -0.287140        -7.8135
  24   0.0000       0.095512         2.5990
  25   0.0000       0.113488         3.0882
  26   0.0000       0.122587         3.3358
  27   0.0000       0.125670         3.4197
  28   0.0000       0.144952         3.9443

MULLIKEN ATOMIC CHARGES
-----------------------
   0 C :   -0.331976
   1 C :    0.656770
   2 C :    0.139699
   3 H :   -0.040510
   4 H :   -0.041176
   5 C :   -0.140955
   6 N :    0.034939
   7 C :    0.378072
   8 H :   -0.057338
   9 H :   -0.376934
  10 H :   -0.044804
  11 H :   -0.109589
  12 H :   -0.060632
  13 H :    0.110169
  14 H :   -0.047770
  15 H :   -0.093986
  16 H :    0.026020
Sum of atomic charges:    0.0000000

LOEWDIN ATOMIC CHARGES
----------------------
   0 C :   -0.064895
   1 C :    0.116558
   2 C :    0.002375
   3 H :    0.018240
   4 H :    0.018977
   5 C :   -0.274183
   6 N :    0.175376
   7 C :    0.146171
   8 H :   -0.074464
   9 H :   -0.079117
  10 H :    0.012948
  11 H :    0.014014
  12 H :    0.026296
  13 H :    0.023240
  14 H :   -0.018702
  15 H :   -0.029098
  16 H :   -0.013737

  Mayer bond orders larger than 0.100000
B(  0-C ,  1-C ) :   1.2834 B(  0-C ,  2-C ) :   1.1439 B(  0-C ,  3-H ) :   0.9277
B(  0-C ,  4-H ) :   0.9464 B(  0-C , 13-H ) :   0.1165 B(  0-C , 14-H ) :   0.2029
B(  0-C , 15-H ) :   0.2164 B(  0-C , 16-H ) :   0.1931 B(  1-C , 14-H ) :   0.7997
B(  1-C , 15-H ) :   0.8428 B(  1-C , 16-H ) :   0.7871 B(  2-C ,  3-H ) :   0.1446
B(  2-C ,  4-H ) :   0.1094 B(  2-C ,  5-C ) :   1.1317 B(  2-C ,  6-N ) :   0.1146
B(  2-C ,  7-C ) :   0.1554 B(  2-C , 12-H ) :   0.9144 B(  2-C , 13-H ) :   0.8028
B(  5-C ,  6-N ) :   1.1953 B(  5-C ,  7-C ) :   1.8530 B(  5-C ,  8-H ) :   0.1437
B(  5-C ,  9-H ) :   0.2685 B(  5-C , 12-H ) :   0.1476 B(  5-C , 13-H ) :   0.1275
B(  6-N ,  7-C ) :   0.2179 B(  6-N , 10-H ) :   1.1306 B(  6-N , 11-H ) :   1.2290
B(  7-C ,  8-H ) :   0.9054 B(  7-C ,  9-H ) :   0.6704 B( 10-H , 11-H ) :  -0.1464

Dispersion correction           -0.004618596
FINAL SINGLE POINT ENERGY      -251.651942215153

DIPOLE MOMENT
-------------
                                X             Y             Z
Electronic contribution:      3.31902       0.71559       2.08179
Nuclear contribution   :     -2.61370      -0.54788      -2.73987
                        -----------------------------------------
Total Dipole Moment    :      0.70532       0.16771      -0.65808
                        -----------------------------------------
Magnitude (a.u.)       :      0.97912
Magnitude (Debye)      :      2.48871

Rotational constants in cm-1:     0.186678     0.079942     0.069329
Rotational constants in MHz :  5596.476267  2396.611465  2078.426257

                             ****ORCA TERMINATED NORMALLY****
TOTAL RUN TIME: 0 days 0 hours 0 minutes 15 seconds 661 msec
