                         Program Version 5.0.0 -  RELEASE  -
|  1> !PBE D3BJ RIJCOSX def2-SVPD def2/J TightSCF
|  2> *xyz -1 1
|  3> C          2.49556        1.81615       -2.13636
|  4> C          1.87218        0.42790       -2.07750
|  5> H          2.61427       -0.36583       -2.19889
|  6> H          1.38995        0.27309       -1.11236
|  7> S          0.57902        0.14047       -3.29794
|  8> O          0.22886       -1.24687       -3.12787
|  9> O         -0.43927        1.11897       -3.01455
| 10> O          1.24788        0.40347       -4.59565
| 11> H          2.96535        1.95613       -3.08747
| 12> H          3.22581        1.91242       -1.36024
| 13> H          1.73350        2.55528       -2.00274
| 14> *
| 15>
| 16> %MaxCore 64000
| 17>
| 18> %pal nprocs 4
| 19> end
| 20>
| 21> %scf
| 22>   MaxIter 150
| 23> end
| 24>
| 25>
| 26>                          ****END OF INPUT****

CARTESIAN COORDINATES (ANGSTROEM)
---------------------------------
  C      2.495560    1.816150   -2.136360
  C      1.872180    0.427900   -2.077500
  H      2.614270   -0.365830   -2.198890
  H      1.389950    0.273090   -1.112360
  S      0.579020    0.140470   -3.297940
  O      0.228860   -1.246870   -3.127870
  O     -0.439270    1.118970   -3.014550
  O      1.247880    0.403470   -4.595650
  H      2.965350    1.956130   -3.087470
  H      3.225810    1.912420   -1.360240
  H      1.733500    2.555280   -2.002740

 Total Charge           Charge          ....   -1
 Multiplicity           Mult            ....    1
 Number of Electrons    NEL             ....   58
 Basis Dimension        Dim             ....  176

ORBITAL ENERGIES
----------------

  NO   OCC          E(Eh)            E(eV)
   0   2.0000     -88.053246     -2396.0506
   1   2.0000     -18.547311      -504.6980
   2   2.0000     -18.547208      -504.6952
   3   2.0000     -18.533501      -504.3222
   4   2.0000      -9.754287      -265.4276
   5   2.0000      -9.749558      -265.2990
   6   2.0000      -7.657718      -208.3771
   7   2.0000      -5.684747      -154.6898
   8   2.0000      -5.684564      -154.6849
   9   2.0000      -5.683932      -154.6677
  10   2.0000      -0.842924       -22.9371
  11   2.0000      -0.710589       -19.3361
  12   2.0000      -0.684486       -18.6258
  13   2.0000      -0.554165       -15.0796
  14   2.0000      -0.436427       -11.8758
  15   2.0000      -0.322010        -8.7623
  16   2.0000      -0.267024        -7.2661
  17   2.0000      -0.264022        -7.1844
  18   2.0000      -0.228487        -6.2174
  19   2.0000      -0.213798        -5.8177
  20   2.0000      -0.207302        -5.6410
  21   2.0000      -0.186795        -5.0829
  22   2.0000      -0.167620        -4.5612
  23   2.0000      -0.105629        -2.8743
  24   2.0000      -0.105135        -2.8609
  25   2.0000      -0.073971        -2.0128
  26   2.0000      -0.067166        -1.8277
  27   2.0000      -0.056633        -1.5411
  28   2.0000      -0.021074        -0.5735
  29   0.0000       0.127816         3.4781
  30   0.0000       0.155209         4.2234
  31   0.0000       0.164296         4.4707
  32   0.0000       0.168796         4.5932
  33   0.0000       0.191241         5.2039

MULLIKEN ATOMIC CHARGES
-----------------------
   0 C :    0.773049
   1 C :   -0.360809
   2 H :   -0.081488
   3 H :   -0.040524
   4 S :    1.195786
   5 O :   -0.740491
   6 O :   -0.741036
   7 O :   -0.787207
   8 H :   -0.057865
   9 H :   -0.108305
  10 H :   -0.051110
Sum of atomic charges:   -1.0000000

LOEWDIN ATOMIC CHARGES
----------------------
   0 C :    0.097361
   1 C :   -0.147144
   2 H :    0.003076
   3 H :   -0.001769
   4 S :    0.800741
   5 O :   -0.552899
   6 O :   -0.549573
   7 O :   -0.571051
   8 H :   -0.022360
   9 H :   -0.036158
  10 H :   -0.020225

  Mayer bond orders larger than 0.100000
B(  0-C ,  1-C ) :   1.3177 B(  0-C ,  8-H ) :   0.8184 B(  0-C ,  9-H ) :   0.7344
B(  0-C , 10-H ) :   0.8009 B(  1-C ,  2-H ) :   1.0021 B(  1-C ,  3-H ) :   0.9646
B(  1-C ,  4-S ) :   0.9027 B(  1-C ,  8-H ) :   0.2047 B(  1-C ,  9-H ) :   0.2335
B(  1-C , 10-H ) :   0.2130 B(  4-S ,  5-O ) :   1.3691 B(  4-S ,  6-O ) :   1.3370
B(  4-S ,  7-O ) :   1.3074

Dispersion correction           -0.009694301
FINAL SINGLE POINT ENERGY      -702.287253577584

DIPOLE MOMENT
-------------
                                X             Y             Z
Electronic contribution:     -5.70334      -3.59782      -4.10856
Nuclear contribution   :      6.89220       4.11756       5.35566
                        -----------------------------------------
Total Dipole Moment    :      1.18885       0.51974       1.24710
                        -----------------------------------------
Magnitude (a.u.)       :      1.79966
Magnitude (Debye)      :      4.57436

Rotational constants in cm-1:     0.162183     0.084017     0.082390
Rotational constants in MHz :  4862.117324  2518.774315  2469.980309

                             ****ORCA TERMINATED NORMALLY****
TOTAL RUN TIME: 0 days 0 hours 0 minutes 6 seconds 375 msec
