                         Program Version 5.0.0 -  RELEASE  -
|  1> !PBE D3BJ RIJCOSX def2-SVPD def2/J TightSCF
|  2> *xyz 1 1
|  3> C          3.38093        2.08304       -3.35013
|  4> N          4.53592        1.18245       -3.42852
|  5> C          2.49556        1.81615       -2.13636
|  6> C          4.67196        0.12227       -4.22060
|  7> N          5.86602       -0.50785       -4.22428
|  8> N          3.69888       -0.31284       -4.98699
|  9> H          2.73141       -0.05009       -4.84900
| 10> H          3.89005       -1.05517       -5.64373
| 11> H          5.25193        1.30346       -2.72101
| 12> H          6.69516       -0.06232       -3.85160
| 13> H          5.97538       -1.39688       -4.69141
| 14> H          2.80646        1.98651       -4.26848
| 15> H          3.77871        3.09828       -3.30738
| 16> H          2.11090        0.81901       -2.18783
| 17> H          1.68276        2.51198       -2.12786
| 18> H          3.07216        1.93031       -1.24227
| 19> *
| 20>
| 21> %MaxCore 64000
| 22>
| 23> %pal nprocs 4
| 24> end
| 25>
| 26> %scf
| 27>   MaxIter 150
| 28> end
| 29>
| 30>
| 31>                          ****END OF INPUT****

CARTESIAN COORDINATES (ANGSTROEM)
---------------------------------
  C      3.380930    2.083040   -3.350130
  N      4.535920    1.182450   -3.428520
  C      2.495560    1.816150   -2.136360
  C      4.671960    0.122270   -4.220600
  N      5.866020   -0.507850   -4.224280
  N      3.698880   -0.312840   -4.986990
  H      2.731410   -0.050090   -4.849000
  H      3.890050   -1.055170   -5.643730
  H      5.251930    1.303460   -2.721010
  H      6.695160   -0.062320   -3.851600
  H      5.975380   -1.396880   -4.691410
  H      2.806460    1.986510   -4.268480
  H      3.778710    3.098280   -3.307380
  H      2.110900    0.819010   -2.187830
  H      1.682760    2.511980   -2.127860
  H      3.072160    1.930310   -1.242270

 Total Charge           Charge          ....    1
 Multiplicity           Mult            ....    1
 Number of Electrons    NEL             ....   48
 Basis Dimension        Dim             ....  200

ORBITAL ENERGIES
----------------

  NO   OCC          E(Eh)            E(eV)
   0   2.0000     -14.225159      -387.0863
   1   2.0000     -14.222660      -387.0183
   2   2.0000     -14.217846      -386.8872
   3   2.0000     -10.218840      -278.0688
   4   2.0000     -10.101798      -274.8839
   5   2.0000     -10.032565      -273.0000
   6   2.0000      -1.121242       -30.5105
   7   2.0000      -1.019105       -27.7312
   8   2.0000      -1.004322       -27.3290
   9   2.0000      -0.856882       -23.3169
  10   2.0000      -0.778291       -21.1784
  11   2.0000      -0.741703       -20.1828
  12   2.0000      -0.733085       -19.9483
  13   2.0000      -0.687879       -18.7181
  14   2.0000      -0.647566       -17.6212
  15   2.0000      -0.644382       -17.5345
  16   2.0000      -0.596710       -16.2373
  17   2.0000      -0.582419       -15.8484
  18   2.0000      -0.556846       -15.1525
  19   2.0000      -0.515252       -14.0207
  20   2.0000      -0.486967       -13.2510
  21   2.0000      -0.471348       -12.8260
  22   2.0000      -0.437347       -11.9008
  23   2.0000      -0.410031       -11.1575
  24   0.0000      -0.201617        -5.4863
  25   0.0000      -0.174727        -4.7546
  26   0.0000      -0.143192        -3.8965
  27   0.0000      -0.134001        -3.6464
  28   0.0000      -0.117416        -3.1951

MULLIKEN ATOMIC CHARGES
-----------------------
   0 C :    0.378988
   1 N :   -0.456530
   2 C :    0.682783
   3 C :    1.503059
   4 N :   -0.056952
   5 N :   -0.005275
   6 H :   -0.083366
   7 H :   -0.096152
   8 H :   -0.275871
   9 H :   -0.088563
  10 H :   -0.041677
  11 H :   -0.129470
  12 H :   -0.221741
  13 H :   -0.085336
  14 H :    0.025108
  15 H :   -0.049004
Sum of atomic charges:    1.0000000

LOEWDIN ATOMIC CHARGES
----------------------
   0 C :    0.041226
   1 N :    0.050900
   2 C :    0.159906
   3 C :   -0.055447
   4 N :    0.270000
   5 N :    0.288480
   6 H :    0.030961
   7 H :    0.040214
   8 H :    0.058647
   9 H :    0.033964
  10 H :    0.030921
  11 H :    0.022133
  12 H :    0.041623
  13 H :   -0.012391
  14 H :    0.004362
  15 H :   -0.005500

  Mayer bond orders larger than 0.100000
B(  0-C ,  1-N ) :   0.9152 B(  0-C ,  2-C ) :   1.3029 B(  0-C ,  8-H ) :  -0.2205
B(  0-C , 11-H ) :   0.8543 B(  0-C , 12-H ) :   0.8759 B(  0-C , 13-H ) :   0.2048
B(  0-C , 14-H ) :   0.1791 B(  0-C , 15-H ) :   0.2197 B(  1-N ,  3-C ) :   0.9234
B(  1-N ,  4-N ) :   0.2972 B(  1-N ,  5-N ) :   0.2994 B(  1-N ,  8-H ) :   1.3600
B(  1-N , 11-H ) :   0.1544 B(  1-N , 12-H ) :   0.1759 B(  2-C , 13-H ) :   0.8208
B(  2-C , 14-H ) :   0.7834 B(  2-C , 15-H ) :   0.7972 B(  3-C ,  4-N ) :   0.7495
B(  3-C ,  5-N ) :   0.9031 B(  3-C ,  6-H ) :  -0.1911 B(  3-C ,  7-H ) :  -0.1607
B(  3-C ,  8-H ) :  -0.2749 B(  3-C ,  9-H ) :  -0.1913 B(  3-C , 10-H ) :  -0.1094
B(  4-N ,  5-N ) :   0.2146 B(  4-N ,  9-H ) :   1.2128 B(  4-N , 10-H ) :   1.1760
B(  5-N ,  6-H ) :   1.1823 B(  5-N ,  7-H ) :   1.2394 B(  6-H ,  7-H ) :  -0.1981
B(  9-H , 10-H ) :  -0.1753

Dispersion correction           -0.012138605
FINAL SINGLE POINT ENERGY      -283.867182308419

DIPOLE MOMENT
-------------
                                X             Y             Z
Electronic contribution:      3.55610      -2.63724      -2.80947
Nuclear contribution   :     -2.93277       1.85779       2.25966
                        -----------------------------------------
Total Dipole Moment    :      0.62334      -0.77944      -0.54980
                        -----------------------------------------
Magnitude (a.u.)       :      1.13946
Magnitude (Debye)      :      2.89627

Rotational constants in cm-1:     0.245511     0.068839     0.059711
Rotational constants in MHz :  7360.233487  2063.743353  1790.088408

                             ****ORCA TERMINATED NORMALLY****
TOTAL RUN TIME: 0 days 0 hours 0 minutes 8 seconds 277 msec
