                         Program Version 5.0.0 -  RELEASE  -
|  1> !PBE D3BJ RIJCOSX def2-SVPD def2/J TightSCF
|  2> *xyz 0 1
|  3> C          2.49556        1.81615       -2.13636
|  4> C          1.87218        0.42790       -2.07750
|  5> H          2.61427       -0.36583       -2.19889
|  6> H          1.38995        0.27309       -1.11236
|  7> S          0.57902        0.14047       -3.29794
|  8> F          0.22886       -1.24687       -3.12787
|  9> O         -0.43927        1.11897       -3.01455
| 10> O          1.24788        0.40347       -4.59565
| 11> H          2.96535        1.95613       -3.08747
| 12> H          3.22581        1.91242       -1.36024
| 13> H          1.73350        2.55528       -2.00274
| 14> *
| 15>
| 16> %MaxCore 64000
| 17>
| 18> %pal nprocs 4
| 19> end
| 20>
| 21> %scf
| 22>   MaxIter 150
| 23> end
| 24>
| 25>
| 26>                          ****END OF INPUT****

CARTESIAN COORDINATES (ANGSTROEM)
---------------------------------
  C      2.495560    1.816150   -2.136360
  C      1.872180    0.427900   -2.077500
  H      2.614270   -0.365830   -2.198890
  H      1.389950    0.273090   -1.112360
  S      0.579020    0.140470   -3.297940
  F      0.228860   -1.246870   -3.127870
  O     -0.439270    1.118970   -3.014550
  O      1.247880    0.403470   -4.595650
  H      2.965350    1.956130   -3.087470
  H      3.225810    1.912420   -1.360240
  H      1.733500    2.555280   -2.002740

 Total Charge           Charge          ....    0
 Multiplicity           Mult            ....    1
 Number of Electrons    NEL             ....   58
 Basis Dimension        Dim             ....  176

ORBITAL ENERGIES
----------------

  NO   OCC          E(Eh)            E(eV)
   0   2.0000     -88.309518     -2403.0242
   1   2.0000     -24.390445      -663.6977
   2   2.0000     -18.779504      -511.0163
   3   2.0000     -18.765320      -510.6303
   4   2.0000      -9.956065      -270.9183
   5   2.0000      -9.914050      -269.7750
   6   2.0000      -7.914992      -215.3779
   7   2.0000      -5.946240      -161.8054
   8   2.0000      -5.939747      -161.6287
   9   2.0000      -5.938105      -161.5841
  10   2.0000      -1.273891       -34.6643
  11   2.0000      -1.021033       -27.7837
  12   2.0000      -0.918597       -24.9963
  13   2.0000      -0.745845       -20.2955
  14   2.0000      -0.670818       -18.2539
  15   2.0000      -0.611511       -16.6401
  16   2.0000      -0.527297       -14.3485
  17   2.0000      -0.525358       -14.2957
  18   2.0000      -0.499351       -13.5880
  19   2.0000      -0.444988       -12.1087
  20   2.0000      -0.434014       -11.8101
  21   2.0000      -0.396846       -10.7987
  22   2.0000      -0.386917       -10.5285
  23   2.0000      -0.366349        -9.9689
  24   2.0000      -0.344263        -9.3679
  25   2.0000      -0.340835        -9.2746
  26   2.0000      -0.292591        -7.9618
  27   2.0000      -0.279281        -7.5996
  28   2.0000      -0.260859        -7.0983
  29   0.0000      -0.029649        -0.8068
  30   0.0000      -0.003426        -0.0932
  31   0.0000       0.015135         0.4118
  32   0.0000       0.023566         0.6413
  33   0.0000       0.024796         0.6747

MULLIKEN ATOMIC CHARGES
-----------------------
   0 C :    0.781337
   1 C :   -0.392505
   2 H :   -0.029588
   3 H :    0.013646
   4 S :    1.394466
   5 F :   -0.368511
   6 O :   -0.603890
   7 O :   -0.645571
   8 H :   -0.038875
   9 H :   -0.077152
  10 H :   -0.033357
Sum of atomic charges:    0.0000000

LOEWDIN ATOMIC CHARGES
----------------------
   0 C :    0.143455
   1 C :   -0.111725
   2 H :    0.022245
   3 H :    0.017665
   4 S :    1.069165
   5 F :   -0.239948
   6 O :   -0.436515
   7 O :   -0.456798
   8 H :   -0.003189
   9 H :   -0.002770
  10 H :   -0.001584

  Mayer bond orders larger than 0.100000
B(  0-C ,  1-C ) :   1.3928 B(  0-C ,  8-H ) :   0.8135 B(  0-C ,  9-H ) :   0.7361
B(  0-C , 10-H ) :   0.7959 B(  1-C ,  2-H ) :   0.9779 B(  1-C ,  3-H ) :   0.9412
B(  1-C ,  4-S ) :   0.9521 B(  1-C ,  8-H ) :   0.1997 B(  1-C ,  9-H ) :   0.2211
B(  1-C , 10-H ) :   0.2065 B(  4-S ,  5-F ) :   0.7257 B(  4-S ,  6-O ) :   1.5355
B(  4-S ,  7-O ) :   1.5032

Dispersion correction           -0.009283985
FINAL SINGLE POINT ENERGY      -726.758711230914

DIPOLE MOMENT
-------------
                                X             Y             Z
Electronic contribution:     -6.82076      -6.35922      -4.12084
Nuclear contribution   :      7.60530       5.82028       5.38743
                        -----------------------------------------
Total Dipole Moment    :      0.78454      -0.53894       1.26659
                        -----------------------------------------
Magnitude (a.u.)       :      1.58436
Magnitude (Debye)      :      4.02714

Rotational constants in cm-1:     0.157861     0.081452     0.078859
Rotational constants in MHz :  4732.562506  2441.865430  2364.129821

                             ****ORCA TERMINATED NORMALLY****
TOTAL RUN TIME: 0 days 0 hours 0 minutes 5 seconds 816 msec
