                         Program Version 5.0.0 -  RELEASE  -
|  1> !PBE D3BJ RIJCOSX def2-SVPD def2/J TightSCF
|  2> *xyz 0 1
|  3> C          3.38093        2.08304       -3.35013
|  4> C          4.53592        1.18245       -3.42852
|  5> C          2.49556        1.81615       -2.13636
|  6> C          4.67196        0.12227       -4.22060
|  7> N          5.86602       -0.50785       -4.22428
|  8> N          3.69888       -0.31284       -4.98699
|  9> H          2.73141       -0.05009       -4.84900
| 10> H          3.89005       -1.05517       -5.64373
| 11> H          5.25193        1.30346       -2.72101
| 12> H          6.69516       -0.06232       -3.85160
| 13> H          5.97538       -1.39688       -4.69141
| 14> H          2.80646        1.98651       -4.26848
| 15> H          3.77871        3.09828       -3.30738
| 16> H          2.11090        0.81901       -2.18783
| 17> H          1.68276        2.51198       -2.12786
| 18> H          3.07216        1.93031       -1.24227
| 19> *
| 20>
| 21> %MaxCore 64000
| 22>
| 23> %pal nprocs 4
| 24> end
| 25>
| 26> %scf
| 27>   MaxIter 150
| 28> end
| 29>
| 30>
| 31>                          ****END OF INPUT****

CARTESIAN COORDINATES (ANGSTROEM)
---------------------------------
  C      3.380930    2.083040   -3.350130
  C      4.535920    1.182450   -3.428520
  C      2.495560    1.816150   -2.136360
  C      4.671960    0.122270   -4.220600
  N      5.866020   -0.507850   -4.224280
  N      3.698880   -0.312840   -4.986990
  H      2.731410   -0.050090   -4.849000
  H      3.890050   -1.055170   -5.643730
  H      5.251930    1.303460   -2.721010
  H      6.695160   -0.062320   -3.851600
  H      5.975380   -1.396880   -4.691410
  H      2.806460    1.986510   -4.268480
  H      3.778710    3.098280   -3.307380
  H      2.110900    0.819010   -2.187830
  H      1.682760    2.511980   -2.127860
  H      3.072160    1.930310   -1.242270

 Total Charge           Charge          ....    0
 Multiplicity           Mult            ....    1
 Number of Electrons    NEL             ....   48
 Basis Dimension        Dim             ....  200

ORBITAL ENERGIES
----------------

  NO   OCC          E(Eh)            E(eV)
   0   2.0000     -14.004637      -381.0856
   1   2.0000     -13.997372      -380.8879
   2   2.0000      -9.932717      -270.2830
   3   2.0000      -9.870437      -268.5882
   4   2.0000      -9.861361      -268.3413
   5   2.0000      -9.819825      -267.2110
   6   2.0000      -0.871872       -23.7249
   7   2.0000      -0.785588       -21.3769
   8   2.0000      -0.692155       -18.8345
   9   2.0000      -0.621344       -16.9076
  10   2.0000      -0.553188       -15.0530
  11   2.0000      -0.520026       -14.1506
  12   2.0000      -0.493273       -13.4227
  13   2.0000      -0.453138       -12.3305
  14   2.0000      -0.433377       -11.7928
  15   2.0000      -0.393417       -10.7054
  16   2.0000      -0.368022       -10.0144
  17   2.0000      -0.346364        -9.4250
  18   2.0000      -0.331614        -9.0237
  19   2.0000      -0.308775        -8.4022
  20   2.0000      -0.284125        -7.7314
  21   2.0000      -0.277861        -7.5610
  22   2.0000      -0.222754        -6.0614
  23   2.0000      -0.128716        -3.5026
  24   0.0000      -0.007479        -0.2035
  25   0.0000       0.016844         0.4583
  26   0.0000       0.033118         0.9012
  27   0.0000       0.040819         1.1107
  28   0.0000       0.056842         1.5467

MULLIKEN ATOMIC CHARGES
-----------------------
   0 C :   -0.138562
   1 C :   -0.372584
   2 C :    0.640755
   3 C :    1.067315
   4 N :   -0.006860
   5 N :    0.045576
   6 H :   -0.106942
   7 H :   -0.245823
   8 H :   -0.292594
   9 H :   -0.100679
  10 H :   -0.154388
  11 H :   -0.123565
  12 H :   -0.069532
  13 H :   -0.095079
  14 H :   -0.006400
  15 H :   -0.040638
Sum of atomic charges:   -0.0000000

LOEWDIN ATOMIC CHARGES
----------------------
   0 C :   -0.100268
   1 C :   -0.034021
   2 C :    0.113656
   3 C :   -0.235335
   4 N :    0.189906
   5 N :    0.205706
   6 H :   -0.000894
   7 H :   -0.010343
   8 H :   -0.047528
   9 H :   -0.000314
  10 H :   -0.021262
  11 H :   -0.000477
  12 H :    0.012685
  13 H :   -0.024128
  14 H :   -0.027583
  15 H :   -0.019801

  Mayer bond orders larger than 0.100000
B(  0-C ,  1-C ) :   1.1830 B(  0-C ,  2-C ) :   1.2555 B(  0-C ,  8-H ) :   0.2639
B(  0-C , 11-H ) :   0.8706 B(  0-C , 12-H ) :   0.8468 B(  0-C , 13-H ) :   0.2070
B(  0-C , 14-H ) :   0.1811 B(  0-C , 15-H ) :   0.2236 B(  1-C ,  3-C ) :   1.5103
B(  1-C ,  4-N ) :   0.5062 B(  1-C ,  5-N ) :   0.3178 B(  1-C ,  8-H ) :   0.8591
B(  1-C , 11-H ) :   0.2744 B(  1-C , 12-H ) :   0.1538 B(  2-C , 13-H ) :   0.8472
B(  2-C , 14-H ) :   0.8002 B(  2-C , 15-H ) :   0.7963 B(  3-C ,  4-N ) :   0.6594
B(  3-C ,  5-N ) :   0.9592 B(  3-C ,  7-H ) :  -0.1939 B(  3-C ,  8-H ) :   0.1153
B(  3-C ,  9-H ) :  -0.1490 B(  3-C , 11-H ) :  -0.1159 B(  4-N ,  5-N ) :   0.1422
B(  4-N ,  9-H ) :   1.2190 B(  4-N , 10-H ) :   1.1748 B(  5-N ,  6-H ) :   1.1590
B(  5-N ,  7-H ) :   1.3345 B(  6-H ,  7-H ) :  -0.1887 B(  9-H , 10-H ) :  -0.1642

Dispersion correction           -0.012599318
FINAL SINGLE POINT ENERGY      -267.401155121316

DIPOLE MOMENT
-------------
                                X             Y             Z
Electronic contribution:      3.01470      -2.79095      -2.89883
Nuclear contribution   :     -2.84307       1.95814       2.32378
                        -----------------------------------------
Total Dipole Moment    :      0.17162      -0.83281      -0.57505
                        -----------------------------------------
Magnitude (a.u.)       :      1.02651
Magnitude (Debye)      :      2.60917

Rotational constants in cm-1:     0.248902     0.068887     0.059904
Rotational constants in MHz :  7461.898926  2065.183281  1795.882140

                             ****ORCA TERMINATED NORMALLY****
TOTAL RUN TIME: 0 days 0 hours 0 minutes 8 seconds 599 msec
