                         Program Version 5.0.0 -  RELEASE  -
|  1> !PBE D3BJ RIJCOSX def2-SVPD def2/J TightSCF
|  2> *xyz 0 1
|  3> C          2.49556        1.81615       -2.13636
|  4> C          1.87218        0.42790       -2.07750
|  5> H          2.61427       -0.36583       -2.19889
|  6> H          1.38995        0.27309       -1.11236
|  7> S          0.57902        0.14047       -3.29794
|  8> O          0.22886       -1.24687       -3.12787
|  9> F         -0.43927        1.11897       -3.01455
| 10> O          1.24788        0.40347       -4.59565
| 11> H          2.96535        1.95613       -3.08747
| 12> H          3.22581        1.91242       -1.36024
| 13> H          1.73350        2.55528       -2.00274
| 14> *
| 15>
| 16> %MaxCore 64000
| 17>
| 18> %pal nprocs 4
| 19> end
| 20>
| 21> %scf
| 22>   MaxIter 150
| 23> end
| 24>
| 25>
| 26>                          ****END OF INPUT****

CARTESIAN COORDINATES (ANGSTROEM)
---------------------------------
  C      2.495560    1.816150   -2.136360
  C      1.872180    0.427900   -2.077500
  H      2.614270   -0.365830   -2.198890
  H      1.389950    0.273090   -1.112360
  S      0.579020    0.140470   -3.297940
  O      0.228860   -1.246870   -3.127870
  F     -0.439270    1.118970   -3.014550
  O      1.247880    0.403470   -4.595650
  H      2.965350    1.956130   -3.087470
  H      3.225810    1.912420   -1.360240
  H      1.733500    2.555280   -2.002740

 Total Charge           Charge          ....    0
 Multiplicity           Mult            ....    1
 Number of Electrons    NEL             ....   58
 Basis Dimension        Dim             ....  176

ORBITAL ENERGIES
----------------

  NO   OCC          E(Eh)            E(eV)
   0   2.0000     -88.309729     -2403.0299
   1   2.0000     -24.390535      -663.7002
   2   2.0000     -18.779836      -511.0253
   3   2.0000     -18.766048      -510.6501
   4   2.0000      -9.956015      -270.9170
   5   2.0000      -9.916607      -269.8446
   6   2.0000      -7.915168      -215.3827
   7   2.0000      -5.946507      -161.8127
   8   2.0000      -5.939862      -161.6319
   9   2.0000      -5.938274      -161.5886
  10   2.0000      -1.274464       -34.6799
  11   2.0000      -1.020529       -27.7700
  12   2.0000      -0.919700       -25.0263
  13   2.0000      -0.748506       -20.3679
  14   2.0000      -0.667436       -18.1619
  15   2.0000      -0.615080       -16.7372
  16   2.0000      -0.537276       -14.6200
  17   2.0000      -0.524384       -14.2692
  18   2.0000      -0.493231       -13.4215
  19   2.0000      -0.445103       -12.1119
  20   2.0000      -0.430647       -11.7185
  21   2.0000      -0.406575       -11.0635
  22   2.0000      -0.389304       -10.5935
  23   2.0000      -0.365164        -9.9366
  24   2.0000      -0.354490        -9.6462
  25   2.0000      -0.334785        -9.1100
  26   2.0000      -0.292118        -7.9489
  27   2.0000      -0.279428        -7.6036
  28   2.0000      -0.262973        -7.1559
  29   0.0000      -0.033387        -0.9085
  30   0.0000       0.001976         0.0538
  31   0.0000       0.013363         0.3636
  32   0.0000       0.019673         0.5353
  33   0.0000       0.023325         0.6347

MULLIKEN ATOMIC CHARGES
-----------------------
   0 C :    0.805802
   1 C :   -0.364640
   2 H :   -0.039210
   3 H :    0.000385
   4 S :    1.365905
   5 O :   -0.596831
   6 F :   -0.358282
   7 O :   -0.647831
   8 H :   -0.034501
   9 H :   -0.078478
  10 H :   -0.052318
Sum of atomic charges:   -0.0000000

LOEWDIN ATOMIC CHARGES
----------------------
   0 C :    0.128417
   1 C :   -0.100301
   2 H :    0.036757
   3 H :    0.018023
   4 S :    1.067026
   5 O :   -0.437118
   6 F :   -0.238006
   7 O :   -0.454441
   8 H :   -0.005789
   9 H :   -0.005426
  10 H :   -0.009142

  Mayer bond orders larger than 0.100000
B(  0-C ,  1-C ) :   1.3468 B(  0-C ,  8-H ) :   0.8218 B(  0-C ,  9-H ) :   0.7286
B(  0-C , 10-H ) :   0.7939 B(  1-C ,  2-H ) :   0.9936 B(  1-C ,  3-H ) :   0.9541
B(  1-C ,  4-S ) :   0.9787 B(  1-C ,  8-H ) :   0.2004 B(  1-C ,  9-H ) :   0.2209
B(  1-C , 10-H ) :   0.2034 B(  4-S ,  5-O ) :   1.5758 B(  4-S ,  6-F ) :   0.7098
B(  4-S ,  7-O ) :   1.5185

Dispersion correction           -0.009238299
FINAL SINGLE POINT ENERGY      -726.758647950724

DIPOLE MOMENT
-------------
                                X             Y             Z
Electronic contribution:     -7.91886      -2.44070      -3.92927
Nuclear contribution   :      8.30151       3.35500       5.26935
                        -----------------------------------------
Total Dipole Moment    :      0.38265       0.91430       1.34008
                        -----------------------------------------
Magnitude (a.u.)       :      1.66679
Magnitude (Debye)      :      4.23665

Rotational constants in cm-1:     0.152913     0.083043     0.080351
Rotational constants in MHz :  4584.227971  2489.580280  2408.872860

                             ****ORCA TERMINATED NORMALLY****
TOTAL RUN TIME: 0 days 0 hours 0 minutes 5 seconds 826 msec
