                         Program Version 5.0.0 -  RELEASE  -
|  1> !PBE D3BJ RIJCOSX def2-SVPD def2/J TightSCF
|  2> *xyz 0 1
|  3> C          3.38093        2.08304       -3.35013
|  4> N          4.53592        1.18245       -3.42852
|  5> C          2.49556        1.81615       -2.13636
|  6> C          4.67196        0.12227       -4.22060
|  7> C          5.86602       -0.50785       -4.22428
|  8> N          3.69888       -0.31284       -4.98699
|  9> H          2.73141       -0.05009       -4.84900
| 10> H          3.89005       -1.05517       -5.64373
| 11> H          5.25193        1.30346       -2.72101
| 12> H          6.69516       -0.06232       -3.85160
| 13> H          5.97538       -1.39688       -4.69141
| 14> H          2.80646        1.98651       -4.26848
| 15> H          3.77871        3.09828       -3.30738
| 16> H          2.11090        0.81901       -2.18783
| 17> H          1.68276        2.51198       -2.12786
| 18> H          3.07216        1.93031       -1.24227
| 19> *
| 20>
| 21> %MaxCore 64000
| 22>
| 23> %pal nprocs 4
| 24> end
| 25>
| 26> %scf
| 27>   MaxIter 150
| 28> end
| 29>
| 30>
| 31>                          ****END OF INPUT****

CARTESIAN COORDINATES (ANGSTROEM)
---------------------------------
  C      3.380930    2.083040   -3.350130
  N      4.535920    1.182450   -3.428520
  C      2.495560    1.816150   -2.136360
  C      4.671960    0.122270   -4.220600
  C      5.866020   -0.507850   -4.224280
  N      3.698880   -0.312840   -4.986990
  H      2.731410   -0.050090   -4.849000
  H      3.890050   -1.055170   -5.643730
  H      5.251930    1.303460   -2.721010
  H      6.695160   -0.062320   -3.851600
  H      5.975380   -1.396880   -4.691410
  H      2.806460    1.986510   -4.268480
  H      3.778710    3.098280   -3.307380
  H      2.110900    0.819010   -2.187830
  H      1.682760    2.511980   -2.127860
  H      3.072160    1.930310   -1.242270

 Total Charge           Charge          ....    0
 Multiplicity           Mult            ....    1
 Number of Electrons    NEL             ....   48
 Basis Dimension        Dim             ....  200

ORBITAL ENERGIES
----------------

  NO   OCC          E(Eh)            E(eV)
   0   2.0000     -14.003369      -381.0511
   1   2.0000     -14.001932      -381.0119
   2   2.0000      -9.935564      -270.3604
   3   2.0000      -9.935090      -270.3476
   4   2.0000      -9.889583      -269.1092
   5   2.0000      -9.805914      -266.8325
   6   2.0000      -0.878439       -23.9035
   7   2.0000      -0.803108       -21.8537
   8   2.0000      -0.695564       -18.9272
   9   2.0000      -0.623691       -16.9715
  10   2.0000      -0.561610       -15.2822
  11   2.0000      -0.545711       -14.8495
  12   2.0000      -0.491462       -13.3734
  13   2.0000      -0.448333       -12.1998
  14   2.0000      -0.433371       -11.7926
  15   2.0000      -0.399037       -10.8583
  16   2.0000      -0.381389       -10.3781
  17   2.0000      -0.355868        -9.6837
  18   2.0000      -0.342386        -9.3168
  19   2.0000      -0.325810        -8.8657
  20   2.0000      -0.319594        -8.6966
  21   2.0000      -0.308222        -8.3871
  22   2.0000      -0.213660        -5.8140
  23   2.0000      -0.127194        -3.4611
  24   0.0000      -0.009889        -0.2691
  25   0.0000       0.020089         0.5467
  26   0.0000       0.025812         0.7024
  27   0.0000       0.035503         0.9661
  28   0.0000       0.048867         1.3297

MULLIKEN ATOMIC CHARGES
-----------------------
   0 C :    0.356668
   1 N :   -0.340955
   2 C :    0.672032
   3 C :    0.771722
   4 C :    0.448123
   5 N :    0.115776
   6 H :   -0.196691
   7 H :   -0.116334
   8 H :   -0.317853
   9 H :   -0.404825
  10 H :   -0.377582
  11 H :   -0.157755
  12 H :   -0.278381
  13 H :   -0.104605
  14 H :    0.004257
  15 H :   -0.073599
Sum of atomic charges:   -0.0000000

LOEWDIN ATOMIC CHARGES
----------------------
   0 C :    0.008717
   1 N :   -0.003018
   2 C :    0.128882
   3 C :   -0.251768
   4 C :    0.144034
   5 N :    0.204196
   6 H :   -0.017257
   7 H :    0.008684
   8 H :    0.033539
   9 H :   -0.107367
  10 H :   -0.111041
  11 H :    0.006959
  12 H :    0.015356
  13 H :   -0.020823
  14 H :   -0.019680
  15 H :   -0.019413

  Mayer bond orders larger than 0.100000
B(  0-C ,  1-N ) :   0.9224 B(  0-C ,  2-C ) :   1.2761 B(  0-C ,  8-H ) :  -0.2317
B(  0-C , 11-H ) :   0.8694 B(  0-C , 12-H ) :   0.8819 B(  0-C , 13-H ) :   0.2207
B(  0-C , 14-H ) :   0.1948 B(  0-C , 15-H ) :   0.2321 B(  1-N ,  3-C ) :   0.9749
B(  1-N ,  4-C ) :   0.2607 B(  1-N ,  5-N ) :   0.2366 B(  1-N ,  8-H ) :   1.3061
B(  1-N , 11-H ) :   0.1684 B(  1-N , 12-H ) :   0.1787 B(  2-C , 13-H ) :   0.8308
B(  2-C , 14-H ) :   0.7787 B(  2-C , 15-H ) :   0.7964 B(  3-C ,  4-C ) :   1.2952
B(  3-C ,  5-N ) :   1.0110 B(  3-C ,  6-H ) :  -0.1258 B(  3-C ,  8-H ) :  -0.2465
B(  3-C , 10-H ) :   0.2129 B(  4-C ,  5-N ) :   0.2326 B(  4-C ,  9-H ) :   0.8905
B(  4-C , 10-H ) :   0.7440 B(  5-N ,  6-H ) :   1.1979 B(  5-N ,  7-H ) :   1.2060
B(  6-H ,  7-H ) :  -0.1893

Dispersion correction           -0.012481133
FINAL SINGLE POINT ENERGY      -267.389385118237

DIPOLE MOMENT
-------------
                                X             Y             Z
Electronic contribution:      1.54353      -1.11921      -2.05302
Nuclear contribution   :     -2.56090       1.59955       2.15496
                        -----------------------------------------
Total Dipole Moment    :     -1.01737       0.48034       0.10195
                        -----------------------------------------
Magnitude (a.u.)       :      1.12968
Magnitude (Debye)      :      2.87141

Rotational constants in cm-1:     0.249834     0.071381     0.061833
Rotational constants in MHz :  7489.842787  2139.945635  1853.706310

                             ****ORCA TERMINATED NORMALLY****
TOTAL RUN TIME: 0 days 0 hours 0 minutes 8 seconds 640 msec
