                         Program Version 5.0.0 -  RELEASE  -
|  1> !PBE D3BJ RIJCOSX def2-SVPD def2/J TightSCF
|  2> *xyz 0 1
|  3> C          2.49556        1.81615       -2.13636
|  4> C          1.87218        0.42790       -2.07750
|  5> H          2.61427       -0.36583       -2.19889
|  6> H          1.38995        0.27309       -1.11236
|  7> S          0.57902        0.14047       -3.29794
|  8> O          0.22886       -1.24687       -3.12787
|  9> O         -0.43927        1.11897       -3.01455
| 10> F          1.24788        0.40347       -4.59565
| 11> H          2.96535        1.95613       -3.08747
| 12> H          3.22581        1.91242       -1.36024
| 13> H          1.73350        2.55528       -2.00274
| 14> *
| 15>
| 16> %MaxCore 64000
| 17>
| 18> %pal nprocs 4
| 19> end
| 20>
| 21> %scf
| 22>   MaxIter 150
| 23> end
| 24>
| 25>
| 26>                          ****END OF INPUT****

CARTESIAN COORDINATES (ANGSTROEM)
---------------------------------
  C      2.495560    1.816150   -2.136360
  C      1.872180    0.427900   -2.077500
  H      2.614270   -0.365830   -2.198890
  H      1.389950    0.273090   -1.112360
  S      0.579020    0.140470   -3.297940
  O      0.228860   -1.246870   -3.127870
  O     -0.439270    1.118970   -3.014550
  F      1.247880    0.403470   -4.595650
  H      2.965350    1.956130   -3.087470
  H      3.225810    1.912420   -1.360240
  H      1.733500    2.555280   -2.002740

 Total Charge           Charge          ....    0
 Multiplicity           Mult            ....    1
 Number of Electrons    NEL             ....   58
 Basis Dimension        Dim             ....  176

ORBITAL ENERGIES
----------------

  NO   OCC          E(Eh)            E(eV)
   0   2.0000     -88.307183     -2402.9606
   1   2.0000     -24.369222      -663.1202
   2   2.0000     -18.779662      -511.0206
   3   2.0000     -18.779325      -511.0114
   4   2.0000      -9.954778      -270.8833
   5   2.0000      -9.917037      -269.8563
   6   2.0000      -7.912685      -215.3151
   7   2.0000      -5.943720      -161.7368
   8   2.0000      -5.937670      -161.5722
   9   2.0000      -5.935987      -161.5264
  10   2.0000      -1.238816       -33.7099
  11   2.0000      -1.030252       -28.0346
  12   2.0000      -0.940414       -25.5900
  13   2.0000      -0.747626       -20.3439
  14   2.0000      -0.653827       -17.7915
  15   2.0000      -0.608910       -16.5693
  16   2.0000      -0.522670       -14.2226
  17   2.0000      -0.500599       -13.6220
  18   2.0000      -0.489831       -13.3290
  19   2.0000      -0.445903       -12.1336
  20   2.0000      -0.426451       -11.6043
  21   2.0000      -0.408526       -11.1166
  22   2.0000      -0.392747       -10.6872
  23   2.0000      -0.365760        -9.9528
  24   2.0000      -0.359087        -9.7712
  25   2.0000      -0.337629        -9.1874
  26   2.0000      -0.298769        -8.1299
  27   2.0000      -0.290505        -7.9051
  28   2.0000      -0.277922        -7.5626
  29   0.0000      -0.031213        -0.8494
  30   0.0000       0.005118         0.1393
  31   0.0000       0.015431         0.4199
  32   0.0000       0.021465         0.5841
  33   0.0000       0.026309         0.7159

MULLIKEN ATOMIC CHARGES
-----------------------
   0 C :    0.800784
   1 C :   -0.364768
   2 H :   -0.041682
   3 H :    0.004961
   4 S :    1.374827
   5 O :   -0.609081
   6 O :   -0.619162
   7 F :   -0.381326
   8 H :   -0.057444
   9 H :   -0.080083
  10 H :   -0.027026
Sum of atomic charges:    0.0000000

LOEWDIN ATOMIC CHARGES
----------------------
   0 C :    0.128212
   1 C :   -0.099578
   2 H :    0.024103
   3 H :    0.031989
   4 S :    1.064696
   5 O :   -0.437472
   6 O :   -0.434989
   7 F :   -0.256289
   8 H :   -0.010182
   9 H :   -0.005426
  10 H :   -0.005064

  Mayer bond orders larger than 0.100000
B(  0-C ,  1-C ) :   1.3457 B(  0-C ,  8-H ) :   0.8117 B(  0-C ,  9-H ) :   0.7299
B(  0-C , 10-H ) :   0.8050 B(  1-C ,  2-H ) :   0.9958 B(  1-C ,  3-H ) :   0.9549
B(  1-C ,  4-S ) :   0.9781 B(  1-C ,  8-H ) :   0.1937 B(  1-C ,  9-H ) :   0.2226
B(  1-C , 10-H ) :   0.2066 B(  4-S ,  5-O ) :   1.5715 B(  4-S ,  6-O ) :   1.5447
B(  4-S ,  7-F ) :   0.6643 B(  5-O ,  6-O ) :   0.1119

Dispersion correction           -0.009235838
FINAL SINGLE POINT ENERGY      -726.777035982211

DIPOLE MOMENT
-------------
                                X             Y             Z
Electronic contribution:     -5.11594      -3.61885      -6.56256
Nuclear contribution   :      6.54345       4.10057       6.91691
                        -----------------------------------------
Total Dipole Moment    :      1.42751       0.48173       0.35434
                        -----------------------------------------
Magnitude (a.u.)       :      1.54771
Magnitude (Debye)      :      3.93397

Rotational constants in cm-1:     0.152835     0.082826     0.080611
Rotational constants in MHz :  4581.878371  2483.049050  2416.647141

                             ****ORCA TERMINATED NORMALLY****
TOTAL RUN TIME: 0 days 0 hours 0 minutes 6 seconds 65 msec
