                         Program Version 5.0.0 -  RELEASE  -
|  1> !PBE D3BJ RIJCOSX def2-SVPD def2/J TightSCF
|  2> *xyz 0 1
|  3> C          3.38093        2.08304       -3.35013
|  4> N          4.53592        1.18245       -3.42852
|  5> C          2.49556        1.81615       -2.13636
|  6> C          4.67196        0.12227       -4.22060
|  7> N          5.86602       -0.50785       -4.22428
|  8> C          3.69888       -0.31284       -4.98699
|  9> H          2.73141       -0.05009       -4.84900
| 10> H          3.89005       -1.05517       -5.64373
| 11> H          5.25193        1.30346       -2.72101
| 12> H          6.69516       -0.06232       -3.85160
| 13> H          5.97538       -1.39688       -4.69141
| 14> H          2.80646        1.98651       -4.26848
| 15> H          3.77871        3.09828       -3.30738
| 16> H          2.11090        0.81901       -2.18783
| 17> H          1.68276        2.51198       -2.12786
| 18> H          3.07216        1.93031       -1.24227
| 19> *
| 20>
| 21> %MaxCore 64000
| 22>
| 23> %pal nprocs 4
| 24> end
| 25>
| 26> %scf
| 27>   MaxIter 150
| 28> end
| 29>
| 30>
| 31>                          ****END OF INPUT****

CARTESIAN COORDINATES (ANGSTROEM)
---------------------------------
  C      3.380930    2.083040   -3.350130
  N      4.535920    1.182450   -3.428520
  C      2.495560    1.816150   -2.136360
  C      4.671960    0.122270   -4.220600
  N      5.866020   -0.507850   -4.224280
  C      3.698880   -0.312840   -4.986990
  H      2.731410   -0.050090   -4.849000
  H      3.890050   -1.055170   -5.643730
  H      5.251930    1.303460   -2.721010
  H      6.695160   -0.062320   -3.851600
  H      5.975380   -1.396880   -4.691410
  H      2.806460    1.986510   -4.268480
  H      3.778710    3.098280   -3.307380
  H      2.110900    0.819010   -2.187830
  H      1.682760    2.511980   -2.127860
  H      3.072160    1.930310   -1.242270

 Total Charge           Charge          ....    0
 Multiplicity           Mult            ....    1
 Number of Electrons    NEL             ....   48
 Basis Dimension        Dim             ....  200

ORBITAL ENERGIES
----------------

  NO   OCC          E(Eh)            E(eV)
   0   2.0000     -14.002599      -381.0301
   1   2.0000     -13.997389      -380.8883
   2   2.0000      -9.933577      -270.3064
   3   2.0000      -9.927292      -270.1354
   4   2.0000      -9.882568      -268.9183
   5   2.0000      -9.809999      -266.9437
   6   2.0000      -0.872652       -23.7461
   7   2.0000      -0.794557       -21.6210
   8   2.0000      -0.681502       -18.5446
   9   2.0000      -0.636935       -17.3319
  10   2.0000      -0.574234       -15.6257
  11   2.0000      -0.507391       -13.8068
  12   2.0000      -0.492861       -13.4114
  13   2.0000      -0.462884       -12.5957
  14   2.0000      -0.413016       -11.2387
  15   2.0000      -0.400284       -10.8923
  16   2.0000      -0.373506       -10.1636
  17   2.0000      -0.355693        -9.6789
  18   2.0000      -0.334536        -9.1032
  19   2.0000      -0.332125        -9.0376
  20   2.0000      -0.310398        -8.4464
  21   2.0000      -0.305530        -8.3139
  22   2.0000      -0.206352        -5.6151
  23   2.0000      -0.138915        -3.7801
  24   0.0000      -0.003806        -0.1036
  25   0.0000       0.017475         0.4755
  26   0.0000       0.031437         0.8555
  27   0.0000       0.037759         1.0275
  28   0.0000       0.054937         1.4949

MULLIKEN ATOMIC CHARGES
-----------------------
   0 C :    0.336150
   1 N :   -0.403435
   2 C :    0.651563
   3 C :    0.985061
   4 N :    0.049790
   5 C :    0.149754
   6 H :   -0.209849
   7 H :   -0.420098
   8 H :   -0.392119
   9 H :   -0.212109
  10 H :   -0.051408
  11 H :   -0.049319
  12 H :   -0.267528
  13 H :   -0.097856
  14 H :   -0.006386
  15 H :   -0.062212
Sum of atomic charges:    0.0000000

LOEWDIN ATOMIC CHARGES
----------------------
   0 C :    0.018165
   1 N :   -0.012522
   2 C :    0.132533
   3 C :   -0.250914
   4 N :    0.192499
   5 C :    0.152497
   6 H :   -0.102288
   7 H :   -0.098352
   8 H :    0.017906
   9 H :   -0.018070
  10 H :   -0.001992
  11 H :    0.013421
  12 H :    0.015951
  13 H :   -0.017168
  14 H :   -0.018854
  15 H :   -0.022811

  Mayer bond orders larger than 0.100000
B(  0-C ,  1-N ) :   0.8910 B(  0-C ,  2-C ) :   1.2783 B(  0-C ,  5-C ) :   0.1036
B(  0-C ,  8-H ) :  -0.2095 B(  0-C , 11-H ) :   0.8579 B(  0-C , 12-H ) :   0.8937
B(  0-C , 13-H ) :   0.2084 B(  0-C , 14-H ) :   0.1962 B(  0-C , 15-H ) :   0.2105
B(  1-N ,  3-C ) :   0.8493 B(  1-N ,  4-N ) :   0.2110 B(  1-N ,  5-C ) :   0.4089
B(  1-N ,  8-H ) :   1.4050 B(  1-N , 11-H ) :   0.1351 B(  1-N , 12-H ) :   0.1749
B(  2-C , 13-H ) :   0.8420 B(  2-C , 14-H ) :   0.7838 B(  2-C , 15-H ) :   0.8112
B(  3-C ,  4-N ) :   0.8598 B(  3-C ,  5-C ) :   1.4005 B(  3-C ,  6-H ) :   0.1230
B(  3-C ,  7-H ) :   0.1789 B(  3-C ,  8-H ) :  -0.3088 B(  3-C ,  9-H ) :  -0.1403
B(  4-N ,  5-C ) :   0.3182 B(  4-N ,  9-H ) :   1.2433 B(  4-N , 10-H ) :   1.1445
B(  5-C ,  6-H ) :   0.7182 B(  5-C ,  7-H ) :   0.8885 B(  9-H , 10-H ) :  -0.1722

Dispersion correction           -0.012543954
FINAL SINGLE POINT ENERGY      -267.393466932221

DIPOLE MOMENT
-------------
                                X             Y             Z
Electronic contribution:      3.66560      -1.33471      -1.36703
Nuclear contribution   :     -3.02065       1.64092       1.99316
                        -----------------------------------------
Total Dipole Moment    :      0.64496       0.30621       0.62613
                        -----------------------------------------
Magnitude (a.u.)       :      0.94962
Magnitude (Debye)      :      2.41374

Rotational constants in cm-1:     0.259304     0.069422     0.060943
Rotational constants in MHz :  7773.747720  2081.225169  1827.013389

                             ****ORCA TERMINATED NORMALLY****
TOTAL RUN TIME: 0 days 0 hours 0 minutes 7 seconds 826 msec
