                         Program Version 5.0.0 -  RELEASE  -
|  1> !PBE D3BJ RIJCOSX def2-SVPD def2/J TightSCF xyzfile
|  2>
|  3> *xyzfile 0 1 D2.xyz
|  4>
|  5> %MaxCore 64000
|  6>
|  7> %pal nprocs 4
|  8> end
|  9>
| 10> %scf
| 11>   MaxIter 150
| 12> end
| 13>
| 14>
| 15>                          ****END OF INPUT****

CARTESIAN COORDINATES (ANGSTROEM)
---------------------------------
  C      3.380928    2.083045   -3.350127
  N      4.535924    1.182447   -3.428518
  C      2.495557    1.816150   -2.136364
  C      1.872181    0.427903   -2.077497
  H      2.614270   -0.365825   -2.198894
  H      1.389953    0.273087   -1.112360
  S      0.579024    0.140472   -3.297943
  C      4.671956    0.122273   -4.220598
  C      5.866023   -0.507849   -4.224284
  N      3.698881   -0.312844   -4.986988
  H      2.731405   -0.050091   -4.849000
  H      3.890046   -1.055172   -5.643730
  H      5.251933    1.303459   -2.721014
  H      6.695165   -0.062322   -3.851596
  H      5.975383   -1.396884   -4.691414
  F      0.228860   -1.246868   -3.127871
  O     -0.439269    1.118966   -3.014550
  O      1.247881    0.403474   -4.595647
  H      1.697003    2.561969   -2.141109
  H      3.080787    1.987436   -1.225838
  H      2.806463    1.986511   -4.268484
  H      3.778714    3.098282   -3.307383

 Total Charge           Charge          ....    0
 Multiplicity           Mult            ....    1
 Number of Electrons    NEL             ....   96
 Basis Dimension        Dim             ....  324

ORBITAL ENERGIES
----------------

  NO   OCC          E(Eh)            E(eV)
   0   2.0000     -88.333307     -2403.6715
   1   2.0000     -24.408298      -664.1835
   2   2.0000     -18.799444      -511.5589
   3   2.0000     -18.794387      -511.4213
   4   2.0000     -14.003846      -381.0640
   5   2.0000     -13.975138      -380.2828
   6   2.0000      -9.966381      -271.1990
   7   2.0000      -9.938417      -270.4381
   8   2.0000      -9.933897      -270.3151
   9   2.0000      -9.928674      -270.1730
  10   2.0000      -9.799993      -266.6714
  11   2.0000      -7.937856      -216.0000
  12   2.0000      -5.969086      -162.4271
  13   2.0000      -5.962955      -162.2603
  14   2.0000      -5.960845      -162.2028
  15   2.0000      -1.291538       -35.1445
  16   2.0000      -1.044856       -28.4320
  17   2.0000      -0.948808       -25.8184
  18   2.0000      -0.873018       -23.7560
  19   2.0000      -0.796946       -21.6860
  20   2.0000      -0.759904       -20.6780
  21   2.0000      -0.701064       -19.0769
  22   2.0000      -0.659919       -17.9573
  23   2.0000      -0.619114       -16.8470
  24   2.0000      -0.574726       -15.6391
  25   2.0000      -0.546089       -14.8598
  26   2.0000      -0.540578       -14.7099
  27   2.0000      -0.535212       -14.5639
  28   2.0000      -0.524775       -14.2799
  29   2.0000      -0.491467       -13.3735
  30   2.0000      -0.458864       -12.4863
  31   2.0000      -0.442702       -12.0465
  32   2.0000      -0.441365       -12.0102
  33   2.0000      -0.434605       -11.8262
  34   2.0000      -0.417077       -11.3493
  35   2.0000      -0.401594       -10.9279
  36   2.0000      -0.372283       -10.1303
  37   2.0000      -0.363853        -9.9010
  38   2.0000      -0.362598        -9.8668
  39   2.0000      -0.343453        -9.3458
  40   2.0000      -0.338972        -9.2239
  41   2.0000      -0.326210        -8.8766
  42   2.0000      -0.312919        -8.5149
  43   2.0000      -0.303288        -8.2529
  44   2.0000      -0.298469        -8.1218
  45   2.0000      -0.282004        -7.6737
  46   2.0000      -0.208385        -5.6704
  47   2.0000      -0.122255        -3.3267
  48   0.0000      -0.043972        -1.1966
  49   0.0000      -0.017817        -0.4848
  50   0.0000       0.001843         0.0502
  51   0.0000       0.008365         0.2276
  52   0.0000       0.011372         0.3094

MULLIKEN ATOMIC CHARGES
-----------------------
   0 C :    0.970196
   1 N :   -0.370822
   2 C :    0.139043
   3 C :    0.086935
   4 H :    0.155307
   5 H :   -0.149311
   6 S :    1.458695
   7 C :    0.533215
   8 C :    0.410185
   9 N :    0.635767
  10 H :   -0.448213
  11 H :   -0.209011
  12 H :   -0.276406
  13 H :   -0.383682
  14 H :   -0.279141
  15 F :   -0.375490
  16 O :   -0.638681
  17 O :   -0.811903
  18 H :    0.015258
  19 H :   -0.036010
  20 H :   -0.057189
  21 H :   -0.368743
Sum of atomic charges:   -0.0000000

LOEWDIN ATOMIC CHARGES
----------------------
   0 C :    0.070809
   1 N :    0.006588
   2 C :   -0.011893
   3 C :   -0.047864
   4 H :    0.022887
   5 H :    0.020858
   6 S :    1.122286
   7 C :   -0.254246
   8 C :    0.139721
   9 N :    0.238978
  10 H :   -0.156612
  11 H :    0.012991
  12 H :    0.032643
  13 H :   -0.112284
  14 H :   -0.111728
  15 F :   -0.224051
  16 O :   -0.417328
  17 O :   -0.431115
  18 H :    0.032341
  19 H :    0.037855
  20 H :    0.005142
  21 H :    0.024021

  Mayer bond orders larger than 0.100000
B(  0-C ,  1-N ) :   0.9444 B(  0-C ,  2-C ) :   1.1105 B(  0-C , 12-H ) :  -0.2110
B(  0-C , 18-H ) :   0.1611 B(  0-C , 19-H ) :   0.1474 B(  0-C , 20-H ) :   0.7292
B(  0-C , 21-H ) :   0.8002 B(  1-N ,  7-C ) :   0.9770 B(  1-N ,  8-C ) :   0.2421
B(  1-N ,  9-N ) :   0.1765 B(  1-N , 12-H ) :   1.2673 B(  1-N , 20-H ) :   0.2421
B(  1-N , 21-H ) :   0.1713 B(  2-C ,  3-C ) :   1.3217 B(  2-C ,  4-H ) :   0.1541
B(  2-C ,  5-H ) :   0.1866 B(  2-C , 18-H ) :   0.8114 B(  2-C , 19-H ) :   0.7674
B(  2-C , 20-H ) :   0.1488 B(  3-C ,  4-H ) :   0.8744 B(  3-C ,  5-H ) :   0.7689
B(  3-C ,  6-S ) :   0.9334 B(  3-C , 17-O ) :   0.1726 B(  3-C , 18-H ) :   0.1397
B(  3-C , 19-H ) :   0.1278 B(  6-S , 15-F ) :   0.6880 B(  6-S , 16-O ) :   1.5442
B(  6-S , 17-O ) :   1.3859 B(  7-C ,  8-C ) :   1.3431 B(  7-C ,  9-N ) :   1.0920
B(  7-C , 10-H ) :  -0.1121 B(  7-C , 11-H ) :  -0.1115 B(  7-C , 12-H ) :  -0.2181
B(  7-C , 13-H ) :   0.1371 B(  7-C , 14-H ) :   0.2192 B(  8-C ,  9-N ) :   0.1728
B(  8-C , 13-H ) :   0.7499 B(  8-C , 14-H ) :   0.7689 B(  9-N , 10-H ) :   0.9259
B(  9-N , 11-H ) :   1.1718 B(  9-N , 20-H ) :   0.1324 B( 10-H , 11-H ) :  -0.2389
B( 10-H , 17-O ) :   0.1393 B( 13-H , 14-H ) :   0.1759 B( 20-H , 21-H ) :  -0.1554

Dispersion correction           -0.025099932
FINAL SINGLE POINT ENERGY      -953.736276660322

DIPOLE MOMENT
-------------
                                X             Y             Z
Electronic contribution:    -16.72691      -5.21752      -0.41804
Nuclear contribution   :     16.05479       5.17692       1.74190
                        -----------------------------------------
Total Dipole Moment    :     -0.67212      -0.04060       1.32385
                        -----------------------------------------
Magnitude (a.u.)       :      1.48526
Magnitude (Debye)      :      3.77522

Rotational constants in cm-1:     0.058652     0.021107     0.018077
Rotational constants in MHz :  1758.344290   632.763813   541.920558

                             ****ORCA TERMINATED NORMALLY****
TOTAL RUN TIME: 0 days 0 hours 0 minutes 23 seconds 943 msec
