                         Program Version 5.0.0 -  RELEASE  -
|  1> !PBE D3BJ RIJCOSX def2-SVPD def2/J TightSCF xyzfile
|  2>
|  3> *xyzfile 0 1 D7.xyz
|  4>
|  5> %MaxCore 64000
|  6>
|  7> %pal nprocs 4
|  8> end
|  9>
| 10> %scf
| 11>   MaxIter 150
| 12> end
| 13>
| 14>
| 15>                          ****END OF INPUT****

CARTESIAN COORDINATES (ANGSTROEM)
---------------------------------
  C      3.380928    2.083045   -3.350127
  C      4.535924    1.182447   -3.428518
  C      2.495557    1.816150   -2.136364
  C      1.872181    0.427903   -2.077497
  H      2.614270   -0.365825   -2.198894
  H      1.389953    0.273087   -1.112360
  S      0.579024    0.140472   -3.297943
  C      4.671956    0.122273   -4.220598
  N      5.866023   -0.507849   -4.224284
  N      3.698881   -0.312844   -4.986988
  H      2.731405   -0.050091   -4.849000
  H      3.890046   -1.055172   -5.643730
  H      5.251933    1.303459   -2.721014
  H      6.695165   -0.062322   -3.851596
  H      5.975383   -1.396884   -4.691414
  O      0.228860   -1.246868   -3.127871
  O     -0.439269    1.118966   -3.014550
  F      1.247881    0.403474   -4.595647
  H      1.697003    2.561969   -2.141109
  H      3.080787    1.987436   -1.225838
  H      2.806463    1.986511   -4.268484
  H      3.778714    3.098282   -3.307383

 Total Charge           Charge          ....    0
 Multiplicity           Mult            ....    1
 Number of Electrons    NEL             ....   96
 Basis Dimension        Dim             ....  324

ORBITAL ENERGIES
----------------

  NO   OCC          E(Eh)            E(eV)
   0   2.0000     -88.309718     -2403.0296
   1   2.0000     -24.385952      -663.5755
   2   2.0000     -18.781867      -511.0806
   3   2.0000     -18.781456      -511.0694
   4   2.0000     -14.007736      -381.1699
   5   2.0000     -14.006596      -381.1389
   6   2.0000      -9.945985      -270.6440
   7   2.0000      -9.943887      -270.5869
   8   2.0000      -9.908299      -269.6185
   9   2.0000      -9.890147      -269.1246
  10   2.0000      -9.834546      -267.6116
  11   2.0000      -7.914864      -215.3744
  12   2.0000      -5.946365      -161.8088
  13   2.0000      -5.939748      -161.6288
  14   2.0000      -5.937720      -161.5736
  15   2.0000      -1.257868       -34.2283
  16   2.0000      -1.033850       -28.1325
  17   2.0000      -0.942065       -25.6349
  18   2.0000      -0.881821       -23.9956
  19   2.0000      -0.795741       -21.6532
  20   2.0000      -0.750870       -20.4322
  21   2.0000      -0.693326       -18.8664
  22   2.0000      -0.663945       -18.0669
  23   2.0000      -0.621369       -16.9083
  24   2.0000      -0.581822       -15.8322
  25   2.0000      -0.538198       -14.6451
  26   2.0000      -0.526412       -14.3244
  27   2.0000      -0.514204       -13.9922
  28   2.0000      -0.502169       -13.6647
  29   2.0000      -0.491818       -13.3831
  30   2.0000      -0.462355       -12.5813
  31   2.0000      -0.444780       -12.1031
  32   2.0000      -0.430343       -11.7102
  33   2.0000      -0.425189       -11.5700
  34   2.0000      -0.412459       -11.2236
  35   2.0000      -0.406254       -11.0547
  36   2.0000      -0.370027       -10.0690
  37   2.0000      -0.362935        -9.8760
  38   2.0000      -0.360433        -9.8079
  39   2.0000      -0.341407        -9.2902
  40   2.0000      -0.323632        -8.8065
  41   2.0000      -0.309711        -8.4277
  42   2.0000      -0.300464        -8.1760
  43   2.0000      -0.296703        -8.0737
  44   2.0000      -0.285592        -7.7713
  45   2.0000      -0.278309        -7.5732
  46   2.0000      -0.231788        -6.3073
  47   2.0000      -0.144000        -3.9184
  48   0.0000      -0.029822        -0.8115
  49   0.0000      -0.006939        -0.1888
  50   0.0000       0.006740         0.1834
  51   0.0000       0.017517         0.4767
  52   0.0000       0.021825         0.5939

MULLIKEN ATOMIC CHARGES
-----------------------
   0 C :    0.368338
   1 C :   -0.157892
   2 C :    0.214636
   3 C :    0.127508
   4 H :    0.080452
   5 H :   -0.104263
   6 S :    1.336148
   7 C :    0.995026
   8 N :   -0.026209
   9 N :    0.468727
  10 H :   -0.301094
  11 H :   -0.273701
  12 H :   -0.330762
  13 H :   -0.125857
  14 H :   -0.141338
  15 O :   -0.626842
  16 O :   -0.658979
  17 F :   -0.512586
  18 H :    0.019389
  19 H :   -0.017590
  20 H :   -0.163866
  21 H :   -0.169244
Sum of atomic charges:   -0.0000000

LOEWDIN ATOMIC CHARGES
----------------------
   0 C :   -0.043480
   1 C :   -0.022303
   2 C :   -0.034787
   3 C :   -0.041569
   4 H :    0.019416
   5 H :    0.031992
   6 S :    1.077420
   7 C :   -0.223953
   8 N :    0.195956
   9 N :    0.238860
  10 H :   -0.101102
  11 H :    0.001391
  12 H :   -0.045600
  13 H :    0.001184
  14 H :   -0.017088
  15 O :   -0.429264
  16 O :   -0.423026
  17 F :   -0.263596
  18 H :    0.024303
  19 H :    0.036270
  20 H :   -0.003034
  21 H :    0.022009

  Mayer bond orders larger than 0.100000
B(  0-C ,  1-C ) :   1.1214 B(  0-C ,  2-C ) :   1.1764 B(  0-C , 12-H ) :   0.2476
B(  0-C , 18-H ) :   0.1749 B(  0-C , 19-H ) :   0.1894 B(  0-C , 20-H ) :   0.7885
B(  0-C , 21-H ) :   0.7585 B(  1-C ,  2-C ) :   0.1043 B(  1-C ,  7-C ) :   1.5104
B(  1-C ,  8-N ) :   0.4486 B(  1-C ,  9-N ) :   0.2419 B(  1-C , 10-H ) :  -0.1158
B(  1-C , 12-H ) :   0.7982 B(  1-C , 20-H ) :   0.2824 B(  1-C , 21-H ) :   0.1287
B(  2-C ,  3-C ) :   1.3077 B(  2-C ,  4-H ) :   0.1607 B(  2-C ,  5-H ) :   0.1769
B(  2-C , 18-H ) :   0.7767 B(  2-C , 19-H ) :   0.7236 B(  2-C , 20-H ) :   0.1598
B(  2-C , 21-H ) :   0.1121 B(  3-C ,  4-H ) :   0.9254 B(  3-C ,  5-H ) :   0.7466
B(  3-C ,  6-S ) :   0.9866 B(  3-C , 17-F ) :   0.1139 B(  3-C , 18-H ) :   0.1743
B(  3-C , 19-H ) :   0.1468 B(  5-H ,  6-S ) :   0.1127 B(  6-S , 15-O ) :   1.5448
B(  6-S , 16-O ) :   1.5339 B(  6-S , 17-F ) :   0.6528 B(  7-C ,  8-N ) :   0.6858
B(  7-C ,  9-N ) :   1.0209 B(  7-C , 10-H ) :  -0.1105 B(  7-C , 11-H ) :  -0.2384
B(  7-C , 12-H ) :   0.1346 B(  7-C , 13-H ) :  -0.1949 B(  7-C , 20-H ) :  -0.1488
B(  8-N ,  9-N ) :   0.1344 B(  8-N , 12-H ) :   0.1107 B(  8-N , 13-H ) :   1.2529
B(  8-N , 14-H ) :   1.1735 B(  9-N , 10-H ) :   1.1069 B(  9-N , 11-H ) :   1.2697
B( 10-H , 11-H ) :  -0.1942 B( 13-H , 14-H ) :  -0.1676 B( 15-O , 16-O ) :   0.1117

Dispersion correction           -0.025056433
FINAL SINGLE POINT ENERGY      -953.758861126119

DIPOLE MOMENT
-------------
                                X             Y             Z
Electronic contribution:    -13.23070      -3.85181      -3.65097
Nuclear contribution   :     14.80811       3.53278       3.42836
                        -----------------------------------------
Total Dipole Moment    :      1.57741      -0.31903      -0.22261
                        -----------------------------------------
Magnitude (a.u.)       :      1.62467
Magnitude (Debye)      :      4.12958

Rotational constants in cm-1:     0.059173     0.020923     0.018056
Rotational constants in MHz :  1773.956621   627.264018   541.303397

                             ****ORCA TERMINATED NORMALLY****
TOTAL RUN TIME: 0 days 0 hours 0 minutes 24 seconds 166 msec
