                         Program Version 5.0.0 -  RELEASE  -
|  1> !PBE D3BJ RIJCOSX def2-SVPD def2/J TightSCF xyzfile
|  2>
|  3> *xyzfile 0 1 D8.xyz
|  4>
|  5> %MaxCore 64000
|  6>
|  7> %pal nprocs 4
|  8> end
|  9>
| 10> %scf
| 11>   MaxIter 150
| 12> end
| 13>
| 14>
| 15>                          ****END OF INPUT****

CARTESIAN COORDINATES (ANGSTROEM)
---------------------------------
  C      3.380928    2.083045   -3.350127
  N      4.535924    1.182447   -3.428518
  C      2.495557    1.816150   -2.136364
  C      1.872181    0.427903   -2.077497
  H      2.614270   -0.365825   -2.198894
  H      1.389953    0.273087   -1.112360
  S      0.579024    0.140472   -3.297943
  C      4.671956    0.122273   -4.220598
  C      5.866023   -0.507849   -4.224284
  N      3.698881   -0.312844   -4.986988
  H      2.731405   -0.050091   -4.849000
  H      3.890046   -1.055172   -5.643730
  H      5.251933    1.303459   -2.721014
  H      6.695165   -0.062322   -3.851596
  H      5.975383   -1.396884   -4.691414
  O      0.228860   -1.246868   -3.127871
  O     -0.439269    1.118966   -3.014550
  F      1.247881    0.403474   -4.595647
  H      1.697003    2.561969   -2.141109
  H      3.080787    1.987436   -1.225838
  H      2.806463    1.986511   -4.268484
  H      3.778714    3.098282   -3.307383

 Total Charge           Charge          ....    0
 Multiplicity           Mult            ....    1
 Number of Electrons    NEL             ....   96
 Basis Dimension        Dim             ....  324

ORBITAL ENERGIES
----------------

  NO   OCC          E(Eh)            E(eV)
   0   2.0000     -88.322548     -2403.3787
   1   2.0000     -24.397108      -663.8790
   2   2.0000     -18.793874      -511.4073
   3   2.0000     -18.792886      -511.3804
   4   2.0000     -14.016717      -381.4143
   5   2.0000     -14.003332      -381.0500
   6   2.0000      -9.961962      -271.0788
   7   2.0000      -9.953342      -270.8442
   8   2.0000      -9.944431      -270.6017
   9   2.0000      -9.934473      -270.3308
  10   2.0000      -9.814306      -267.0608
  11   2.0000      -7.927578      -215.7204
  12   2.0000      -5.959025      -162.1533
  13   2.0000      -5.952403      -161.9731
  14   2.0000      -5.950599      -161.9240
  15   2.0000      -1.269279       -34.5388
  16   2.0000      -1.045589       -28.4519
  17   2.0000      -0.953699       -25.9515
  18   2.0000      -0.890451       -24.2304
  19   2.0000      -0.815680       -22.1958
  20   2.0000      -0.762125       -20.7385
  21   2.0000      -0.702144       -19.1063
  22   2.0000      -0.661115       -17.9899
  23   2.0000      -0.633902       -17.2494
  24   2.0000      -0.580336       -15.7917
  25   2.0000      -0.558132       -15.1875
  26   2.0000      -0.548186       -14.9169
  27   2.0000      -0.531816       -14.4714
  28   2.0000      -0.507093       -13.7987
  29   2.0000      -0.486171       -13.2294
  30   2.0000      -0.466423       -12.6920
  31   2.0000      -0.450465       -12.2578
  32   2.0000      -0.444106       -12.0847
  33   2.0000      -0.436648       -11.8818
  34   2.0000      -0.422780       -11.5044
  35   2.0000      -0.413480       -11.2514
  36   2.0000      -0.382949       -10.4206
  37   2.0000      -0.365812        -9.9543
  38   2.0000      -0.361401        -9.8342
  39   2.0000      -0.350730        -9.5439
  40   2.0000      -0.344163        -9.3652
  41   2.0000      -0.337402        -9.1812
  42   2.0000      -0.318622        -8.6701
  43   2.0000      -0.310494        -8.4490
  44   2.0000      -0.301099        -8.1933
  45   2.0000      -0.290667        -7.9094
  46   2.0000      -0.225570        -6.1381
  47   2.0000      -0.136947        -3.7265
  48   0.0000      -0.039985        -1.0880
  49   0.0000      -0.013036        -0.3547
  50   0.0000       0.000162         0.0044
  51   0.0000       0.008245         0.2243
  52   0.0000       0.012254         0.3334

MULLIKEN ATOMIC CHARGES
-----------------------
   0 C :    0.961287
   1 N :   -0.362812
   2 C :    0.171808
   3 C :    0.161386
   4 H :    0.132634
   5 H :   -0.165776
   6 S :    1.329623
   7 C :    0.580140
   8 C :    0.401799
   9 N :    0.610440
  10 H :   -0.418120
  11 H :   -0.190385
  12 H :   -0.273382
  13 H :   -0.379394
  14 H :   -0.270172
  15 O :   -0.617858
  16 O :   -0.654181
  17 F :   -0.519701
  18 H :    0.027214
  19 H :   -0.036907
  20 H :   -0.117452
  21 H :   -0.370191
Sum of atomic charges:   -0.0000000

LOEWDIN ATOMIC CHARGES
----------------------
   0 C :    0.065356
   1 N :    0.007506
   2 C :   -0.026591
   3 C :   -0.040168
   4 H :    0.023890
   5 H :    0.034266
   6 S :    1.079711
   7 C :   -0.250031
   8 C :    0.148899
   9 N :    0.237474
  10 H :   -0.111341
  11 H :    0.018752
  12 H :    0.036511
  13 H :   -0.105775
  14 H :   -0.106259
  15 O :   -0.420693
  16 O :   -0.420814
  17 F :   -0.264815
  18 H :    0.029323
  19 H :    0.035180
  20 H :    0.004214
  21 H :    0.025404

  Mayer bond orders larger than 0.100000
B(  0-C ,  1-N ) :   0.9483 B(  0-C ,  2-C ) :   1.1178 B(  0-C , 12-H ) :  -0.2111
B(  0-C , 18-H ) :   0.1557 B(  0-C , 19-H ) :   0.1526 B(  0-C , 20-H ) :   0.7277
B(  0-C , 21-H ) :   0.8062 B(  1-N ,  7-C ) :   0.9685 B(  1-N ,  8-C ) :   0.2447
B(  1-N ,  9-N ) :   0.1761 B(  1-N , 12-H ) :   1.2559 B(  1-N , 20-H ) :   0.2413
B(  1-N , 21-H ) :   0.1741 B(  2-C ,  3-C ) :   1.2805 B(  2-C ,  4-H ) :   0.1559
B(  2-C ,  5-H ) :   0.1780 B(  2-C , 18-H ) :   0.8118 B(  2-C , 19-H ) :   0.7591
B(  2-C , 20-H ) :   0.1434 B(  3-C ,  4-H ) :   0.8957 B(  3-C ,  5-H ) :   0.7539
B(  3-C ,  6-S ) :   0.9908 B(  3-C , 17-F ) :   0.1084 B(  3-C , 18-H ) :   0.1488
B(  3-C , 19-H ) :   0.1331 B(  5-H ,  6-S ) :   0.1157 B(  6-S , 15-O ) :   1.5515
B(  6-S , 16-O ) :   1.5329 B(  6-S , 17-F ) :   0.6576 B(  7-C ,  8-C ) :   1.3323
B(  7-C ,  9-N ) :   1.0662 B(  7-C , 10-H ) :  -0.1015 B(  7-C , 11-H ) :  -0.1215
B(  7-C , 12-H ) :  -0.2202 B(  7-C , 13-H ) :   0.1271 B(  7-C , 14-H ) :   0.2155
B(  7-C , 20-H ) :  -0.1041 B(  8-C ,  9-N ) :   0.1844 B(  8-C , 13-H ) :   0.7580
B(  8-C , 14-H ) :   0.7638 B(  9-N , 10-H ) :   0.9504 B(  9-N , 11-H ) :   1.1790
B(  9-N , 20-H ) :   0.1250 B( 10-H , 11-H ) :  -0.2091 B( 10-H , 17-F ) :   0.1155
B( 13-H , 14-H ) :   0.1666 B( 15-O , 16-O ) :   0.1132 B( 20-H , 21-H ) :  -0.1585

Dispersion correction           -0.024851619
FINAL SINGLE POINT ENERGY      -953.741644173500

DIPOLE MOMENT
-------------
                                X             Y             Z
Electronic contribution:    -14.65455      -2.45325      -2.89617
Nuclear contribution   :     14.93782       3.36795       3.35075
                        -----------------------------------------
Total Dipole Moment    :      0.28327       0.91470       0.45459
                        -----------------------------------------
Magnitude (a.u.)       :      1.05998
Magnitude (Debye)      :      2.69426

Rotational constants in cm-1:     0.059219     0.021387     0.018380
Rotational constants in MHz :  1775.354399   641.172207   551.019443

                             ****ORCA TERMINATED NORMALLY****
TOTAL RUN TIME: 0 days 0 hours 0 minutes 24 seconds 616 msec
