                         Program Version 5.0.0 -  RELEASE  -
|  1> !PBE D3BJ RIJCOSX def2-TZVPD def2/J TightSCF
|  2> *xyz -1 1
|  3> C         -0.72184       -0.99951       -3.43931
|  4> C          0.28725       -1.71177       -2.52740
|  5> H          1.13178       -2.06738       -3.15940
|  6> H         -0.20414       -2.63733       -2.17048
|  7> O          0.71050       -0.92751       -1.48177
|  8> H         -1.01315       -1.65739       -4.23129
|  9> H         -0.27123       -0.12142       -3.85259
| 10> H         -1.58442       -0.72333       -2.86958
| 11> *
| 12> %MaxCore 64000
| 13>
| 14> %pal nprocs 4
| 15> end
| 16>
| 17> %scf
| 18>   MaxIter 150
| 19> end
| 20>
| 21>
| 22>                          ****END OF INPUT****

CARTESIAN COORDINATES (ANGSTROEM)
---------------------------------
  C     -0.721840   -0.999510   -3.439310
  C      0.287250   -1.711770   -2.527400
  H      1.131780   -2.067380   -3.159400
  H     -0.204140   -2.637330   -2.170480
  O      0.710500   -0.927510   -1.481770
  H     -1.013150   -1.657390   -4.231290
  H     -0.271230   -0.121420   -3.852590
  H     -1.584420   -0.723330   -2.869580

 Total Charge           Charge          ....   -1
 Multiplicity           Mult            ....    1
 Number of Electrons    NEL             ....   26
 Basis Dimension        Dim             ....  159

ORBITAL ENERGIES
----------------

  NO   OCC          E(Eh)            E(eV)
   0   2.0000     -18.433879      -501.6114
   1   2.0000      -9.698011      -263.8963
   2   2.0000      -9.673312      -263.2242
   3   2.0000      -0.606526       -16.5044
   4   2.0000      -0.460396       -12.5280
   5   2.0000      -0.317511        -8.6399
   6   2.0000      -0.205026        -5.5790
   7   2.0000      -0.183917        -5.0046
   8   2.0000      -0.134508        -3.6602
   9   2.0000      -0.116021        -3.1571
  10   2.0000      -0.077194        -2.1006
  11   2.0000       0.060450         1.6449
  12   2.0000       0.064884         1.7656
  13   0.0000       0.140039         3.8107
  14   0.0000       0.163077         4.4376
  15   0.0000       0.187621         5.1054
  16   0.0000       0.191470         5.2102
  17   0.0000       0.212060         5.7704

MULLIKEN ATOMIC CHARGES
-----------------------
   0 C :   -0.986352
   1 C :   -0.165041
   2 H :    0.133037
   3 H :    0.126278
   4 O :   -0.873019
   5 H :    0.337153
   6 H :    0.215326
   7 H :    0.212618
Sum of atomic charges:   -1.0000000

LOEWDIN ATOMIC CHARGES
----------------------
   0 C :   -0.184712
   1 C :   -0.629632
   2 H :    0.051752
   3 H :    0.049000
   4 O :   -0.379456
   5 H :    0.020658
   6 H :    0.035880
   7 H :    0.036509

  Mayer bond orders larger than 0.100000
B(  0-C ,  1-C ) :   0.8784 B(  0-C ,  4-O ) :   0.6476 B(  0-C ,  5-H ) :   0.9675
B(  0-C ,  6-H ) :   1.0130 B(  0-C ,  7-H ) :   1.0109 B(  1-C ,  2-H ) :   1.0726
B(  1-C ,  3-H ) :   1.0815 B(  1-C ,  4-O ) :   0.8538 B(  2-H ,  3-H ) :   0.1209
B(  4-O ,  5-H ) :  -0.1235

Dispersion correction           -0.003761384
FINAL SINGLE POINT ENERGY      -154.301214182843

DIPOLE MOMENT
-------------
                                X             Y             Z
Electronic contribution:      1.59406       0.74172       2.56420
Nuclear contribution   :     -2.24828      -1.06600      -3.62481
                        -----------------------------------------
Total Dipole Moment    :     -0.65422      -0.32428      -1.06061
                        -----------------------------------------
Magnitude (a.u.)       :      1.28765
Magnitude (Debye)      :      3.27295

Rotational constants in cm-1:     1.278116     0.325414     0.286672
Rotational constants in MHz : 38316.964654  9755.653004  8594.216906

                             ****ORCA TERMINATED NORMALLY****
TOTAL RUN TIME: 0 days 0 hours 0 minutes 8 seconds 908 msec
