                         Program Version 5.0.0 -  RELEASE  -
|  1> !PBE D3BJ RIJCOSX def2-TZVPD def2/J TightSCF
|  2> *xyz 1 1
|  3> C          3.48828        1.60092       -1.52204
|  4> C          4.34297        1.31342       -2.75683
|  5> N          2.81029        0.42878       -1.01420
|  6> H          2.71455        2.33145       -1.76030
|  7> H          4.09099        2.06315       -0.73338
|  8> C          3.29098       -0.41802       -0.12908
|  9> N          2.51754       -1.43202        0.23936
| 10> N          4.53549       -0.28441        0.39580
| 11> H          5.04363        0.57189        0.22290
| 12> H          4.72335       -0.73327        1.28180
| 13> H          1.93479        0.10230       -1.40379
| 14> H          1.67464       -1.50562       -0.31610
| 15> H          2.92850       -2.21850        0.72549
| 16> H          3.73575        0.86277       -3.51385
| 17> H          5.13754        0.64699       -2.49333
| 18> H          4.75374        2.22930       -3.12740
| 19> *
| 20> %MaxCore 64000
| 21>
| 22> %pal nprocs 4
| 23> end
| 24>
| 25> %scf
| 26>   MaxIter 150
| 27> end
| 28>
| 29>
| 30>                          ****END OF INPUT****

CARTESIAN COORDINATES (ANGSTROEM)
---------------------------------
  C      3.488280    1.600920   -1.522040
  C      4.342970    1.313420   -2.756830
  N      2.810290    0.428780   -1.014200
  H      2.714550    2.331450   -1.760300
  H      4.090990    2.063150   -0.733380
  C      3.290980   -0.418020   -0.129080
  N      2.517540   -1.432020    0.239360
  N      4.535490   -0.284410    0.395800
  H      5.043630    0.571890    0.222900
  H      4.723350   -0.733270    1.281800
  H      1.934790    0.102300   -1.403790
  H      1.674640   -1.505620   -0.316100
  H      2.928500   -2.218500    0.725490
  H      3.735750    0.862770   -3.513850
  H      5.137540    0.646990   -2.493330
  H      4.753740    2.229300   -3.127400

 Total Charge           Charge          ....    1
 Multiplicity           Mult            ....    1
 Number of Electrons    NEL             ....   48
 Basis Dimension        Dim             ....  312

ORBITAL ENERGIES
----------------

  NO   OCC          E(Eh)            E(eV)
   0   2.0000     -14.213952      -386.7813
   1   2.0000     -14.206714      -386.5843
   2   2.0000     -14.205089      -386.5401
   3   2.0000     -10.202597      -277.6268
   4   2.0000     -10.091993      -274.6171
   5   2.0000     -10.017412      -272.5876
   6   2.0000      -1.134894       -30.8820
   7   2.0000      -1.029918       -28.0255
   8   2.0000      -1.016925       -27.6719
   9   2.0000      -0.866099       -23.5677
  10   2.0000      -0.778964       -21.1967
  11   2.0000      -0.750402       -20.4195
  12   2.0000      -0.726682       -19.7740
  13   2.0000      -0.694033       -18.8856
  14   2.0000      -0.643653       -17.5147
  15   2.0000      -0.635121       -17.2825
  16   2.0000      -0.607337       -16.5265
  17   2.0000      -0.590051       -16.0561
  18   2.0000      -0.557185       -15.1618
  19   2.0000      -0.518799       -14.1172
  20   2.0000      -0.490549       -13.3485
  21   2.0000      -0.471932       -12.8419
  22   2.0000      -0.437815       -11.9135
  23   2.0000      -0.415145       -11.2967
  24   0.0000      -0.204811        -5.5732
  25   0.0000      -0.186853        -5.0845
  26   0.0000      -0.156169        -4.2496
  27   0.0000      -0.141225        -3.8429
  28   0.0000      -0.116434        -3.1683

MULLIKEN ATOMIC CHARGES
-----------------------
   0 C :   -0.492566
   1 C :   -0.732809
   2 N :    0.051467
   3 H :    0.196823
   4 H :    0.289256
   5 C :    0.426248
   6 N :   -0.177624
   7 N :   -0.215458
   8 H :    0.176187
   9 H :    0.193356
  10 H :    0.165003
  11 H :    0.170547
  12 H :    0.192911
  13 H :    0.243005
  14 H :    0.251079
  15 H :    0.262575
Sum of atomic charges:    1.0000000

LOEWDIN ATOMIC CHARGES
----------------------
   0 C :   -0.208284
   1 C :   -0.052829
   2 N :    0.094074
   3 H :    0.132577
   4 H :    0.122369
   5 C :   -0.454322
   6 N :    0.215858
   7 N :    0.226479
   8 H :    0.114511
   9 H :    0.133445
  10 H :    0.167198
  11 H :    0.134332
  12 H :    0.141317
  13 H :    0.078562
  14 H :    0.071336
  15 H :    0.083379

  Mayer bond orders larger than 0.100000
B(  0-C ,  1-C ) :   0.8614 B(  0-C ,  2-N ) :   0.9703 B(  0-C ,  3-H ) :   0.9907
B(  0-C ,  4-H ) :   0.8607 B(  1-C , 13-H ) :   0.9845 B(  1-C , 14-H ) :   0.9755
B(  1-C , 15-H ) :   0.9660 B(  2-N ,  5-C ) :   1.2400 B(  2-N ,  6-N ) :   0.1161
B(  2-N , 10-H ) :   0.9805 B(  5-C ,  6-N ) :   1.2171 B(  5-C ,  7-N ) :   1.2188
B(  6-N , 11-H ) :   0.9671 B(  6-N , 12-H ) :   0.9621 B(  7-N ,  8-H ) :   0.9366
B(  7-N ,  9-H ) :   0.9780

Dispersion correction           -0.012363355
FINAL SINGLE POINT ENERGY      -284.153921878544

DIPOLE MOMENT
-------------
                                X             Y             Z
Electronic contribution:     -1.91327      -2.98418       3.71042
Nuclear contribution   :      1.59382       2.33278      -3.02574
                        -----------------------------------------
Total Dipole Moment    :     -0.31945      -0.65141       0.68468
                        -----------------------------------------
Magnitude (a.u.)       :      0.99758
Magnitude (Debye)      :      2.53565

Rotational constants in cm-1:     0.232230     0.073139     0.063030
Rotational constants in MHz :  6962.079716  2192.649203  1889.578947

                             ****ORCA TERMINATED NORMALLY****
TOTAL RUN TIME: 0 days 0 hours 0 minutes 17 seconds 803 msec
