                         Program Version 5.0.0 -  RELEASE  -
|  1> !PBE D3BJ RIJCOSX def2-TZVPD def2/J TightSCF xyzfile
|  2>
|  3> *xyzfile 0 1 B.xyz
|  4>
|  5> %MaxCore 64000
|  6>
|  7> %pal nprocs 4
|  8> end
|  9>
| 10> %scf
| 11>   MaxIter 150
| 12> end
| 13>
| 14>
| 15>                          ****END OF INPUT****

CARTESIAN COORDINATES (ANGSTROEM)
---------------------------------
  C      3.488276    1.600919   -1.522040
  C      4.342970    1.313419   -2.756826
  N      2.810285    0.428783   -1.014196
  H      5.132033    0.604994   -2.484466
  C      3.535896    0.749253   -3.924604
  H      4.841247    2.242136   -3.054083
  H      2.991617   -0.132199   -3.574137
  H      4.225505    0.392784   -4.695962
  C      2.564776    1.750890   -4.544523
  H      1.918749    2.171679   -3.769419
  C      1.686235    1.161657   -5.650111
  H      3.132494    2.594775   -4.951604
  C      0.839616   -0.037582   -5.220473
  H      2.323886    0.866395   -6.490796
  H      1.029518    1.951850   -6.029329
  C     -0.151019    0.254955   -4.094256
  H      1.499442   -0.857141   -4.922958
  H      0.290097   -0.410143   -6.091131
  H      0.328265    0.833022   -3.299125
  C     -0.721843   -0.999513   -3.439309
  H     -0.957367    0.884951   -4.485450
  H     -1.083403   -1.697555   -4.205656
  H     -1.581056   -0.723848   -2.820490
  C      0.287250   -1.711771   -2.527405
  H      1.131780   -2.067380   -3.159396
  H     -0.204137   -2.637326   -2.170480
  O      0.710505   -0.927506   -1.481767
  H      2.714548    2.331455   -1.760302
  H      4.090991    2.063151   -0.733382
  C      3.290978   -0.418021   -0.129083
  N      2.517536   -1.432017    0.239360
  N      4.535490   -0.284410    0.395800
  H      5.043627    0.571888    0.222899
  H      4.723346   -0.733273    1.281800
  H      1.934787    0.102305   -1.403788
  H      1.674638   -1.505616   -0.316095
  H      2.928503   -2.218502    0.725494

 Total Charge           Charge          ....    0
 Multiplicity           Mult            ....    1
 Number of Electrons    NEL             ....  112
 Basis Dimension        Dim             ....  728

ORBITAL ENERGIES
----------------

  NO   OCC          E(Eh)            E(eV)
   0   2.0000     -18.629540      -506.9356
   1   2.0000     -14.041483      -382.0882
   2   2.0000     -14.007327      -381.1587
   3   2.0000     -13.998254      -380.9118
   4   2.0000     -10.016397      -272.5600
   5   2.0000      -9.934280      -270.3255
   6   2.0000      -9.891486      -269.1610
   7   2.0000      -9.874717      -268.7047
   8   2.0000      -9.869293      -268.5571
   9   2.0000      -9.862762      -268.3794
  10   2.0000      -9.860860      -268.3276
  11   2.0000      -9.851106      -268.0622
  12   2.0000      -9.841195      -267.7925
  13   2.0000      -9.830004      -267.4880
  14   2.0000      -0.948189       -25.8015
  15   2.0000      -0.850759       -23.1503
  16   2.0000      -0.832205       -22.6454
  17   2.0000      -0.805220       -21.9111
  18   2.0000      -0.738641       -20.0994
  19   2.0000      -0.706519       -19.2254
  20   2.0000      -0.670849       -18.2547
  21   2.0000      -0.636747       -17.3268
  22   2.0000      -0.598002       -16.2725
  23   2.0000      -0.589528       -16.0419
  24   2.0000      -0.553099       -15.0506
  25   2.0000      -0.542671       -14.7668
  26   2.0000      -0.538008       -14.6400
  27   2.0000      -0.510407       -13.8889
  28   2.0000      -0.488552       -13.2942
  29   2.0000      -0.468714       -12.7544
  30   2.0000      -0.458573       -12.4784
  31   2.0000      -0.445022       -12.1097
  32   2.0000      -0.434301       -11.8179
  33   2.0000      -0.424314       -11.5462
  34   2.0000      -0.413233       -11.2446
  35   2.0000      -0.403320       -10.9749
  36   2.0000      -0.388152       -10.5622
  37   2.0000      -0.373979       -10.1765
  38   2.0000      -0.368037       -10.0148
  39   2.0000      -0.349881        -9.5207
  40   2.0000      -0.345985        -9.4147
  41   2.0000      -0.335338        -9.1250
  42   2.0000      -0.317732        -8.6459
  43   2.0000      -0.310871        -8.4592
  44   2.0000      -0.303313        -8.2536
  45   2.0000      -0.293051        -7.9743
  46   2.0000      -0.281543        -7.6612
  47   2.0000      -0.273150        -7.4328
  48   2.0000      -0.270542        -7.3618
  49   2.0000      -0.265035        -7.2120
  50   2.0000      -0.251094        -6.8326
  51   2.0000      -0.247621        -6.7381
  52   2.0000      -0.242450        -6.5974
  53   2.0000      -0.229800        -6.2532
  54   2.0000      -0.142704        -3.8832
  55   2.0000      -0.134739        -3.6664
  56   0.0000      -0.042504        -1.1566
  57   0.0000      -0.027421        -0.7462
  58   0.0000      -0.012285        -0.3343
  59   0.0000       0.002825         0.0769
  60   0.0000       0.003509         0.0955

MULLIKEN ATOMIC CHARGES
-----------------------
   0 C :   -1.034250
   1 C :   -0.032605
   2 N :    0.135139
   3 H :    0.158413
   4 C :   -0.097800
   5 H :    0.146801
   6 H :    0.008817
   7 H :    0.137885
   8 C :   -0.336167
   9 H :    0.206869
  10 C :   -0.428678
  11 H :    0.125349
  12 C :   -0.344644
  13 H :    0.173232
  14 H :    0.177085
  15 C :   -0.047122
  16 H :    0.145131
  17 H :    0.171493
  18 H :   -0.007999
  19 C :   -0.363186
  20 H :    0.158160
  21 H :    0.141865
  22 H :    0.162323
  23 C :   -0.399260
  24 H :    0.189454
  25 H :    0.168294
  26 O :   -1.042569
  27 H :    0.189616
  28 H :    0.330549
  29 C :    0.338163
  30 N :   -0.139291
  31 N :   -0.216588
  32 H :    0.167662
  33 H :    0.169961
  34 H :    0.472873
  35 H :    0.276122
  36 H :    0.138904
Sum of atomic charges:    0.0000000

LOEWDIN ATOMIC CHARGES
----------------------
   0 C :   -0.178197
   1 C :   -0.187077
   2 N :    0.104687
   3 H :    0.107624
   4 C :   -0.206099
   5 H :    0.114091
   6 H :    0.102207
   7 H :    0.119890
   8 C :   -0.218645
   9 H :    0.095415
  10 C :   -0.212938
  11 H :    0.113917
  12 C :   -0.221524
  13 H :    0.107778
  14 H :    0.109420
  15 C :   -0.220678
  16 H :    0.092628
  17 H :    0.112637
  18 H :    0.091965
  19 C :   -0.206828
  20 H :    0.111591
  21 H :    0.106824
  22 H :    0.105452
  23 C :   -0.415592
  24 H :    0.092559
  25 H :    0.097410
  26 O :   -0.283453
  27 H :    0.119782
  28 H :    0.110291
  29 C :   -0.467767
  30 N :    0.194824
  31 N :    0.182633
  32 H :    0.092565
  33 H :    0.110222
  34 H :    0.064791
  35 H :    0.040620
  36 H :    0.116974

  Mayer bond orders larger than 0.100000
B(  0-C ,  1-C ) :   0.8580 B(  0-C ,  2-N ) :   1.1558 B(  0-C ,  8-C ) :   0.2088
B(  0-C , 27-H ) :   0.9621 B(  0-C , 28-H ) :   0.7976 B(  0-C , 29-C ) :  -0.2196
B(  0-C , 34-H ) :  -0.2626 B(  1-C ,  3-H ) :   0.9011 B(  1-C ,  4-C ) :   1.1411
B(  1-C ,  5-H ) :   0.9431 B(  1-C ,  6-H ) :   0.1094 B(  1-C ,  8-C ) :   0.1914
B(  2-N , 29-C ) :   1.1466 B(  2-N , 34-H ) :   0.8917 B(  4-C ,  6-H ) :   1.3009
B(  4-C ,  7-H ) :   0.8245 B(  4-C ,  8-C ) :   0.5168 B(  4-C , 10-C ) :   0.2071
B(  4-C , 12-C ) :   0.1569 B(  8-C ,  9-H ) :   0.9612 B(  8-C , 10-C ) :   1.0793
B(  8-C , 11-H ) :   0.9560 B(  8-C , 15-C ) :   0.1585 B(  9-H , 10-C ) :   0.1180
B( 10-C , 12-C ) :   1.0291 B( 10-C , 13-H ) :   0.9283 B( 10-C , 14-H ) :   0.9227
B( 10-C , 15-C ) :   0.2802 B( 12-C , 15-C ) :   0.4732 B( 12-C , 16-H ) :   1.0069
B( 12-C , 17-H ) :   0.9344 B( 12-C , 19-C ) :   0.3281 B( 12-C , 23-C ) :   0.1054
B( 15-C , 18-H ) :   1.1596 B( 15-C , 19-C ) :   1.0654 B( 15-C , 20-H ) :   0.8639
B( 15-C , 23-C ) :   0.1034 B( 18-H , 19-C ) :   0.1420 B( 18-H , 26-O ) :   0.1335
B( 19-C , 21-H ) :   0.9635 B( 19-C , 22-H ) :   0.8651 B( 19-C , 23-C ) :   1.0369
B( 19-C , 26-O ) :   0.1685 B( 23-C , 24-H ) :   0.9918 B( 23-C , 25-H ) :   0.9478
B( 23-C , 26-O ) :   0.8902 B( 26-O , 34-H ) :  -0.1263 B( 26-O , 35-H ) :   0.2525
B( 29-C , 30-N ) :   1.3405 B( 29-C , 31-N ) :   1.1763 B( 29-C , 34-H ) :  -0.1355
B( 30-N , 35-H ) :   0.7026 B( 30-N , 36-H ) :   0.9842 B( 31-N , 32-H ) :   0.9416
B( 31-N , 33-H ) :   0.9861

Dispersion correction           -0.040522604
FINAL SINGLE POINT ENERGY      -633.843769168576

DIPOLE MOMENT
-------------
                                X             Y             Z
Electronic contribution:      3.50950      -2.06251      11.31874
Nuclear contribution   :     -0.74583       2.62534      -9.91488
                        -----------------------------------------
Total Dipole Moment    :      2.76368       0.56283       1.40386
                        -----------------------------------------
Magnitude (a.u.)       :      3.15048
Magnitude (Debye)      :      8.00788

Rotational constants in cm-1:     0.027028     0.016098     0.010898
Rotational constants in MHz :   810.278072   482.590922   326.703462

                             ****ORCA TERMINATED NORMALLY****
TOTAL RUN TIME: 0 days 0 hours 1 minutes 56 seconds 16 msec
