                         Program Version 5.0.0 -  RELEASE  -
|  1> !PBE D3BJ RIJCOSX def2-TZVPD def2/J TightSCF
|  2> *xyz 0 1
|  3> C         -0.72184       -0.99951       -3.43931
|  4> C          0.28725       -1.71177       -2.52740
|  5> H          1.13178       -2.06738       -3.15940
|  6> H         -0.20414       -2.63733       -2.17048
|  7> F          0.71050       -0.92751       -1.48177
|  8> H         -1.01315       -1.65739       -4.23129
|  9> H         -0.27123       -0.12142       -3.85259
| 10> H         -1.58442       -0.72333       -2.86958
| 11> *
| 12> %MaxCore 64000
| 13>
| 14> %pal nprocs 4
| 15> end
| 16>
| 17> %scf
| 18>   MaxIter 150
| 19> end
| 20>
| 21>
| 22>                          ****END OF INPUT****

CARTESIAN COORDINATES (ANGSTROEM)
---------------------------------
  C     -0.721840   -0.999510   -3.439310
  C      0.287250   -1.711770   -2.527400
  H      1.131780   -2.067380   -3.159400
  H     -0.204140   -2.637330   -2.170480
  F      0.710500   -0.927510   -1.481770
  H     -1.013150   -1.657390   -4.231290
  H     -0.271230   -0.121420   -3.852590
  H     -1.584420   -0.723330   -2.869580

 Total Charge           Charge          ....    0
 Multiplicity           Mult            ....    1
 Number of Electrons    NEL             ....   26
 Basis Dimension        Dim             ....  159

ORBITAL ENERGIES
----------------

  NO   OCC          E(Eh)            E(eV)
   0   2.0000     -24.246679      -659.7857
   1   2.0000      -9.956924      -270.9417
   2   2.0000      -9.875408      -268.7235
   3   2.0000      -1.098210       -29.8838
   4   2.0000      -0.694718       -18.9042
   5   2.0000      -0.569431       -15.4950
   6   2.0000      -0.455788       -12.4026
   7   2.0000      -0.439541       -11.9605
   8   2.0000      -0.403086       -10.9685
   9   2.0000      -0.355977        -9.6866
  10   2.0000      -0.354356        -9.6425
  11   2.0000      -0.288926        -7.8621
  12   2.0000      -0.282806        -7.6955
  13   0.0000      -0.005616        -0.1528
  14   0.0000       0.022701         0.6177
  15   0.0000       0.033949         0.9238
  16   0.0000       0.041165         1.1202
  17   0.0000       0.064818         1.7638

MULLIKEN ATOMIC CHARGES
-----------------------
   0 C :   -0.678442
   1 C :   -0.009339
   2 H :    0.149351
   3 H :    0.142694
   4 F :   -0.246839
   5 H :    0.244894
   6 H :    0.196999
   7 H :    0.200683
Sum of atomic charges:   -0.0000000

LOEWDIN ATOMIC CHARGES
----------------------
   0 C :   -0.084997
   1 C :   -0.305491
   2 H :    0.112283
   3 H :    0.108635
   4 F :   -0.025962
   5 H :    0.067143
   6 H :    0.063982
   7 H :    0.064408

  Mayer bond orders larger than 0.100000
B(  0-C ,  1-C ) :   0.9090 B(  0-C ,  5-H ) :   0.9472 B(  0-C ,  6-H ) :   0.9749
B(  0-C ,  7-H ) :   0.9730 B(  1-C ,  2-H ) :   0.9784 B(  1-C ,  3-H ) :   0.9870
B(  1-C ,  4-F ) :   0.8800

Dispersion correction           -0.003480207
FINAL SINGLE POINT ENERGY      -178.925253920090

DIPOLE MOMENT
-------------
                                X             Y             Z
Electronic contribution:      2.71237       1.07056       4.25198
Nuclear contribution   :     -2.97459      -1.40206      -4.79987
                        -----------------------------------------
Total Dipole Moment    :     -0.26222      -0.33150      -0.54789
                        -----------------------------------------
Magnitude (a.u.)       :      0.69198
Magnitude (Debye)      :      1.75887

Rotational constants in cm-1:     1.257024     0.302702     0.267953
Rotational constants in MHz : 37684.643733  9074.792567  8033.038070

                             ****ORCA TERMINATED NORMALLY****
TOTAL RUN TIME: 0 days 0 hours 0 minutes 7 seconds 781 msec
