                         Program Version 5.0.0 -  RELEASE  -
|  1> !PBE D3BJ RIJCOSX def2-TZVPD def2/J TightSCF
|  2> *xyz 0 1
|  3> C          3.48828        1.60092       -1.52204
|  4> C          4.34297        1.31342       -2.75683
|  5> C          2.81029        0.42878       -1.01420
|  6> H          2.71455        2.33145       -1.76030
|  7> H          4.09099        2.06315       -0.73338
|  8> C          3.29098       -0.41802       -0.12908
|  9> N          2.51754       -1.43202        0.23936
| 10> N          4.53549       -0.28441        0.39580
| 11> H          5.04363        0.57189        0.22290
| 12> H          4.72335       -0.73327        1.28180
| 13> H          1.93479        0.10230       -1.40379
| 14> H          1.67464       -1.50562       -0.31610
| 15> H          2.92850       -2.21850        0.72549
| 16> H          3.73575        0.86277       -3.51385
| 17> H          5.13754        0.64699       -2.49333
| 18> H          4.75374        2.22930       -3.12740
| 19> *
| 20> %MaxCore 64000
| 21>
| 22> %pal nprocs 4
| 23> end
| 24>
| 25> %scf
| 26>   MaxIter 150
| 27> end
| 28>
| 29>
| 30>                          ****END OF INPUT****

CARTESIAN COORDINATES (ANGSTROEM)
---------------------------------
  C      3.488280    1.600920   -1.522040
  C      4.342970    1.313420   -2.756830
  C      2.810290    0.428780   -1.014200
  H      2.714550    2.331450   -1.760300
  H      4.090990    2.063150   -0.733380
  C      3.290980   -0.418020   -0.129080
  N      2.517540   -1.432020    0.239360
  N      4.535490   -0.284410    0.395800
  H      5.043630    0.571890    0.222900
  H      4.723350   -0.733270    1.281800
  H      1.934790    0.102300   -1.403790
  H      1.674640   -1.505620   -0.316100
  H      2.928500   -2.218500    0.725490
  H      3.735750    0.862770   -3.513850
  H      5.137540    0.646990   -2.493330
  H      4.753740    2.229300   -3.127400

 Total Charge           Charge          ....    0
 Multiplicity           Mult            ....    1
 Number of Electrons    NEL             ....   48
 Basis Dimension        Dim             ....  312

ORBITAL ENERGIES
----------------

  NO   OCC          E(Eh)            E(eV)
   0   2.0000     -13.986940      -380.6040
   1   2.0000     -13.982683      -380.4881
   2   2.0000      -9.916163      -269.8325
   3   2.0000      -9.859864      -268.3005
   4   2.0000      -9.845786      -267.9175
   5   2.0000      -9.808479      -266.9023
   6   2.0000      -0.878593       -23.9077
   7   2.0000      -0.796432       -21.6720
   8   2.0000      -0.703739       -19.1497
   9   2.0000      -0.629271       -17.1233
  10   2.0000      -0.555090       -15.1048
  11   2.0000      -0.525976       -14.3125
  12   2.0000      -0.487027       -13.2527
  13   2.0000      -0.459453       -12.5024
  14   2.0000      -0.420533       -11.4433
  15   2.0000      -0.392533       -10.6814
  16   2.0000      -0.371728       -10.1152
  17   2.0000      -0.350824        -9.5464
  18   2.0000      -0.337147        -9.1742
  19   2.0000      -0.311557        -8.4779
  20   2.0000      -0.291429        -7.9302
  21   2.0000      -0.279780        -7.6132
  22   2.0000      -0.224381        -6.1057
  23   2.0000      -0.134817        -3.6685
  24   0.0000      -0.019273        -0.5244
  25   0.0000       0.006925         0.1884
  26   0.0000       0.012820         0.3489
  27   0.0000       0.024859         0.6765
  28   0.0000       0.040051         1.0899

MULLIKEN ATOMIC CHARGES
-----------------------
   0 C :   -0.424564
   1 C :   -0.830317
   2 C :   -0.494640
   3 H :    0.116625
   4 H :    0.234170
   5 C :    0.409932
   6 N :   -0.272525
   7 N :   -0.276424
   8 H :    0.152239
   9 H :    0.139144
  10 H :    0.252092
  11 H :    0.149009
  12 H :    0.134965
  13 H :    0.253599
  14 H :    0.241633
  15 H :    0.215060
Sum of atomic charges:   -0.0000000

LOEWDIN ATOMIC CHARGES
----------------------
   0 C :   -0.284800
   1 C :   -0.102918
   2 C :   -0.148532
   3 H :    0.103389
   4 H :    0.098086
   5 C :   -0.554634
   6 N :    0.114567
   7 N :    0.140799
   8 H :    0.087215
   9 H :    0.091130
  10 H :    0.070352
  11 H :    0.104542
  12 H :    0.097117
  13 H :    0.065691
  14 H :    0.061590
  15 H :    0.056406

  Mayer bond orders larger than 0.100000
B(  0-C ,  1-C ) :   0.6927 B(  0-C ,  2-C ) :   1.0257 B(  0-C ,  3-H ) :   1.1046
B(  0-C ,  4-H ) :   0.9016 B(  0-C ,  5-C ) :   0.2383 B(  1-C ,  2-C ) :   0.1968
B(  1-C , 13-H ) :   0.9907 B(  1-C , 14-H ) :   0.9913 B(  1-C , 15-H ) :   0.9756
B(  2-C ,  5-C ) :   1.3039 B(  2-C , 10-H ) :   0.9562 B(  5-C ,  6-N ) :   1.1227
B(  5-C ,  7-N ) :   1.0247 B(  5-C , 10-H ) :  -0.1637 B(  6-N , 11-H ) :   0.9708
B(  6-N , 12-H ) :   1.0280 B(  7-N ,  8-H ) :   0.9383 B(  7-N ,  9-H ) :   1.0187

Dispersion correction           -0.012821481
FINAL SINGLE POINT ENERGY      -267.678061242285

DIPOLE MOMENT
-------------
                                X             Y             Z
Electronic contribution:     -1.28802      -2.92678       3.64705
Nuclear contribution   :      1.44676       2.38443      -3.07370
                        -----------------------------------------
Total Dipole Moment    :      0.15874      -0.54236       0.57335
                        -----------------------------------------
Magnitude (a.u.)       :      0.80503
Magnitude (Debye)      :      2.04623

Rotational constants in cm-1:     0.235977     0.073199     0.063283
Rotational constants in MHz :  7074.404583  2194.453291  1897.179599

                             ****ORCA TERMINATED NORMALLY****
TOTAL RUN TIME: 0 days 0 hours 0 minutes 25 seconds 572 msec
