                         Program Version 5.0.0 -  RELEASE  -
|  1> !PBE D3BJ RIJCOSX def2-TZVPD def2/J TightSCF
|  2> *xyz 0 1
|  3> C          3.48828        1.60092       -1.52204
|  4> C          4.34297        1.31342       -2.75683
|  5> N          2.81029        0.42878       -1.01420
|  6> H          2.71455        2.33145       -1.76030
|  7> H          4.09099        2.06315       -0.73338
|  8> C          3.29098       -0.41802       -0.12908
|  9> C          2.51754       -1.43202        0.23936
| 10> N          4.53549       -0.28441        0.39580
| 11> H          5.04363        0.57189        0.22290
| 12> H          4.72335       -0.73327        1.28180
| 13> H          1.93479        0.10230       -1.40379
| 14> H          1.67464       -1.50562       -0.31610
| 15> H          2.92850       -2.21850        0.72549
| 16> H          3.73575        0.86277       -3.51385
| 17> H          5.13754        0.64699       -2.49333
| 18> H          4.75374        2.22930       -3.12740
| 19> *
| 20> %MaxCore 64000
| 21>
| 22> %pal nprocs 4
| 23> end
| 24>
| 25> %scf
| 26>   MaxIter 150
| 27> end
| 28>
| 29>
| 30>                          ****END OF INPUT****

CARTESIAN COORDINATES (ANGSTROEM)
---------------------------------
  C      3.488280    1.600920   -1.522040
  C      4.342970    1.313420   -2.756830
  N      2.810290    0.428780   -1.014200
  H      2.714550    2.331450   -1.760300
  H      4.090990    2.063150   -0.733380
  C      3.290980   -0.418020   -0.129080
  C      2.517540   -1.432020    0.239360
  N      4.535490   -0.284410    0.395800
  H      5.043630    0.571890    0.222900
  H      4.723350   -0.733270    1.281800
  H      1.934790    0.102300   -1.403790
  H      1.674640   -1.505620   -0.316100
  H      2.928500   -2.218500    0.725490
  H      3.735750    0.862770   -3.513850
  H      5.137540    0.646990   -2.493330
  H      4.753740    2.229300   -3.127400

 Total Charge           Charge          ....    0
 Multiplicity           Mult            ....    1
 Number of Electrons    NEL             ....   48
 Basis Dimension        Dim             ....  312

ORBITAL ENERGIES
----------------

  NO   OCC          E(Eh)            E(eV)
   0   2.0000     -13.989464      -380.6727
   1   2.0000     -13.986175      -380.5832
   2   2.0000      -9.924093      -270.0483
   3   2.0000      -9.919283      -269.9174
   4   2.0000      -9.871170      -268.6082
   5   2.0000      -9.792407      -266.4649
   6   2.0000      -0.888995       -24.1908
   7   2.0000      -0.808494       -22.0002
   8   2.0000      -0.706408       -19.2223
   9   2.0000      -0.635427       -17.2908
  10   2.0000      -0.569567       -15.4987
  11   2.0000      -0.543742       -14.7960
  12   2.0000      -0.485170       -13.2022
  13   2.0000      -0.450919       -12.2701
  14   2.0000      -0.432123       -11.7587
  15   2.0000      -0.395002       -10.7485
  16   2.0000      -0.384184       -10.4542
  17   2.0000      -0.358916        -9.7666
  18   2.0000      -0.334028        -9.0894
  19   2.0000      -0.329997        -8.9797
  20   2.0000      -0.320358        -8.7174
  21   2.0000      -0.314622        -8.5613
  22   2.0000      -0.218548        -5.9470
  23   2.0000      -0.132747        -3.6122
  24   0.0000      -0.020081        -0.5464
  25   0.0000       0.005225         0.1422
  26   0.0000       0.009709         0.2642
  27   0.0000       0.017997         0.4897
  28   0.0000       0.039199         1.0667

MULLIKEN ATOMIC CHARGES
-----------------------
   0 C :   -0.437255
   1 C :   -0.770925
   2 N :    0.029118
   3 H :    0.174319
   4 H :    0.271051
   5 C :    0.575892
   6 C :   -1.159427
   7 N :   -0.279848
   8 H :    0.125698
   9 H :    0.171959
  10 H :    0.114519
  11 H :    0.236676
  12 H :    0.243210
  13 H :    0.207844
  14 H :    0.240443
  15 H :    0.256725
Sum of atomic charges:    0.0000000

LOEWDIN ATOMIC CHARGES
----------------------
   0 C :   -0.248649
   1 C :   -0.083506
   2 N :    0.025213
   3 H :    0.111545
   4 H :    0.106562
   5 C :   -0.574396
   6 C :   -0.006964
   7 N :    0.135985
   8 H :    0.077757
   9 H :    0.104433
  10 H :    0.143689
  11 H :    0.007486
  12 H :    0.009069
  13 H :    0.066372
  14 H :    0.063225
  15 H :    0.062178

  Mayer bond orders larger than 0.100000
B(  0-C ,  1-C ) :   0.8237 B(  0-C ,  2-N ) :   0.9351 B(  0-C ,  3-H ) :   1.0162
B(  0-C ,  4-H ) :   0.8887 B(  1-C , 13-H ) :   1.0045 B(  1-C , 14-H ) :   1.0105
B(  1-C , 15-H ) :   0.9734 B(  2-N ,  5-C ) :   1.1072 B(  2-N ,  6-C ) :   0.1045
B(  2-N , 10-H ) :   0.9573 B(  5-C ,  6-C ) :   1.1686 B(  5-C ,  7-N ) :   1.0767
B(  6-C ,  7-N ) :   0.1025 B(  6-C , 11-H ) :   0.9976 B(  6-C , 12-H ) :   1.0554
B(  7-N ,  8-H ) :   0.9833 B(  7-N ,  9-H ) :   0.9750

Dispersion correction           -0.012710156
FINAL SINGLE POINT ENERGY      -267.664681263332

DIPOLE MOMENT
-------------
                                X             Y             Z
Electronic contribution:     -0.88353      -1.07258       2.42252
Nuclear contribution   :      1.38466       1.98967      -2.80776
                        -----------------------------------------
Total Dipole Moment    :      0.50113       0.91709      -0.38524
                        -----------------------------------------
Magnitude (a.u.)       :      1.11382
Magnitude (Debye)      :      2.83110

Rotational constants in cm-1:     0.235618     0.075969     0.065309
Rotational constants in MHz :  7063.646698  2277.495424  1957.925383

                             ****ORCA TERMINATED NORMALLY****
TOTAL RUN TIME: 0 days 0 hours 0 minutes 25 seconds 693 msec
