                         Program Version 5.0.0 -  RELEASE  -
|  1> !PBE D3BJ RIJCOSX def2-TZVPD def2/J TightSCF
|  2> *xyz 0 1
|  3> C          3.48828        1.60092       -1.52204
|  4> C          4.34297        1.31342       -2.75683
|  5> N          2.81029        0.42878       -1.01420
|  6> H          2.71455        2.33145       -1.76030
|  7> H          4.09099        2.06315       -0.73338
|  8> C          3.29098       -0.41802       -0.12908
|  9> N          2.51754       -1.43202        0.23936
| 10> C          4.53549       -0.28441        0.39580
| 11> H          5.04363        0.57189        0.22290
| 12> H          4.72335       -0.73327        1.28180
| 13> H          1.93479        0.10230       -1.40379
| 14> H          1.67464       -1.50562       -0.31610
| 15> H          2.92850       -2.21850        0.72549
| 16> H          3.73575        0.86277       -3.51385
| 17> H          5.13754        0.64699       -2.49333
| 18> H          4.75374        2.22930       -3.12740
| 19> *
| 20> %MaxCore 64000
| 21>
| 22> %pal nprocs 4
| 23> end
| 24>
| 25> %scf
| 26>   MaxIter 150
| 27> end
| 28>
| 29>
| 30>                          ****END OF INPUT****

CARTESIAN COORDINATES (ANGSTROEM)
---------------------------------
  C      3.488280    1.600920   -1.522040
  C      4.342970    1.313420   -2.756830
  N      2.810290    0.428780   -1.014200
  H      2.714550    2.331450   -1.760300
  H      4.090990    2.063150   -0.733380
  C      3.290980   -0.418020   -0.129080
  N      2.517540   -1.432020    0.239360
  C      4.535490   -0.284410    0.395800
  H      5.043630    0.571890    0.222900
  H      4.723350   -0.733270    1.281800
  H      1.934790    0.102300   -1.403790
  H      1.674640   -1.505620   -0.316100
  H      2.928500   -2.218500    0.725490
  H      3.735750    0.862770   -3.513850
  H      5.137540    0.646990   -2.493330
  H      4.753740    2.229300   -3.127400

 Total Charge           Charge          ....    0
 Multiplicity           Mult            ....    1
 Number of Electrons    NEL             ....   48
 Basis Dimension        Dim             ....  312

ORBITAL ENERGIES
----------------

  NO   OCC          E(Eh)            E(eV)
   0   2.0000     -13.995096      -380.8259
   1   2.0000     -13.988083      -380.6351
   2   2.0000      -9.921582      -269.9800
   3   2.0000      -9.916817      -269.8503
   4   2.0000      -9.863764      -268.4067
   5   2.0000      -9.794456      -266.5207
   6   2.0000      -0.897547       -24.4235
   7   2.0000      -0.813482       -22.1360
   8   2.0000      -0.688050       -18.7228
   9   2.0000      -0.638960       -17.3870
  10   2.0000      -0.584372       -15.9016
  11   2.0000      -0.509421       -13.8621
  12   2.0000      -0.492196       -13.3933
  13   2.0000      -0.478698       -13.0260
  14   2.0000      -0.422469       -11.4960
  15   2.0000      -0.393842       -10.7170
  16   2.0000      -0.380036       -10.3413
  17   2.0000      -0.349853        -9.5200
  18   2.0000      -0.336031        -9.1439
  19   2.0000      -0.325186        -8.8488
  20   2.0000      -0.316633        -8.6160
  21   2.0000      -0.306026        -8.3274
  22   2.0000      -0.213237        -5.8025
  23   2.0000      -0.136807        -3.7227
  24   0.0000      -0.023018        -0.6264
  25   0.0000       0.003983         0.1084
  26   0.0000       0.013843         0.3767
  27   0.0000       0.019643         0.5345
  28   0.0000       0.042988         1.1697

MULLIKEN ATOMIC CHARGES
-----------------------
   0 C :   -0.384777
   1 C :   -0.788276
   2 N :   -0.037218
   3 H :    0.174434
   4 H :    0.267217
   5 C :    0.634322
   6 N :   -0.247614
   7 C :   -1.208821
   8 H :    0.207658
   9 H :    0.266354
  10 H :    0.135734
  11 H :    0.110922
  12 H :    0.167015
  13 H :    0.217809
  14 H :    0.234096
  15 H :    0.251145
Sum of atomic charges:    0.0000000

LOEWDIN ATOMIC CHARGES
----------------------
   0 C :   -0.242950
   1 C :   -0.080177
   2 N :    0.022332
   3 H :    0.111173
   4 H :    0.112069
   5 C :   -0.581797
   6 N :    0.126019
   7 C :    0.006848
   8 H :   -0.010530
   9 H :    0.003006
  10 H :    0.135743
  11 H :    0.094184
  12 H :    0.112244
  13 H :    0.063642
  14 H :    0.064554
  15 H :    0.063641

  Mayer bond orders larger than 0.100000
B(  0-C ,  1-C ) :   0.8134 B(  0-C ,  2-N ) :   0.9188 B(  0-C ,  3-H ) :   0.9621
B(  0-C ,  4-H ) :   0.8829 B(  0-C ,  7-C ) :   0.1118 B(  1-C , 13-H ) :   0.9910
B(  1-C , 14-H ) :   1.0298 B(  1-C , 15-H ) :   0.9541 B(  2-N ,  5-C ) :   1.0709
B(  2-N , 10-H ) :   0.9984 B(  5-C ,  6-N ) :   1.0604 B(  5-C ,  7-C ) :   1.2077
B(  6-N ,  7-C ) :   0.1188 B(  6-N , 11-H ) :   1.0275 B(  6-N , 12-H ) :   0.9772
B(  7-C ,  8-H ) :   1.0378 B(  7-C ,  9-H ) :   1.0432

Dispersion correction           -0.012783879
FINAL SINGLE POINT ENERGY      -267.665288195094

DIPOLE MOMENT
-------------
                                X             Y             Z
Electronic contribution:     -2.79498      -2.28562       2.20416
Nuclear contribution   :      1.81275       2.23313      -2.77458
                        -----------------------------------------
Total Dipole Moment    :     -0.98223      -0.05250      -0.57041
                        -----------------------------------------
Magnitude (a.u.)       :      1.13706
Magnitude (Debye)      :      2.89017

Rotational constants in cm-1:     0.245202     0.073668     0.064348
Rotational constants in MHz :  7350.977980  2208.513334  1929.108541

                             ****ORCA TERMINATED NORMALLY****
TOTAL RUN TIME: 0 days 0 hours 0 minutes 24 seconds 539 msec
