                         Program Version 5.0.0 -  RELEASE  -
|  1> !PBE D3BJ RIJCOSX def2-TZVPD def2/J TightSCF xyzfile
|  2>
|  3> *xyzfile 0 1 D1.xyz
|  4>
|  5> %MaxCore 64000
|  6>
|  7> %pal nprocs 4
|  8> end
|  9>
| 10> %scf
| 11>   MaxIter 150
| 12> end
| 13>
| 14>
| 15>                          ****END OF INPUT****

CARTESIAN COORDINATES (ANGSTROEM)
---------------------------------
  C      3.488276    1.600919   -1.522040
  C      4.342970    1.313419   -2.756826
  C      2.810285    0.428783   -1.014196
  H      5.132033    0.604994   -2.484466
  C      3.535896    0.749253   -3.924604
  H      4.841247    2.242136   -3.054083
  H      2.991617   -0.132199   -3.574137
  H      4.225505    0.392784   -4.695962
  C      2.564776    1.750890   -4.544523
  H      1.918749    2.171679   -3.769419
  C      1.686235    1.161657   -5.650111
  H      3.132494    2.594775   -4.951604
  C      0.839616   -0.037582   -5.220473
  H      2.323886    0.866395   -6.490796
  H      1.029518    1.951850   -6.029329
  C     -0.151019    0.254955   -4.094256
  H      1.499442   -0.857141   -4.922958
  H      0.290097   -0.410143   -6.091131
  H      0.328265    0.833022   -3.299125
  C     -0.721843   -0.999513   -3.439309
  H     -0.957367    0.884951   -4.485450
  H     -1.083403   -1.697555   -4.205656
  H     -1.581056   -0.723848   -2.820490
  C      0.287250   -1.711771   -2.527405
  H      1.131780   -2.067380   -3.159396
  H     -0.204137   -2.637326   -2.170480
  F      0.710505   -0.927506   -1.481767
  H      2.714548    2.331455   -1.760302
  H      4.090991    2.063151   -0.733382
  C      3.290978   -0.418021   -0.129083
  N      2.517536   -1.432017    0.239360
  N      4.535490   -0.284410    0.395800
  H      5.043627    0.571888    0.222899
  H      4.723346   -0.733273    1.281800
  H      1.934787    0.102305   -1.403788
  H      1.674638   -1.505616   -0.316095
  H      2.928503   -2.218502    0.725494

 Total Charge           Charge          ....    0
 Multiplicity           Mult            ....    1
 Number of Electrons    NEL             ....  112
 Basis Dimension        Dim             ....  728

ORBITAL ENERGIES
----------------

  NO   OCC          E(Eh)            E(eV)
   0   2.0000     -24.276945      -660.6093
   1   2.0000     -13.973115      -380.2278
   2   2.0000     -13.957779      -379.8105
   3   2.0000      -9.968091      -271.2456
   4   2.0000      -9.899897      -269.3899
   5   2.0000      -9.893662      -269.2202
   6   2.0000      -9.879161      -268.8256
   7   2.0000      -9.875114      -268.7155
   8   2.0000      -9.870727      -268.5961
   9   2.0000      -9.863108      -268.3888
  10   2.0000      -9.857647      -268.2402
  11   2.0000      -9.852964      -268.1128
  12   2.0000      -9.847078      -267.9526
  13   2.0000      -9.783146      -266.2129
  14   2.0000      -1.137211       -30.9451
  15   2.0000      -0.861637       -23.4463
  16   2.0000      -0.780293       -21.2329
  17   2.0000      -0.745451       -20.2848
  18   2.0000      -0.721961       -19.6456
  19   2.0000      -0.694625       -18.9017
  20   2.0000      -0.663050       -18.0425
  21   2.0000      -0.627068       -17.0634
  22   2.0000      -0.603182       -16.4134
  23   2.0000      -0.571810       -15.5598
  24   2.0000      -0.544532       -14.8175
  25   2.0000      -0.532255       -14.4834
  26   2.0000      -0.508458       -13.8358
  27   2.0000      -0.492465       -13.4006
  28   2.0000      -0.479932       -13.0596
  29   2.0000      -0.468214       -12.7408
  30   2.0000      -0.462428       -12.5833
  31   2.0000      -0.442183       -12.0324
  32   2.0000      -0.436593       -11.8803
  33   2.0000      -0.414172       -11.2702
  34   2.0000      -0.407473       -11.0879
  35   2.0000      -0.396852       -10.7989
  36   2.0000      -0.389686       -10.6039
  37   2.0000      -0.376986       -10.2583
  38   2.0000      -0.367463        -9.9992
  39   2.0000      -0.357067        -9.7163
  40   2.0000      -0.350119        -9.5272
  41   2.0000      -0.332246        -9.0409
  42   2.0000      -0.329377        -8.9628
  43   2.0000      -0.319213        -8.6862
  44   2.0000      -0.317797        -8.6477
  45   2.0000      -0.315340        -8.5808
  46   2.0000      -0.295803        -8.0492
  47   2.0000      -0.288920        -7.8619
  48   2.0000      -0.280677        -7.6376
  49   2.0000      -0.277928        -7.5628
  50   2.0000      -0.276161        -7.5147
  51   2.0000      -0.262054        -7.1308
  52   2.0000      -0.255435        -6.9507
  53   2.0000      -0.249648        -6.7933
  54   2.0000      -0.208427        -5.6716
  55   2.0000      -0.119424        -3.2497
  56   0.0000      -0.015258        -0.4152
  57   0.0000      -0.006426        -0.1749
  58   0.0000      -0.001763        -0.0480
  59   0.0000       0.004149         0.1129
  60   0.0000       0.014686         0.3996

MULLIKEN ATOMIC CHARGES
-----------------------
   0 C :   -0.477017
   1 C :   -0.179946
   2 C :   -1.185476
   3 H :    0.194993
   4 C :   -0.024001
   5 H :    0.092084
   6 H :   -0.061665
   7 H :    0.147520
   8 C :   -0.283238
   9 H :    0.142717
  10 C :   -0.426543
  11 H :    0.124850
  12 C :   -0.339230
  13 H :    0.183325
  14 H :    0.176787
  15 C :   -0.066388
  16 H :    0.182214
  17 H :    0.163980
  18 H :    0.034695
  19 C :   -0.341561
  20 H :    0.160827
  21 H :    0.158353
  22 H :    0.178295
  23 C :   -0.280460
  24 H :    0.266310
  25 H :    0.150169
  26 F :   -0.427461
  27 H :    0.147267
  28 H :    0.215289
  29 C :   -0.486510
  30 N :   -0.247851
  31 N :   -0.262157
  32 H :    0.169892
  33 H :    0.122586
  34 H :    1.691243
  35 H :    0.285576
  36 H :    0.100530
Sum of atomic charges:   -0.0000000

LOEWDIN ATOMIC CHARGES
----------------------
   0 C :   -0.227103
   1 C :   -0.204246
   2 C :   -0.130060
   3 H :    0.109085
   4 C :   -0.212510
   5 H :    0.105567
   6 H :    0.094352
   7 H :    0.115864
   8 C :   -0.216167
   9 H :    0.096194
  10 C :   -0.211218
  11 H :    0.115681
  12 C :   -0.219571
  13 H :    0.109852
  14 H :    0.109645
  15 C :   -0.209479
  16 H :    0.094182
  17 H :    0.113877
  18 H :    0.102902
  19 C :   -0.179366
  20 H :    0.119120
  21 H :    0.121388
  22 H :    0.112898
  23 C :   -0.209950
  24 H :    0.123345
  25 H :    0.122615
  26 F :   -0.053944
  27 H :    0.101406
  28 H :    0.101397
  29 C :   -0.533999
  30 N :    0.125952
  31 N :    0.140037
  32 H :    0.084247
  33 H :    0.088139
  34 H :    0.039872
  35 H :    0.063286
  36 H :    0.096711

  Mayer bond orders larger than 0.100000
B(  0-C ,  1-C ) :   0.8468 B(  0-C ,  2-C ) :   0.8359 B(  0-C ,  8-C ) :   0.1547
B(  0-C , 27-H ) :   0.9454 B(  0-C , 28-H ) :   0.9430 B(  0-C , 29-C ) :   0.2404
B(  1-C ,  2-C ) :   0.1302 B(  1-C ,  3-H ) :   0.8907 B(  1-C ,  4-C ) :   1.1998
B(  1-C ,  5-H ) :   0.9206 B(  1-C ,  6-H ) :   0.1171 B(  1-C ,  8-C ) :   0.1952
B(  2-C ,  4-C ) :   0.2007 B(  2-C , 26-F ) :   0.5507 B(  2-C , 29-C ) :   1.7922
B(  2-C , 32-H ) :  -0.1038 B(  2-C , 34-H ) :  -0.7737 B(  4-C ,  6-H ) :   1.3670
B(  4-C ,  7-H ) :   0.8101 B(  4-C ,  8-C ) :   0.5167 B(  4-C , 10-C ) :   0.2024
B(  4-C , 12-C ) :   0.1571 B(  8-C ,  9-H ) :   1.0132 B(  8-C , 10-C ) :   1.0515
B(  8-C , 11-H ) :   0.9464 B(  8-C , 15-C ) :   0.1314 B(  9-H , 15-C ) :   0.1075
B( 10-C , 12-C ) :   1.0839 B( 10-C , 13-H ) :   0.9236 B( 10-C , 14-H ) :   0.9203
B( 10-C , 15-C ) :   0.2820 B( 12-C , 15-C ) :   0.4564 B( 12-C , 16-H ) :   0.9740
B( 12-C , 17-H ) :   0.9571 B( 12-C , 19-C ) :   0.3067 B( 12-C , 23-C ) :   0.1189
B( 15-C , 18-H ) :   1.1632 B( 15-C , 19-C ) :   1.0516 B( 15-C , 20-H ) :   0.8675
B( 18-H , 19-C ) :   0.1086 B( 19-C , 21-H ) :   0.9239 B( 19-C , 22-H ) :   0.8929
B( 19-C , 23-C ) :   1.0552 B( 19-C , 26-F ) :   0.1580 B( 23-C , 24-H ) :   0.9354
B( 23-C , 25-H ) :   0.9558 B( 23-C , 26-F ) :   0.6559 B( 26-F , 29-C ) :   0.1236
B( 26-F , 34-H ) :  -0.8611 B( 26-F , 35-H ) :   0.1426 B( 29-C , 30-N ) :   1.2266
B( 29-C , 31-N ) :   1.1187 B( 29-C , 34-H ) :  -0.2868 B( 29-C , 35-H ) :   0.1133
B( 30-N , 35-H ) :   0.7691 B( 30-N , 36-H ) :   1.0472 B( 31-N , 32-H ) :   0.9394
B( 31-N , 33-H ) :   1.0318 B( 34-H , 35-H ) :  -0.1400

Dispersion correction           -0.040408352
FINAL SINGLE POINT ENERGY      -641.757214194095

DIPOLE MOMENT
-------------
                                X             Y             Z
Electronic contribution:     -1.59115      -4.83154      10.72934
Nuclear contribution   :      1.15699       3.94991     -10.89335
                        -----------------------------------------
Total Dipole Moment    :     -0.43417      -0.88163      -0.16401
                        -----------------------------------------
Magnitude (a.u.)       :      0.99633
Magnitude (Debye)      :      2.53246

Rotational constants in cm-1:     0.026548     0.016177     0.010851
Rotational constants in MHz :   795.884848   484.988695   325.313537

                             ****ORCA TERMINATED NORMALLY****
TOTAL RUN TIME: 0 days 0 hours 1 minutes 49 seconds 588 msec
