                         Program Version 5.0.0 -  RELEASE  -
|  1> !PBE D3BJ RIJCOSX def2-TZVPD def2/J TightSCF xyzfile
|  2>
|  3> *xyzfile 0 1 D2.xyz
|  4>
|  5> %MaxCore 64000
|  6>
|  7> %pal nprocs 4
|  8> end
|  9>
| 10> %scf
| 11>   MaxIter 150
| 12> end
| 13>
| 14>
| 15>                          ****END OF INPUT****

CARTESIAN COORDINATES (ANGSTROEM)
---------------------------------
  C      3.488276    1.600919   -1.522040
  C      4.342970    1.313419   -2.756826
  N      2.810285    0.428783   -1.014196
  H      5.132033    0.604994   -2.484466
  C      3.535896    0.749253   -3.924604
  H      4.841247    2.242136   -3.054083
  H      2.991617   -0.132199   -3.574137
  H      4.225505    0.392784   -4.695962
  C      2.564776    1.750890   -4.544523
  H      1.918749    2.171679   -3.769419
  C      1.686235    1.161657   -5.650111
  H      3.132494    2.594775   -4.951604
  C      0.839616   -0.037582   -5.220473
  H      2.323886    0.866395   -6.490796
  H      1.029518    1.951850   -6.029329
  C     -0.151019    0.254955   -4.094256
  H      1.499442   -0.857141   -4.922958
  H      0.290097   -0.410143   -6.091131
  H      0.328265    0.833022   -3.299125
  C     -0.721843   -0.999513   -3.439309
  H     -0.957367    0.884951   -4.485450
  H     -1.083403   -1.697555   -4.205656
  H     -1.581056   -0.723848   -2.820490
  C      0.287250   -1.711771   -2.527405
  H      1.131780   -2.067380   -3.159396
  H     -0.204137   -2.637326   -2.170480
  F      0.710505   -0.927506   -1.481767
  H      2.714548    2.331455   -1.760302
  H      4.090991    2.063151   -0.733382
  C      3.290978   -0.418021   -0.129083
  C      2.517536   -1.432017    0.239360
  N      4.535490   -0.284410    0.395800
  H      5.043627    0.571888    0.222899
  H      4.723346   -0.733273    1.281800
  H      1.934787    0.102305   -1.403788
  H      1.674638   -1.505616   -0.316095
  H      2.928503   -2.218502    0.725494

 Total Charge           Charge          ....    0
 Multiplicity           Mult            ....    1
 Number of Electrons    NEL             ....  112
 Basis Dimension        Dim             ....  728

ORBITAL ENERGIES
----------------

  NO   OCC          E(Eh)            E(eV)
   0   2.0000     -24.274733      -660.5491
   1   2.0000     -13.970825      -380.1655
   2   2.0000     -13.963791      -379.9741
   3   2.0000      -9.967113      -271.2189
   4   2.0000      -9.908453      -269.6227
   5   2.0000      -9.901286      -269.4277
   6   2.0000      -9.895485      -269.2698
   7   2.0000      -9.886028      -269.0125
   8   2.0000      -9.882527      -268.9172
   9   2.0000      -9.880656      -268.8663
  10   2.0000      -9.877549      -268.7818
  11   2.0000      -9.875509      -268.7263
  12   2.0000      -9.874657      -268.7031
  13   2.0000      -9.766638      -265.7637
  14   2.0000      -1.135007       -30.8851
  15   2.0000      -0.871034       -23.7020
  16   2.0000      -0.792964       -21.5776
  17   2.0000      -0.753045       -20.4914
  18   2.0000      -0.727680       -19.8012
  19   2.0000      -0.702779       -19.1236
  20   2.0000      -0.660406       -17.9706
  21   2.0000      -0.638237       -17.3673
  22   2.0000      -0.605518       -16.4770
  23   2.0000      -0.581233       -15.8162
  24   2.0000      -0.552262       -15.0278
  25   2.0000      -0.539740       -14.6871
  26   2.0000      -0.520337       -14.1591
  27   2.0000      -0.503797       -13.7090
  28   2.0000      -0.480750       -13.0819
  29   2.0000      -0.468565       -12.7503
  30   2.0000      -0.459277       -12.4976
  31   2.0000      -0.443322       -12.0634
  32   2.0000      -0.435080       -11.8391
  33   2.0000      -0.424543       -11.5524
  34   2.0000      -0.418335       -11.3835
  35   2.0000      -0.405987       -11.0475
  36   2.0000      -0.390223       -10.6185
  37   2.0000      -0.384593       -10.4653
  38   2.0000      -0.381959       -10.3936
  39   2.0000      -0.368516       -10.0278
  40   2.0000      -0.349958        -9.5228
  41   2.0000      -0.339097        -9.2273
  42   2.0000      -0.330194        -8.9850
  43   2.0000      -0.328899        -8.9498
  44   2.0000      -0.321192        -8.7401
  45   2.0000      -0.316355        -8.6085
  46   2.0000      -0.304016        -8.2727
  47   2.0000      -0.301684        -8.2093
  48   2.0000      -0.295723        -8.0470
  49   2.0000      -0.288038        -7.8379
  50   2.0000      -0.278535        -7.5793
  51   2.0000      -0.276696        -7.5293
  52   2.0000      -0.274813        -7.4780
  53   2.0000      -0.270996        -7.3742
  54   2.0000      -0.202139        -5.5005
  55   2.0000      -0.115330        -3.1383
  56   0.0000      -0.014730        -0.4008
  57   0.0000      -0.009852        -0.2681
  58   0.0000      -0.004930        -0.1342
  59   0.0000       0.000125         0.0034
  60   0.0000       0.013217         0.3596

MULLIKEN ATOMIC CHARGES
-----------------------
   0 C :   -1.002504
   1 C :   -0.131224
   2 N :    0.086347
   3 H :    0.184694
   4 C :   -0.074665
   5 H :    0.170253
   6 H :   -0.037307
   7 H :    0.132848
   8 C :   -0.281076
   9 H :    0.173555
  10 C :   -0.452787
  11 H :    0.128264
  12 C :   -0.342992
  13 H :    0.180672
  14 H :    0.176367
  15 C :   -0.110888
  16 H :    0.194490
  17 H :    0.166197
  18 H :    0.048933
  19 C :   -0.315218
  20 H :    0.166418
  21 H :    0.150197
  22 H :    0.180603
  23 C :   -0.329789
  24 H :    0.275919
  25 H :    0.186053
  26 F :   -0.462154
  27 H :    0.185550
  28 H :    0.329033
  29 C :    0.696531
  30 C :   -1.524614
  31 N :   -0.262486
  32 H :    0.130348
  33 H :    0.181860
  34 H :    0.329441
  35 H :    0.626662
  36 H :    0.246470
Sum of atomic charges:    0.0000000

LOEWDIN ATOMIC CHARGES
----------------------
   0 C :   -0.196371
   1 C :   -0.190027
   2 N :    0.048184
   3 H :    0.109773
   4 C :   -0.210221
   5 H :    0.110400
   6 H :    0.096440
   7 H :    0.118718
   8 C :   -0.218412
   9 H :    0.094143
  10 C :   -0.209620
  11 H :    0.116557
  12 C :   -0.218867
  13 H :    0.111155
  14 H :    0.110956
  15 C :   -0.211516
  16 H :    0.094630
  17 H :    0.115471
  18 H :    0.099497
  19 C :   -0.179578
  20 H :    0.119481
  21 H :    0.121721
  22 H :    0.113475
  23 C :   -0.207614
  24 H :    0.123232
  25 H :    0.127108
  26 F :   -0.055699
  27 H :    0.109607
  28 H :    0.109891
  29 C :   -0.554434
  30 C :    0.005049
  31 N :    0.133735
  32 H :    0.074686
  33 H :    0.101510
  34 H :    0.093440
  35 H :   -0.017230
  36 H :    0.010726

  Mayer bond orders larger than 0.100000
B(  0-C ,  1-C ) :   0.8498 B(  0-C ,  2-N ) :   1.1486 B(  0-C ,  8-C ) :   0.1892
B(  0-C , 27-H ) :   0.9676 B(  0-C , 28-H ) :   0.8345 B(  0-C , 29-C ) :  -0.2038
B(  0-C , 31-N ) :   0.1198 B(  0-C , 34-H ) :  -0.1965 B(  1-C ,  3-H ) :   0.9014
B(  1-C ,  4-C ) :   1.1546 B(  1-C ,  5-H ) :   0.9682 B(  1-C ,  6-H ) :   0.1479
B(  1-C ,  8-C ) :   0.2054 B(  2-N , 29-C ) :   0.8867 B(  2-N , 34-H ) :   0.9225
B(  4-C ,  6-H ) :   1.3585 B(  4-C ,  7-H ) :   0.8346 B(  4-C ,  8-C ) :   0.4980
B(  4-C , 10-C ) :   0.2090 B(  4-C , 12-C ) :   0.1499 B(  8-C ,  9-H ) :   0.9875
B(  8-C , 10-C ) :   1.0641 B(  8-C , 11-H ) :   0.9436 B(  8-C , 15-C ) :   0.1309
B(  9-H , 10-C ) :   0.1146 B(  9-H , 15-C ) :   0.1093 B( 10-C , 12-C ) :   1.0784
B( 10-C , 13-H ) :   0.9280 B( 10-C , 14-H ) :   0.9201 B( 10-C , 15-C ) :   0.3046
B( 12-C , 15-C ) :   0.4698 B( 12-C , 16-H ) :   0.9686 B( 12-C , 17-H ) :   0.9467
B( 12-C , 19-C ) :   0.2937 B( 12-C , 23-C ) :   0.1277 B( 15-C , 18-H ) :   1.1696
B( 15-C , 19-C ) :   1.0804 B( 15-C , 20-H ) :   0.8676 B( 19-C , 21-H ) :   0.9371
B( 19-C , 22-H ) :   0.8844 B( 19-C , 23-C ) :   1.0478 B( 19-C , 26-F ) :   0.1274
B( 23-C , 24-H ) :   0.9318 B( 23-C , 25-H ) :   0.9253 B( 23-C , 26-F ) :   0.6759
B( 26-F , 30-C ) :   0.2573 B( 26-F , 35-H ) :  -0.1461 B( 29-C , 30-C ) :   1.1905
B( 29-C , 31-N ) :   1.0572 B( 29-C , 34-H ) :  -0.1738 B( 29-C , 36-H ) :  -0.1387
B( 30-C , 31-N ) :   0.1107 B( 30-C , 35-H ) :   0.6690 B( 30-C , 36-H ) :   1.1460
B( 31-N , 32-H ) :   0.9971 B( 31-N , 33-H ) :   0.9694

Dispersion correction           -0.040180185
FINAL SINGLE POINT ENERGY      -641.743722474342

DIPOLE MOMENT
-------------
                                X             Y             Z
Electronic contribution:     -1.27960      -3.13713       9.46543
Nuclear contribution   :      1.09892       3.58083     -10.64472
                        -----------------------------------------
Total Dipole Moment    :     -0.18068       0.44370      -1.17928
                        -----------------------------------------
Magnitude (a.u.)       :      1.27288
Magnitude (Debye)      :      3.23541

Rotational constants in cm-1:     0.026768     0.016312     0.010954
Rotational constants in MHz :   802.489946   489.033275   328.388904

                             ****ORCA TERMINATED NORMALLY****
TOTAL RUN TIME: 0 days 0 hours 1 minutes 44 seconds 625 msec
