                         Program Version 5.0.0 -  RELEASE  -
|  1> !PBE D3BJ RIJCOSX def2-TZVPD def2/J TightSCF xyzfile
|  2>
|  3> *xyzfile 0 1 D3.xyz
|  4>
|  5> %MaxCore 64000
|  6>
|  7> %pal nprocs 4
|  8> end
|  9>
| 10> %scf
| 11>   MaxIter 150
| 12> end
| 13>
| 14>
| 15>                          ****END OF INPUT****

CARTESIAN COORDINATES (ANGSTROEM)
---------------------------------
  C      3.488276    1.600919   -1.522040
  C      4.342970    1.313419   -2.756826
  N      2.810285    0.428783   -1.014196
  H      5.132033    0.604994   -2.484466
  C      3.535896    0.749253   -3.924604
  H      4.841247    2.242136   -3.054083
  H      2.991617   -0.132199   -3.574137
  H      4.225505    0.392784   -4.695962
  C      2.564776    1.750890   -4.544523
  H      1.918749    2.171679   -3.769419
  C      1.686235    1.161657   -5.650111
  H      3.132494    2.594775   -4.951604
  C      0.839616   -0.037582   -5.220473
  H      2.323886    0.866395   -6.490796
  H      1.029518    1.951850   -6.029329
  C     -0.151019    0.254955   -4.094256
  H      1.499442   -0.857141   -4.922958
  H      0.290097   -0.410143   -6.091131
  H      0.328265    0.833022   -3.299125
  C     -0.721843   -0.999513   -3.439309
  H     -0.957367    0.884951   -4.485450
  H     -1.083403   -1.697555   -4.205656
  H     -1.581056   -0.723848   -2.820490
  C      0.287250   -1.711771   -2.527405
  H      1.131780   -2.067380   -3.159396
  H     -0.204137   -2.637326   -2.170480
  F      0.710505   -0.927506   -1.481767
  H      2.714548    2.331455   -1.760302
  H      4.090991    2.063151   -0.733382
  C      3.290978   -0.418021   -0.129083
  N      2.517536   -1.432017    0.239360
  C      4.535490   -0.284410    0.395800
  H      5.043627    0.571888    0.222899
  H      4.723346   -0.733273    1.281800
  H      1.934787    0.102305   -1.403788
  H      1.674638   -1.505616   -0.316095
  H      2.928503   -2.218502    0.725494

 Total Charge           Charge          ....    0
 Multiplicity           Mult            ....    1
 Number of Electrons    NEL             ....  112
 Basis Dimension        Dim             ....  728

ORBITAL ENERGIES
----------------

  NO   OCC          E(Eh)            E(eV)
   0   2.0000     -24.303231      -661.3245
   1   2.0000     -13.967092      -380.0639
   2   2.0000     -13.959178      -379.8486
   3   2.0000      -9.984748      -271.6988
   4   2.0000      -9.907297      -269.5913
   5   2.0000      -9.902624      -269.4641
   6   2.0000      -9.900625      -269.4097
   7   2.0000      -9.893326      -269.2111
   8   2.0000      -9.887401      -269.0498
   9   2.0000      -9.882584      -268.9188
  10   2.0000      -9.877045      -268.7681
  11   2.0000      -9.873190      -268.6632
  12   2.0000      -9.867780      -268.5159
  13   2.0000      -9.777050      -266.0471
  14   2.0000      -1.162281       -31.6273
  15   2.0000      -0.876103       -23.8400
  16   2.0000      -0.793089       -21.5811
  17   2.0000      -0.759262       -20.6606
  18   2.0000      -0.730965       -19.8906
  19   2.0000      -0.699475       -19.0337
  20   2.0000      -0.660635       -17.9768
  21   2.0000      -0.630485       -17.1564
  22   2.0000      -0.621310       -16.9067
  23   2.0000      -0.591953       -16.1079
  24   2.0000      -0.561867       -15.2892
  25   2.0000      -0.537165       -14.6170
  26   2.0000      -0.518069       -14.0974
  27   2.0000      -0.504393       -13.7252
  28   2.0000      -0.498197       -13.5566
  29   2.0000      -0.475142       -12.9293
  30   2.0000      -0.466759       -12.7012
  31   2.0000      -0.457044       -12.4368
  32   2.0000      -0.443811       -12.0767
  33   2.0000      -0.427210       -11.6250
  34   2.0000      -0.414504       -11.2792
  35   2.0000      -0.407575       -11.0907
  36   2.0000      -0.394730       -10.7411
  37   2.0000      -0.390061       -10.6141
  38   2.0000      -0.382282       -10.4024
  39   2.0000      -0.366354        -9.9690
  40   2.0000      -0.355312        -9.6685
  41   2.0000      -0.341069        -9.2810
  42   2.0000      -0.336241        -9.1496
  43   2.0000      -0.328926        -8.9505
  44   2.0000      -0.325882        -8.8677
  45   2.0000      -0.317855        -8.6493
  46   2.0000      -0.310034        -8.4365
  47   2.0000      -0.305328        -8.3084
  48   2.0000      -0.298419        -8.1204
  49   2.0000      -0.295714        -8.0468
  50   2.0000      -0.290512        -7.9052
  51   2.0000      -0.278429        -7.5764
  52   2.0000      -0.276325        -7.5192
  53   2.0000      -0.270011        -7.3474
  54   2.0000      -0.192583        -5.2404
  55   2.0000      -0.119324        -3.2470
  56   0.0000      -0.022376        -0.6089
  57   0.0000      -0.012759        -0.3472
  58   0.0000      -0.004062        -0.1105
  59   0.0000      -0.000985        -0.0268
  60   0.0000       0.008786         0.2391

MULLIKEN ATOMIC CHARGES
-----------------------
   0 C :   -0.978149
   1 C :   -0.152755
   2 N :   -0.011039
   3 H :    0.197751
   4 C :   -0.088412
   5 H :    0.161455
   6 H :   -0.053514
   7 H :    0.137744
   8 C :   -0.258361
   9 H :    0.148927
  10 C :   -0.468641
  11 H :    0.128105
  12 C :   -0.333238
  13 H :    0.183159
  14 H :    0.175726
  15 C :   -0.101907
  16 H :    0.190649
  17 H :    0.167733
  18 H :    0.049345
  19 C :   -0.336862
  20 H :    0.167717
  21 H :    0.152021
  22 H :    0.177249
  23 C :   -0.264648
  24 H :    0.252839
  25 H :    0.167570
  26 F :   -0.501832
  27 H :    0.195010
  28 H :    0.333881
  29 C :    0.697608
  30 N :   -0.253306
  31 C :   -1.381921
  32 H :    0.245617
  33 H :    0.275255
  34 H :    0.506256
  35 H :    0.335189
  36 H :    0.137778
Sum of atomic charges:    0.0000000

LOEWDIN ATOMIC CHARGES
----------------------
   0 C :   -0.190834
   1 C :   -0.183466
   2 N :    0.045495
   3 H :    0.111677
   4 C :   -0.211854
   5 H :    0.112670
   6 H :    0.093726
   7 H :    0.118601
   8 C :   -0.218498
   9 H :    0.093780
  10 C :   -0.209368
  11 H :    0.117274
  12 C :   -0.218758
  13 H :    0.111623
  14 H :    0.111016
  15 C :   -0.210202
  16 H :    0.094333
  17 H :    0.115653
  18 H :    0.100097
  19 C :   -0.177501
  20 H :    0.120778
  21 H :    0.123750
  22 H :    0.114290
  23 C :   -0.204788
  24 H :    0.124932
  25 H :    0.126564
  26 F :   -0.045857
  27 H :    0.109303
  28 H :    0.114823
  29 C :   -0.566428
  30 N :    0.133609
  31 C :    0.002751
  32 H :   -0.014931
  33 H :   -0.001303
  34 H :    0.089031
  35 H :    0.056549
  36 H :    0.111465

  Mayer bond orders larger than 0.100000
B(  0-C ,  1-C ) :   0.8767 B(  0-C ,  2-N ) :   1.1436 B(  0-C ,  4-C ) :   0.1045
B(  0-C ,  8-C ) :   0.1880 B(  0-C , 27-H ) :   0.8967 B(  0-C , 28-H ) :   0.8040
B(  0-C , 29-C ) :  -0.1686 B(  0-C , 31-C ) :   0.1631 B(  0-C , 34-H ) :  -0.2947
B(  1-C ,  3-H ) :   0.9206 B(  1-C ,  4-C ) :   1.1492 B(  1-C ,  5-H ) :   0.9287
B(  1-C ,  6-H ) :   0.1313 B(  1-C ,  8-C ) :   0.2026 B(  2-N , 29-C ) :   0.8740
B(  2-N , 34-H ) :   0.8367 B(  4-C ,  6-H ) :   1.3693 B(  4-C ,  7-H ) :   0.8306
B(  4-C ,  8-C ) :   0.5015 B(  4-C , 10-C ) :   0.2200 B(  4-C , 12-C ) :   0.1479
B(  8-C ,  9-H ) :   0.9987 B(  8-C , 10-C ) :   1.0648 B(  8-C , 11-H ) :   0.9417
B(  8-C , 15-C ) :   0.1281 B(  9-H , 10-C ) :   0.1112 B(  9-H , 15-C ) :   0.1188
B( 10-C , 12-C ) :   1.0900 B( 10-C , 13-H ) :   0.9267 B( 10-C , 14-H ) :   0.9222
B( 10-C , 15-C ) :   0.3063 B( 12-C , 15-C ) :   0.4578 B( 12-C , 16-H ) :   0.9693
B( 12-C , 17-H ) :   0.9491 B( 12-C , 19-C ) :   0.2920 B( 12-C , 23-C ) :   0.1240
B( 15-C , 18-H ) :   1.1673 B( 15-C , 19-C ) :   1.0622 B( 15-C , 20-H ) :   0.8674
B( 18-H , 19-C ) :   0.1089 B( 19-C , 21-H ) :   0.9198 B( 19-C , 22-H ) :   0.9002
B( 19-C , 23-C ) :   1.0633 B( 19-C , 26-F ) :   0.1584 B( 23-C , 24-H ) :   0.9510
B( 23-C , 25-H ) :   0.9325 B( 23-C , 26-F ) :   0.6505 B( 29-C , 30-N ) :   1.1844
B( 29-C , 31-C ) :   1.0507 B( 29-C , 33-H ) :  -0.1248 B( 30-N , 31-C ) :   0.1063
B( 30-N , 35-H ) :   0.7576 B( 30-N , 36-H ) :   0.9930 B( 31-C , 32-H ) :   1.0485
B( 31-C , 33-H ) :   1.1025

Dispersion correction           -0.040171719
FINAL SINGLE POINT ENERGY      -641.755516886475

DIPOLE MOMENT
-------------
                                X             Y             Z
Electronic contribution:     -3.21777      -4.28060       9.11255
Nuclear contribution   :      1.49917       3.80845     -10.61369
                        -----------------------------------------
Total Dipole Moment    :     -1.71860      -0.47215      -1.50113
                        -----------------------------------------
Magnitude (a.u.)       :      2.33022
Magnitude (Debye)      :      5.92295

Rotational constants in cm-1:     0.026547     0.016542     0.011018
Rotational constants in MHz :   795.873737   495.912559   330.323979

                             ****ORCA TERMINATED NORMALLY****
TOTAL RUN TIME: 0 days 0 hours 1 minutes 41 seconds 262 msec
