                         Program Version 5.0.0 -  RELEASE  -
|  1> !PBE D3BJ RIJCOSX def2-SVPD def2/J TightSCF
|  2> *xyz -1 1
|  3> C         -0.98480        1.28474       -2.92869
|  4> C         -0.10608        1.76991       -4.08984
|  5> H         -0.34774        2.82220       -4.26294
|  6> H          0.94968        1.74588       -3.80878
|  7> C         -0.25875        1.00432       -5.40983
|  8> C          0.39596       -0.37070       -5.33994
|  9> H          0.23915        1.56939       -6.20125
| 10> H         -1.30936        0.88869       -5.68245
| 11> O         -0.32633       -1.39040       -5.49128
| 12> O          1.61941       -0.40073       -5.03683
| 13> H         -2.01317        1.31546       -3.22263
| 14> H         -0.83724        1.91975       -2.08023
| 15> H         -0.71656        0.28077       -2.67373
| 16> *
| 17> %MaxCore 64000
| 18>
| 19> %pal nprocs 4
| 20> end
| 21>
| 22> %scf
| 23>   MaxIter 150
| 24> end
| 25>
| 26>
| 27>                          ****END OF INPUT****

CARTESIAN COORDINATES (ANGSTROEM)
---------------------------------
  C     -0.984800    1.284740   -2.928690
  C     -0.106080    1.769910   -4.089840
  H     -0.347740    2.822200   -4.262940
  H      0.949680    1.745880   -3.808780
  C     -0.258750    1.004320   -5.409830
  C      0.395960   -0.370700   -5.339940
  H      0.239150    1.569390   -6.201250
  H     -1.309360    0.888690   -5.682450
  O     -0.326330   -1.390400   -5.491280
  O      1.619410   -0.400730   -5.036830
  H     -2.013170    1.315460   -3.222630
  H     -0.837240    1.919750   -2.080230
  H     -0.716560    0.280770   -2.673730

 Total Charge           Charge          ....   -1
 Multiplicity           Mult            ....    1
 Number of Electrons    NEL             ....   48
 Basis Dimension        Dim             ....  182

ORBITAL ENERGIES
----------------

  NO   OCC          E(Eh)            E(eV)
   0   2.0000     -18.508056      -503.6298
   1   2.0000     -18.507543      -503.6158
   2   2.0000      -9.774757      -265.9847
   3   2.0000      -9.747889      -265.2535
   4   2.0000      -9.747152      -265.2335
   5   2.0000      -9.724062      -264.6052
   6   2.0000      -0.726533       -19.7700
   7   2.0000      -0.636650       -17.3241
   8   2.0000      -0.560104       -15.2412
   9   2.0000      -0.473484       -12.8841
  10   2.0000      -0.381295       -10.3756
  11   2.0000      -0.278284        -7.5725
  12   2.0000      -0.257588        -7.0093
  13   2.0000      -0.236297        -6.4300
  14   2.0000      -0.213969        -5.8224
  15   2.0000      -0.184846        -5.0299
  16   2.0000      -0.175469        -4.7748
  17   2.0000      -0.162291        -4.4162
  18   2.0000      -0.147719        -4.0196
  19   2.0000      -0.131285        -3.5724
  20   2.0000      -0.122116        -3.3229
  21   2.0000      -0.015964        -0.4344
  22   2.0000      -0.002879        -0.0783
  23   2.0000       0.016117         0.4386
  24   0.0000       0.128025         3.4837
  25   0.0000       0.153930         4.1887
  26   0.0000       0.168854         4.5947
  27   0.0000       0.181884         4.9493
  28   0.0000       0.198949         5.4137

MULLIKEN ATOMIC CHARGES
-----------------------
   0 C :    0.681227
   1 C :   -0.488465
   2 H :   -0.119580
   3 H :   -0.008210
   4 C :    0.064459
   5 C :    0.375188
   6 H :   -0.011062
   7 H :   -0.004899
   8 O :   -0.644744
   9 O :   -0.685762
  10 H :   -0.020090
  11 H :   -0.079323
  12 H :   -0.058740
Sum of atomic charges:   -1.0000000

LOEWDIN ATOMIC CHARGES
----------------------
   0 C :    0.114029
   1 C :   -0.091888
   2 H :   -0.005245
   3 H :    0.008968
   4 C :   -0.004078
   5 C :   -0.323173
   6 H :    0.008086
   7 H :    0.000592
   8 O :   -0.313814
   9 O :   -0.309224
  10 H :   -0.029058
  11 H :   -0.037737
  12 H :   -0.017458

  Mayer bond orders larger than 0.100000
B(  0-C ,  1-C ) :   1.3324 B(  0-C ,  2-H ) :   0.1105 B(  0-C , 10-H ) :   0.7806
B(  0-C , 11-H ) :   0.7596 B(  0-C , 12-H ) :   0.8275 B(  1-C ,  2-H ) :   0.9564
B(  1-C ,  3-H ) :   0.9132 B(  1-C ,  4-C ) :   1.2752 B(  1-C ,  6-H ) :   0.1413
B(  1-C ,  7-H ) :   0.1388 B(  1-C , 10-H ) :   0.2218 B(  1-C , 11-H ) :   0.2278
B(  1-C , 12-H ) :   0.2288 B(  2-H ,  4-C ) :   0.1048 B(  3-H ,  4-C ) :   0.1566
B(  4-C ,  5-C ) :   1.0474 B(  4-C ,  6-H ) :   0.8278 B(  4-C ,  7-H ) :   0.8880
B(  5-C ,  6-H ) :   0.1054 B(  5-C ,  7-H ) :   0.1961 B(  5-C ,  8-O ) :   1.4548
B(  5-C ,  9-O ) :   1.4721

Dispersion correction           -0.009721032
FINAL SINGLE POINT ENERGY      -306.591002119034

DIPOLE MOMENT
-------------
                                X             Y             Z
Electronic contribution:      3.16941      -5.73860      -3.88787
Nuclear contribution   :     -4.15791       7.87420       4.69333
                        -----------------------------------------
Total Dipole Moment    :     -0.98850       2.13560       0.80547
                        -----------------------------------------
Magnitude (a.u.)       :      2.48731
Magnitude (Debye)      :      6.32224

Rotational constants in cm-1:     0.200385     0.078723     0.072676
Rotational constants in MHz :  6007.394681  2360.059351  2178.761275

                             ****ORCA TERMINATED NORMALLY****
TOTAL RUN TIME: 0 days 0 hours 0 minutes 6 seconds 613 msec
