                         Program Version 5.0.0 -  RELEASE  -
|  1> !PBE D3BJ RIJCOSX def2-SVPD def2/J TightSCF
|  2> *xyz 1 1
|  3> C          0.81607       -2.10149       -2.18655
|  4> H          1.69623       -2.36869       -1.60046
|  5> N          1.10055       -2.46749       -3.59927
|  6> C          0.51624       -0.61363       -2.03937
|  7> H         -0.02007       -2.71285       -1.84084
|  8> C         -0.86862       -0.19392       -2.54630
|  9> H          1.70061       -1.75723       -4.07838
| 10> H          0.29386       -2.35977       -4.25632
| 11> H          1.50132       -3.42848       -3.69491
| 12> H          1.29904       -0.05680       -2.55898
| 13> H          0.61239       -0.36558       -0.97917
| 14> H         -0.95781       -0.43872       -3.58410
| 15> H         -0.99113        0.86113       -2.41690
| 16> H         -1.62334       -0.71130       -1.99167
| 17> *
| 18> %MaxCore 64000
| 19>
| 20> %pal nprocs 4
| 21> end
| 22>
| 23> %scf
| 24>   MaxIter 150
| 25> end
| 26>
| 27>
| 28>                          ****END OF INPUT****

CARTESIAN COORDINATES (ANGSTROEM)
---------------------------------
  C      0.816070   -2.101490   -2.186550
  H      1.696230   -2.368690   -1.600460
  N      1.100550   -2.467490   -3.599270
  C      0.516240   -0.613630   -2.039370
  H     -0.020070   -2.712850   -1.840840
  C     -0.868620   -0.193920   -2.546300
  H      1.700610   -1.757230   -4.078380
  H      0.293860   -2.359770   -4.256320
  H      1.501320   -3.428480   -3.694910
  H      1.299040   -0.056800   -2.558980
  H      0.612390   -0.365580   -0.979170
  H     -0.957810   -0.438720   -3.584100
  H     -0.991130    0.861130   -2.416900
  H     -1.623340   -0.711300   -1.991670

 Total Charge           Charge          ....    1
 Multiplicity           Mult            ....    1
 Number of Electrons    NEL             ....   34
 Basis Dimension        Dim             ....  160

ORBITAL ENERGIES
----------------

  NO   OCC          E(Eh)            E(eV)
   0   2.0000     -14.331593      -389.9825
   1   2.0000     -10.142570      -275.9934
   2   2.0000     -10.077400      -274.2200
   3   2.0000     -10.041494      -273.2429
   4   2.0000      -1.118796       -30.4440
   5   2.0000      -0.897963       -24.4348
   6   2.0000      -0.816404       -22.2155
   7   2.0000      -0.750672       -20.4268
   8   2.0000      -0.722949       -19.6725
   9   2.0000      -0.705738       -19.2041
  10   2.0000      -0.646832       -17.6012
  11   2.0000      -0.580264       -15.7898
  12   2.0000      -0.563088       -15.3224
  13   2.0000      -0.541457       -14.7338
  14   2.0000      -0.484663       -13.1884
  15   2.0000      -0.478679       -13.0255
  16   2.0000      -0.473108       -12.8739
  17   0.0000      -0.216881        -5.9016
  18   0.0000      -0.166093        -4.5196
  19   0.0000      -0.160228        -4.3600
  20   0.0000      -0.139922        -3.8075
  21   0.0000      -0.114467        -3.1148

MULLIKEN ATOMIC CHARGES
-----------------------
   0 C :    0.716572
   1 H :   -0.079540
   2 N :   -0.924872
   3 C :   -0.324648
   4 H :   -0.070845
   5 C :    0.789129
   6 H :    0.468306
   7 H :    0.346843
   8 H :    0.385317
   9 H :   -0.058016
  10 H :   -0.080310
  11 H :   -0.148050
  12 H :   -0.040776
  13 H :    0.020888
Sum of atomic charges:    1.0000000

LOEWDIN ATOMIC CHARGES
----------------------
   0 C :    0.079703
   1 H :    0.053317
   2 N :    0.314822
   3 C :   -0.047467
   4 H :    0.056127
   5 C :    0.153899
   6 H :    0.108744
   7 H :    0.103572
   8 H :    0.119442
   9 H :    0.030276
  10 H :    0.046887
  11 H :   -0.024667
  12 H :    0.005700
  13 H :   -0.000355

  Mayer bond orders larger than 0.100000
B(  0-C ,  1-H ) :   0.8623 B(  0-C ,  2-N ) :   0.6781 B(  0-C ,  3-C ) :   1.1718
B(  0-C ,  4-H ) :   0.8637 B(  0-C , 10-H ) :   0.1250 B(  1-H ,  2-N ) :   0.1253
B(  2-N ,  4-H ) :   0.1442 B(  2-N ,  6-H ) :   0.5878 B(  2-N ,  7-H ) :   0.7664
B(  2-N ,  8-H ) :   0.6640 B(  3-C ,  5-C ) :   1.3090 B(  3-C ,  9-H ) :   0.9290
B(  3-C , 10-H ) :   0.9500 B(  3-C , 11-H ) :   0.1978 B(  3-C , 12-H ) :   0.2150
B(  3-C , 13-H ) :   0.1923 B(  5-C , 11-H ) :   0.8162 B(  5-C , 12-H ) :   0.7717
B(  5-C , 13-H ) :   0.7785

Dispersion correction           -0.009308160
FINAL SINGLE POINT ENERGY      -174.490956929933

DIPOLE MOMENT
-------------
                                X             Y             Z
Electronic contribution:      1.47476      -1.82018      -0.68325
Nuclear contribution   :     -0.52914       0.42437      -0.52967
                        -----------------------------------------
Total Dipole Moment    :      0.94563      -1.39581      -1.21292
                        -----------------------------------------
Magnitude (a.u.)       :      2.07694
Magnitude (Debye)      :      5.27916

Rotational constants in cm-1:     0.462856     0.150885     0.132529
Rotational constants in MHz : 13876.083919  4523.416930  3973.119974

                             ****ORCA TERMINATED NORMALLY****
TOTAL RUN TIME: 0 days 0 hours 0 minutes 4 seconds 813 msec
