                         Program Version 5.0.0 -  RELEASE  -
|  1> !PBE D3BJ RIJCOSX def2-SVPD def2/J TightSCF
|  2> *xyz 0 1
|  3> C         -0.98480        1.28474       -2.92869
|  4> C         -0.10608        1.76991       -4.08984
|  5> H         -0.34774        2.82220       -4.26294
|  6> H          0.94968        1.74588       -3.80878
|  7> C         -0.25875        1.00432       -5.40983
|  8> C          0.39596       -0.37070       -5.33994
|  9> H          0.23915        1.56939       -6.20125
| 10> H         -1.30936        0.88869       -5.68245
| 11> F         -0.32633       -1.39040       -5.49128
| 12> O          1.61941       -0.40073       -5.03683
| 13> H         -2.01317        1.31546       -3.22263
| 14> H         -0.83724        1.91975       -2.08023
| 15> H         -0.71656        0.28077       -2.67373
| 16> *
| 17> %MaxCore 64000
| 18>
| 19> %pal nprocs 4
| 20> end
| 21>
| 22> %scf
| 23>   MaxIter 150
| 24> end
| 25>
| 26>
| 27>                          ****END OF INPUT****

CARTESIAN COORDINATES (ANGSTROEM)
---------------------------------
  C     -0.984800    1.284740   -2.928690
  C     -0.106080    1.769910   -4.089840
  H     -0.347740    2.822200   -4.262940
  H      0.949680    1.745880   -3.808780
  C     -0.258750    1.004320   -5.409830
  C      0.395960   -0.370700   -5.339940
  H      0.239150    1.569390   -6.201250
  H     -1.309360    0.888690   -5.682450
  F     -0.326330   -1.390400   -5.491280
  O      1.619410   -0.400730   -5.036830
  H     -2.013170    1.315460   -3.222630
  H     -0.837240    1.919750   -2.080230
  H     -0.716560    0.280770   -2.673730

 Total Charge           Charge          ....    0
 Multiplicity           Mult            ....    1
 Number of Electrons    NEL             ....   48
 Basis Dimension        Dim             ....  182

ORBITAL ENERGIES
----------------

  NO   OCC          E(Eh)            E(eV)
   0   2.0000     -24.344334      -662.4430
   1   2.0000     -18.771735      -510.8049
   2   2.0000     -10.066565      -273.9252
   3   2.0000      -9.927474      -270.1403
   4   2.0000      -9.912229      -269.7255
   5   2.0000      -9.892469      -269.1878
   6   2.0000      -1.202232       -32.7144
   7   2.0000      -0.936372       -25.4800
   8   2.0000      -0.735554       -20.0154
   9   2.0000      -0.658450       -17.9173
  10   2.0000      -0.597051       -16.2466
  11   2.0000      -0.548125       -14.9152
  12   2.0000      -0.491563       -13.3761
  13   2.0000      -0.474451       -12.9105
  14   2.0000      -0.451527       -12.2867
  15   2.0000      -0.415920       -11.3177
  16   2.0000      -0.405728       -11.0404
  17   2.0000      -0.377634       -10.2760
  18   2.0000      -0.353602        -9.6220
  19   2.0000      -0.337755        -9.1908
  20   2.0000      -0.314025        -8.5451
  21   2.0000      -0.307501        -8.3675
  22   2.0000      -0.304329        -8.2812
  23   2.0000      -0.246926        -6.7192
  24   0.0000      -0.074196        -2.0190
  25   0.0000      -0.004473        -0.1217
  26   0.0000       0.024498         0.6666
  27   0.0000       0.031010         0.8438
  28   0.0000       0.038441         1.0460

MULLIKEN ATOMIC CHARGES
-----------------------
   0 C :    0.711898
   1 C :   -0.417084
   2 H :   -0.099392
   3 H :   -0.012388
   4 C :    0.024109
   5 C :    0.708900
   6 H :    0.028705
   7 H :    0.019772
   8 F :   -0.329901
   9 O :   -0.486056
  10 H :   -0.005919
  11 H :   -0.065895
  12 H :   -0.076752
Sum of atomic charges:    0.0000000

LOEWDIN ATOMIC CHARGES
----------------------
   0 C :    0.133952
   1 C :   -0.065153
   2 H :    0.023168
   3 H :    0.024923
   4 C :    0.038596
   5 C :   -0.034006
   6 H :    0.040977
   7 H :    0.023988
   8 F :   -0.017415
   9 O :   -0.120719
  10 H :   -0.016692
  11 H :   -0.014757
  12 H :   -0.016861

  Mayer bond orders larger than 0.100000
B(  0-C ,  1-C ) :   1.3629 B(  0-C ,  2-H ) :   0.1033 B(  0-C , 10-H ) :   0.7701
B(  0-C , 11-H ) :   0.7585 B(  0-C , 12-H ) :   0.8272 B(  1-C ,  2-H ) :   0.9385
B(  1-C ,  3-H ) :   0.9069 B(  1-C ,  4-C ) :   1.2823 B(  1-C ,  6-H ) :   0.1377
B(  1-C ,  7-H ) :   0.1350 B(  1-C , 10-H ) :   0.2159 B(  1-C , 11-H ) :   0.2183
B(  1-C , 12-H ) :   0.2158 B(  2-H ,  4-C ) :   0.1006 B(  3-H ,  4-C ) :   0.1314
B(  4-C ,  5-C ) :   1.0794 B(  4-C ,  6-H ) :   0.8244 B(  4-C ,  7-H ) :   0.8826
B(  5-C ,  7-H ) :   0.1062 B(  5-C ,  8-F ) :   0.7544 B(  5-C ,  9-O ) :   1.7838
B(  8-F ,  9-O ) :   0.1127

Dispersion correction           -0.009351952
FINAL SINGLE POINT ENERGY      -331.107283721189

DIPOLE MOMENT
-------------
                                X             Y             Z
Electronic contribution:      2.79703      -9.11149      -5.66572
Nuclear contribution   :     -3.72230       9.78546       5.57872
                        -----------------------------------------
Total Dipole Moment    :     -0.92527       0.67397      -0.08700
                        -----------------------------------------
Magnitude (a.u.)       :      1.14801
Magnitude (Debye)      :      2.91801

Rotational constants in cm-1:     0.192703     0.076176     0.069525
Rotational constants in MHz :  5777.081080  2283.698999  2084.312921

                             ****ORCA TERMINATED NORMALLY****
TOTAL RUN TIME: 0 days 0 hours 0 minutes 6 seconds 179 msec
