                         Program Version 5.0.0 -  RELEASE  -
|  1> !PBE D3BJ RIJCOSX def2-SVPD def2/J TightSCF
|  2> *xyz 0 1
|  3> C          0.81607       -2.10149       -2.18655
|  4> H          1.69623       -2.36869       -1.60046
|  5> C          1.10055       -2.46749       -3.59927
|  6> C          0.51624       -0.61363       -2.03937
|  7> H         -0.02007       -2.71285       -1.84084
|  8> C         -0.86862       -0.19392       -2.54630
|  9> H          1.70061       -1.75723       -4.07838
| 10> H          0.29386       -2.35977       -4.25632
| 11> H          1.50132       -3.42848       -3.69491
| 12> H          1.29904       -0.05680       -2.55898
| 13> H          0.61239       -0.36558       -0.97917
| 14> H         -0.95781       -0.43872       -3.58410
| 15> H         -0.99113        0.86113       -2.41690
| 16> H         -1.62334       -0.71130       -1.99167
| 17> *
| 18> %MaxCore 64000
| 19>
| 20> %pal nprocs 4
| 21> end
| 22>
| 23> %scf
| 24>   MaxIter 150
| 25> end
| 26>
| 27>
| 28>                          ****END OF INPUT****

CARTESIAN COORDINATES (ANGSTROEM)
---------------------------------
  C      0.816070   -2.101490   -2.186550
  H      1.696230   -2.368690   -1.600460
  C      1.100550   -2.467490   -3.599270
  C      0.516240   -0.613630   -2.039370
  H     -0.020070   -2.712850   -1.840840
  C     -0.868620   -0.193920   -2.546300
  H      1.700610   -1.757230   -4.078380
  H      0.293860   -2.359770   -4.256320
  H      1.501320   -3.428480   -3.694910
  H      1.299040   -0.056800   -2.558980
  H      0.612390   -0.365580   -0.979170
  H     -0.957810   -0.438720   -3.584100
  H     -0.991130    0.861130   -2.416900
  H     -1.623340   -0.711300   -1.991670

 Total Charge           Charge          ....    0
 Multiplicity           Mult            ....    1
 Number of Electrons    NEL             ....   34
 Basis Dimension        Dim             ....  160

ORBITAL ENERGIES
----------------

  NO   OCC          E(Eh)            E(eV)
   0   2.0000      -9.887004      -269.0391
   1   2.0000      -9.884284      -268.9651
   2   2.0000      -9.877159      -268.7711
   3   2.0000      -9.863894      -268.4102
   4   2.0000      -0.722233       -19.6530
   5   2.0000      -0.653003       -17.7691
   6   2.0000      -0.575112       -15.6496
   7   2.0000      -0.509004       -13.8507
   8   2.0000      -0.414339       -11.2747
   9   2.0000      -0.408664       -11.1203
  10   2.0000      -0.376820       -10.2538
  11   2.0000      -0.349587        -9.5127
  12   2.0000      -0.341214        -9.2849
  13   2.0000      -0.313338        -8.5264
  14   2.0000      -0.286988        -7.8094
  15   2.0000      -0.282107        -7.6765
  16   2.0000      -0.274263        -7.4631
  17   0.0000       0.007525         0.2048
  18   0.0000       0.034703         0.9443
  19   0.0000       0.035753         0.9729
  20   0.0000       0.042093         1.1454
  21   0.0000       0.077804         2.1172

MULLIKEN ATOMIC CHARGES
-----------------------
   0 C :   -0.192246
   1 H :   -0.094968
   2 C :    0.913518
   3 C :   -0.342198
   4 H :   -0.063314
   5 C :    0.765070
   6 H :   -0.135050
   7 H :   -0.278808
   8 H :   -0.194304
   9 H :   -0.016971
  10 H :   -0.139520
  11 H :   -0.153986
  12 H :   -0.060210
  13 H :   -0.007012
Sum of atomic charges:    0.0000000

LOEWDIN ATOMIC CHARGES
----------------------
   0 C :   -0.082785
   1 H :    0.022171
   2 C :    0.108554
   3 C :   -0.083692
   4 H :    0.024896
   5 C :    0.128711
   6 H :   -0.029147
   7 H :   -0.035516
   8 H :   -0.022528
   9 H :    0.018721
  10 H :    0.014953
  11 H :   -0.026618
  12 H :   -0.020391
  13 H :   -0.017329

  Mayer bond orders larger than 0.100000
B(  0-C ,  1-H ) :   0.9083 B(  0-C ,  2-C ) :   1.2883 B(  0-C ,  3-C ) :   1.2059
B(  0-C ,  4-H ) :   0.8943 B(  0-C ,  6-H ) :   0.2059 B(  0-C ,  7-H ) :   0.2114
B(  0-C ,  8-H ) :   0.2329 B(  0-C ,  9-H ) :   0.1150 B(  0-C , 10-H ) :   0.1421
B(  1-H ,  2-C ) :   0.1021 B(  2-C ,  4-H ) :   0.1299 B(  2-C ,  6-H ) :   0.6666
B(  2-C ,  7-H ) :   0.6736 B(  2-C ,  8-H ) :   0.7305 B(  3-C ,  4-H ) :   0.1147
B(  3-C ,  5-C ) :   1.2981 B(  3-C ,  9-H ) :   0.8911 B(  3-C , 10-H ) :   0.9638
B(  3-C , 11-H ) :   0.2169 B(  3-C , 12-H ) :   0.2138 B(  3-C , 13-H ) :   0.2075
B(  5-C , 11-H ) :   0.8275 B(  5-C , 12-H ) :   0.7509 B(  5-C , 13-H ) :   0.7782
B(  6-H ,  7-H ) :   0.3397

Dispersion correction           -0.009318085
FINAL SINGLE POINT ENERGY      -158.099937511252

DIPOLE MOMENT
-------------
                                X             Y             Z
Electronic contribution:      0.32236      -0.06813       0.83296
Nuclear contribution   :     -0.30980       0.07990      -0.83209
                        -----------------------------------------
Total Dipole Moment    :      0.01256       0.01177       0.00087
                        -----------------------------------------
Magnitude (a.u.)       :      0.01723
Magnitude (Debye)      :      0.04380

Rotational constants in cm-1:     0.470198     0.157622     0.138278
Rotational constants in MHz : 14096.185772  4725.380109  4145.481686

                             ****ORCA TERMINATED NORMALLY****
TOTAL RUN TIME: 0 days 0 hours 0 minutes 4 seconds 778 msec
