                         Program Version 5.0.0 -  RELEASE  -
|  1> !PBE D3BJ RIJCOSX def2-SVPD def2/J TightSCF
|  2> *xyz 0 1
|  3> C         -0.98480        1.28474       -2.92869
|  4> C         -0.10608        1.76991       -4.08984
|  5> H         -0.34774        2.82220       -4.26294
|  6> H          0.94968        1.74588       -3.80878
|  7> C         -0.25875        1.00432       -5.40983
|  8> C          0.39596       -0.37070       -5.33994
|  9> H          0.23915        1.56939       -6.20125
| 10> H         -1.30936        0.88869       -5.68245
| 11> O         -0.32633       -1.39040       -5.49128
| 12> F          1.61941       -0.40073       -5.03683
| 13> H         -2.01317        1.31546       -3.22263
| 14> H         -0.83724        1.91975       -2.08023
| 15> H         -0.71656        0.28077       -2.67373
| 16> *
| 17> %MaxCore 64000
| 18>
| 19> %pal nprocs 4
| 20> end
| 21>
| 22> %scf
| 23>   MaxIter 150
| 24> end
| 25>
| 26>
| 27>                          ****END OF INPUT****

CARTESIAN COORDINATES (ANGSTROEM)
---------------------------------
  C     -0.984800    1.284740   -2.928690
  C     -0.106080    1.769910   -4.089840
  H     -0.347740    2.822200   -4.262940
  H      0.949680    1.745880   -3.808780
  C     -0.258750    1.004320   -5.409830
  C      0.395960   -0.370700   -5.339940
  H      0.239150    1.569390   -6.201250
  H     -1.309360    0.888690   -5.682450
  O     -0.326330   -1.390400   -5.491280
  F      1.619410   -0.400730   -5.036830
  H     -2.013170    1.315460   -3.222630
  H     -0.837240    1.919750   -2.080230
  H     -0.716560    0.280770   -2.673730

 Total Charge           Charge          ....    0
 Multiplicity           Mult            ....    1
 Number of Electrons    NEL             ....   48
 Basis Dimension        Dim             ....  182

ORBITAL ENERGIES
----------------

  NO   OCC          E(Eh)            E(eV)
   0   2.0000     -24.343296      -662.4148
   1   2.0000     -18.771796      -510.8065
   2   2.0000     -10.065592      -273.8987
   3   2.0000      -9.927147      -270.1314
   4   2.0000      -9.917201      -269.8608
   5   2.0000      -9.893238      -269.2087
   6   2.0000      -1.200977       -32.6803
   7   2.0000      -0.935865       -25.4662
   8   2.0000      -0.739594       -20.1254
   9   2.0000      -0.658852       -17.9283
  10   2.0000      -0.593923       -16.1615
  11   2.0000      -0.552071       -15.0226
  12   2.0000      -0.493470       -13.4280
  13   2.0000      -0.480080       -13.0637
  14   2.0000      -0.439337       -11.9550
  15   2.0000      -0.417304       -11.3554
  16   2.0000      -0.410804       -11.1785
  17   2.0000      -0.377104       -10.2615
  18   2.0000      -0.351174        -9.5559
  19   2.0000      -0.336976        -9.1696
  20   2.0000      -0.320128        -8.7111
  21   2.0000      -0.315981        -8.5983
  22   2.0000      -0.307973        -8.3804
  23   2.0000      -0.242181        -6.5901
  24   0.0000      -0.070814        -1.9270
  25   0.0000      -0.007233        -0.1968
  26   0.0000       0.025047         0.6816
  27   0.0000       0.033140         0.9018
  28   0.0000       0.034226         0.9313

MULLIKEN ATOMIC CHARGES
-----------------------
   0 C :    0.713198
   1 C :   -0.434058
   2 H :   -0.107190
   3 H :   -0.024312
   4 C :    0.047132
   5 C :    0.729186
   6 H :    0.027524
   7 H :   -0.001566
   8 O :   -0.454070
   9 F :   -0.359346
  10 H :   -0.005459
  11 H :   -0.058625
  12 H :   -0.072414
Sum of atomic charges:   -0.0000000

LOEWDIN ATOMIC CHARGES
----------------------
   0 C :    0.136654
   1 C :   -0.072150
   2 H :    0.022201
   3 H :    0.020295
   4 C :    0.042460
   5 C :   -0.039348
   6 H :    0.035771
   7 H :    0.036339
   8 O :   -0.119438
   9 F :   -0.018997
  10 H :   -0.012823
  11 H :   -0.015323
  12 H :   -0.015641

  Mayer bond orders larger than 0.100000
B(  0-C ,  1-C ) :   1.3662 B(  0-C ,  2-H ) :   0.1010 B(  0-C , 10-H ) :   0.7741
B(  0-C , 11-H ) :   0.7602 B(  0-C , 12-H ) :   0.8249 B(  1-C ,  2-H ) :   0.9574
B(  1-C ,  3-H ) :   0.8934 B(  1-C ,  4-C ) :   1.2624 B(  1-C ,  6-H ) :   0.1336
B(  1-C ,  7-H ) :   0.1210 B(  1-C , 10-H ) :   0.2185 B(  1-C , 11-H ) :   0.2176
B(  1-C , 12-H ) :   0.2186 B(  3-H ,  4-C ) :   0.1229 B(  4-C ,  5-C ) :   1.0405
B(  4-C ,  6-H ) :   0.8219 B(  4-C ,  7-H ) :   0.9140 B(  5-C ,  7-H ) :   0.1336
B(  5-C ,  8-O ) :   1.7903 B(  5-C ,  9-F ) :   0.7300 B(  8-O ,  9-F ) :   0.1171

Dispersion correction           -0.009320711
FINAL SINGLE POINT ENERGY      -331.108220668185

DIPOLE MOMENT
-------------
                                X             Y             Z
Electronic contribution:      6.04669      -7.42429      -4.89243
Nuclear contribution   :     -5.92016       8.66755       5.06539
                        -----------------------------------------
Total Dipole Moment    :      0.12653       1.24327       0.17295
                        -----------------------------------------
Magnitude (a.u.)       :      1.26160
Magnitude (Debye)      :      3.20674

Rotational constants in cm-1:     0.191324     0.076691     0.070269
Rotational constants in MHz :  5735.753800  2299.148675  2106.608556

                             ****ORCA TERMINATED NORMALLY****
TOTAL RUN TIME: 0 days 0 hours 0 minutes 5 seconds 956 msec
