                         Program Version 5.0.0 -  RELEASE  -
|  1> !PBE D3BJ RIJCOSX def2-SVPD def2/J TightSCF xyzfile
|  2>
|  3> *xyzfile 0 1 D1.xyz
|  4>
|  5> %MaxCore 64000
|  6>
|  7> %pal nprocs 4
|  8> end
|  9>
| 10> %scf
| 11>   MaxIter 150
| 12> end
| 13>
| 14>
| 15>                          ****END OF INPUT****

CARTESIAN COORDINATES (ANGSTROEM)
---------------------------------
  C      0.816067   -2.101491   -2.186546
  H      1.696232   -2.368691   -1.600457
  C      1.100552   -2.467492   -3.599269
  C      0.516243   -0.613634   -2.039373
  H     -0.020066   -2.712849   -1.840844
  C     -0.868621   -0.193925   -2.546303
  C     -0.984801    1.284739   -2.928686
  H     -0.764939    1.904116   -2.051568
  H     -2.032613    1.478953   -3.178952
  C     -0.106085    1.769914   -4.089836
  H     -0.347744    2.822196   -4.262942
  H      0.949683    1.745875   -3.808781
  C     -0.258747    1.004323   -5.409829
  C      0.395958   -0.370696   -5.339939
  H      0.239150    1.569393   -6.201253
  H     -1.309360    0.888694   -5.682455
  H      1.700606   -1.757225   -4.078378
  H      0.293855   -2.359766   -4.256324
  H      1.501324   -3.428479   -3.694915
  F     -0.326329   -1.390398   -5.491279
  O      1.619412   -0.400726   -5.036827
  H     -1.607271   -0.412651   -1.768955
  H     -1.157234   -0.796164   -3.409254
  H      1.299044   -0.056805   -2.558982
  H      0.612393   -0.365579   -0.979171

 Total Charge           Charge          ....    0
 Multiplicity           Mult            ....    1
 Number of Electrons    NEL             ....   80
 Basis Dimension        Dim             ....  326

ORBITAL ENERGIES
----------------

  NO   OCC          E(Eh)            E(eV)
   0   2.0000     -24.353114      -662.6819
   1   2.0000     -18.778911      -511.0001
   2   2.0000     -10.074123      -274.1308
   3   2.0000      -9.929936      -270.2073
   4   2.0000      -9.911655      -269.7098
   5   2.0000      -9.900212      -269.3985
   6   2.0000      -9.892982      -269.2017
   7   2.0000      -9.879701      -268.8403
   8   2.0000      -9.870828      -268.5989
   9   2.0000      -9.823636      -267.3147
  10   2.0000      -1.215307       -33.0702
  11   2.0000      -0.950542       -25.8656
  12   2.0000      -0.746906       -20.3243
  13   2.0000      -0.715904       -19.4807
  14   2.0000      -0.670845       -18.2546
  15   2.0000      -0.636031       -17.3073
  16   2.0000      -0.599580       -16.3154
  17   2.0000      -0.572374       -15.5751
  18   2.0000      -0.537005       -14.6127
  19   2.0000      -0.501885       -13.6570
  20   2.0000      -0.495521       -13.4838
  21   2.0000      -0.480740       -13.0816
  22   2.0000      -0.467824       -12.7301
  23   2.0000      -0.429215       -11.6795
  24   2.0000      -0.409289       -11.1373
  25   2.0000      -0.397821       -10.8253
  26   2.0000      -0.392091       -10.6693
  27   2.0000      -0.378778       -10.3071
  28   2.0000      -0.365881        -9.9561
  29   2.0000      -0.356825        -9.7097
  30   2.0000      -0.336410        -9.1542
  31   2.0000      -0.326238        -8.8774
  32   2.0000      -0.322760        -8.7827
  33   2.0000      -0.310092        -8.4380
  34   2.0000      -0.298830        -8.1316
  35   2.0000      -0.285991        -7.7822
  36   2.0000      -0.276436        -7.5222
  37   2.0000      -0.267909        -7.2902
  38   2.0000      -0.257723        -7.0130
  39   2.0000      -0.223331        -6.0771
  40   0.0000      -0.083468        -2.2713
  41   0.0000      -0.004599        -0.1251
  42   0.0000       0.017963         0.4888
  43   0.0000       0.021880         0.5954
  44   0.0000       0.023297         0.6339

MULLIKEN ATOMIC CHARGES
-----------------------
   0 C :    0.172497
   1 H :   -0.106323
   2 C :    1.267893
   3 C :    0.169855
   4 H :   -0.176236
   5 C :    0.146348
   6 C :    0.347269
   7 H :   -0.065856
   8 H :    0.052778
   9 C :    0.053364
  10 H :   -0.220114
  11 H :    0.117920
  12 C :    0.244581
  13 C :    0.463588
  14 H :    0.002998
  15 H :   -0.030878
  16 H :   -0.220422
  17 H :   -0.291516
  18 H :   -0.303020
  19 F :   -0.432887
  20 O :   -0.537828
  21 H :   -0.140422
  22 H :   -0.242180
  23 H :    0.022690
  24 H :   -0.294099
Sum of atomic charges:   -0.0000000

LOEWDIN ATOMIC CHARGES
----------------------
   0 C :   -0.050447
   1 H :    0.022368
   2 C :    0.126660
   3 C :   -0.022139
   4 H :    0.022320
   5 C :   -0.016778
   6 C :   -0.025788
   7 H :    0.027725
   8 H :    0.021877
   9 C :   -0.016708
  10 H :    0.025453
  11 H :    0.018852
  12 C :    0.061711
  13 C :    0.001436
  14 H :    0.043039
  15 H :    0.029437
  16 H :   -0.099955
  17 H :   -0.077258
  18 H :   -0.013619
  19 F :   -0.027921
  20 O :   -0.104376
  21 H :    0.027887
  22 H :   -0.000544
  23 H :    0.007386
  24 H :    0.019381

  Mayer bond orders larger than 0.100000
B(  0-C ,  1-H ) :   0.7691 B(  0-C ,  2-C ) :   1.1313 B(  0-C ,  3-C ) :   1.1873
B(  0-C ,  4-H ) :   0.7854 B(  0-C , 16-H ) :   0.2704 B(  0-C , 17-H ) :   0.1983
B(  0-C , 18-H ) :   0.2029 B(  0-C , 23-H ) :   0.1711 B(  0-C , 24-H ) :   0.1159
B(  1-H ,  3-C ) :   0.1774 B(  1-H ,  4-H ) :  -0.1330 B(  2-C ,  3-C ) :   0.1720
B(  2-C ,  4-H ) :   0.1699 B(  2-C , 16-H ) :   0.4935 B(  2-C , 17-H ) :   0.3319
B(  2-C , 18-H ) :   0.6091 B(  2-C , 23-H ) :  -0.1678 B(  2-C , 24-H ) :   0.1315
B(  3-C ,  4-H ) :   0.1069 B(  3-C ,  5-C ) :   1.1717 B(  3-C , 21-H ) :   0.2515
B(  3-C , 22-H ) :   0.1218 B(  3-C , 23-H ) :   0.8019 B(  3-C , 24-H ) :   0.8792
B(  5-C ,  6-C ) :   1.2434 B(  5-C ,  7-H ) :   0.1807 B(  5-C ,  8-H ) :   0.2176
B(  5-C ,  9-C ) :   0.1127 B(  5-C , 21-H ) :   0.7603 B(  5-C , 22-H ) :   0.8476
B(  5-C , 23-H ) :   0.1280 B(  5-C , 24-H ) :   0.2057 B(  6-C ,  7-H ) :   0.7887
B(  6-C ,  8-H ) :   0.6386 B(  6-C ,  9-C ) :   1.2586 B(  6-C , 10-H ) :   0.1649
B(  6-C , 11-H ) :   0.1089 B(  6-C , 21-H ) :   0.1262 B(  6-C , 22-H ) :   0.1126
B(  7-H ,  9-C ) :   0.1588 B(  8-H ,  9-C ) :   0.1591 B(  9-C , 10-H ) :   0.8698
B(  9-C , 11-H ) :   0.7771 B(  9-C , 12-C ) :   1.2416 B(  9-C , 14-H ) :   0.1782
B(  9-C , 15-H ) :   0.1203 B( 10-H , 11-H ) :  -0.1168 B( 10-H , 12-C ) :   0.1341
B( 11-H , 12-C ) :   0.1051 B( 12-C , 13-C ) :   1.2388 B( 12-C , 14-H ) :   0.6812
B( 12-C , 15-H ) :   0.8583 B( 13-C , 14-H ) :   0.1980 B( 13-C , 15-H ) :   0.1620
B( 13-C , 16-H ) :   0.1030 B( 13-C , 17-H ) :   0.1227 B( 13-C , 19-F ) :   0.6851
B( 13-C , 20-O ) :   1.6952 B( 16-H , 17-H ) :   0.3788 B( 16-H , 20-O ) :   0.1940
B( 16-H , 23-H ) :   0.2363 B( 16-H , 24-H ) :  -0.1905 B( 17-H , 19-F ) :   0.2134
B( 18-H , 23-H ) :  -0.1433

Dispersion correction           -0.026146394
FINAL SINGLE POINT ENERGY      -487.988199484428

DIPOLE MOMENT
-------------
                                X             Y             Z
Electronic contribution:      0.37316      -2.01216     -10.55641
Nuclear contribution   :     -1.21560       2.80077      10.24180
                        -----------------------------------------
Total Dipole Moment    :     -0.84244       0.78861      -0.31461
                        -----------------------------------------
Magnitude (a.u.)       :      1.19607
Magnitude (Debye)      :      3.04017

Rotational constants in cm-1:     0.051255     0.042531     0.028894
Rotational constants in MHz :  1536.587743  1275.050721   866.218876

                             ****ORCA TERMINATED NORMALLY****
TOTAL RUN TIME: 0 days 0 hours 0 minutes 29 seconds 410 msec
