                         Program Version 5.0.0 -  RELEASE  -
|  1> !PBE D3BJ RIJCOSX def2-SVPD def2/J TightSCF xyzfile
|  2>
|  3> *xyzfile 0 1 D2.xyz
|  4>
|  5> %MaxCore 64000
|  6>
|  7> %pal nprocs 4
|  8> end
|  9>
| 10> %scf
| 11>   MaxIter 150
| 12> end
| 13>
| 14>
| 15>                          ****END OF INPUT****

CARTESIAN COORDINATES (ANGSTROEM)
---------------------------------
  C      0.816067   -2.101491   -2.186546
  H      1.696232   -2.368691   -1.600457
  C      1.100552   -2.467492   -3.599269
  C      0.516243   -0.613634   -2.039373
  H     -0.020066   -2.712849   -1.840844
  C     -0.868621   -0.193925   -2.546303
  C     -0.984801    1.284739   -2.928686
  H     -0.764939    1.904116   -2.051568
  H     -2.032613    1.478953   -3.178952
  C     -0.106085    1.769914   -4.089836
  H     -0.347744    2.822196   -4.262942
  H      0.949683    1.745875   -3.808781
  C     -0.258747    1.004323   -5.409829
  C      0.395958   -0.370696   -5.339939
  H      0.239150    1.569393   -6.201253
  H     -1.309360    0.888694   -5.682455
  H      1.700606   -1.757225   -4.078378
  H      0.293855   -2.359766   -4.256324
  H      1.501324   -3.428479   -3.694915
  O     -0.326329   -1.390398   -5.491279
  F      1.619412   -0.400726   -5.036827
  H     -1.607271   -0.412651   -1.768955
  H     -1.157234   -0.796164   -3.409254
  H      1.299044   -0.056805   -2.558982
  H      0.612393   -0.365579   -0.979171

 Total Charge           Charge          ....    0
 Multiplicity           Mult            ....    1
 Number of Electrons    NEL             ....   80
 Basis Dimension        Dim             ....  326

ORBITAL ENERGIES
----------------

  NO   OCC          E(Eh)            E(eV)
   0   2.0000     -24.353405      -662.6898
   1   2.0000     -18.778713      -510.9948
   2   2.0000     -10.073886      -274.1244
   3   2.0000      -9.929855      -270.2051
   4   2.0000      -9.915601      -269.8172
   5   2.0000      -9.900208      -269.3984
   6   2.0000      -9.887804      -269.0608
   7   2.0000      -9.883387      -268.9406
   8   2.0000      -9.871833      -268.6262
   9   2.0000      -9.824846      -267.3477
  10   2.0000      -1.215305       -33.0701
  11   2.0000      -0.950204       -25.8564
  12   2.0000      -0.749390       -20.3919
  13   2.0000      -0.717525       -19.5248
  14   2.0000      -0.671549       -18.2738
  15   2.0000      -0.635275       -17.2867
  16   2.0000      -0.599634       -16.3169
  17   2.0000      -0.572670       -15.5831
  18   2.0000      -0.537855       -14.6358
  19   2.0000      -0.504869       -13.7382
  20   2.0000      -0.498974       -13.5778
  21   2.0000      -0.485870       -13.2212
  22   2.0000      -0.455036       -12.3822
  23   2.0000      -0.430458       -11.7134
  24   2.0000      -0.408407       -11.1133
  25   2.0000      -0.398470       -10.8429
  26   2.0000      -0.393267       -10.7014
  27   2.0000      -0.384239       -10.4557
  28   2.0000      -0.367924       -10.0117
  29   2.0000      -0.348775        -9.4907
  30   2.0000      -0.343905        -9.3581
  31   2.0000      -0.333239        -9.0679
  32   2.0000      -0.326067        -8.8727
  33   2.0000      -0.309460        -8.4208
  34   2.0000      -0.293893        -7.9972
  35   2.0000      -0.287497        -7.8232
  36   2.0000      -0.278189        -7.5699
  37   2.0000      -0.264586        -7.1997
  38   2.0000      -0.259565        -7.0631
  39   2.0000      -0.223884        -6.0922
  40   0.0000      -0.082201        -2.2368
  41   0.0000      -0.006413        -0.1745
  42   0.0000       0.018250         0.4966
  43   0.0000       0.020341         0.5535
  44   0.0000       0.023258         0.6329

MULLIKEN ATOMIC CHARGES
-----------------------
   0 C :    0.179786
   1 H :   -0.100212
   2 C :    1.280748
   3 C :    0.142528
   4 H :   -0.172485
   5 C :    0.198307
   6 C :    0.344840
   7 H :   -0.075603
   8 H :    0.069866
   9 C :    0.050966
  10 H :   -0.238565
  11 H :    0.082445
  12 C :    0.268127
  13 C :    0.440704
  14 H :    0.007970
  15 H :   -0.032318
  16 H :   -0.287562
  17 H :   -0.229751
  18 H :   -0.296043
  19 O :   -0.529637
  20 F :   -0.434046
  21 H :   -0.129710
  22 H :   -0.269515
  23 H :    0.006345
  24 H :   -0.277185
Sum of atomic charges:   -0.0000000

LOEWDIN ATOMIC CHARGES
----------------------
   0 C :   -0.051447
   1 H :    0.019836
   2 C :    0.129798
   3 C :   -0.025010
   4 H :    0.025705
   5 C :   -0.014049
   6 C :   -0.024495
   7 H :    0.026122
   8 H :    0.024144
   9 C :   -0.024153
  10 H :    0.024192
  11 H :    0.014078
  12 C :    0.067504
  13 C :   -0.002382
  14 H :    0.038884
  15 H :    0.041198
  16 H :   -0.074611
  17 H :   -0.099781
  18 H :   -0.012230
  19 O :   -0.112541
  20 F :   -0.021711
  21 H :    0.027846
  22 H :    0.000136
  23 H :    0.003721
  24 H :    0.019247

  Mayer bond orders larger than 0.100000
B(  0-C ,  1-H ) :   0.7614 B(  0-C ,  2-C ) :   1.1248 B(  0-C ,  3-C ) :   1.1856
B(  0-C ,  4-H ) :   0.7955 B(  0-C , 16-H ) :   0.2672 B(  0-C , 17-H ) :   0.2032
B(  0-C , 18-H ) :   0.1992 B(  0-C , 23-H ) :   0.1662 B(  0-C , 24-H ) :   0.1133
B(  1-H ,  3-C ) :   0.1859 B(  1-H ,  4-H ) :  -0.1330 B(  2-C ,  3-C ) :   0.1561
B(  2-C ,  4-H ) :   0.1586 B(  2-C , 16-H ) :   0.4387 B(  2-C , 17-H ) :   0.3715
B(  2-C , 18-H ) :   0.6128 B(  2-C , 23-H ) :  -0.1659 B(  2-C , 24-H ) :   0.1305
B(  3-C ,  4-H ) :   0.1042 B(  3-C ,  5-C ) :   1.1533 B(  3-C , 21-H ) :   0.2449
B(  3-C , 22-H ) :   0.1298 B(  3-C , 23-H ) :   0.7893 B(  3-C , 24-H ) :   0.9058
B(  5-C ,  6-C ) :   1.2438 B(  5-C ,  7-H ) :   0.1881 B(  5-C ,  8-H ) :   0.2159
B(  5-C ,  9-C ) :   0.1170 B(  5-C , 21-H ) :   0.7345 B(  5-C , 22-H ) :   0.8519
B(  5-C , 23-H ) :   0.1240 B(  5-C , 24-H ) :   0.2040 B(  6-C ,  7-H ) :   0.7990
B(  6-C ,  8-H ) :   0.6327 B(  6-C ,  9-C ) :   1.2601 B(  6-C , 10-H ) :   0.1648
B(  6-C , 11-H ) :   0.1016 B(  6-C , 21-H ) :   0.1267 B(  6-C , 22-H ) :   0.1144
B(  7-H ,  9-C ) :   0.1570 B(  8-H ,  9-C ) :   0.1614 B(  9-C , 10-H ) :   0.9102
B(  9-C , 11-H ) :   0.7733 B(  9-C , 12-C ) :   1.2123 B(  9-C , 14-H ) :   0.1745
B( 10-H , 11-H ) :  -0.1259 B( 10-H , 12-C ) :   0.1155 B( 12-C , 13-C ) :   1.2181
B( 12-C , 14-H ) :   0.6911 B( 12-C , 15-H ) :   0.8561 B( 13-C , 14-H ) :   0.1780
B( 13-C , 15-H ) :   0.2141 B( 13-C , 16-H ) :   0.1214 B( 13-C , 17-H ) :   0.1046
B( 13-C , 19-O ) :   1.7399 B( 13-C , 20-F ) :   0.6604 B( 16-H , 17-H ) :   0.3829
B( 16-H , 20-F ) :   0.1862 B( 16-H , 23-H ) :   0.2518 B( 16-H , 24-H ) :  -0.1982
B( 17-H , 19-O ) :   0.2020 B( 18-H , 23-H ) :  -0.1504 B( 19-O , 20-F ) :   0.1017
B( 23-H , 24-H ) :  -0.1161

Dispersion correction           -0.026099238
FINAL SINGLE POINT ENERGY      -487.988035133498

DIPOLE MOMENT
-------------
                                X             Y             Z
Electronic contribution:      3.59949      -0.36232      -9.80034
Nuclear contribution   :     -3.57245       1.60200       9.69133
                        -----------------------------------------
Total Dipole Moment    :      0.02704       1.23968      -0.10901
                        -----------------------------------------
Magnitude (a.u.)       :      1.24475
Magnitude (Debye)      :      3.16391

Rotational constants in cm-1:     0.051520     0.042563     0.028962
Rotational constants in MHz :  1544.537298  1275.996546   868.258224

                             ****ORCA TERMINATED NORMALLY****
TOTAL RUN TIME: 0 days 0 hours 0 minutes 29 seconds 324 msec
