                         Program Version 5.0.0 -  RELEASE  -
|  1> !CAM-B3LYP RIJCOSX def2-TZVP def2/J TightSCF
|  2> *xyz -1 1
|  3> C          0.84888        2.66797       -4.30235
|  4> C          2.09343        1.86104       -4.65684
|  5> H          2.44481        2.04157       -5.67499
|  6> H          2.90175        2.13786       -3.98034
|  7> S          1.87964        0.07859       -4.46297
|  8> O          3.20757       -0.46611       -4.42026
|  9> O          1.07506       -0.05616       -3.26876
| 10> O          1.13166       -0.31996       -5.67903
| 11> H          0.05064        2.40112       -4.96303
| 12> H          1.06043        3.71210       -4.40203
| 13> H          0.56237        2.45684       -3.29327
| 14> *
| 15>
| 16> %MaxCore 64000
| 17>
| 18> %pal nprocs 4
| 19> end
| 20>
| 21> %scf
| 22>   MaxIter 150
| 23> end
| 24>
| 25>
| 26>                          ****END OF INPUT****

CARTESIAN COORDINATES (ANGSTROEM)
---------------------------------
  C      0.848880    2.667970   -4.302350
  C      2.093430    1.861040   -4.656840
  H      2.444810    2.041570   -5.674990
  H      2.901750    2.137860   -3.980340
  S      1.879640    0.078590   -4.462970
  O      3.207570   -0.466110   -4.420260
  O      1.075060   -0.056160   -3.268760
  O      1.131660   -0.319960   -5.679030
  H      0.050640    2.401120   -4.963030
  H      1.060430    3.712100   -4.402030
  H      0.562370    2.456840   -3.293270

 Total Charge           Charge          ....   -1
 Multiplicity           Mult            ....    1
 Number of Electrons    NEL             ....   58
 Basis Dimension        Dim             ....  222

ORBITAL ENERGIES
----------------

  NO   OCC          E(Eh)            E(eV)
   0   2.0000     -88.910637     -2419.3814
   1   2.0000     -18.974365      -516.3187
   2   2.0000     -18.971003      -516.2272
   3   2.0000     -18.957515      -515.8602
   4   2.0000     -10.098356      -274.7902
   5   2.0000     -10.092224      -274.6234
   6   2.0000      -7.953910      -216.4369
   7   2.0000      -5.918589      -161.0530
   8   2.0000      -5.917336      -161.0189
   9   2.0000      -5.917067      -161.0116
  10   2.0000      -1.004756       -27.3408
  11   2.0000      -0.873824       -23.7780
  12   2.0000      -0.847588       -23.0640
  13   2.0000      -0.709748       -19.3132
  14   2.0000      -0.578302       -15.7364
  15   2.0000      -0.450077       -12.2472
  16   2.0000      -0.384678       -10.4676
  17   2.0000      -0.382690       -10.4135
  18   2.0000      -0.339907        -9.2493
  19   2.0000      -0.326755        -8.8914
  20   2.0000      -0.318585        -8.6691
  21   2.0000      -0.291323        -7.9273
  22   2.0000      -0.275511        -7.4970
  23   2.0000      -0.216635        -5.8949
  24   2.0000      -0.216373        -5.8878
  25   2.0000      -0.180387        -4.9086
  26   2.0000      -0.169722        -4.6184
  27   2.0000      -0.159211        -4.3324
  28   2.0000      -0.126182        -3.4336
  29   0.0000       0.211875         5.7654
  30   0.0000       0.254396         6.9225
  31   0.0000       0.271257         7.3813
  32   0.0000       0.277063         7.5393
  33   0.0000       0.306455         8.3391

MULLIKEN ATOMIC CHARGES
-----------------------
   0 C :   -0.329633
   1 C :   -0.232845
   2 H :    0.078789
   3 H :    0.071501
   4 S :    0.830035
   5 O :   -0.544335
   6 O :   -0.559313
   7 O :   -0.600081
   8 H :    0.105051
   9 H :    0.062617
  10 H :    0.118216
Sum of atomic charges:   -1.0000000

LOEWDIN ATOMIC CHARGES
----------------------
   0 C :   -0.345512
   1 C :   -0.427802
   2 H :    0.115383
   3 H :    0.114316
   4 S :    0.418120
   5 O :   -0.376776
   6 O :   -0.384491
   7 O :   -0.438859
   8 H :    0.113361
   9 H :    0.097452
  10 H :    0.114809

  Mayer bond orders larger than 0.100000
B(  0-C ,  1-C ) :   0.9399 B(  0-C ,  8-H ) :   0.9785 B(  0-C ,  9-H ) :   0.9680
B(  0-C , 10-H ) :   0.9760 B(  1-C ,  2-H ) :   0.9676 B(  1-C ,  3-H ) :   0.9600
B(  1-C ,  4-S ) :   0.8857 B(  4-S ,  5-O ) :   1.8391 B(  4-S ,  6-O ) :   1.7664
B(  4-S ,  7-O ) :   1.7567

FINAL SINGLE POINT ENERGY      -703.201570376337

DIPOLE MOMENT
-------------
                                X             Y             Z
Electronic contribution:      1.62275      -7.71914       0.05742
Nuclear contribution   :     -1.55288       9.51857       0.00420
                        -----------------------------------------
Total Dipole Moment    :      0.06987       1.79943       0.06162
                        -----------------------------------------
Magnitude (a.u.)       :      1.80184
Magnitude (Debye)      :      4.57992

Rotational constants in cm-1:     0.163401     0.083833     0.082462
Rotational constants in MHz :  4898.624208  2513.264548  2472.149188

                             ****ORCA TERMINATED NORMALLY****
TOTAL RUN TIME: 0 days 0 hours 0 minutes 36 seconds 85 msec
