                         Program Version 5.0.0 -  RELEASE  -
|  1> !CAM-B3LYP RIJCOSX def2-TZVP def2/J TightSCF
|  2> *xyz 1 1
|  3> C         -0.46129        2.23469       -4.98962
|  4> C          0.84888        2.66797       -4.30235
|  5> C         -0.42384        2.39877       -6.47432
|  6> N         -0.95947        3.49265       -7.00740
|  7> N          0.14558        1.48689       -7.20399
|  8> H          0.56537        0.69681       -6.72386
|  9> H          0.22068        1.58177       -8.20752
| 10> H         -1.40624        4.18151       -6.40326
| 11> H         -0.93421        3.68160       -7.99947
| 12> H         -1.28888        2.82674       -4.59500
| 13> H         -0.65170        1.18634       -4.75655
| 14> H          1.66208        2.08894       -4.68750
| 15> H          0.76716        2.51042       -3.24717
| 16> H          1.02677        3.70527       -4.49537
| 17> *
| 18>
| 19> %MaxCore 64000
| 20>
| 21> %pal nprocs 4
| 22> end
| 23>
| 24> %scf
| 25>   MaxIter 150
| 26> end
| 27>
| 28>
| 29>                          ****END OF INPUT****

CARTESIAN COORDINATES (ANGSTROEM)
---------------------------------
  C     -0.461290    2.234690   -4.989620
  C      0.848880    2.667970   -4.302350
  C     -0.423840    2.398770   -6.474320
  N     -0.959470    3.492650   -7.007400
  N      0.145580    1.486890   -7.203990
  H      0.565370    0.696810   -6.723860
  H      0.220680    1.581770   -8.207520
  H     -1.406240    4.181510   -6.403260
  H     -0.934210    3.681600   -7.999470
  H     -1.288880    2.826740   -4.595000
  H     -0.651700    1.186340   -4.756550
  H      1.662080    2.088940   -4.687500
  H      0.767160    2.510420   -3.247170
  H      1.026770    3.705270   -4.495370

 Total Charge           Charge          ....    1
 Multiplicity           Mult            ....    1
 Number of Electrons    NEL             ....   40
 Basis Dimension        Dim             ....  209

ORBITAL ENERGIES
----------------

  NO   OCC          E(Eh)            E(eV)
   0   2.0000     -14.637123      -398.2964
   1   2.0000     -14.632979      -398.1836
   2   2.0000     -10.569878      -287.6210
   3   2.0000     -10.442393      -284.1520
   4   2.0000     -10.397774      -282.9378
   5   2.0000      -1.289458       -35.0879
   6   2.0000      -1.192003       -32.4360
   7   2.0000      -1.052062       -28.6281
   8   2.0000      -0.939537       -25.5661
   9   2.0000      -0.892360       -24.2824
  10   2.0000      -0.850642       -23.1471
  11   2.0000      -0.824652       -22.4399
  12   2.0000      -0.770757       -20.9734
  13   2.0000      -0.721163       -19.6238
  14   2.0000      -0.693972       -18.8839
  15   2.0000      -0.684156       -18.6168
  16   2.0000      -0.611302       -16.6344
  17   2.0000      -0.601634       -16.3713
  18   2.0000      -0.595419       -16.2022
  19   2.0000      -0.557113       -15.1598
  20   0.0000      -0.158377        -4.3097
  21   0.0000      -0.122917        -3.3448
  22   0.0000      -0.077007        -2.0955
  23   0.0000      -0.074962        -2.0398
  24   0.0000      -0.044310        -1.2057

MULLIKEN ATOMIC CHARGES
-----------------------
   0 C :   -0.288127
   1 C :   -0.333346
   2 C :    0.337889
   3 N :   -0.348069
   4 N :   -0.307543
   5 H :    0.299143
   6 H :    0.281733
   7 H :    0.298574
   8 H :    0.279472
   9 H :    0.153246
  10 H :    0.172555
  11 H :    0.136007
  12 H :    0.174542
  13 H :    0.143924
Sum of atomic charges:    1.0000000

LOEWDIN ATOMIC CHARGES
----------------------
   0 C :   -0.220554
   1 C :   -0.259528
   2 C :   -0.285913
   3 N :    0.099974
   4 N :    0.124903
   5 H :    0.215043
   6 H :    0.202244
   7 H :    0.210846
   8 H :    0.195852
   9 H :    0.160866
  10 H :    0.164421
  11 H :    0.124880
  12 H :    0.138749
  13 H :    0.128215

  Mayer bond orders larger than 0.100000
B(  0-C ,  1-C ) :   0.9317 B(  0-C ,  2-C ) :   0.9577 B(  0-C ,  9-H ) :   0.9698
B(  0-C , 10-H ) :   0.9598 B(  1-C , 11-H ) :   0.9683 B(  1-C , 12-H ) :   0.9693
B(  1-C , 13-H ) :   0.9633 B(  2-C ,  3-N ) :   1.4340 B(  2-C ,  4-N ) :   1.4709
B(  3-N ,  7-H ) :   0.8886 B(  3-N ,  8-H ) :   0.8957 B(  4-N ,  5-H ) :   0.8877
B(  4-N ,  6-H ) :   0.8932

FINAL SINGLE POINT ENERGY      -228.998121789251

DIPOLE MOMENT
-------------
                                X             Y             Z
Electronic contribution:     -1.56026      -0.27018      -3.88380
Nuclear contribution   :      1.33202       0.27544       2.83701
                        -----------------------------------------
Total Dipole Moment    :     -0.22824       0.00526      -1.04679
                        -----------------------------------------
Magnitude (a.u.)       :      1.07140
Magnitude (Debye)      :      2.72327

Rotational constants in cm-1:     0.258570     0.126296     0.098869
Rotational constants in MHz :  7751.748523  3786.267300  2964.011691

                             ****ORCA TERMINATED NORMALLY****
TOTAL RUN TIME: 0 days 0 hours 0 minutes 37 seconds 641 msec
