                         Program Version 5.0.0 -  RELEASE  -
|  1> !CAM-B3LYP RIJCOSX def2-TZVP def2/J TightSCF xyzfile
|  2>
|  3> *xyzfile 0 1 B.xyz
|  4>
|  5> %MaxCore 64000
|  6>
|  7> %pal nprocs 18
|  8> end
|  9>
| 10> %scf
| 11>   MaxIter 150
| 12> end
| 13>
| 14>
| 15>                          ****END OF INPUT****

CARTESIAN COORDINATES (ANGSTROEM)
---------------------------------
  C     -0.461293    2.234686   -4.989619
  C      0.848883    2.667967   -4.302351
  C      2.093434    1.861037   -4.656845
  H      2.444814    2.041567   -5.674990
  H      2.901748    2.137864   -3.980338
  S      1.879644    0.078594   -4.462965
  C     -0.423841    2.398772   -6.474317
  N     -0.959467    3.492647   -7.007401
  N      0.145585    1.486891   -7.203987
  H      0.565371    0.696807   -6.723858
  H      0.220682    1.581768   -8.207520
  H     -1.406243    4.181507   -6.403261
  H     -0.934215    3.681601   -7.999468
  O      3.207574   -0.466111   -4.420259
  O      1.075064   -0.056160   -3.268758
  O      1.131661   -0.319960   -5.679031
  H      0.668432    2.559427   -3.232850
  H      1.034074    3.729426   -4.497081
  H     -1.288884    2.826737   -4.594997
  H     -0.651696    1.186343   -4.756552

 Total Charge           Charge          ....    0
 Multiplicity           Mult            ....    1
 Number of Electrons    NEL             ....   88
 Basis Dimension        Dim             ....  376

ORBITAL ENERGIES
----------------

  NO   OCC          E(Eh)            E(eV)
   0   2.0000     -89.066433     -2423.6209
   1   2.0000     -19.134011      -520.6629
   2   2.0000     -19.119912      -520.2793
   3   2.0000     -19.117784      -520.2214
   4   2.0000     -14.498532      -394.5251
   5   2.0000     -14.466195      -393.6452
   6   2.0000     -10.421799      -283.5916
   7   2.0000     -10.294734      -280.1340
   8   2.0000     -10.273737      -279.5626
   9   2.0000     -10.249770      -278.9104
  10   2.0000      -8.109815      -220.6793
  11   2.0000      -6.074742      -165.3021
  12   2.0000      -6.073658      -165.2726
  13   2.0000      -6.072261      -165.2346
  14   2.0000      -1.160910       -31.5900
  15   2.0000      -1.142231       -31.0817
  16   2.0000      -1.047130       -28.4938
  17   2.0000      -1.019600       -27.7447
  18   2.0000      -1.018073       -27.7032
  19   2.0000      -0.918131       -24.9836
  20   2.0000      -0.837267       -22.7832
  21   2.0000      -0.770772       -20.9738
  22   2.0000      -0.726233       -19.7618
  23   2.0000      -0.705048       -19.1853
  24   2.0000      -0.679067       -18.4784
  25   2.0000      -0.634577       -17.2677
  26   2.0000      -0.593559       -16.1516
  27   2.0000      -0.586377       -15.9561
  28   2.0000      -0.554962       -15.1013
  29   2.0000      -0.542291       -14.7565
  30   2.0000      -0.515898       -14.0383
  31   2.0000      -0.504942       -13.7402
  32   2.0000      -0.482420       -13.1273
  33   2.0000      -0.474111       -12.9012
  34   2.0000      -0.457697       -12.4546
  35   2.0000      -0.440798       -11.9947
  36   2.0000      -0.425030       -11.5657
  37   2.0000      -0.410814       -11.1788
  38   2.0000      -0.373117       -10.1530
  39   2.0000      -0.367453        -9.9989
  40   2.0000      -0.335563        -9.1311
  41   2.0000      -0.325158        -8.8480
  42   2.0000      -0.315846        -8.5946
  43   2.0000      -0.284432        -7.7398
  44   0.0000      -0.013520        -0.3679
  45   0.0000      -0.000831        -0.0226
  46   0.0000       0.038977         1.0606
  47   0.0000       0.064266         1.7488
  48   0.0000       0.087618         2.3842

MULLIKEN ATOMIC CHARGES
-----------------------
   0 C :   -0.303615
   1 C :   -0.178041
   2 C :   -0.335425
   3 H :    0.117082
   4 H :    0.141441
   5 S :    0.877572
   6 C :    0.287984
   7 N :   -0.378243
   8 N :   -0.303730
   9 H :    0.318876
  10 H :    0.233921
  11 H :    0.273429
  12 H :    0.252918
  13 O :   -0.494142
  14 O :   -0.512140
  15 O :   -0.594427
  16 H :    0.148845
  17 H :    0.104588
  18 H :    0.124081
  19 H :    0.219024
Sum of atomic charges:    0.0000000

LOEWDIN ATOMIC CHARGES
----------------------
   0 C :   -0.209457
   1 C :   -0.273126
   2 C :   -0.390457
   3 H :    0.123185
   4 H :    0.140123
   5 S :    0.449253
   6 C :   -0.296348
   7 N :    0.058151
   8 N :    0.127733
   9 H :    0.152991
  10 H :    0.181301
  11 H :    0.196521
  12 H :    0.181562
  13 O :   -0.324854
  14 O :   -0.343590
  15 O :   -0.384262
  16 H :    0.156257
  17 H :    0.133622
  18 H :    0.147925
  19 H :    0.173471

  Mayer bond orders larger than 0.100000
B(  0-C ,  1-C ) :   0.9096 B(  0-C ,  6-C ) :   0.9561 B(  0-C , 18-H ) :   0.9740
B(  0-C , 19-H ) :   0.9420 B(  1-C ,  2-C ) :   0.9509 B(  1-C , 16-H ) :   0.9580
B(  1-C , 17-H ) :   0.9597 B(  2-C ,  3-H ) :   0.9574 B(  2-C ,  4-H ) :   0.9645
B(  2-C ,  5-S ) :   0.9060 B(  5-S , 13-O ) :   1.9203 B(  5-S , 14-O ) :   1.7785
B(  5-S , 15-O ) :   1.4793 B(  6-C ,  7-N ) :   1.3410 B(  6-C ,  8-N ) :   1.5855
B(  7-N , 11-H ) :   0.9005 B(  7-N , 12-H ) :   0.9073 B(  8-N ,  9-H ) :   0.7382
B(  8-N , 10-H ) :   0.9113 B(  9-H , 15-O ) :   0.2153

FINAL SINGLE POINT ENERGY      -891.844079100692

DIPOLE MOMENT
-------------
                                X             Y             Z
Electronic contribution:      3.09168      -7.62570       1.06935
Nuclear contribution   :     -5.91573      12.15027      -4.18945
                        -----------------------------------------
Total Dipole Moment    :     -2.82404       4.52457      -3.12010
                        -----------------------------------------
Magnitude (a.u.)       :      6.17916
Magnitude (Debye)      :     15.70617

Rotational constants in cm-1:     0.082044     0.024757     0.022371
Rotational constants in MHz :  2459.631375   742.181961   670.660570

                             ****ORCA TERMINATED NORMALLY****
TOTAL RUN TIME: 0 days 0 hours 0 minutes 32 seconds 107 msec
