                         Program Version 5.0.0 -  RELEASE  -
|  1> !CAM-B3LYP RIJCOSX def2-TZVP def2/J TightSCF
|  2> *xyz 0 1
|  3> C          0.84888        2.66797       -4.30235
|  4> C          2.09343        1.86104       -4.65684
|  5> H          2.44481        2.04157       -5.67499
|  6> H          2.90175        2.13786       -3.98034
|  7> S          1.87964        0.07859       -4.46297
|  8> F          3.20757       -0.46611       -4.42026
|  9> O          1.07506       -0.05616       -3.26876
| 10> O          1.13166       -0.31996       -5.67903
| 11> H          0.05064        2.40112       -4.96303
| 12> H          1.06043        3.71210       -4.40203
| 13> H          0.56237        2.45684       -3.29327
| 14> *
| 15>
| 16> %MaxCore 64000
| 17>
| 18> %pal nprocs 4
| 19> end
| 20>
| 21> %scf
| 22>   MaxIter 150
| 23> end
| 24>
| 25>
| 26>                          ****END OF INPUT****

CARTESIAN COORDINATES (ANGSTROEM)
---------------------------------
  C      0.848880    2.667970   -4.302350
  C      2.093430    1.861040   -4.656840
  H      2.444810    2.041570   -5.674990
  H      2.901750    2.137860   -3.980340
  S      1.879640    0.078590   -4.462970
  F      3.207570   -0.466110   -4.420260
  O      1.075060   -0.056160   -3.268760
  O      1.131660   -0.319960   -5.679030
  H      0.050640    2.401120   -4.963030
  H      1.060430    3.712100   -4.402030
  H      0.562370    2.456840   -3.293270

 Total Charge           Charge          ....    0
 Multiplicity           Mult            ....    1
 Number of Electrons    NEL             ....   58
 Basis Dimension        Dim             ....  222

ORBITAL ENERGIES
----------------

  NO   OCC          E(Eh)            E(eV)
   0   2.0000     -89.178684     -2426.6754
   1   2.0000     -24.884193      -677.1333
   2   2.0000     -19.211359      -522.7677
   3   2.0000     -19.198583      -522.4200
   4   2.0000     -10.303724      -280.3786
   5   2.0000     -10.257940      -279.1327
   6   2.0000      -8.222566      -223.7474
   7   2.0000      -6.190314      -168.4470
   8   2.0000      -6.183937      -168.2735
   9   2.0000      -6.183611      -168.2646
  10   2.0000      -1.475982       -40.1635
  11   2.0000      -1.188224       -32.3332
  12   2.0000      -1.086337       -29.5607
  13   2.0000      -0.902779       -24.5659
  14   2.0000      -0.818678       -22.2773
  15   2.0000      -0.753444       -20.5022
  16   2.0000      -0.669676       -18.2228
  17   2.0000      -0.668050       -18.1786
  18   2.0000      -0.629768       -17.1368
  19   2.0000      -0.564579       -15.3630
  20   2.0000      -0.555030       -15.1031
  21   2.0000      -0.512635       -13.9495
  22   2.0000      -0.497448       -13.5362
  23   2.0000      -0.474087       -12.9006
  24   2.0000      -0.455349       -12.3907
  25   2.0000      -0.451461       -12.2849
  26   2.0000      -0.401690       -10.9305
  27   2.0000      -0.386461       -10.5161
  28   2.0000      -0.373349       -10.1594
  29   0.0000       0.060337         1.6419
  30   0.0000       0.079174         2.1544
  31   0.0000       0.103291         2.8107
  32   0.0000       0.107948         2.9374
  33   0.0000       0.120113         3.2684

MULLIKEN ATOMIC CHARGES
-----------------------
   0 C :   -0.351627
   1 C :   -0.246777
   2 H :    0.148136
   3 H :    0.129188
   4 S :    0.865703
   5 F :   -0.097093
   6 O :   -0.415158
   7 O :   -0.452013
   8 H :    0.144564
   9 H :    0.127654
  10 H :    0.147423
Sum of atomic charges:   -0.0000000

LOEWDIN ATOMIC CHARGES
----------------------
   0 C :   -0.305498
   1 C :   -0.394924
   2 H :    0.137755
   3 H :    0.132685
   4 S :    0.538874
   5 F :    0.103577
   6 O :   -0.270637
   7 O :   -0.319649
   8 H :    0.127242
   9 H :    0.123925
  10 H :    0.126650

  Mayer bond orders larger than 0.100000
B(  0-C ,  1-C ) :   0.9527 B(  0-C ,  8-H ) :   0.9714 B(  0-C ,  9-H ) :   0.9625
B(  0-C , 10-H ) :   0.9686 B(  1-C ,  2-H ) :   0.9440 B(  1-C ,  3-H ) :   0.9411
B(  1-C ,  4-S ) :   0.9204 B(  4-S ,  5-F ) :   1.1505 B(  4-S ,  6-O ) :   1.9137
B(  4-S ,  7-O ) :   1.8921

FINAL SINGLE POINT ENERGY      -727.719099961183

DIPOLE MOMENT
-------------
                                X             Y             Z
Electronic contribution:      4.19677      -9.32909       0.10473
Nuclear contribution   :     -3.08754      10.54185      -0.04092
                        -----------------------------------------
Total Dipole Moment    :      1.10923       1.21277       0.06381
                        -----------------------------------------
Magnitude (a.u.)       :      1.64477
Magnitude (Debye)      :      4.18068

Rotational constants in cm-1:     0.158925     0.081210     0.079022
Rotational constants in MHz :  4764.450166  2434.603461  2369.014434

                             ****ORCA TERMINATED NORMALLY****
TOTAL RUN TIME: 0 days 0 hours 0 minutes 41 seconds 398 msec
