                         Program Version 5.0.0 -  RELEASE  -
|  1> !CAM-B3LYP RIJCOSX def2-TZVP def2/J TightSCF
|  2> *xyz 0 1
|  3> C         -0.46129        2.23469       -4.98962
|  4> C          0.84888        2.66797       -4.30235
|  5> C         -0.42384        2.39877       -6.47432
|  6> C         -0.95947        3.49265       -7.00740
|  7> N          0.14558        1.48689       -7.20399
|  8> H          0.56537        0.69681       -6.72386
|  9> H          0.22068        1.58177       -8.20752
| 10> H         -1.40624        4.18151       -6.40326
| 11> H         -0.93421        3.68160       -7.99947
| 12> H         -1.28888        2.82674       -4.59500
| 13> H         -0.65170        1.18634       -4.75655
| 14> H          1.66208        2.08894       -4.68750
| 15> H          0.76716        2.51042       -3.24717
| 16> H          1.02677        3.70527       -4.49537
| 17> *
| 18>
| 19> %MaxCore 64000
| 20>
| 21> %pal nprocs 4
| 22> end
| 23>
| 24> %scf
| 25>   MaxIter 150
| 26> end
| 27>
| 28>
| 29>                          ****END OF INPUT****

CARTESIAN COORDINATES (ANGSTROEM)
---------------------------------
  C     -0.461290    2.234690   -4.989620
  C      0.848880    2.667970   -4.302350
  C     -0.423840    2.398770   -6.474320
  C     -0.959470    3.492650   -7.007400
  N      0.145580    1.486890   -7.203990
  H      0.565370    0.696810   -6.723860
  H      0.220680    1.581770   -8.207520
  H     -1.406240    4.181510   -6.403260
  H     -0.934210    3.681600   -7.999470
  H     -1.288880    2.826740   -4.595000
  H     -0.651700    1.186340   -4.756550
  H      1.662080    2.088940   -4.687500
  H      0.767160    2.510420   -3.247170
  H      1.026770    3.705270   -4.495370

 Total Charge           Charge          ....    0
 Multiplicity           Mult            ....    1
 Number of Electrons    NEL             ....   40
 Basis Dimension        Dim             ....  209

ORBITAL ENERGIES
----------------

  NO   OCC          E(Eh)            E(eV)
   0   2.0000     -14.389490      -391.5579
   1   2.0000     -10.263285      -279.2782
   2   2.0000     -10.242120      -278.7023
   3   2.0000     -10.227367      -278.3008
   4   2.0000     -10.171372      -276.7771
   5   2.0000      -1.018732       -27.7211
   6   2.0000      -0.860880       -23.4257
   7   2.0000      -0.793693       -21.5975
   8   2.0000      -0.714057       -19.4305
   9   2.0000      -0.643562       -17.5122
  10   2.0000      -0.601244       -16.3607
  11   2.0000      -0.551525       -15.0077
  12   2.0000      -0.507406       -13.8072
  13   2.0000      -0.489100       -13.3091
  14   2.0000      -0.459578       -12.5058
  15   2.0000      -0.449054       -12.2194
  16   2.0000      -0.418310       -11.3828
  17   2.0000      -0.399995       -10.8844
  18   2.0000      -0.397287       -10.8107
  19   2.0000      -0.244548        -6.6545
  20   0.0000       0.060697         1.6517
  21   0.0000       0.091072         2.4782
  22   0.0000       0.107141         2.9155
  23   0.0000       0.115254         3.1362
  24   0.0000       0.125074         3.4034

MULLIKEN ATOMIC CHARGES
-----------------------
   0 C :   -0.243514
   1 C :   -0.320151
   2 C :    0.238902
   3 C :   -0.438248
   4 N :   -0.423314
   5 H :    0.224857
   6 H :    0.228090
   7 H :    0.093038
   8 H :    0.090098
   9 H :    0.115825
  10 H :    0.095801
  11 H :    0.100695
  12 H :    0.114494
  13 H :    0.123426
Sum of atomic charges:   -0.0000000

LOEWDIN ATOMIC CHARGES
----------------------
   0 C :   -0.237368
   1 C :   -0.292190
   2 C :   -0.371662
   3 C :   -0.284378
   4 N :    0.010641
   5 H :    0.173734
   6 H :    0.175143
   7 H :    0.105294
   8 H :    0.093996
   9 H :    0.147487
  10 H :    0.133676
  11 H :    0.112391
  12 H :    0.114127
  13 H :    0.119110

  Mayer bond orders larger than 0.100000
B(  0-C ,  1-C ) :   0.9347 B(  0-C ,  2-C ) :   0.9365 B(  0-C ,  9-H ) :   0.9928
B(  0-C , 10-H ) :   0.9828 B(  1-C , 11-H ) :   0.9764 B(  1-C , 12-H ) :   0.9806
B(  1-C , 13-H ) :   0.9789 B(  2-C ,  3-C ) :   1.7279 B(  2-C ,  4-N ) :   1.1774
B(  3-C ,  7-H ) :   1.0000 B(  3-C ,  8-H ) :   0.9959 B(  4-N ,  5-H ) :   0.9283
B(  4-N ,  6-H ) :   0.9232

FINAL SINGLE POINT ENERGY      -212.524489029156

DIPOLE MOMENT
-------------
                                X             Y             Z
Electronic contribution:     -0.70748      -1.19542      -2.58588
Nuclear contribution   :      1.14741       0.51394       2.60761
                        -----------------------------------------
Total Dipole Moment    :      0.43994      -0.68147       0.02172
                        -----------------------------------------
Magnitude (a.u.)       :      0.81143
Magnitude (Debye)      :      2.06250

Rotational constants in cm-1:     0.269157     0.129188     0.102123
Rotational constants in MHz :  8069.118715  3872.945231  3061.580645

                             ****ORCA TERMINATED NORMALLY****
TOTAL RUN TIME: 0 days 0 hours 0 minutes 39 seconds 533 msec
