                         Program Version 5.0.0 -  RELEASE  -
|  1> !CAM-B3LYP RIJCOSX def2-TZVP def2/J TightSCF
|  2> *xyz 0 1
|  3> C          0.84888        2.66797       -4.30235
|  4> C          2.09343        1.86104       -4.65684
|  5> H          2.44481        2.04157       -5.67499
|  6> H          2.90175        2.13786       -3.98034
|  7> S          1.87964        0.07859       -4.46297
|  8> O          3.20757       -0.46611       -4.42026
|  9> F          1.07506       -0.05616       -3.26876
| 10> O          1.13166       -0.31996       -5.67903
| 11> H          0.05064        2.40112       -4.96303
| 12> H          1.06043        3.71210       -4.40203
| 13> H          0.56237        2.45684       -3.29327
| 14> *
| 15>
| 16> %MaxCore 64000
| 17>
| 18> %pal nprocs 4
| 19> end
| 20>
| 21> %scf
| 22>   MaxIter 150
| 23> end
| 24>
| 25>
| 26>                          ****END OF INPUT****

CARTESIAN COORDINATES (ANGSTROEM)
---------------------------------
  C      0.848880    2.667970   -4.302350
  C      2.093430    1.861040   -4.656840
  H      2.444810    2.041570   -5.674990
  H      2.901750    2.137860   -3.980340
  S      1.879640    0.078590   -4.462970
  O      3.207570   -0.466110   -4.420260
  F      1.075060   -0.056160   -3.268760
  O      1.131660   -0.319960   -5.679030
  H      0.050640    2.401120   -4.963030
  H      1.060430    3.712100   -4.402030
  H      0.562370    2.456840   -3.293270

 Total Charge           Charge          ....    0
 Multiplicity           Mult            ....    1
 Number of Electrons    NEL             ....   58
 Basis Dimension        Dim             ....  222

ORBITAL ENERGIES
----------------

  NO   OCC          E(Eh)            E(eV)
   0   2.0000     -89.178073     -2426.6587
   1   2.0000     -24.878450      -676.9771
   2   2.0000     -19.215178      -522.8716
   3   2.0000     -19.198653      -522.4219
   4   2.0000     -10.303687      -280.3776
   5   2.0000     -10.265128      -279.3283
   6   2.0000      -8.221944      -223.7305
   7   2.0000      -6.189908      -168.4360
   8   2.0000      -6.183220      -168.2540
   9   2.0000      -6.182928      -168.2460
  10   2.0000      -1.467240       -39.9256
  11   2.0000      -1.192370       -32.4460
  12   2.0000      -1.089465       -29.6458
  13   2.0000      -0.908278       -24.7155
  14   2.0000      -0.811912       -22.0933
  15   2.0000      -0.756564       -20.5871
  16   2.0000      -0.675877       -18.3915
  17   2.0000      -0.662734       -18.0339
  18   2.0000      -0.620574       -16.8867
  19   2.0000      -0.566852       -15.4248
  20   2.0000      -0.548146       -14.9158
  21   2.0000      -0.521618       -14.1939
  22   2.0000      -0.508056       -13.8249
  23   2.0000      -0.480655       -13.0793
  24   2.0000      -0.464461       -12.6386
  25   2.0000      -0.452281       -12.3072
  26   2.0000      -0.402656       -10.9568
  27   2.0000      -0.387265       -10.5380
  28   2.0000      -0.376472       -10.2443
  29   0.0000       0.050069         1.3624
  30   0.0000       0.089000         2.4218
  31   0.0000       0.103115         2.8059
  32   0.0000       0.106267         2.8917
  33   0.0000       0.119763         3.2589

MULLIKEN ATOMIC CHARGES
-----------------------
   0 C :   -0.362473
   1 C :   -0.248689
   2 H :    0.162484
   3 H :    0.143346
   4 S :    0.865176
   5 O :   -0.398965
   6 F :   -0.109768
   7 O :   -0.454757
   8 H :    0.147487
   9 H :    0.131741
  10 H :    0.124416
Sum of atomic charges:   -0.0000000

LOEWDIN ATOMIC CHARGES
----------------------
   0 C :   -0.319788
   1 C :   -0.387245
   2 H :    0.147793
   3 H :    0.137420
   4 S :    0.541148
   5 O :   -0.261227
   6 F :    0.094092
   7 O :   -0.320571
   8 H :    0.125466
   9 H :    0.125041
  10 H :    0.117871

  Mayer bond orders larger than 0.100000
B(  0-C ,  1-C ) :   0.9381 B(  0-C ,  8-H ) :   0.9697 B(  0-C ,  9-H ) :   0.9663
B(  0-C , 10-H ) :   0.9719 B(  1-C ,  2-H ) :   0.9474 B(  1-C ,  3-H ) :   0.9464
B(  1-C ,  4-S ) :   0.9145 B(  4-S ,  5-O ) :   1.9643 B(  4-S ,  6-F ) :   1.1248
B(  4-S ,  7-O ) :   1.8882

FINAL SINGLE POINT ENERGY      -727.723698750255

DIPOLE MOMENT
-------------
                                X             Y             Z
Electronic contribution:      0.56401      -8.59928       2.04953
Nuclear contribution   :     -0.86540      10.11467      -1.24082
                        -----------------------------------------
Total Dipole Moment    :     -0.30139       1.51539       0.80871
                        -----------------------------------------
Magnitude (a.u.)       :      1.74392
Magnitude (Debye)      :      4.43270

Rotational constants in cm-1:     0.154065     0.083345     0.080357
Rotational constants in MHz :  4618.752213  2498.631937  2409.037217

                             ****ORCA TERMINATED NORMALLY****
TOTAL RUN TIME: 0 days 0 hours 0 minutes 38 seconds 969 msec
