                         Program Version 5.0.0 -  RELEASE  -
|  1> !CAM-B3LYP RIJCOSX def2-TZVP def2/J TightSCF
|  2> *xyz 0 1
|  3> C         -0.46129        2.23469       -4.98962
|  4> C          0.84888        2.66797       -4.30235
|  5> C         -0.42384        2.39877       -6.47432
|  6> N         -0.95947        3.49265       -7.00740
|  7> C          0.14558        1.48689       -7.20399
|  8> H          0.56537        0.69681       -6.72386
|  9> H          0.22068        1.58177       -8.20752
| 10> H         -1.40624        4.18151       -6.40326
| 11> H         -0.93421        3.68160       -7.99947
| 12> H         -1.28888        2.82674       -4.59500
| 13> H         -0.65170        1.18634       -4.75655
| 14> H          1.66208        2.08894       -4.68750
| 15> H          0.76716        2.51042       -3.24717
| 16> H          1.02677        3.70527       -4.49537
| 17> *
| 18>
| 19> %MaxCore 64000
| 20>
| 21> %pal nprocs 4
| 22> end
| 23>
| 24> %scf
| 25>   MaxIter 150
| 26> end
| 27>
| 28>
| 29>                          ****END OF INPUT****

CARTESIAN COORDINATES (ANGSTROEM)
---------------------------------
  C     -0.461290    2.234690   -4.989620
  C      0.848880    2.667970   -4.302350
  C     -0.423840    2.398770   -6.474320
  N     -0.959470    3.492650   -7.007400
  C      0.145580    1.486890   -7.203990
  H      0.565370    0.696810   -6.723860
  H      0.220680    1.581770   -8.207520
  H     -1.406240    4.181510   -6.403260
  H     -0.934210    3.681600   -7.999470
  H     -1.288880    2.826740   -4.595000
  H     -0.651700    1.186340   -4.756550
  H      1.662080    2.088940   -4.687500
  H      0.767160    2.510420   -3.247170
  H      1.026770    3.705270   -4.495370

 Total Charge           Charge          ....    0
 Multiplicity           Mult            ....    1
 Number of Electrons    NEL             ....   40
 Basis Dimension        Dim             ....  209

ORBITAL ENERGIES
----------------

  NO   OCC          E(Eh)            E(eV)
   0   2.0000     -14.385832      -391.4584
   1   2.0000     -10.260825      -279.2112
   2   2.0000     -10.241766      -278.6926
   3   2.0000     -10.225875      -278.2602
   4   2.0000     -10.170107      -276.7427
   5   2.0000      -1.005987       -27.3743
   6   2.0000      -0.862339       -23.4654
   7   2.0000      -0.797566       -21.7029
   8   2.0000      -0.715025       -19.4568
   9   2.0000      -0.637617       -17.3504
  10   2.0000      -0.590920       -16.0798
  11   2.0000      -0.553831       -15.0705
  12   2.0000      -0.508957       -13.8494
  13   2.0000      -0.484079       -13.1725
  14   2.0000      -0.460319       -12.5259
  15   2.0000      -0.449570       -12.2334
  16   2.0000      -0.415653       -11.3105
  17   2.0000      -0.402684       -10.9576
  18   2.0000      -0.393482       -10.7072
  19   2.0000      -0.249022        -6.7762
  20   0.0000       0.062906         1.7118
  21   0.0000       0.090431         2.4608
  22   0.0000       0.108705         2.9580
  23   0.0000       0.113162         3.0793
  24   0.0000       0.127948         3.4816

MULLIKEN ATOMIC CHARGES
-----------------------
   0 C :   -0.238018
   1 C :   -0.322353
   2 C :    0.268391
   3 N :   -0.461580
   4 C :   -0.429047
   5 H :    0.096677
   6 H :    0.090797
   7 H :    0.223395
   8 H :    0.224811
   9 H :    0.084698
  10 H :    0.121390
  11 H :    0.120979
  12 H :    0.112050
  13 H :    0.107810
Sum of atomic charges:   -0.0000000

LOEWDIN ATOMIC CHARGES
----------------------
   0 C :   -0.235868
   1 C :   -0.290285
   2 C :   -0.362947
   3 N :   -0.012837
   4 C :   -0.270673
   5 H :    0.110263
   6 H :    0.099037
   7 H :    0.168783
   8 H :    0.168461
   9 H :    0.132472
  10 H :    0.146922
  11 H :    0.118316
  12 H :    0.113198
  13 H :    0.115157

  Mayer bond orders larger than 0.100000
B(  0-C ,  1-C ) :   0.9406 B(  0-C ,  2-C ) :   0.9190 B(  0-C ,  9-H ) :   0.9878
B(  0-C , 10-H ) :   0.9932 B(  1-C , 11-H ) :   0.9784 B(  1-C , 12-H ) :   0.9806
B(  1-C , 13-H ) :   0.9777 B(  2-C ,  3-N ) :   1.1367 B(  2-C ,  4-C ) :   1.7553
B(  3-N ,  7-H ) :   0.9290 B(  3-N ,  8-H ) :   0.9255 B(  4-C ,  5-H ) :   1.0008
B(  4-C ,  6-H ) :   0.9964

FINAL SINGLE POINT ENERGY      -212.524826374182

DIPOLE MOMENT
-------------
                                X             Y             Z
Electronic contribution:     -1.71308       0.60250      -2.40721
Nuclear contribution   :      1.40335       0.04939       2.56207
                        -----------------------------------------
Total Dipole Moment    :     -0.30972       0.65189       0.15487
                        -----------------------------------------
Magnitude (a.u.)       :      0.73815
Magnitude (Debye)      :      1.87624

Rotational constants in cm-1:     0.271383     0.128194     0.101873
Rotational constants in MHz :  8135.853259  3843.152748  3054.074278

                             ****ORCA TERMINATED NORMALLY****
TOTAL RUN TIME: 0 days 0 hours 0 minutes 40 seconds 83 msec
