                         Program Version 5.0.0 -  RELEASE  -
|  1> !CAM-B3LYP RIJCOSX def2-TZVP def2/J TightSCF
|  2> *xyz 0 1
|  3> C          0.84888        2.66797       -4.30235
|  4> C          2.09343        1.86104       -4.65684
|  5> H          2.44481        2.04157       -5.67499
|  6> H          2.90175        2.13786       -3.98034
|  7> S          1.87964        0.07859       -4.46297
|  8> O          3.20757       -0.46611       -4.42026
|  9> O          1.07506       -0.05616       -3.26876
| 10> F          1.13166       -0.31996       -5.67903
| 11> H          0.05064        2.40112       -4.96303
| 12> H          1.06043        3.71210       -4.40203
| 13> H          0.56237        2.45684       -3.29327
| 14> *
| 15>
| 16> %MaxCore 64000
| 17>
| 18> %pal nprocs 4
| 19> end
| 20>
| 21> %scf
| 22>   MaxIter 150
| 23> end
| 24>
| 25>
| 26>                          ****END OF INPUT****

CARTESIAN COORDINATES (ANGSTROEM)
---------------------------------
  C      0.848880    2.667970   -4.302350
  C      2.093430    1.861040   -4.656840
  H      2.444810    2.041570   -5.674990
  H      2.901750    2.137860   -3.980340
  S      1.879640    0.078590   -4.462970
  O      3.207570   -0.466110   -4.420260
  O      1.075060   -0.056160   -3.268760
  F      1.131660   -0.319960   -5.679030
  H      0.050640    2.401120   -4.963030
  H      1.060430    3.712100   -4.402030
  H      0.562370    2.456840   -3.293270

 Total Charge           Charge          ....    0
 Multiplicity           Mult            ....    1
 Number of Electrons    NEL             ....   58
 Basis Dimension        Dim             ....  222

ORBITAL ENERGIES
----------------

  NO   OCC          E(Eh)            E(eV)
   0   2.0000     -89.176430     -2426.6140
   1   2.0000     -24.859894      -676.4721
   2   2.0000     -19.214931      -522.8649
   3   2.0000     -19.211412      -522.7691
   4   2.0000     -10.302936      -280.3572
   5   2.0000     -10.259356      -279.1713
   6   2.0000      -8.220313      -223.6861
   7   2.0000      -6.188260      -168.3911
   8   2.0000      -6.181817      -168.2158
   9   2.0000      -6.181207      -168.1992
  10   2.0000      -1.436985       -39.1023
  11   2.0000      -1.201150       -32.6850
  12   2.0000      -1.108796       -30.1719
  13   2.0000      -0.904236       -24.6055
  14   2.0000      -0.800993       -21.7961
  15   2.0000      -0.747948       -20.3527
  16   2.0000      -0.655383       -17.8339
  17   2.0000      -0.641164       -17.4469
  18   2.0000      -0.622588       -16.9415
  19   2.0000      -0.566375       -15.4118
  20   2.0000      -0.550909       -14.9910
  21   2.0000      -0.528105       -14.3705
  22   2.0000      -0.501294       -13.6409
  23   2.0000      -0.473891       -12.8952
  24   2.0000      -0.470012       -12.7897
  25   2.0000      -0.449808       -12.2399
  26   2.0000      -0.409733       -11.1494
  27   2.0000      -0.398195       -10.8354
  28   2.0000      -0.390341       -10.6217
  29   0.0000       0.054732         1.4893
  30   0.0000       0.088769         2.4155
  31   0.0000       0.099540         2.7086
  32   0.0000       0.109084         2.9683
  33   0.0000       0.123310         3.3554

MULLIKEN ATOMIC CHARGES
-----------------------
   0 C :   -0.346035
   1 C :   -0.263124
   2 H :    0.142177
   3 H :    0.156577
   4 S :    0.870595
   5 O :   -0.407108
   6 O :   -0.423498
   7 F :   -0.134631
   8 H :    0.123168
   9 H :    0.127592
  10 H :    0.154288
Sum of atomic charges:    0.0000000

LOEWDIN ATOMIC CHARGES
----------------------
   0 C :   -0.316585
   1 C :   -0.390929
   2 H :    0.134686
   3 H :    0.147549
   4 S :    0.546831
   5 O :   -0.264748
   6 O :   -0.273383
   7 F :    0.046497
   8 H :    0.119922
   9 H :    0.123146
  10 H :    0.127013

  Mayer bond orders larger than 0.100000
B(  0-C ,  1-C ) :   0.9401 B(  0-C ,  8-H ) :   0.9733 B(  0-C ,  9-H ) :   0.9645
B(  0-C , 10-H ) :   0.9674 B(  1-C ,  2-H ) :   0.9508 B(  1-C ,  3-H ) :   0.9465
B(  1-C ,  4-S ) :   0.9146 B(  4-S ,  5-O ) :   1.9611 B(  4-S ,  6-O ) :   1.9096
B(  4-S ,  7-F ) :   1.0994

FINAL SINGLE POINT ENERGY      -727.739297687114

DIPOLE MOMENT
-------------
                                X             Y             Z
Electronic contribution:      0.64736      -9.08055      -2.06524
Nuclear contribution   :     -0.92438      10.38956       1.27076
                        -----------------------------------------
Total Dipole Moment    :     -0.27702       1.30901      -0.79447
                        -----------------------------------------
Magnitude (a.u.)       :      1.55610
Magnitude (Debye)      :      3.95528

Rotational constants in cm-1:     0.154243     0.082247     0.080562
Rotational constants in MHz :  4624.087322  2465.703680  2415.175852

                             ****ORCA TERMINATED NORMALLY****
TOTAL RUN TIME: 0 days 0 hours 0 minutes 39 seconds 378 msec
