                         Program Version 5.0.0 -  RELEASE  -
|  1> !CAM-B3LYP RIJCOSX def2-TZVP def2/J TightSCF xyzfile
|  2>
|  3> *xyzfile 0 1 D1.xyz
|  4>
|  5> %MaxCore 64000
|  6>
|  7> %pal nprocs 18
|  8> end
|  9>
| 10> %scf
| 11>   MaxIter 150
| 12> end
| 13>
| 14>
| 15>                          ****END OF INPUT****

CARTESIAN COORDINATES (ANGSTROEM)
---------------------------------
  C     -0.461293    2.234686   -4.989619
  C      0.848883    2.667967   -4.302351
  C      2.093434    1.861037   -4.656845
  H      2.444814    2.041567   -5.674990
  H      2.901748    2.137864   -3.980338
  S      1.879644    0.078594   -4.462965
  C     -0.423841    2.398772   -6.474317
  C     -0.959467    3.492647   -7.007401
  N      0.145585    1.486891   -7.203987
  H      0.565371    0.696807   -6.723858
  H      0.220682    1.581768   -8.207520
  H     -1.406243    4.181507   -6.403261
  H     -0.934215    3.681601   -7.999468
  F      3.207574   -0.466111   -4.420259
  O      1.075064   -0.056160   -3.268758
  O      1.131661   -0.319960   -5.679031
  H      0.668432    2.559427   -3.232850
  H      1.034074    3.729426   -4.497081
  H     -1.288884    2.826737   -4.594997
  H     -0.651696    1.186343   -4.756552

 Total Charge           Charge          ....    0
 Multiplicity           Mult            ....    1
 Number of Electrons    NEL             ....   88
 Basis Dimension        Dim             ....  376

ORBITAL ENERGIES
----------------

  NO   OCC          E(Eh)            E(eV)
   0   2.0000     -89.198911     -2427.2258
   1   2.0000     -24.900191      -677.5686
   2   2.0000     -19.228952      -523.2464
   3   2.0000     -19.225101      -523.1416
   4   2.0000     -14.360250      -390.7623
   5   2.0000     -10.310428      -280.5610
   6   2.0000     -10.271327      -279.4970
   7   2.0000     -10.256263      -279.0871
   8   2.0000     -10.243894      -278.7505
   9   2.0000     -10.164262      -276.5836
  10   2.0000      -8.242937      -224.3017
  11   2.0000      -6.210543      -168.9975
  12   2.0000      -6.204408      -168.8305
  13   2.0000      -6.204001      -168.8195
  14   2.0000      -1.491969       -40.5985
  15   2.0000      -1.211047       -32.9543
  16   2.0000      -1.114625       -30.3305
  17   2.0000      -1.002768       -27.2867
  18   2.0000      -0.918782       -25.0013
  19   2.0000      -0.851913       -23.1817
  20   2.0000      -0.818763       -22.2797
  21   2.0000      -0.773848       -21.0575
  22   2.0000      -0.724569       -19.7165
  23   2.0000      -0.688168       -18.7260
  24   2.0000      -0.676509       -18.4087
  25   2.0000      -0.654225       -17.8024
  26   2.0000      -0.631539       -17.1851
  27   2.0000      -0.598408       -16.2835
  28   2.0000      -0.574999       -15.6465
  29   2.0000      -0.562673       -15.3111
  30   2.0000      -0.544850       -14.8261
  31   2.0000      -0.526421       -14.3247
  32   2.0000      -0.516531       -14.0555
  33   2.0000      -0.484065       -13.1721
  34   2.0000      -0.466711       -12.6998
  35   2.0000      -0.460563       -12.5326
  36   2.0000      -0.448543       -12.2055
  37   2.0000      -0.430735       -11.7209
  38   2.0000      -0.418710       -11.3937
  39   2.0000      -0.411563       -11.1992
  40   2.0000      -0.398656       -10.8480
  41   2.0000      -0.392924       -10.6920
  42   2.0000      -0.384369       -10.4592
  43   2.0000      -0.234361        -6.3773
  44   0.0000       0.050856         1.3839
  45   0.0000       0.067078         1.8253
  46   0.0000       0.087375         2.3776
  47   0.0000       0.093382         2.5410
  48   0.0000       0.098027         2.6675

MULLIKEN ATOMIC CHARGES
-----------------------
   0 C :   -0.323534
   1 C :   -0.171349
   2 C :   -0.323894
   3 H :    0.171762
   4 H :    0.151726
   5 S :    0.891023
   6 C :    0.222676
   7 C :   -0.448839
   8 N :   -0.438242
   9 H :    0.266674
  10 H :    0.211009
  11 H :    0.086264
  12 H :    0.088815
  13 F :   -0.092917
  14 O :   -0.395513
  15 O :   -0.461203
  16 H :    0.131218
  17 H :    0.133300
  18 H :    0.129027
  19 H :    0.171998
Sum of atomic charges:   -0.0000000

LOEWDIN ATOMIC CHARGES
----------------------
   0 C :   -0.214106
   1 C :   -0.264542
   2 C :   -0.366722
   3 H :    0.143861
   4 H :    0.138933
   5 S :    0.562906
   6 C :   -0.374017
   7 C :   -0.296710
   8 N :    0.010021
   9 H :    0.137530
  10 H :    0.168084
  11 H :    0.102232
  12 H :    0.093317
  13 F :    0.110468
  14 O :   -0.253952
  15 O :   -0.291784
  16 H :    0.146052
  17 H :    0.149855
  18 H :    0.152906
  19 H :    0.145666

  Mayer bond orders larger than 0.100000
B(  0-C ,  1-C ) :   0.9219 B(  0-C ,  6-C ) :   0.8984 B(  0-C , 18-H ) :   0.9863
B(  0-C , 19-H ) :   0.9981 B(  1-C ,  2-C ) :   0.9574 B(  1-C , 16-H ) :   0.9693
B(  1-C , 17-H ) :   0.9511 B(  2-C ,  3-H ) :   0.9309 B(  2-C ,  4-H ) :   0.9449
B(  2-C ,  5-S ) :   0.9385 B(  5-S , 13-F ) :   1.1653 B(  5-S , 14-O ) :   1.9275
B(  5-S , 15-O ) :   1.7505 B(  6-C ,  7-C ) :   1.7083 B(  6-C ,  8-N ) :   1.2169
B(  7-C , 11-H ) :   0.9985 B(  7-C , 12-H ) :   0.9975 B(  8-N ,  9-H ) :   0.8510
B(  8-N , 10-H ) :   0.9298 B(  9-H , 15-O ) :   0.1076

FINAL SINGLE POINT ENERGY      -899.738113721164

DIPOLE MOMENT
-------------
                                X             Y             Z
Electronic contribution:     10.20567     -13.94354       5.47133
Nuclear contribution   :     -8.53047      14.15581      -5.17613
                        -----------------------------------------
Total Dipole Moment    :      1.67521       0.21227       0.29520
                        -----------------------------------------
Magnitude (a.u.)       :      1.71421
Magnitude (Debye)      :      4.35718

Rotational constants in cm-1:     0.081196     0.024861     0.022477
Rotational constants in MHz :  2434.181666   745.320670   673.846846

                             ****ORCA TERMINATED NORMALLY****
TOTAL RUN TIME: 0 days 0 hours 0 minutes 34 seconds 861 msec
