                         Program Version 5.0.0 -  RELEASE  -
|  1> !CAM-B3LYP RIJCOSX def2-TZVP def2/J TightSCF xyzfile
|  2>
|  3> *xyzfile 0 1 D3.xyz
|  4>
|  5> %MaxCore 64000
|  6>
|  7> %pal nprocs 18
|  8> end
|  9>
| 10> %scf
| 11>   MaxIter 150
| 12> end
| 13>
| 14>
| 15>                          ****END OF INPUT****

CARTESIAN COORDINATES (ANGSTROEM)
---------------------------------
  C     -0.461293    2.234686   -4.989619
  C      0.848883    2.667967   -4.302351
  C      2.093434    1.861037   -4.656845
  H      2.444814    2.041567   -5.674990
  H      2.901748    2.137864   -3.980338
  S      1.879644    0.078594   -4.462965
  C     -0.423841    2.398772   -6.474317
  C     -0.959467    3.492647   -7.007401
  N      0.145585    1.486891   -7.203987
  H      0.565371    0.696807   -6.723858
  H      0.220682    1.581768   -8.207520
  H     -1.406243    4.181507   -6.403261
  H     -0.934215    3.681601   -7.999468
  O      3.207574   -0.466111   -4.420259
  F      1.075064   -0.056160   -3.268758
  O      1.131661   -0.319960   -5.679031
  H      0.668432    2.559427   -3.232850
  H      1.034074    3.729426   -4.497081
  H     -1.288884    2.826737   -4.594997
  H     -0.651696    1.186343   -4.756552

 Total Charge           Charge          ....    0
 Multiplicity           Mult            ....    1
 Number of Electrons    NEL             ....   88
 Basis Dimension        Dim             ....  376

ORBITAL ENERGIES
----------------

  NO   OCC          E(Eh)            E(eV)
   0   2.0000     -89.197993     -2427.2008
   1   2.0000     -24.894177      -677.4050
   2   2.0000     -19.231970      -523.3285
   3   2.0000     -19.223971      -523.1108
   4   2.0000     -14.363143      -390.8410
   5   2.0000     -10.310023      -280.5500
   6   2.0000     -10.277321      -279.6601
   7   2.0000     -10.262113      -279.2463
   8   2.0000     -10.255006      -279.0529
   9   2.0000     -10.169329      -276.7215
  10   2.0000      -8.241985      -224.2758
  11   2.0000      -6.209874      -168.9793
  12   2.0000      -6.203524      -168.8065
  13   2.0000      -6.202750      -168.7854
  14   2.0000      -1.483041       -40.3556
  15   2.0000      -1.213565       -33.0228
  16   2.0000      -1.117778       -30.4163
  17   2.0000      -1.006753       -27.3951
  18   2.0000      -0.925086       -25.1729
  19   2.0000      -0.851057       -23.1584
  20   2.0000      -0.817880       -22.2556
  21   2.0000      -0.778796       -21.1921
  22   2.0000      -0.725877       -19.7521
  23   2.0000      -0.686047       -18.6683
  24   2.0000      -0.682606       -18.5746
  25   2.0000      -0.649359       -17.6699
  26   2.0000      -0.637066       -17.3354
  27   2.0000      -0.592809       -16.1312
  28   2.0000      -0.574076       -15.6214
  29   2.0000      -0.566256       -15.4086
  30   2.0000      -0.546479       -14.8704
  31   2.0000      -0.530347       -14.4315
  32   2.0000      -0.523083       -14.2338
  33   2.0000      -0.491914       -13.3857
  34   2.0000      -0.474372       -12.9083
  35   2.0000      -0.467400       -12.7186
  36   2.0000      -0.451421       -12.2838
  37   2.0000      -0.446590       -12.1523
  38   2.0000      -0.415767       -11.3136
  39   2.0000      -0.412264       -11.2183
  40   2.0000      -0.406462       -11.0604
  41   2.0000      -0.395526       -10.7628
  42   2.0000      -0.387607       -10.5473
  43   2.0000      -0.238600        -6.4926
  44   0.0000       0.044425         1.2089
  45   0.0000       0.073671         2.0047
  46   0.0000       0.083566         2.2740
  47   0.0000       0.088858         2.4180
  48   0.0000       0.095839         2.6079

MULLIKEN ATOMIC CHARGES
-----------------------
   0 C :   -0.319059
   1 C :   -0.205944
   2 C :   -0.313807
   3 H :    0.183302
   4 H :    0.162403
   5 S :    0.897063
   6 C :    0.232307
   7 C :   -0.447387
   8 N :   -0.437596
   9 H :    0.272417
  10 H :    0.213223
  11 H :    0.086517
  12 H :    0.092134
  13 O :   -0.393425
  14 F :   -0.097937
  15 O :   -0.463284
  16 H :    0.125739
  17 H :    0.135332
  18 H :    0.132989
  19 H :    0.145012
Sum of atomic charges:    0.0000000

LOEWDIN ATOMIC CHARGES
----------------------
   0 C :   -0.219523
   1 C :   -0.277015
   2 C :   -0.357928
   3 H :    0.153297
   4 H :    0.143489
   5 S :    0.566491
   6 C :   -0.374121
   7 C :   -0.293586
   8 N :    0.012398
   9 H :    0.138204
  10 H :    0.169310
  11 H :    0.102374
  12 H :    0.094539
  13 O :   -0.249241
  14 F :    0.104438
  15 O :   -0.291829
  16 H :    0.138454
  17 H :    0.149969
  18 H :    0.153342
  19 H :    0.136936

  Mayer bond orders larger than 0.100000
B(  0-C ,  1-C ) :   0.9018 B(  0-C ,  6-C ) :   0.8863 B(  0-C , 18-H ) :   0.9862
B(  0-C , 19-H ) :   1.0122 B(  1-C ,  2-C ) :   0.9454 B(  1-C , 16-H ) :   0.9801
B(  1-C , 17-H ) :   0.9522 B(  2-C ,  3-H ) :   0.9325 B(  2-C ,  4-H ) :   0.9527
B(  2-C ,  5-S ) :   0.9337 B(  5-S , 13-O ) :   1.9918 B(  5-S , 14-F ) :   1.1372
B(  5-S , 15-O ) :   1.7375 B(  6-C ,  7-C ) :   1.7115 B(  6-C ,  8-N ) :   1.2246
B(  7-C , 11-H ) :   0.9969 B(  7-C , 12-H ) :   0.9998 B(  8-N ,  9-H ) :   0.8502
B(  8-N , 10-H ) :   0.9288 B(  9-H , 15-O ) :   0.1039

FINAL SINGLE POINT ENERGY      -899.742533369831

DIPOLE MOMENT
-------------
                                X             Y             Z
Electronic contribution:      6.48231     -13.16380       7.39850
Nuclear contribution   :     -6.19944      13.70770      -6.43483
                        -----------------------------------------
Total Dipole Moment    :      0.28288       0.54390       0.96367
                        -----------------------------------------
Magnitude (a.u.)       :      1.14215
Magnitude (Debye)      :      2.90311

Rotational constants in cm-1:     0.079903     0.025241     0.022805
Rotational constants in MHz :  2395.439281   756.708181   683.680583

                             ****ORCA TERMINATED NORMALLY****
TOTAL RUN TIME: 0 days 0 hours 0 minutes 44 seconds 108 msec
