                         Program Version 5.0.0 -  RELEASE  -
|  1> !PBE0 D3BJ RIJCOSX def2-SVPD def2/J TightSCF
|  2> *xyz -1 1
|  3> C          1.36401        0.46874       -2.81376
|  4> C          0.96805        1.63064       -3.71575
|  5> C         -0.50835        1.72268       -4.12430
|  6> S         -1.32861        0.14674       -4.43578
|  7> H         -0.59151        2.29496       -5.04722
|  8> H         -1.11411        2.23561       -3.37436
|  9> O         -2.57135        0.47573       -5.06834
| 10> O         -1.51496       -0.40051       -3.06342
| 11> H          1.57869        1.52065       -4.61273
| 12> H          1.26665        2.57599       -3.25045
| 13> O         -0.37793       -0.62756       -5.20114
| 14> H          1.07115       -0.45339       -3.27071
| 15> H          0.87480        0.56905       -1.86745
| 16> H          2.42423        0.47442       -2.66954
| 17> *
| 18> %MaxCore 64000
| 19>
| 20> %pal nprocs 4
| 21> end
| 22>
| 23> %scf
| 24>   MaxIter 150
| 25> end
| 26>
| 27>
| 28>                          ****END OF INPUT****

CARTESIAN COORDINATES (ANGSTROEM)
---------------------------------
  C      1.364010    0.468740   -2.813760
  C      0.968050    1.630640   -3.715750
  C     -0.508350    1.722680   -4.124300
  S     -1.328610    0.146740   -4.435780
  H     -0.591510    2.294960   -5.047220
  H     -1.114110    2.235610   -3.374360
  O     -2.571350    0.475730   -5.068340
  O     -1.514960   -0.400510   -3.063420
  H      1.578690    1.520650   -4.612730
  H      1.266650    2.575990   -3.250450
  O     -0.377930   -0.627560   -5.201140
  H      1.071150   -0.453390   -3.270710
  H      0.874800    0.569050   -1.867450
  H      2.424230    0.474420   -2.669540

 Total Charge           Charge          ....   -1
 Multiplicity           Mult            ....    1
 Number of Electrons    NEL             ....   66
 Basis Dimension        Dim             ....  212

ORBITAL ENERGIES
----------------

  NO   OCC          E(Eh)            E(eV)
   0   2.0000     -89.040287     -2422.9094
   1   2.0000     -19.004655      -517.1430
   2   2.0000     -19.002564      -517.0860
   3   2.0000     -18.986013      -516.6357
   4   2.0000     -10.101648      -274.8798
   5   2.0000     -10.094180      -274.6766
   6   2.0000     -10.073454      -274.1126
   7   2.0000      -7.999648      -217.6815
   8   2.0000      -5.941968      -161.6892
   9   2.0000      -5.941706      -161.6820
  10   2.0000      -5.941337      -161.6720
  11   2.0000      -0.964218       -26.2377
  12   2.0000      -0.828004       -22.5311
  13   2.0000      -0.796482       -21.6734
  14   2.0000      -0.669356       -18.2141
  15   2.0000      -0.578119       -15.7314
  16   2.0000      -0.480924       -13.0866
  17   2.0000      -0.395623       -10.7655
  18   2.0000      -0.346566        -9.4305
  19   2.0000      -0.331630        -9.0241
  20   2.0000      -0.312340        -8.4992
  21   2.0000      -0.296734        -8.0745
  22   2.0000      -0.279662        -7.6100
  23   2.0000      -0.261856        -7.1255
  24   2.0000      -0.233987        -6.3671
  25   2.0000      -0.227655        -6.1948
  26   2.0000      -0.206544        -5.6203
  27   2.0000      -0.171596        -4.6694
  28   2.0000      -0.167538        -4.5590
  29   2.0000      -0.137260        -3.7350
  30   2.0000      -0.124692        -3.3930
  31   2.0000      -0.111548        -3.0354
  32   2.0000      -0.083226        -2.2647
  33   0.0000       0.144260         3.9255
  34   0.0000       0.169238         4.6052
  35   0.0000       0.175953         4.7879
  36   0.0000       0.179740         4.8910
  37   0.0000       0.201134         5.4731

MULLIKEN ATOMIC CHARGES
-----------------------
   0 C :    0.551629
   1 C :   -0.417464
   2 C :   -0.004479
   3 S :    1.387153
   4 H :    0.009869
   5 H :    0.089969
   6 O :   -0.865257
   7 O :   -0.853858
   8 H :    0.086574
   9 H :   -0.096855
  10 O :   -0.828550
  11 H :    0.016884
  12 H :    0.012494
  13 H :   -0.088108
Sum of atomic charges:   -1.0000000

LOEWDIN ATOMIC CHARGES
----------------------
   0 C :    0.103199
   1 C :   -0.096651
   2 C :   -0.090735
   3 S :    0.867738
   4 H :   -0.001249
   5 H :    0.007129
   6 O :   -0.567883
   7 O :   -0.590832
   8 H :    0.014736
   9 H :    0.006987
  10 O :   -0.566922
  11 H :   -0.037278
  12 H :   -0.016605
  13 H :   -0.031633

  Mayer bond orders larger than 0.100000
B(  0-C ,  1-C ) :   1.3533 B(  0-C ,  9-H ) :   0.1017 B(  0-C , 11-H ) :   0.8533
B(  0-C , 12-H ) :   0.7962 B(  0-C , 13-H ) :   0.7836 B(  1-C ,  2-C ) :   1.2773
B(  1-C ,  4-H ) :   0.1346 B(  1-C ,  5-H ) :   0.1238 B(  1-C ,  8-H ) :   0.8861
B(  1-C ,  9-H ) :   0.9152 B(  1-C , 11-H ) :   0.1751 B(  1-C , 12-H ) :   0.1809
B(  1-C , 13-H ) :   0.2075 B(  2-C ,  3-S ) :   0.9081 B(  2-C ,  4-H ) :   0.9241
B(  2-C ,  5-H ) :   0.9208 B(  2-C ,  8-H ) :   0.1015 B(  2-C ,  9-H ) :   0.1061
B(  3-S ,  6-O ) :   1.3365 B(  3-S ,  7-O ) :   1.2410 B(  3-S , 10-O ) :   1.2583

Dispersion correction           -0.011695737
FINAL SINGLE POINT ENERGY      -741.558202341308

DIPOLE MOMENT
-------------
                                X             Y             Z
Electronic contribution:     -8.32136      -4.43397      -4.07429
Nuclear contribution   :      9.76868       5.90538       4.47074
                        -----------------------------------------
Total Dipole Moment    :      1.44732       1.47140       0.39645
                        -----------------------------------------
Magnitude (a.u.)       :      2.10165
Magnitude (Debye)      :      5.34198

Rotational constants in cm-1:     0.135183     0.058485     0.054837
Rotational constants in MHz :  4052.676901  1753.343161  1643.972690

                             ****ORCA TERMINATED NORMALLY****
TOTAL RUN TIME: 0 days 0 hours 0 minutes 24 seconds 502 msec
