                         Program Version 5.0.0 -  RELEASE  -
|  1> !PBE0 D3BJ RIJCOSX def2-SVPD def2/J TightSCF
|  2> *xyz 1 1
|  3> C          1.36401        0.46874       -2.81376
|  4> N          0.42884        0.32140       -1.65531
|  5> C          0.96805        1.63064       -3.71575
|  6> C         -0.50835        1.72268       -4.12430
|  7> H          0.74858       -0.40054       -1.00134
|  8> H         -0.46105        0.02333       -2.07773
|  9> H          0.31026        1.20137       -1.13495
| 10> H          1.29485       -0.46874       -3.36468
| 11> H          2.37622        0.59740       -2.43149
| 12> H          1.57869        1.52065       -4.61273
| 13> H          1.26665        2.57599       -3.25045
| 14> H         -0.65192        2.57663       -4.75283
| 15> H         -1.11549        1.81835       -3.24844
| 16> H         -0.78702        0.83723       -4.65648
| 17> *
| 18> %MaxCore 64000
| 19>
| 20> %pal nprocs 4
| 21> end
| 22>
| 23> %scf
| 24>   MaxIter 150
| 25> end
| 26>
| 27>
| 28>                          ****END OF INPUT****

CARTESIAN COORDINATES (ANGSTROEM)
---------------------------------
  C      1.364010    0.468740   -2.813760
  N      0.428840    0.321400   -1.655310
  C      0.968050    1.630640   -3.715750
  C     -0.508350    1.722680   -4.124300
  H      0.748580   -0.400540   -1.001340
  H     -0.461050    0.023330   -2.077730
  H      0.310260    1.201370   -1.134950
  H      1.294850   -0.468740   -3.364680
  H      2.376220    0.597400   -2.431490
  H      1.578690    1.520650   -4.612730
  H      1.266650    2.575990   -3.250450
  H     -0.651920    2.576630   -4.752830
  H     -1.115490    1.818350   -3.248440
  H     -0.787020    0.837230   -4.656480

 Total Charge           Charge          ....    1
 Multiplicity           Mult            ....    1
 Number of Electrons    NEL             ....   34
 Basis Dimension        Dim             ....  160

ORBITAL ENERGIES
----------------

  NO   OCC          E(Eh)            E(eV)
   0   2.0000     -14.725865      -400.7112
   1   2.0000     -10.481751      -285.2230
   2   2.0000     -10.412599      -283.3412
   3   2.0000     -10.384044      -282.5642
   4   2.0000      -1.227636       -33.4057
   5   2.0000      -0.990182       -26.9442
   6   2.0000      -0.901351       -24.5270
   7   2.0000      -0.820276       -22.3208
   8   2.0000      -0.808691       -22.0056
   9   2.0000      -0.786331       -21.3972
  10   2.0000      -0.699367       -19.0307
  11   2.0000      -0.652018       -17.7423
  12   2.0000      -0.622712       -16.9449
  13   2.0000      -0.599940       -16.3252
  14   2.0000      -0.546124       -14.8608
  15   2.0000      -0.536335       -14.5944
  16   2.0000      -0.523528       -14.2459
  17   0.0000      -0.180447        -4.9102
  18   0.0000      -0.121166        -3.2971
  19   0.0000      -0.119335        -3.2473
  20   0.0000      -0.110897        -3.0177
  21   0.0000      -0.082110        -2.2343

MULLIKEN ATOMIC CHARGES
-----------------------
   0 C :    0.500446
   1 N :   -0.699981
   2 C :   -0.465585
   3 C :    0.571776
   4 H :    0.299551
   5 H :    0.405245
   6 H :    0.384942
   7 H :    0.028623
   8 H :   -0.056543
   9 H :    0.054319
  10 H :    0.014330
  11 H :   -0.050805
  12 H :   -0.022020
  13 H :    0.035703
Sum of atomic charges:    1.0000000

LOEWDIN ATOMIC CHARGES
----------------------
   0 C :    0.088983
   1 N :    0.331190
   2 C :   -0.049437
   3 C :    0.143733
   4 H :    0.105794
   5 H :    0.090335
   6 H :    0.111166
   7 H :    0.056198
   8 H :    0.054265
   9 H :    0.046009
  10 H :    0.038321
  11 H :    0.008859
  12 H :   -0.024954
  13 H :   -0.000464

  Mayer bond orders larger than 0.100000
B(  0-C ,  1-N ) :   0.7855 B(  0-C ,  2-C ) :   1.2025 B(  0-C ,  7-H ) :   0.8612
B(  0-C ,  8-H ) :   0.9451 B(  0-C ,  9-H ) :   0.1348 B(  1-N ,  4-H ) :   0.8360
B(  1-N ,  5-H ) :   0.7475 B(  1-N ,  6-H ) :   0.7794 B(  1-N ,  7-H ) :   0.1127
B(  2-C ,  3-C ) :   1.3227 B(  2-C ,  7-H ) :   0.1013 B(  2-C ,  9-H ) :   0.9011
B(  2-C , 10-H ) :   0.9601 B(  2-C , 11-H ) :   0.1881 B(  2-C , 12-H ) :   0.1501
B(  2-C , 13-H ) :   0.1667 B(  3-C , 11-H ) :   0.8455 B(  3-C , 12-H ) :   0.8569
B(  3-C , 13-H ) :   0.8310

Dispersion correction           -0.007824803
FINAL SINGLE POINT ENERGY      -174.526449046869

DIPOLE MOMENT
-------------
                                X             Y             Z
Electronic contribution:      0.76449      -1.07884       1.95015
Nuclear contribution   :     -0.79558       0.15863      -0.24664
                        -----------------------------------------
Total Dipole Moment    :     -0.03108      -0.92021       1.70351
                        -----------------------------------------
Magnitude (a.u.)       :      1.93642
Magnitude (Debye)      :      4.92198

Rotational constants in cm-1:     0.425244     0.165801     0.135024
Rotational constants in MHz : 12748.492920  4970.589839  4047.903558

                             ****ORCA TERMINATED NORMALLY****
TOTAL RUN TIME: 0 days 0 hours 0 minutes 12 seconds 336 msec
