                         Program Version 5.0.0 -  RELEASE  -
|  1> !PBE0 D3BJ RIJCOSX def2-SVPD def2/J TightSCF
|  2> *xyz 0 1
|  3> C          1.36401        0.46874       -2.81376
|  4> C          0.96805        1.63064       -3.71575
|  5> C         -0.50835        1.72268       -4.12430
|  6> S         -1.32861        0.14674       -4.43578
|  7> H         -0.59151        2.29496       -5.04722
|  8> H         -1.11411        2.23561       -3.37436
|  9> F         -2.57135        0.47573       -5.06834
| 10> O         -1.51496       -0.40051       -3.06342
| 11> H          1.57869        1.52065       -4.61273
| 12> H          1.26665        2.57599       -3.25045
| 13> O         -0.37793       -0.62756       -5.20114
| 14> H          1.07115       -0.45339       -3.27071
| 15> H          0.87480        0.56905       -1.86745
| 16> H          2.42423        0.47442       -2.66954
| 17> *
| 18> %MaxCore 64000
| 19>
| 20> %pal nprocs 4
| 21> end
| 22>
| 23> %scf
| 24>   MaxIter 150
| 25> end
| 26>
| 27>
| 28>                          ****END OF INPUT****

CARTESIAN COORDINATES (ANGSTROEM)
---------------------------------
  C      1.364010    0.468740   -2.813760
  C      0.968050    1.630640   -3.715750
  C     -0.508350    1.722680   -4.124300
  S     -1.328610    0.146740   -4.435780
  H     -0.591510    2.294960   -5.047220
  H     -1.114110    2.235610   -3.374360
  F     -2.571350    0.475730   -5.068340
  O     -1.514960   -0.400510   -3.063420
  H      1.578690    1.520650   -4.612730
  H      1.266650    2.575990   -3.250450
  O     -0.377930   -0.627560   -5.201140
  H      1.071150   -0.453390   -3.270710
  H      0.874800    0.569050   -1.867450
  H      2.424230    0.474420   -2.669540

 Total Charge           Charge          ....    0
 Multiplicity           Mult            ....    1
 Number of Electrons    NEL             ....   66
 Basis Dimension        Dim             ....  212

ORBITAL ENERGIES
----------------

  NO   OCC          E(Eh)            E(eV)
   0   2.0000     -89.298516     -2429.9362
   1   2.0000     -24.910047      -677.8368
   2   2.0000     -19.234702      -523.4029
   3   2.0000     -19.218482      -522.9615
   4   2.0000     -10.294121      -280.1173
   5   2.0000     -10.260407      -279.1999
   6   2.0000     -10.217469      -278.0315
   7   2.0000      -8.258786      -224.7330
   8   2.0000      -6.204953      -168.8454
   9   2.0000      -6.198702      -168.6753
  10   2.0000      -6.197456      -168.6414
  11   2.0000      -1.419600       -38.6293
  12   2.0000      -1.136834       -30.9348
  13   2.0000      -1.029577       -28.0162
  14   2.0000      -0.845951       -23.0195
  15   2.0000      -0.778452       -21.1827
  16   2.0000      -0.730028       -19.8651
  17   2.0000      -0.654399       -17.8071
  18   2.0000      -0.616527       -16.7765
  19   2.0000      -0.600491       -16.3402
  20   2.0000      -0.572073       -15.5669
  21   2.0000      -0.510797       -13.8995
  22   2.0000      -0.499914       -13.6034
  23   2.0000      -0.472519       -12.8579
  24   2.0000      -0.468040       -12.7360
  25   2.0000      -0.435066       -11.8388
  26   2.0000      -0.405445       -11.0327
  27   2.0000      -0.389747       -10.6056
  28   2.0000      -0.378165       -10.2904
  29   2.0000      -0.362654        -9.8683
  30   2.0000      -0.347170        -9.4470
  31   2.0000      -0.330979        -9.0064
  32   2.0000      -0.321555        -8.7499
  33   0.0000       0.001944         0.0529
  34   0.0000       0.022216         0.6045
  35   0.0000       0.039616         1.0780
  36   0.0000       0.042954         1.1688
  37   0.0000       0.056768         1.5447

MULLIKEN ATOMIC CHARGES
-----------------------
   0 C :    0.569492
   1 C :   -0.413300
   2 C :   -0.036513
   3 S :    1.575185
   4 H :    0.063606
   5 H :    0.141020
   6 F :   -0.474603
   7 O :   -0.717826
   8 H :    0.108882
   9 H :   -0.066691
  10 O :   -0.696293
  11 H :   -0.006379
  12 H :    0.025871
  13 H :   -0.072449
Sum of atomic charges:    0.0000000

LOEWDIN ATOMIC CHARGES
----------------------
   0 C :    0.125532
   1 C :   -0.065025
   2 C :   -0.055748
   3 S :    1.132467
   4 H :    0.015858
   5 H :    0.025624
   6 F :   -0.252311
   7 O :   -0.482874
   8 H :    0.030393
   9 H :    0.033984
  10 O :   -0.461374
  11 H :   -0.031865
  12 H :   -0.005243
  13 H :   -0.009420

  Mayer bond orders larger than 0.100000
B(  0-C ,  1-C ) :   1.3673 B(  0-C , 11-H ) :   0.8572 B(  0-C , 12-H ) :   0.7956
B(  0-C , 13-H ) :   0.7869 B(  1-C ,  2-C ) :   1.3341 B(  1-C ,  4-H ) :   0.1442
B(  1-C ,  5-H ) :   0.1165 B(  1-C ,  8-H ) :   0.8788 B(  1-C ,  9-H ) :   0.9121
B(  1-C , 11-H ) :   0.1618 B(  1-C , 12-H ) :   0.1751 B(  1-C , 13-H ) :   0.1984
B(  2-C ,  3-S ) :   0.9500 B(  2-C ,  4-H ) :   0.8790 B(  2-C ,  5-H ) :   0.9030
B(  2-C ,  8-H ) :   0.1050 B(  2-C ,  9-H ) :   0.1002 B(  3-S ,  6-F ) :   0.6547
B(  3-S ,  7-O ) :   1.4416 B(  3-S , 10-O ) :   1.4550

Dispersion correction           -0.011315991
FINAL SINGLE POINT ENERGY      -766.024368069543

DIPOLE MOMENT
-------------
                                X             Y             Z
Electronic contribution:    -11.75479      -4.29956      -5.80836
Nuclear contribution   :     11.77809       5.83971       5.48704
                        -----------------------------------------
Total Dipole Moment    :      0.02330       1.54015      -0.32133
                        -----------------------------------------
Magnitude (a.u.)       :      1.57349
Magnitude (Debye)      :      3.99949

Rotational constants in cm-1:     0.133968     0.056186     0.052650
Rotational constants in MHz :  4016.256208  1684.422248  1578.415210

                             ****ORCA TERMINATED NORMALLY****
TOTAL RUN TIME: 0 days 0 hours 0 minutes 23 seconds 509 msec
