                         Program Version 5.0.0 -  RELEASE  -
|  1> !PBE0 D3BJ RIJCOSX def2-SVPD def2/J TightSCF
|  2> *xyz 0 1
|  3> C          1.36401        0.46874       -2.81376
|  4> C          0.42884        0.32140       -1.65531
|  5> C          0.96805        1.63064       -3.71575
|  6> C         -0.50835        1.72268       -4.12430
|  7> H          0.74858       -0.40054       -1.00134
|  8> H         -0.46105        0.02333       -2.07773
|  9> H          0.31026        1.20137       -1.13495
| 10> H          1.29485       -0.46874       -3.36468
| 11> H          2.37622        0.59740       -2.43149
| 12> H          1.57869        1.52065       -4.61273
| 13> H          1.26665        2.57599       -3.25045
| 14> H         -0.65192        2.57663       -4.75283
| 15> H         -1.11549        1.81835       -3.24844
| 16> H         -0.78702        0.83723       -4.65648
| 17> *
| 18> %MaxCore 64000
| 19>
| 20> %pal nprocs 4
| 21> end
| 22>
| 23> %scf
| 24>   MaxIter 150
| 25> end
| 26>
| 27>
| 28>                          ****END OF INPUT****

CARTESIAN COORDINATES (ANGSTROEM)
---------------------------------
  C      1.364010    0.468740   -2.813760
  C      0.428840    0.321400   -1.655310
  C      0.968050    1.630640   -3.715750
  C     -0.508350    1.722680   -4.124300
  H      0.748580   -0.400540   -1.001340
  H     -0.461050    0.023330   -2.077730
  H      0.310260    1.201370   -1.134950
  H      1.294850   -0.468740   -3.364680
  H      2.376220    0.597400   -2.431490
  H      1.578690    1.520650   -4.612730
  H      1.266650    2.575990   -3.250450
  H     -0.651920    2.576630   -4.752830
  H     -1.115490    1.818350   -3.248440
  H     -0.787020    0.837230   -4.656480

 Total Charge           Charge          ....    0
 Multiplicity           Mult            ....    1
 Number of Electrons    NEL             ....   34
 Basis Dimension        Dim             ....  160

ORBITAL ENERGIES
----------------

  NO   OCC          E(Eh)            E(eV)
   0   2.0000     -10.222454      -278.1671
   1   2.0000     -10.218836      -278.0687
   2   2.0000     -10.212933      -277.9080
   3   2.0000     -10.192850      -277.3615
   4   2.0000      -0.819299       -22.2943
   5   2.0000      -0.742809       -20.2129
   6   2.0000      -0.661357       -17.9964
   7   2.0000      -0.574401       -15.6302
   8   2.0000      -0.483943       -13.1688
   9   2.0000      -0.475486       -12.9386
  10   2.0000      -0.438330       -11.9276
  11   2.0000      -0.400543       -10.8993
  12   2.0000      -0.396290       -10.7836
  13   2.0000      -0.377322       -10.2674
  14   2.0000      -0.338630        -9.2146
  15   2.0000      -0.329977        -8.9791
  16   2.0000      -0.327123        -8.9015
  17   0.0000       0.031464         0.8562
  18   0.0000       0.058630         1.5954
  19   0.0000       0.061217         1.6658
  20   0.0000       0.072281         1.9669
  21   0.0000       0.102288         2.7834

MULLIKEN ATOMIC CHARGES
-----------------------
   0 C :   -0.397775
   1 C :    0.805456
   2 C :   -0.429513
   3 C :    0.493584
   4 H :   -0.283113
   5 H :   -0.017657
   6 H :   -0.110530
   7 H :    0.041341
   8 H :   -0.073299
   9 H :   -0.033310
  10 H :    0.042211
  11 H :   -0.082331
  12 H :    0.022093
  13 H :    0.022843
Sum of atomic charges:    0.0000000

LOEWDIN ATOMIC CHARGES
----------------------
   0 C :   -0.083229
   1 C :    0.114754
   2 C :   -0.085363
   3 C :    0.118614
   4 H :   -0.033293
   5 H :   -0.037175
   6 H :   -0.022628
   7 H :    0.025873
   8 H :    0.022474
   9 H :    0.013984
  10 H :    0.023169
  11 H :   -0.018209
  12 H :   -0.025925
  13 H :   -0.013045

  Mayer bond orders larger than 0.100000
B(  0-C ,  1-C ) :   1.3049 B(  0-C ,  2-C ) :   1.1881 B(  0-C ,  4-H ) :   0.2069
B(  0-C ,  5-H ) :   0.2257 B(  0-C ,  6-H ) :   0.2098 B(  0-C ,  7-H ) :   0.8786
B(  0-C ,  8-H ) :   0.9679 B(  0-C ,  9-H ) :   0.1272 B(  0-C , 10-H ) :   0.1141
B(  1-C ,  4-H ) :   0.7810 B(  1-C ,  5-H ) :   0.7777 B(  1-C ,  6-H ) :   0.7683
B(  1-C ,  7-H ) :   0.1086 B(  2-C ,  3-C ) :   1.3273 B(  2-C ,  7-H ) :   0.1193
B(  2-C ,  9-H ) :   0.9434 B(  2-C , 10-H ) :   0.9236 B(  2-C , 11-H ) :   0.1978
B(  2-C , 12-H ) :   0.1602 B(  2-C , 13-H ) :   0.1700 B(  3-C , 11-H ) :   0.8256
B(  3-C , 12-H ) :   0.8655 B(  3-C , 13-H ) :   0.8346

Dispersion correction           -0.007857031
FINAL SINGLE POINT ENERGY      -158.135780471729

DIPOLE MOMENT
-------------
                                X             Y             Z
Electronic contribution:      0.84445       0.05416      -0.18850
Nuclear contribution   :     -0.83100      -0.05970       0.18742
                        -----------------------------------------
Total Dipole Moment    :      0.01345      -0.00554      -0.00108
                        -----------------------------------------
Magnitude (a.u.)       :      0.01458
Magnitude (Debye)      :      0.03707

Rotational constants in cm-1:     0.433656     0.172838     0.140497
Rotational constants in MHz : 13000.688694  5181.547473  4211.992439

                             ****ORCA TERMINATED NORMALLY****
TOTAL RUN TIME: 0 days 0 hours 0 minutes 11 seconds 584 msec
