                         Program Version 5.0.0 -  RELEASE  -
|  1> !PBE0 D3BJ RIJCOSX def2-SVPD def2/J TightSCF
|  2> *xyz 0 1
|  3> C          1.36401        0.46874       -2.81376
|  4> C          0.96805        1.63064       -3.71575
|  5> C         -0.50835        1.72268       -4.12430
|  6> S         -1.32861        0.14674       -4.43578
|  7> H         -0.59151        2.29496       -5.04722
|  8> H         -1.11411        2.23561       -3.37436
|  9> O         -2.57135        0.47573       -5.06834
| 10> F         -1.51496       -0.40051       -3.06342
| 11> H          1.57869        1.52065       -4.61273
| 12> H          1.26665        2.57599       -3.25045
| 13> O         -0.37793       -0.62756       -5.20114
| 14> H          1.07115       -0.45339       -3.27071
| 15> H          0.87480        0.56905       -1.86745
| 16> H          2.42423        0.47442       -2.66954
| 17> *
| 18> %MaxCore 64000
| 19>
| 20> %pal nprocs 4
| 21> end
| 22>
| 23> %scf
| 24>   MaxIter 150
| 25> end
| 26>
| 27>
| 28>                          ****END OF INPUT****

CARTESIAN COORDINATES (ANGSTROEM)
---------------------------------
  C      1.364010    0.468740   -2.813760
  C      0.968050    1.630640   -3.715750
  C     -0.508350    1.722680   -4.124300
  S     -1.328610    0.146740   -4.435780
  H     -0.591510    2.294960   -5.047220
  H     -1.114110    2.235610   -3.374360
  O     -2.571350    0.475730   -5.068340
  F     -1.514960   -0.400510   -3.063420
  H      1.578690    1.520650   -4.612730
  H      1.266650    2.575990   -3.250450
  O     -0.377930   -0.627560   -5.201140
  H      1.071150   -0.453390   -3.270710
  H      0.874800    0.569050   -1.867450
  H      2.424230    0.474420   -2.669540

 Total Charge           Charge          ....    0
 Multiplicity           Mult            ....    1
 Number of Electrons    NEL             ....   66
 Basis Dimension        Dim             ....  212

ORBITAL ENERGIES
----------------

  NO   OCC          E(Eh)            E(eV)
   0   2.0000     -89.295594     -2429.8566
   1   2.0000     -24.881414      -677.0577
   2   2.0000     -19.236817      -523.4604
   3   2.0000     -19.233226      -523.3627
   4   2.0000     -10.293152      -280.0909
   5   2.0000     -10.262014      -279.2436
   6   2.0000     -10.231660      -278.4176
   7   2.0000      -8.255733      -224.6499
   8   2.0000      -6.201763      -168.7586
   9   2.0000      -6.195917      -168.5995
  10   2.0000      -6.194558      -168.5625
  11   2.0000      -1.371596       -37.3230
  12   2.0000      -1.150870       -31.3168
  13   2.0000      -1.055985       -28.7348
  14   2.0000      -0.850226       -23.1358
  15   2.0000      -0.769624       -20.9425
  16   2.0000      -0.719161       -19.5694
  17   2.0000      -0.652338       -17.7510
  18   2.0000      -0.585713       -15.9381
  19   2.0000      -0.583148       -15.8683
  20   2.0000      -0.569020       -15.4838
  21   2.0000      -0.517258       -14.0753
  22   2.0000      -0.492893       -13.4123
  23   2.0000      -0.480328       -13.0704
  24   2.0000      -0.471324       -12.8254
  25   2.0000      -0.449831       -12.2405
  26   2.0000      -0.415069       -11.2946
  27   2.0000      -0.396458       -10.7882
  28   2.0000      -0.393418       -10.7054
  29   2.0000      -0.368135       -10.0175
  30   2.0000      -0.359726        -9.7887
  31   2.0000      -0.343619        -9.3503
  32   2.0000      -0.337614        -9.1869
  33   0.0000       0.003933         0.1070
  34   0.0000       0.028341         0.7712
  35   0.0000       0.037055         1.0083
  36   0.0000       0.040545         1.1033
  37   0.0000       0.051603         1.4042

MULLIKEN ATOMIC CHARGES
-----------------------
   0 C :    0.554841
   1 C :   -0.363306
   2 C :   -0.029398
   3 S :    1.531110
   4 H :    0.055848
   5 H :    0.138276
   6 O :   -0.729605
   7 F :   -0.422052
   8 H :    0.113507
   9 H :   -0.063271
  10 O :   -0.704066
  11 H :   -0.026822
  12 H :    0.011704
  13 H :   -0.066767
Sum of atomic charges:   -0.0000000

LOEWDIN ATOMIC CHARGES
----------------------
   0 C :    0.121006
   1 C :   -0.074938
   2 C :   -0.044257
   3 S :    1.121382
   4 H :    0.031127
   5 H :    0.025015
   6 O :   -0.455849
   7 F :   -0.275200
   8 H :    0.031233
   9 H :    0.031097
  10 O :   -0.458914
  11 H :   -0.035834
  12 H :   -0.008885
  13 H :   -0.006982

  Mayer bond orders larger than 0.100000
B(  0-C ,  1-C ) :   1.3641 B(  0-C , 11-H ) :   0.8674 B(  0-C , 12-H ) :   0.7991
B(  0-C , 13-H ) :   0.7983 B(  1-C ,  2-C ) :   1.3171 B(  1-C ,  4-H ) :   0.1260
B(  1-C ,  5-H ) :   0.1178 B(  1-C ,  8-H ) :   0.8839 B(  1-C ,  9-H ) :   0.9093
B(  1-C , 11-H ) :   0.1583 B(  1-C , 12-H ) :   0.1720 B(  1-C , 13-H ) :   0.1961
B(  2-C ,  3-S ) :   0.9775 B(  2-C ,  4-H ) :   0.9041 B(  2-C ,  5-H ) :   0.9086
B(  2-C ,  8-H ) :   0.1068 B(  3-S ,  6-O ) :   1.5469 B(  3-S ,  7-F ) :   0.5868
B(  3-S , 10-O ) :   1.4910

Dispersion correction           -0.011218257
FINAL SINGLE POINT ENERGY      -766.048874560772

DIPOLE MOMENT
-------------
                                X             Y             Z
Electronic contribution:     -9.89663      -5.78379      -2.35801
Nuclear contribution   :     10.64200       6.78206       3.33086
                        -----------------------------------------
Total Dipole Moment    :      0.74537       0.99827       0.97286
                        -----------------------------------------
Magnitude (a.u.)       :      1.58069
Magnitude (Debye)      :      4.01779

Rotational constants in cm-1:     0.128573     0.057881     0.053975
Rotational constants in MHz :  3854.523324  1735.233387  1618.120420

                             ****ORCA TERMINATED NORMALLY****
TOTAL RUN TIME: 0 days 0 hours 0 minutes 23 seconds 291 msec
