                         Program Version 5.0.0 -  RELEASE  -
|  1> !PBE0 D3BJ RIJCOSX def2-SVPD def2/J TightSCF
|  2> *xyz 0 1
|  3> C          1.36401        0.46874       -2.81376
|  4> C          0.96805        1.63064       -3.71575
|  5> C         -0.50835        1.72268       -4.12430
|  6> S         -1.32861        0.14674       -4.43578
|  7> H         -0.59151        2.29496       -5.04722
|  8> H         -1.11411        2.23561       -3.37436
|  9> O         -2.57135        0.47573       -5.06834
| 10> O         -1.51496       -0.40051       -3.06342
| 11> H          1.57869        1.52065       -4.61273
| 12> H          1.26665        2.57599       -3.25045
| 13> F         -0.37793       -0.62756       -5.20114
| 14> H          1.07115       -0.45339       -3.27071
| 15> H          0.87480        0.56905       -1.86745
| 16> H          2.42423        0.47442       -2.66954
| 17> *
| 18> %MaxCore 64000
| 19>
| 20> %pal nprocs 4
| 21> end
| 22>
| 23> %scf
| 24>   MaxIter 150
| 25> end
| 26>
| 27>
| 28>                          ****END OF INPUT****

CARTESIAN COORDINATES (ANGSTROEM)
---------------------------------
  C      1.364010    0.468740   -2.813760
  C      0.968050    1.630640   -3.715750
  C     -0.508350    1.722680   -4.124300
  S     -1.328610    0.146740   -4.435780
  H     -0.591510    2.294960   -5.047220
  H     -1.114110    2.235610   -3.374360
  O     -2.571350    0.475730   -5.068340
  O     -1.514960   -0.400510   -3.063420
  H      1.578690    1.520650   -4.612730
  H      1.266650    2.575990   -3.250450
  F     -0.377930   -0.627560   -5.201140
  H      1.071150   -0.453390   -3.270710
  H      0.874800    0.569050   -1.867450
  H      2.424230    0.474420   -2.669540

 Total Charge           Charge          ....    0
 Multiplicity           Mult            ....    1
 Number of Electrons    NEL             ....   66
 Basis Dimension        Dim             ....  212

ORBITAL ENERGIES
----------------

  NO   OCC          E(Eh)            E(eV)
   0   2.0000     -89.297256     -2429.9019
   1   2.0000     -24.904651      -677.6900
   2   2.0000     -19.236953      -523.4641
   3   2.0000     -19.216855      -522.9172
   4   2.0000     -10.293677      -280.1052
   5   2.0000     -10.265013      -279.3252
   6   2.0000     -10.230461      -278.3850
   7   2.0000      -8.257486      -224.6976
   8   2.0000      -6.203843      -168.8152
   9   2.0000      -6.197325      -168.6378
  10   2.0000      -6.196095      -168.6043
  11   2.0000      -1.409416       -38.3522
  12   2.0000      -1.141211       -31.0539
  13   2.0000      -1.031405       -28.0660
  14   2.0000      -0.851787       -23.1783
  15   2.0000      -0.774461       -21.0742
  16   2.0000      -0.733418       -19.9573
  17   2.0000      -0.656498       -17.8642
  18   2.0000      -0.610942       -16.6246
  19   2.0000      -0.608731       -16.5644
  20   2.0000      -0.563650       -15.3377
  21   2.0000      -0.511372       -13.9151
  22   2.0000      -0.497931       -13.5494
  23   2.0000      -0.482217       -13.1218
  24   2.0000      -0.465451       -12.6656
  25   2.0000      -0.445617       -12.1259
  26   2.0000      -0.407802       -11.0969
  27   2.0000      -0.398838       -10.8529
  28   2.0000      -0.393376       -10.7043
  29   2.0000      -0.368536       -10.0284
  30   2.0000      -0.349143        -9.5007
  31   2.0000      -0.332231        -9.0405
  32   2.0000      -0.320523        -8.7219
  33   0.0000      -0.002429        -0.0661
  34   0.0000       0.028681         0.7805
  35   0.0000       0.037776         1.0279
  36   0.0000       0.041532         1.1301
  37   0.0000       0.051591         1.4039

MULLIKEN ATOMIC CHARGES
-----------------------
   0 C :    0.595160
   1 C :   -0.391318
   2 C :   -0.014281
   3 S :    1.517291
   4 H :    0.053450
   5 H :    0.139267
   6 O :   -0.718475
   7 O :   -0.717211
   8 H :    0.087224
   9 H :   -0.070462
  10 F :   -0.413295
  11 H :   -0.021798
  12 H :    0.023849
  13 H :   -0.069400
Sum of atomic charges:   -0.0000000

LOEWDIN ATOMIC CHARGES
----------------------
   0 C :    0.120999
   1 C :   -0.079594
   2 C :   -0.042602
   3 S :    1.124480
   4 H :    0.019426
   5 H :    0.038935
   6 O :   -0.455564
   7 O :   -0.481360
   8 H :    0.024801
   9 H :    0.032400
  10 F :   -0.255843
  11 H :   -0.035303
  12 H :   -0.001965
  13 H :   -0.008811

  Mayer bond orders larger than 0.100000
B(  0-C ,  1-C ) :   1.3621 B(  0-C , 11-H ) :   0.8579 B(  0-C , 12-H ) :   0.8015
B(  0-C , 13-H ) :   0.7861 B(  1-C ,  2-C ) :   1.2866 B(  1-C ,  4-H ) :   0.1309
B(  1-C ,  5-H ) :   0.1224 B(  1-C ,  8-H ) :   0.8931 B(  1-C ,  9-H ) :   0.9145
B(  1-C , 11-H ) :   0.1614 B(  1-C , 12-H ) :   0.1814 B(  1-C , 13-H ) :   0.1989
B(  2-C ,  3-S ) :   0.9828 B(  2-C ,  4-H ) :   0.9159 B(  2-C ,  5-H ) :   0.9015
B(  2-C ,  9-H ) :   0.1023 B(  3-S ,  6-O ) :   1.5489 B(  3-S ,  7-O ) :   1.4719
B(  3-S , 10-F ) :   0.6280

Dispersion correction           -0.011215248
FINAL SINGLE POINT ENERGY      -766.028257460233

DIPOLE MOMENT
-------------
                                X             Y             Z
Electronic contribution:     -7.96802      -6.14979      -5.98176
Nuclear contribution   :      9.41919       7.02624       5.62986
                        -----------------------------------------
Total Dipole Moment    :      1.45117       0.87645      -0.35190
                        -----------------------------------------
Magnitude (a.u.)       :      1.73144
Magnitude (Debye)      :      4.40098

Rotational constants in cm-1:     0.128702     0.057313     0.054552
Rotational constants in MHz :  3858.395793  1718.208003  1635.420361

                             ****ORCA TERMINATED NORMALLY****
TOTAL RUN TIME: 0 days 0 hours 0 minutes 23 seconds 837 msec
