                         Program Version 5.0.0 -  RELEASE  -
|  1> !PBE0 D3BJ RIJCOSX def2-SVPD def2/J TightSCF xyzfile
|  2>
|  3> *xyzfile 0 1 D3.xyz
|  4>
|  5> %MaxCore 64000
|  6>
|  7> %pal nprocs 4
|  8> end
|  9>
| 10> %scf
| 11>   MaxIter 150
| 12> end
| 13>
| 14>
| 15>                          ****END OF INPUT****

CARTESIAN COORDINATES (ANGSTROEM)
---------------------------------
  C      1.364014    0.468742   -2.813764
  C      0.428844    0.321402   -1.655312
  C      0.968045    1.630639   -3.715749
  C     -0.508347    1.722679   -4.124300
  S     -1.328608    0.146737   -4.435781
  H     -0.591511    2.294958   -5.047219
  H     -1.114114    2.235610   -3.374362
  H      0.748578   -0.400542   -1.001345
  H     -0.461053    0.023332   -2.077731
  H      0.310258    1.201375   -1.134948
  O     -2.571347    0.475733   -5.068341
  O     -1.514963   -0.400512   -3.063420
  H      1.294847   -0.468742   -3.364684
  H      2.376216    0.597400   -2.431495
  H      1.578688    1.520652   -4.612733
  H      1.266653    2.575988   -3.250448
  F     -0.377928   -0.627558   -5.201141

 Total Charge           Charge          ....    0
 Multiplicity           Mult            ....    1
 Number of Electrons    NEL             ....   74
 Basis Dimension        Dim             ....  248

ORBITAL ENERGIES
----------------

  NO   OCC          E(Eh)            E(eV)
   0   2.0000     -89.305062     -2430.1143
   1   2.0000     -24.909402      -677.8193
   2   2.0000     -19.242175      -523.6062
   3   2.0000     -19.225321      -523.1476
   4   2.0000     -10.296947      -280.1942
   5   2.0000     -10.261007      -279.2162
   6   2.0000     -10.232301      -278.4351
   7   2.0000     -10.166102      -276.6337
   8   2.0000      -8.264927      -224.9001
   9   2.0000      -6.211255      -169.0168
  10   2.0000      -6.205097      -168.8493
  11   2.0000      -6.203371      -168.8023
  12   2.0000      -1.414116       -38.4801
  13   2.0000      -1.149390       -31.2765
  14   2.0000      -1.046040       -28.4642
  15   2.0000      -0.857893       -23.3445
  16   2.0000      -0.794951       -21.6317
  17   2.0000      -0.746577       -20.3154
  18   2.0000      -0.699051       -19.0221
  19   2.0000      -0.634815       -17.2742
  20   2.0000      -0.615783       -16.7563
  21   2.0000      -0.604804       -16.4576
  22   2.0000      -0.563158       -15.3243
  23   2.0000      -0.520454       -14.1623
  24   2.0000      -0.513938       -13.9850
  25   2.0000      -0.489996       -13.3335
  26   2.0000      -0.479206       -13.0399
  27   2.0000      -0.444281       -12.0895
  28   2.0000      -0.427823       -11.6416
  29   2.0000      -0.414840       -11.2884
  30   2.0000      -0.408232       -11.1086
  31   2.0000      -0.382885       -10.4188
  32   2.0000      -0.360716        -9.8156
  33   2.0000      -0.348122        -9.4729
  34   2.0000      -0.346543        -9.4299
  35   2.0000      -0.336719        -9.1626
  36   2.0000      -0.286681        -7.8010
  37   0.0000      -0.003210        -0.0873
  38   0.0000       0.025742         0.7005
  39   0.0000       0.034271         0.9326
  40   0.0000       0.043818         1.1924
  41   0.0000       0.048483         1.3193

MULLIKEN ATOMIC CHARGES
-----------------------
   0 C :   -0.484514
   1 C :    1.799579
   2 C :    0.151852
   3 C :   -0.069008
   4 S :    1.652546
   5 H :   -0.124399
   6 H :    0.284007
   7 H :   -0.071223
   8 H :   -0.986523
   9 H :   -0.082926
  10 O :   -0.737415
  11 O :   -0.891855
  12 H :    0.124083
  13 H :   -0.257788
  14 H :    0.070649
  15 H :    0.047060
  16 F :   -0.424126
Sum of atomic charges:   -0.0000000

LOEWDIN ATOMIC CHARGES
----------------------
   0 C :   -0.058418
   1 C :    0.135890
   2 C :   -0.036959
   3 C :   -0.024860
   4 S :    1.175519
   5 H :    0.019552
   6 H :    0.042960
   7 H :   -0.020771
   8 H :   -0.174214
   9 H :   -0.018231
  10 O :   -0.447690
  11 O :   -0.447969
  12 H :    0.016758
  13 H :    0.025923
  14 H :    0.023518
  15 H :    0.037391
  16 F :   -0.248398

  Mayer bond orders larger than 0.100000
B(  0-C ,  1-C ) :   1.0528 B(  0-C ,  2-C ) :   1.2080 B(  0-C ,  7-H ) :   0.2110
B(  0-C ,  8-H ) :   0.4812 B(  0-C ,  9-H ) :   0.2669 B(  0-C , 12-H ) :   0.8328
B(  0-C , 13-H ) :   1.0304 B(  0-C , 14-H ) :   0.1281 B(  0-C , 15-H ) :   0.1525
B(  1-C ,  7-H ) :   0.5098 B(  1-C ,  8-H ) :  -0.2730 B(  1-C ,  9-H ) :   0.3398
B(  1-C , 11-O ) :  -0.1538 B(  1-C , 12-H ) :   0.1206 B(  2-C ,  3-C ) :   1.2910
B(  2-C ,  5-H ) :   0.1809 B(  2-C , 12-H ) :   0.1242 B(  2-C , 14-H ) :   0.8517
B(  2-C , 15-H ) :   0.8017 B(  3-C ,  4-S ) :   0.9898 B(  3-C ,  5-H ) :   0.9488
B(  3-C ,  6-H ) :   0.8348 B(  3-C ,  8-H ) :   0.1124 B(  3-C , 11-O ) :   0.1461
B(  3-C , 14-H ) :   0.1192 B(  4-S ,  8-H ) :  -0.1368 B(  4-S , 10-O ) :   1.5363
B(  4-S , 11-O ) :   1.3601 B(  4-S , 16-F ) :   0.6217 B(  7-H ,  8-H ) :   0.3053
B(  7-H ,  9-H ) :  -0.1641 B(  8-H ,  9-H ) :   0.4692 B(  8-H , 11-O ) :   0.2096

Dispersion correction           -0.015219315
FINAL SINGLE POINT ENERGY      -805.230477281884

DIPOLE MOMENT
-------------
                                X             Y             Z
Electronic contribution:     -8.63772      -5.93285      -9.89322
Nuclear contribution   :      9.83476       6.70164       9.41257
                        -----------------------------------------
Total Dipole Moment    :      1.19705       0.76879      -0.48064
                        -----------------------------------------
Magnitude (a.u.)       :      1.50166
Magnitude (Debye)      :      3.81691

Rotational constants in cm-1:     0.099832     0.045916     0.042219
Rotational constants in MHz :  2992.874960  1376.530174  1265.693813

                             ****ORCA TERMINATED NORMALLY****
TOTAL RUN TIME: 0 days 0 hours 0 minutes 45 seconds 880 msec
