                         Program Version 5.0.0 -  RELEASE  -
|  1> !B3LYP D3BJ RIJCOSX def2-SVP def2/J TightSCF
|  2> *xyz -1 1
|  3> C          1.44442        5.26658       -0.97546
|  4> O          1.56525        4.23349       -1.86489
|  5> C          0.14812        5.21087       -0.13809
|  6> H          1.47425        6.26464       -1.47692
|  7> H          2.28962        5.30327       -0.26445
|  8> H         -0.69779        5.17417       -0.79230
|  9> H          0.08430        6.08276        0.47887
| 10> H          0.15965        4.33708        0.47938
| 11> *
| 12> %MaxCore 64000
| 13>
| 14> %pal nprocs 4
| 15> end
| 16>
| 17> %scf
| 18>   MaxIter 150
| 19> end
| 20>
| 21>
| 22>                          ****END OF INPUT****

CARTESIAN COORDINATES (ANGSTROEM)
---------------------------------
  C      1.444420    5.266580   -0.975460
  O      1.565250    4.233490   -1.864890
  C      0.148120    5.210870   -0.138090
  H      1.474250    6.264640   -1.476920
  H      2.289620    5.303270   -0.264450
  H     -0.697790    5.174170   -0.792300
  H      0.084300    6.082760    0.478870
  H      0.159650    4.337080    0.479380

 Total Charge           Charge          ....   -1
 Multiplicity           Mult            ....    1
 Number of Electrons    NEL             ....   26
 Basis Dimension        Dim             ....   67

ORBITAL ENERGIES
----------------

  NO   OCC          E(Eh)            E(eV)
   0   2.0000     -18.745981      -510.1041
   1   2.0000      -9.971443      -271.3368
   2   2.0000      -9.959696      -271.0171
   3   2.0000      -0.624873       -17.0037
   4   2.0000      -0.496725       -13.5166
   5   2.0000      -0.342769        -9.3272
   6   2.0000      -0.229501        -6.2450
   7   2.0000      -0.208400        -5.6709
   8   2.0000      -0.151198        -4.1143
   9   2.0000      -0.134687        -3.6650
  10   2.0000      -0.068291        -1.8583
  11   2.0000       0.077358         2.1050
  12   2.0000       0.080950         2.2028
  13   0.0000       0.252845         6.8803
  14   0.0000       0.296014         8.0550
  15   0.0000       0.309263         8.4155
  16   0.0000       0.318587         8.6692
  17   0.0000       0.360380         9.8064

MULLIKEN ATOMIC CHARGES
-----------------------
   0 C :    0.271508
   1 O :   -0.693475
   2 C :    0.099759
   3 H :   -0.190836
   4 H :   -0.186800
   5 H :   -0.081764
   6 H :   -0.138037
   7 H :   -0.080354
Sum of atomic charges:   -1.0000000

LOEWDIN ATOMIC CHARGES
----------------------
   0 C :    0.015808
   1 O :   -0.653947
   2 C :   -0.102984
   3 H :   -0.090429
   4 H :   -0.086440
   5 H :   -0.020448
   6 H :   -0.041762
   7 H :   -0.019799

  Mayer bond orders larger than 0.100000
B(  0-C ,  1-O ) :   1.5237 B(  0-C ,  2-C ) :   0.9988 B(  0-C ,  3-H ) :   0.8529
B(  0-C ,  4-H ) :   0.8567 B(  2-C ,  5-H ) :   0.9487 B(  2-C ,  6-H ) :   0.9050
B(  2-C ,  7-H ) :   0.9521

Dispersion correction           -0.006225260
FINAL SINGLE POINT ENERGY      -154.189525899400

DIPOLE MOMENT
-------------
                                X             Y             Z
Electronic contribution:      1.24018      -1.95320      -2.33159
Nuclear contribution   :     -1.83256       2.47114       3.17273
                        -----------------------------------------
Total Dipole Moment    :     -0.59238       0.51794       0.84114
                        -----------------------------------------
Magnitude (a.u.)       :      1.15182
Magnitude (Debye)      :      2.92770

Rotational constants in cm-1:     1.286062     0.322579     0.284728
Rotational constants in MHz : 38555.180127  9670.683110  8535.939140

                             ****ORCA TERMINATED NORMALLY****
TOTAL RUN TIME: 0 days 0 hours 0 minutes 8 seconds 428 msec
