                         Program Version 5.0.0 -  RELEASE  -
|  1> !B3LYP D3BJ RIJCOSX def2-SVP def2/J TightSCF
|  2> *xyz 1 1
|  3> C         -0.70169        4.07250       -4.00392
|  4> N          0.68053        4.61482       -4.04800
|  5> H          0.69993        5.58489       -4.38827
|  6> H          1.27804        4.05598       -4.66824
|  7> H          1.08573        4.53358       -3.10652
|  8> C         -1.70347        5.09320       -3.47740
|  9> H         -0.99590        3.74039       -5.00065
| 10> H         -0.64358        3.20191       -3.35153
| 11> H         -1.73704        5.93384       -4.13853
| 12> H         -1.40338        5.41759       -2.50291
| 13> H         -2.67335        4.64479       -3.42108
| 14> *
| 15> %MaxCore 64000
| 16>
| 17> %pal nprocs 4
| 18> end
| 19>
| 20> %scf
| 21>   MaxIter 150
| 22> end
| 23>
| 24>
| 25>                          ****END OF INPUT****

CARTESIAN COORDINATES (ANGSTROEM)
---------------------------------
  C     -0.701690    4.072500   -4.003920
  N      0.680530    4.614820   -4.048000
  H      0.699930    5.584890   -4.388270
  H      1.278040    4.055980   -4.668240
  H      1.085730    4.533580   -3.106520
  C     -1.703470    5.093200   -3.477400
  H     -0.995900    3.740390   -5.000650
  H     -0.643580    3.201910   -3.351530
  H     -1.737040    5.933840   -4.138530
  H     -1.403380    5.417590   -2.502910
  H     -2.673350    4.644790   -3.421080

 Total Charge           Charge          ....    1
 Multiplicity           Mult            ....    1
 Number of Electrons    NEL             ....   26
 Basis Dimension        Dim             ....   82

ORBITAL ENERGIES
----------------

  NO   OCC          E(Eh)            E(eV)
   0   2.0000     -14.668477      -399.1495
   1   2.0000     -10.437025      -284.0059
   2   2.0000     -10.359727      -281.9025
   3   2.0000      -1.210532       -32.9403
   4   2.0000      -0.958603       -26.0849
   5   2.0000      -0.840958       -22.8836
   6   2.0000      -0.806959       -21.9585
   7   2.0000      -0.788602       -21.4589
   8   2.0000      -0.697420       -18.9778
   9   2.0000      -0.642311       -17.4782
  10   2.0000      -0.583156       -15.8685
  11   2.0000      -0.567596       -15.4451
  12   2.0000      -0.550975       -14.9928
  13   0.0000      -0.186482        -5.0744
  14   0.0000      -0.128727        -3.5028
  15   0.0000      -0.122708        -3.3391
  16   0.0000      -0.090983        -2.4758
  17   0.0000      -0.050920        -1.3856

MULLIKEN ATOMIC CHARGES
-----------------------
   0 C :   -0.029537
   1 N :    0.028533
   2 H :    0.208042
   3 H :    0.209935
   4 H :    0.212497
   5 C :    0.000598
   6 H :    0.095891
   7 H :    0.086446
   8 H :    0.053485
   9 H :    0.047344
  10 H :    0.086767
Sum of atomic charges:    1.0000000

LOEWDIN ATOMIC CHARGES
----------------------
   0 C :    0.053961
   1 N :    0.300378
   2 H :    0.142494
   3 H :    0.146870
   4 H :    0.147144
   5 C :   -0.032138
   6 H :    0.053447
   7 H :    0.050719
   8 H :    0.038154
   9 H :    0.036574
  10 H :    0.062397

  Mayer bond orders larger than 0.100000
B(  0-C ,  1-N ) :   0.9323 B(  0-C ,  5-C ) :   1.1081 B(  0-C ,  6-H ) :   0.9532
B(  0-C ,  7-H ) :   0.9522 B(  1-N ,  2-H ) :   0.9333 B(  1-N ,  3-H ) :   0.9347
B(  1-N ,  4-H ) :   0.9388 B(  5-C ,  8-H ) :   0.9664 B(  5-C ,  9-H ) :   0.9701
B(  5-C , 10-H ) :   0.9563

Dispersion correction           -0.010029090
FINAL SINGLE POINT ENERGY      -135.348863119813

DIPOLE MOMENT
-------------
                                X             Y             Z
Electronic contribution:      1.82191      -0.32198      -0.46301
Nuclear contribution   :     -0.23930       0.27560       0.19485
                        -----------------------------------------
Total Dipole Moment    :      1.58261      -0.04638      -0.26816
                        -----------------------------------------
Magnitude (a.u.)       :      1.60583
Magnitude (Debye)      :      4.08171

Rotational constants in cm-1:     1.018556     0.279088     0.248454
Rotational constants in MHz : 30535.536069  8366.847891  7448.451392

                             ****ORCA TERMINATED NORMALLY****
TOTAL RUN TIME: 0 days 0 hours 0 minutes 9 seconds 443 msec
