                         Program Version 5.0.0 -  RELEASE  -
|  1> !B3LYP D3BJ RIJCOSX def2-SVP def2/J TightSCF
|  2> *xyz 0 1
|  3> C          1.44442        5.26658       -0.97546
|  4> F          1.56525        4.23349       -1.86489
|  5> C          0.14812        5.21087       -0.13809
|  6> H          1.47425        6.26464       -1.47692
|  7> H          2.28962        5.30327       -0.26445
|  8> H         -0.69779        5.17417       -0.79230
|  9> H          0.08430        6.08276        0.47887
| 10> H          0.15965        4.33708        0.47938
| 11> *
| 12> %MaxCore 64000
| 13>
| 14> %pal nprocs 4
| 15> end
| 16>
| 17> %scf
| 18>   MaxIter 150
| 19> end
| 20>
| 21>
| 22>                          ****END OF INPUT****

CARTESIAN COORDINATES (ANGSTROEM)
---------------------------------
  C      1.444420    5.266580   -0.975460
  F      1.565250    4.233490   -1.864890
  C      0.148120    5.210870   -0.138090
  H      1.474250    6.264640   -1.476920
  H      2.289620    5.303270   -0.264450
  H     -0.697790    5.174170   -0.792300
  H      0.084300    6.082760    0.478870
  H      0.159650    4.337080    0.479380

 Total Charge           Charge          ....    0
 Multiplicity           Mult            ....    1
 Number of Electrons    NEL             ....   26
 Basis Dimension        Dim             ....   67

ORBITAL ENERGIES
----------------

  NO   OCC          E(Eh)            E(eV)
   0   2.0000     -24.661774      -671.0810
   1   2.0000     -10.257418      -279.1185
   2   2.0000     -10.178407      -276.9685
   3   2.0000      -1.167127       -31.7591
   4   2.0000      -0.751165       -20.4402
   5   2.0000      -0.619787       -16.8653
   6   2.0000      -0.498446       -13.5634
   7   2.0000      -0.486466       -13.2374
   8   2.0000      -0.448611       -12.2073
   9   2.0000      -0.398701       -10.8492
  10   2.0000      -0.397760       -10.8236
  11   2.0000      -0.327879        -8.9220
  12   2.0000      -0.322718        -8.7816
  13   0.0000       0.064175         1.7463
  14   0.0000       0.108723         2.9585
  15   0.0000       0.115961         3.1554
  16   0.0000       0.133507         3.6329
  17   0.0000       0.149208         4.0602

MULLIKEN ATOMIC CHARGES
-----------------------
   0 C :    0.237338
   1 F :   -0.261510
   2 C :   -0.018900
   3 H :   -0.000435
   4 H :   -0.001947
   5 H :    0.019303
   6 H :    0.007624
   7 H :    0.018527
Sum of atomic charges:   -0.0000000

LOEWDIN ATOMIC CHARGES
----------------------
   0 C :    0.113056
   1 F :   -0.133895
   2 C :   -0.065312
   3 H :    0.007352
   4 H :    0.006145
   5 H :    0.023153
   6 H :    0.027250
   7 H :    0.022251

  Mayer bond orders larger than 0.100000
B(  0-C ,  1-F ) :   1.0085 B(  0-C ,  2-C ) :   1.1002 B(  0-C ,  3-H ) :   0.9560
B(  0-C ,  4-H ) :   0.9559 B(  2-C ,  5-H ) :   0.9699 B(  2-C ,  6-H ) :   0.9590
B(  2-C ,  7-H ) :   0.9712

Dispersion correction           -0.005732959
FINAL SINGLE POINT ENERGY      -178.830136921510

DIPOLE MOMENT
-------------
                                X             Y             Z
Electronic contribution:      2.31671      -2.78711      -3.74307
Nuclear contribution   :     -2.43357       3.25919       4.19687
                        -----------------------------------------
Total Dipole Moment    :     -0.11686       0.47209       0.45380
                        -----------------------------------------
Magnitude (a.u.)       :      0.66518
Magnitude (Debye)      :      1.69075

Rotational constants in cm-1:     1.264662     0.300144     0.266170
Rotational constants in MHz : 37913.611527  8998.095216  7979.576054

                             ****ORCA TERMINATED NORMALLY****
TOTAL RUN TIME: 0 days 0 hours 0 minutes 8 seconds 402 msec
