                         Program Version 5.0.0 -  RELEASE  -
|  1> !B3LYP D3BJ RIJCOSX def2-SVP def2/J TightSCF
|  2> *xyz 0 1
|  3> C         -0.70169        4.07250       -4.00392
|  4> C          0.68053        4.61482       -4.04800
|  5> H          0.69993        5.58489       -4.38827
|  6> H          1.27804        4.05598       -4.66824
|  7> H          1.08573        4.53358       -3.10652
|  8> C         -1.70347        5.09320       -3.47740
|  9> H         -0.99590        3.74039       -5.00065
| 10> H         -0.64358        3.20191       -3.35153
| 11> H         -1.73704        5.93384       -4.13853
| 12> H         -1.40338        5.41759       -2.50291
| 13> H         -2.67335        4.64479       -3.42108
| 14> *
| 15> %MaxCore 64000
| 16>
| 17> %pal nprocs 4
| 18> end
| 19>
| 20> %scf
| 21>   MaxIter 150
| 22> end
| 23>
| 24>
| 25>                          ****END OF INPUT****

CARTESIAN COORDINATES (ANGSTROEM)
---------------------------------
  C     -0.701690    4.072500   -4.003920
  C      0.680530    4.614820   -4.048000
  H      0.699930    5.584890   -4.388270
  H      1.278040    4.055980   -4.668240
  H      1.085730    4.533580   -3.106520
  C     -1.703470    5.093200   -3.477400
  H     -0.995900    3.740390   -5.000650
  H     -0.643580    3.201910   -3.351530
  H     -1.737040    5.933840   -4.138530
  H     -1.403380    5.417590   -2.502910
  H     -2.673350    4.644790   -3.421080

 Total Charge           Charge          ....    0
 Multiplicity           Mult            ....    1
 Number of Electrons    NEL             ....   26
 Basis Dimension        Dim             ....   82

ORBITAL ENERGIES
----------------

  NO   OCC          E(Eh)            E(eV)
   0   2.0000     -10.167183      -276.6631
   1   2.0000     -10.161503      -276.5086
   2   2.0000     -10.144935      -276.0577
   3   2.0000      -0.781326       -21.2610
   4   2.0000      -0.680902       -18.5283
   5   2.0000      -0.576043       -15.6749
   6   2.0000      -0.465844       -12.6763
   7   2.0000      -0.441327       -12.0091
   8   2.0000      -0.399656       -10.8752
   9   2.0000      -0.388870       -10.5817
  10   2.0000      -0.335250        -9.1226
  11   2.0000      -0.331913        -9.0318
  12   2.0000      -0.324027        -8.8172
  13   0.0000       0.064277         1.7491
  14   0.0000       0.111001         3.0205
  15   0.0000       0.113802         3.0967
  16   0.0000       0.118630         3.2281
  17   0.0000       0.146721         3.9925

MULLIKEN ATOMIC CHARGES
-----------------------
   0 C :   -0.053400
   1 C :    0.099219
   2 H :   -0.021604
   3 H :   -0.024487
   4 H :   -0.018875
   5 C :    0.035724
   6 H :   -0.005575
   7 H :   -0.007450
   8 H :    0.000057
   9 H :   -0.002976
  10 H :   -0.000632
Sum of atomic charges:   -0.0000000

LOEWDIN ATOMIC CHARGES
----------------------
   0 C :   -0.033505
   1 C :   -0.037377
   2 H :    0.009064
   3 H :    0.013121
   4 H :    0.012866
   5 C :   -0.044765
   6 H :    0.014018
   7 H :    0.016319
   8 H :    0.016563
   9 H :    0.016131
  10 H :    0.017565

  Mayer bond orders larger than 0.100000
B(  0-C ,  1-C ) :   1.1150 B(  0-C ,  5-C ) :   1.1116 B(  0-C ,  6-H ) :   0.9542
B(  0-C ,  7-H ) :   0.9530 B(  1-C ,  2-H ) :   0.9680 B(  1-C ,  3-H ) :   0.9562
B(  1-C ,  4-H ) :   0.9674 B(  5-C ,  8-H ) :   0.9709 B(  5-C ,  9-H ) :   0.9734
B(  5-C , 10-H ) :   0.9672

Dispersion correction           -0.010106681
FINAL SINGLE POINT ENERGY      -118.953778213165

DIPOLE MOMENT
-------------
                                X             Y             Z
Electronic contribution:     -0.13490      -0.29779      -0.13264
Nuclear contribution   :      0.16058       0.27975       0.12812
                        -----------------------------------------
Total Dipole Moment    :      0.02567      -0.01804      -0.00452
                        -----------------------------------------
Magnitude (a.u.)       :      0.03170
Magnitude (Debye)      :      0.08058

Rotational constants in cm-1:     1.027122     0.293327     0.260229
Rotational constants in MHz : 30792.337141  8793.723318  7801.458329

                             ****ORCA TERMINATED NORMALLY****
TOTAL RUN TIME: 0 days 0 hours 0 minutes 9 seconds 615 msec
