                         Program Version 5.0.0 -  RELEASE  -
|  1> !BLYP D3BJ RIJCOSX def2-TZVPD def2/J TightSCF
|  2> *xyz -1 1
|  3> C          1.44442        5.26658       -0.97546
|  4> O          1.56525        4.23349       -1.86489
|  5> C          0.14812        5.21087       -0.13809
|  6> H          1.47425        6.26464       -1.47692
|  7> H          2.28962        5.30327       -0.26445
|  8> H         -0.69779        5.17417       -0.79230
|  9> H          0.08430        6.08276        0.47887
| 10> H          0.15965        4.33708        0.47938
| 11> *
| 12> %MaxCore 64000
| 13>
| 14> %pal nprocs 4
| 15> end
| 16>
| 17> %scf
| 18>   MaxIter 150
| 19> end
| 20>
| 21>
| 22>                          ****END OF INPUT****

CARTESIAN COORDINATES (ANGSTROEM)
---------------------------------
  C      1.444420    5.266580   -0.975460
  O      1.565250    4.233490   -1.864890
  C      0.148120    5.210870   -0.138090
  H      1.474250    6.264640   -1.476920
  H      2.289620    5.303270   -0.264450
  H     -0.697790    5.174170   -0.792300
  H      0.084300    6.082760    0.478870
  H      0.159650    4.337080    0.479380

 Total Charge           Charge          ....   -1
 Multiplicity           Mult            ....    1
 Number of Electrons    NEL             ....   26
 Basis Dimension        Dim             ....  159

ORBITAL ENERGIES
----------------

  NO   OCC          E(Eh)            E(eV)
   0   2.0000     -18.458078      -502.2698
   1   2.0000      -9.723638      -264.5937
   2   2.0000      -9.698316      -263.9046
   3   2.0000      -0.601536       -16.3686
   4   2.0000      -0.454123       -12.3573
   5   2.0000      -0.313243        -8.5238
   6   2.0000      -0.200902        -5.4668
   7   2.0000      -0.180698        -4.9170
   8   2.0000      -0.130708        -3.5567
   9   2.0000      -0.114844        -3.1251
  10   2.0000      -0.075045        -2.0421
  11   2.0000       0.061478         1.6729
  12   2.0000       0.066084         1.7982
  13   0.0000       0.140560         3.8248
  14   0.0000       0.163852         4.4587
  15   0.0000       0.188721         5.1354
  16   0.0000       0.193708         5.2711
  17   0.0000       0.213959         5.8221

MULLIKEN ATOMIC CHARGES
-----------------------
   0 C :   -0.258688
   1 O :   -0.918192
   2 C :   -1.200322
   3 H :    0.213524
   4 H :    0.212713
   5 H :    0.277159
   6 H :    0.402089
   7 H :    0.271718
Sum of atomic charges:   -1.0000000

LOEWDIN ATOMIC CHARGES
----------------------
   0 C :   -0.621341
   1 O :   -0.376801
   2 C :   -0.172644
   3 H :    0.047392
   4 H :    0.044202
   5 H :    0.032116
   6 H :    0.016212
   7 H :    0.030863

  Mayer bond orders larger than 0.100000
B(  0-C ,  1-O ) :   0.8080 B(  0-C ,  2-C ) :   0.7193 B(  0-C ,  3-H ) :   1.0469
B(  0-C ,  4-H ) :   1.0528 B(  1-O ,  2-C ) :   0.6171 B(  1-O ,  6-H ) :  -0.1192
B(  2-C ,  5-H ) :   0.9843 B(  2-C ,  6-H ) :   0.9086 B(  2-C ,  7-H ) :   0.9836
B(  3-H ,  4-H ) :   0.1154

Dispersion correction           -0.007729509
FINAL SINGLE POINT ENERGY      -154.441608277970

DIPOLE MOMENT
-------------
                                X             Y             Z
Electronic contribution:      1.31133      -1.75558      -2.24472
Nuclear contribution   :     -1.83256       2.47114       3.17273
                        -----------------------------------------
Total Dipole Moment    :     -0.52123       0.71556       0.92802
                        -----------------------------------------
Magnitude (a.u.)       :      1.28254
Magnitude (Debye)      :      3.25997

Rotational constants in cm-1:     1.286062     0.322579     0.284728
Rotational constants in MHz : 38555.180127  9670.683110  8535.939140

                             ****ORCA TERMINATED NORMALLY****
TOTAL RUN TIME: 0 days 0 hours 0 minutes 9 seconds 458 msec
