                         Program Version 5.0.0 -  RELEASE  -
|  1> !BLYP D3BJ RIJCOSX def2-TZVPD def2/J TightSCF
|  2> *xyz 1 1
|  3> C         -0.70169        4.07250       -4.00392
|  4> N          0.68053        4.61482       -4.04800
|  5> H          0.69993        5.58489       -4.38827
|  6> H          1.27804        4.05598       -4.66824
|  7> H          1.08573        4.53358       -3.10652
|  8> C         -1.70347        5.09320       -3.47740
|  9> H         -0.99590        3.74039       -5.00065
| 10> H         -0.64358        3.20191       -3.35153
| 11> H         -1.73704        5.93384       -4.13853
| 12> H         -1.40338        5.41759       -2.50291
| 13> H         -2.67335        4.64479       -3.42108
| 14> *
| 15> %MaxCore 64000
| 16>
| 17> %pal nprocs 4
| 18> end
| 19>
| 20> %scf
| 21>   MaxIter 150
| 22> end
| 23>
| 24>
| 25>                          ****END OF INPUT****

CARTESIAN COORDINATES (ANGSTROEM)
---------------------------------
  C     -0.701690    4.072500   -4.003920
  N      0.680530    4.614820   -4.048000
  H      0.699930    5.584890   -4.388270
  H      1.278040    4.055980   -4.668240
  H      1.085730    4.533580   -3.106520
  C     -1.703470    5.093200   -3.477400
  H     -0.995900    3.740390   -5.000650
  H     -0.643580    3.201910   -3.351530
  H     -1.737040    5.933840   -4.138530
  H     -1.403380    5.417590   -2.502910
  H     -2.673350    4.644790   -3.421080

 Total Charge           Charge          ....    1
 Multiplicity           Mult            ....    1
 Number of Electrons    NEL             ....   26
 Basis Dimension        Dim             ....  183

ORBITAL ENERGIES
----------------

  NO   OCC          E(Eh)            E(eV)
   0   2.0000     -14.339105      -390.1869
   1   2.0000     -10.157277      -276.3935
   2   2.0000     -10.079764      -274.2843
   3   2.0000      -1.130663       -30.7669
   4   2.0000      -0.889933       -24.2163
   5   2.0000      -0.779815       -21.2198
   6   2.0000      -0.748601       -20.3705
   7   2.0000      -0.731096       -19.8941
   8   2.0000      -0.645315       -17.5599
   9   2.0000      -0.592546       -16.1240
  10   2.0000      -0.537274       -14.6200
  11   2.0000      -0.522805       -14.2263
  12   2.0000      -0.506946       -13.7947
  13   0.0000      -0.226418        -6.1611
  14   0.0000      -0.169723        -4.6184
  15   0.0000      -0.164505        -4.4764
  16   0.0000      -0.153451        -4.1756
  17   0.0000      -0.123099        -3.3497

MULLIKEN ATOMIC CHARGES
-----------------------
   0 C :   -0.284956
   1 N :   -0.215676
   2 H :    0.297542
   3 H :    0.320512
   4 H :    0.328406
   5 C :   -1.141723
   6 H :    0.303434
   7 H :    0.308946
   8 H :    0.378053
   9 H :    0.368445
  10 H :    0.337017
Sum of atomic charges:    1.0000000

LOEWDIN ATOMIC CHARGES
----------------------
   0 C :   -0.198544
   1 N :    0.190644
   2 H :    0.177214
   3 H :    0.177009
   4 H :    0.179354
   5 C :   -0.043920
   6 H :    0.133756
   7 H :    0.132898
   8 H :    0.080544
   9 H :    0.080107
  10 H :    0.090938

  Mayer bond orders larger than 0.100000
B(  0-C ,  1-N ) :   0.9417 B(  0-C ,  5-C ) :   0.6071 B(  0-C ,  6-H ) :   0.9161
B(  0-C ,  7-H ) :   0.9164 B(  1-N ,  2-H ) :   0.8864 B(  1-N ,  3-H ) :   0.8848
B(  1-N ,  4-H ) :   0.8720 B(  5-C ,  8-H ) :   0.9007 B(  5-C ,  9-H ) :   0.9294
B(  5-C , 10-H ) :   0.9624

Dispersion correction           -0.012438099
FINAL SINGLE POINT ENERGY      -135.518965714382

DIPOLE MOMENT
-------------
                                X             Y             Z
Electronic contribution:      1.72886      -0.32752      -0.44832
Nuclear contribution   :     -0.23930       0.27560       0.19485
                        -----------------------------------------
Total Dipole Moment    :      1.48956      -0.05192      -0.25346
                        -----------------------------------------
Magnitude (a.u.)       :      1.51186
Magnitude (Debye)      :      3.84284

Rotational constants in cm-1:     1.018556     0.279088     0.248454
Rotational constants in MHz : 30535.536069  8366.847891  7448.451392

                             ****ORCA TERMINATED NORMALLY****
TOTAL RUN TIME: 0 days 0 hours 0 minutes 9 seconds 310 msec
