                         Program Version 5.0.0 -  RELEASE  -
|  1> !BLYP D3BJ RIJCOSX def2-TZVPD def2/J TightSCF xyzfile
|  2>
|  3> *xyzfile 0 1 B.xyz
|  4>
|  5> %MaxCore 64000
|  6>
|  7> %pal nprocs 4
|  8> end
|  9>
| 10> %scf
| 11>   MaxIter 150
| 12> end
| 13>
| 14>
| 15>                          ****END OF INPUT****

CARTESIAN COORDINATES (ANGSTROEM)
---------------------------------
  C     -0.701686    4.072499   -4.003920
  N      0.680528    4.614820   -4.048005
  C      1.444422    5.266576   -0.975463
  O      1.565248    4.233493   -1.864885
  H      0.699926    5.584890   -4.388272
  H      1.278044    4.055977   -4.668235
  H      1.085729    4.533581   -3.106524
  C     -1.703475    5.093197   -3.477396
  H     -0.995895    3.740394   -5.000654
  H     -0.643580    3.201910   -3.351533
  C     -1.313997    5.785995   -2.169271
  H     -1.877057    5.850103   -4.251154
  H     -2.653264    4.564475   -3.354796
  H     -2.097137    6.509395   -1.929558
  H     -0.416875    6.387594   -2.339097
  C     -1.073895    4.844728   -0.979904
  H     -1.968893    4.809608   -0.352568
  C      0.148120    5.210874   -0.138092
  H     -0.909754    3.827531   -1.338975
  H      1.474250    6.264638   -1.476917
  H      2.289622    5.303267   -0.264450
  H      0.261827    4.450942    0.640711
  H     -0.002516    6.171031    0.371483

 Total Charge           Charge          ....    0
 Multiplicity           Mult            ....    1
 Number of Electrons    NEL             ....   66
 Basis Dimension        Dim             ....  434

ORBITAL ENERGIES
----------------

  NO   OCC          E(Eh)            E(eV)
   0   2.0000     -18.648291      -507.4458
   1   2.0000     -14.084736      -383.2652
   2   2.0000      -9.968872      -271.2668
   3   2.0000      -9.925026      -270.0737
   4   2.0000      -9.900244      -269.3993
   5   2.0000      -9.889941      -269.1190
   6   2.0000      -9.879406      -268.8323
   7   2.0000      -9.861713      -268.3508
   8   2.0000      -0.902278       -24.5522
   9   2.0000      -0.804179       -21.8828
  10   2.0000      -0.730466       -19.8770
  11   2.0000      -0.670970       -18.2580
  12   2.0000      -0.622652       -16.9432
  13   2.0000      -0.569049       -15.4846
  14   2.0000      -0.525250       -14.2928
  15   2.0000      -0.515802       -14.0357
  16   2.0000      -0.508892       -13.8477
  17   2.0000      -0.460156       -12.5215
  18   2.0000      -0.439501       -11.9594
  19   2.0000      -0.411582       -11.1997
  20   2.0000      -0.404620       -11.0103
  21   2.0000      -0.369936       -10.0665
  22   2.0000      -0.359267        -9.7762
  23   2.0000      -0.348121        -9.4728
  24   2.0000      -0.329269        -8.9599
  25   2.0000      -0.309835        -8.4310
  26   2.0000      -0.304539        -8.2869
  27   2.0000      -0.286474        -7.7953
  28   2.0000      -0.266029        -7.2390
  29   2.0000      -0.258780        -7.0417
  30   2.0000      -0.251744        -6.8503
  31   2.0000      -0.139298        -3.7905
  32   2.0000      -0.132262        -3.5990
  33   0.0000      -0.044515        -1.2113
  34   0.0000      -0.010961        -0.2983
  35   0.0000      -0.004957        -0.1349
  36   0.0000       0.011539         0.3140
  37   0.0000       0.023685         0.6445

MULLIKEN ATOMIC CHARGES
-----------------------
   0 C :   -0.655025
   1 N :   -0.137171
   2 C :   -0.436340
   3 O :   -0.942315
   4 H :    0.275684
   5 H :    0.304103
   6 H :    0.235506
   7 C :   -0.408409
   8 H :    0.293785
   9 H :    0.334480
  10 C :   -0.560921
  11 H :    0.249419
  12 H :    0.225605
  13 H :    0.312631
  14 H :    0.208298
  15 C :   -0.229362
  16 H :    0.317910
  17 C :   -0.547299
  18 H :    0.130149
  19 H :    0.245794
  20 H :    0.265392
  21 H :    0.300326
  22 H :    0.217761
Sum of atomic charges:   -0.0000000

LOEWDIN ATOMIC CHARGES
----------------------
   0 C :   -0.174582
   1 N :    0.148189
   2 C :   -0.422619
   3 O :   -0.247699
   4 H :    0.155516
   5 H :    0.155369
   6 H :   -0.046356
   7 C :   -0.187247
   8 H :    0.113589
   9 H :    0.119228
  10 C :   -0.198969
  11 H :    0.106378
  12 H :    0.115067
  13 H :    0.108322
  14 H :    0.087644
  15 C :   -0.207569
  16 H :    0.102907
  17 C :   -0.194776
  18 H :    0.090879
  19 H :    0.083630
  20 H :    0.092375
  21 H :    0.099847
  22 H :    0.100876

  Mayer bond orders larger than 0.100000
B(  0-C ,  1-N ) :   0.9899 B(  0-C ,  7-C ) :   0.7724 B(  0-C ,  8-H ) :   0.9303
B(  0-C ,  9-H ) :   0.8948 B(  1-N ,  4-H ) :   0.8737 B(  1-N ,  5-H ) :   0.8882
B(  1-N ,  6-H ) :   0.7422 B(  2-C ,  3-O ) :   0.9331 B(  2-C , 17-C ) :   0.7972
B(  2-C , 19-H ) :   0.9874 B(  2-C , 20-H ) :   0.9718 B(  3-O ,  6-H ) :   0.2685
B(  3-O , 15-C ) :  -0.1082 B(  3-O , 18-H ) :   0.1060 B(  7-C , 10-C ) :   0.8028
B(  7-C , 11-H ) :   0.9352 B(  7-C , 12-H ) :   0.9882 B(  7-C , 15-C ) :   0.1302
B( 10-C , 13-H ) :   0.9235 B( 10-C , 14-H ) :   1.0076 B( 10-C , 15-C ) :   0.7166
B( 10-C , 17-C ) :   0.2169 B( 15-C , 16-H ) :   0.9153 B( 15-C , 17-C ) :   0.8546
B( 15-C , 18-H ) :   0.9821 B( 17-C , 21-H ) :   0.9076 B( 17-C , 22-H ) :   1.0204

Dispersion correction           -0.044059256
FINAL SINGLE POINT ENERGY      -367.592064368661

DIPOLE MOMENT
-------------
                                X             Y             Z
Electronic contribution:      2.02989      -1.59279      -1.24416
Nuclear contribution   :     -3.16446       1.92310      -1.11926
                        -----------------------------------------
Total Dipole Moment    :     -1.13458       0.33032      -2.36342
                        -----------------------------------------
Magnitude (a.u.)       :      2.64237
Magnitude (Debye)      :      6.71637

Rotational constants in cm-1:     0.085554     0.055600     0.038553
Rotational constants in MHz :  2564.854379  1666.836664  1155.798427

                             ****ORCA TERMINATED NORMALLY****
TOTAL RUN TIME: 0 days 0 hours 0 minutes 36 seconds 543 msec
