                         Program Version 5.0.0 -  RELEASE  -
|  1> !BLYP D3BJ RIJCOSX def2-TZVPD def2/J TightSCF
|  2> *xyz 0 1
|  3> C          1.44442        5.26658       -0.97546
|  4> F          1.56525        4.23349       -1.86489
|  5> C          0.14812        5.21087       -0.13809
|  6> H          1.47425        6.26464       -1.47692
|  7> H          2.28962        5.30327       -0.26445
|  8> H         -0.69779        5.17417       -0.79230
|  9> H          0.08430        6.08276        0.47887
| 10> H          0.15965        4.33708        0.47938
| 11> *
| 12> %MaxCore 64000
| 13>
| 14> %pal nprocs 4
| 15> end
| 16>
| 17> %scf
| 18>   MaxIter 150
| 19> end
| 20>
| 21>
| 22>                          ****END OF INPUT****

CARTESIAN COORDINATES (ANGSTROEM)
---------------------------------
  C      1.444420    5.266580   -0.975460
  F      1.565250    4.233490   -1.864890
  C      0.148120    5.210870   -0.138090
  H      1.474250    6.264640   -1.476920
  H      2.289620    5.303270   -0.264450
  H     -0.697790    5.174170   -0.792300
  H      0.084300    6.082760    0.478870
  H      0.159650    4.337080    0.479380

 Total Charge           Charge          ....    0
 Multiplicity           Mult            ....    1
 Number of Electrons    NEL             ....   26
 Basis Dimension        Dim             ....  159

ORBITAL ENERGIES
----------------

  NO   OCC          E(Eh)            E(eV)
   0   2.0000     -24.274681      -660.5477
   1   2.0000      -9.982070      -271.6259
   2   2.0000      -9.900152      -269.3968
   3   2.0000      -1.093586       -29.7580
   4   2.0000      -0.686126       -18.6704
   5   2.0000      -0.564849       -15.3703
   6   2.0000      -0.452358       -12.3093
   7   2.0000      -0.435487       -11.8502
   8   2.0000      -0.399927       -10.8826
   9   2.0000      -0.354210        -9.6386
  10   2.0000      -0.352680        -9.5969
  11   2.0000      -0.286176        -7.7873
  12   2.0000      -0.281280        -7.6540
  13   0.0000      -0.006848        -0.1863
  14   0.0000       0.020511         0.5581
  15   0.0000       0.033658         0.9159
  16   0.0000       0.039674         1.0796
  17   0.0000       0.064008         1.7417

MULLIKEN ATOMIC CHARGES
-----------------------
   0 C :   -0.090703
   1 F :   -0.299325
   2 C :   -0.941548
   3 H :    0.221439
   4 H :    0.223920
   5 H :    0.285710
   6 H :    0.320571
   7 H :    0.279937
Sum of atomic charges:    0.0000000

LOEWDIN ATOMIC CHARGES
----------------------
   0 C :   -0.298233
   1 F :   -0.025244
   2 C :   -0.074233
   3 H :    0.109834
   4 H :    0.104659
   5 H :    0.060587
   6 H :    0.062897
   7 H :    0.059732

  Mayer bond orders larger than 0.100000
B(  0-C ,  1-F ) :   0.8272 B(  0-C ,  2-C ) :   0.7321 B(  0-C ,  3-H ) :   0.9635
B(  0-C ,  4-H ) :   0.9666 B(  2-C ,  5-H ) :   0.9553 B(  2-C ,  6-H ) :   0.9268
B(  2-C ,  7-H ) :   0.9573

Dispersion correction           -0.007122732
FINAL SINGLE POINT ENERGY      -179.083512368026

DIPOLE MOMENT
-------------
                                X             Y             Z
Electronic contribution:      2.30363      -2.77216      -3.72475
Nuclear contribution   :     -2.43357       3.25919       4.19687
                        -----------------------------------------
Total Dipole Moment    :     -0.12994       0.48703       0.47212
                        -----------------------------------------
Magnitude (a.u.)       :      0.69064
Magnitude (Debye)      :      1.75547

Rotational constants in cm-1:     1.264662     0.300144     0.266170
Rotational constants in MHz : 37913.611527  8998.095216  7979.576054

                             ****ORCA TERMINATED NORMALLY****
TOTAL RUN TIME: 0 days 0 hours 0 minutes 7 seconds 905 msec
