                         Program Version 5.0.0 -  RELEASE  -
|  1> !BLYP D3BJ RIJCOSX def2-TZVPD def2/J TightSCF
|  2> *xyz 0 1
|  3> C         -0.70169        4.07250       -4.00392
|  4> C          0.68053        4.61482       -4.04800
|  5> H          0.69993        5.58489       -4.38827
|  6> H          1.27804        4.05598       -4.66824
|  7> H          1.08573        4.53358       -3.10652
|  8> C         -1.70347        5.09320       -3.47740
|  9> H         -0.99590        3.74039       -5.00065
| 10> H         -0.64358        3.20191       -3.35153
| 11> H         -1.73704        5.93384       -4.13853
| 12> H         -1.40338        5.41759       -2.50291
| 13> H         -2.67335        4.64479       -3.42108
| 14> *
| 15> %MaxCore 64000
| 16>
| 17> %pal nprocs 4
| 18> end
| 19>
| 20> %scf
| 21>   MaxIter 150
| 22> end
| 23>
| 24>
| 25>                          ****END OF INPUT****

CARTESIAN COORDINATES (ANGSTROEM)
---------------------------------
  C     -0.701690    4.072500   -4.003920
  C      0.680530    4.614820   -4.048000
  H      0.699930    5.584890   -4.388270
  H      1.278040    4.055980   -4.668240
  H      1.085730    4.533580   -3.106520
  C     -1.703470    5.093200   -3.477400
  H     -0.995900    3.740390   -5.000650
  H     -0.643580    3.201910   -3.351530
  H     -1.737040    5.933840   -4.138530
  H     -1.403380    5.417590   -2.502910
  H     -2.673350    4.644790   -3.421080

 Total Charge           Charge          ....    0
 Multiplicity           Mult            ....    1
 Number of Electrons    NEL             ....   26
 Basis Dimension        Dim             ....  183

ORBITAL ENERGIES
----------------

  NO   OCC          E(Eh)            E(eV)
   0   2.0000      -9.889468      -269.1061
   1   2.0000      -9.881500      -268.8893
   2   2.0000      -9.863879      -268.4098
   3   2.0000      -0.711023       -19.3479
   4   2.0000      -0.617244       -16.7960
   5   2.0000      -0.519546       -14.1376
   6   2.0000      -0.415926       -11.3179
   7   2.0000      -0.392586       -10.6828
   8   2.0000      -0.353157        -9.6099
   9   2.0000      -0.343309        -9.3419
  10   2.0000      -0.292327        -7.9546
  11   2.0000      -0.289965        -7.8903
  12   2.0000      -0.282384        -7.6840
  13   0.0000      -0.002691        -0.0732
  14   0.0000       0.022576         0.6143
  15   0.0000       0.026249         0.7143
  16   0.0000       0.041655         1.1335
  17   0.0000       0.064175         1.7463

MULLIKEN ATOMIC CHARGES
-----------------------
   0 C :    0.044641
   1 C :   -1.326287
   2 H :    0.344932
   3 H :    0.365524
   4 H :    0.355450
   5 C :   -1.151797
   6 H :    0.232993
   7 H :    0.204378
   8 H :    0.310385
   9 H :    0.312733
  10 H :    0.307048
Sum of atomic charges:   -0.0000000

LOEWDIN ATOMIC CHARGES
----------------------
   0 C :   -0.311971
   1 C :   -0.119472
   2 H :    0.052337
   3 H :    0.048922
   4 H :    0.053867
   5 C :   -0.106995
   6 H :    0.099659
   7 H :    0.099920
   8 H :    0.062613
   9 H :    0.063627
  10 H :    0.057493

  Mayer bond orders larger than 0.100000
B(  0-C ,  1-C ) :   0.5634 B(  0-C ,  5-C ) :   0.5769 B(  0-C ,  6-H ) :   0.9748
B(  0-C ,  7-H ) :   0.9861 B(  1-C ,  2-H ) :   0.9216 B(  1-C ,  3-H ) :   0.9286
B(  1-C ,  4-H ) :   0.9435 B(  1-C ,  5-C ) :   0.1095 B(  5-C ,  8-H ) :   0.9704
B(  5-C ,  9-H ) :   0.9709 B(  5-C , 10-H ) :   0.9691

Dispersion correction           -0.012522075
FINAL SINGLE POINT ENERGY      -119.096855856137

DIPOLE MOMENT
-------------
                                X             Y             Z
Electronic contribution:     -0.13620      -0.31101      -0.13834
Nuclear contribution   :      0.16058       0.27975       0.12812
                        -----------------------------------------
Total Dipole Moment    :      0.02438      -0.03126      -0.01022
                        -----------------------------------------
Magnitude (a.u.)       :      0.04094
Magnitude (Debye)      :      0.10406

Rotational constants in cm-1:     1.027122     0.293327     0.260229
Rotational constants in MHz : 30792.337141  8793.723318  7801.458329

                             ****ORCA TERMINATED NORMALLY****
TOTAL RUN TIME: 0 days 0 hours 0 minutes 9 seconds 341 msec
