                         Program Version 5.0.0 -  RELEASE  -
|  1> !BLYP D3BJ RIJCOSX def2-TZVPD def2/J TightSCF xyzfile
|  2>
|  3> *xyzfile 0 1 D.xyz
|  4>
|  5> %MaxCore 64000
|  6>
|  7> %pal nprocs 4
|  8> end
|  9>
| 10> %scf
| 11>   MaxIter 150
| 12> end
| 13>
| 14>
| 15>                          ****END OF INPUT****

CARTESIAN COORDINATES (ANGSTROEM)
---------------------------------
  C     -0.701686    4.072499   -4.003920
  C      0.680528    4.614820   -4.048005
  C      1.444422    5.266576   -0.975463
  F      1.565248    4.233493   -1.864885
  H      0.699926    5.584890   -4.388272
  H      1.278044    4.055977   -4.668235
  H      1.085729    4.533581   -3.106524
  C     -1.703475    5.093197   -3.477396
  H     -0.995895    3.740394   -5.000654
  H     -0.643580    3.201910   -3.351533
  C     -1.313997    5.785995   -2.169271
  H     -1.877057    5.850103   -4.251154
  H     -2.653264    4.564475   -3.354796
  H     -2.097137    6.509395   -1.929558
  H     -0.416875    6.387594   -2.339097
  C     -1.073895    4.844728   -0.979904
  H     -1.968893    4.809608   -0.352568
  C      0.148120    5.210874   -0.138092
  H     -0.909754    3.827531   -1.338975
  H      1.474250    6.264638   -1.476917
  H      2.289622    5.303267   -0.264450
  H      0.261827    4.450942    0.640711
  H     -0.002516    6.171031    0.371483

 Total Charge           Charge          ....    0
 Multiplicity           Mult            ....    1
 Number of Electrons    NEL             ....   66
 Basis Dimension        Dim             ....  434

ORBITAL ENERGIES
----------------

  NO   OCC          E(Eh)            E(eV)
   0   2.0000     -24.293201      -661.0516
   1   2.0000      -9.988625      -271.8043
   2   2.0000      -9.913519      -269.7606
   3   2.0000      -9.899551      -269.3805
   4   2.0000      -9.893005      -269.2024
   5   2.0000      -9.886421      -269.0232
   6   2.0000      -9.874115      -268.6883
   7   2.0000      -9.821943      -267.2687
   8   2.0000      -1.125589       -30.6288
   9   2.0000      -0.732303       -19.9270
  10   2.0000      -0.703994       -19.1567
  11   2.0000      -0.647912       -17.6306
  12   2.0000      -0.618214       -16.8225
  13   2.0000      -0.561923       -15.2907
  14   2.0000      -0.531977       -14.4758
  15   2.0000      -0.480749       -13.0818
  16   2.0000      -0.475775       -12.9465
  17   2.0000      -0.459817       -12.5123
  18   2.0000      -0.434767       -11.8306
  19   2.0000      -0.404621       -11.0103
  20   2.0000      -0.397273       -10.8104
  21   2.0000      -0.377139       -10.2625
  22   2.0000      -0.361932        -9.8487
  23   2.0000      -0.339696        -9.2436
  24   2.0000      -0.333541        -9.0761
  25   2.0000      -0.320893        -8.7319
  26   2.0000      -0.311198        -8.4681
  27   2.0000      -0.296001        -8.0546
  28   2.0000      -0.285340        -7.7645
  29   2.0000      -0.272033        -7.4024
  30   2.0000      -0.261260        -7.1092
  31   2.0000      -0.258815        -7.0427
  32   2.0000      -0.232187        -6.3181
  33   0.0000      -0.010250        -0.2789
  34   0.0000       0.002165         0.0589
  35   0.0000       0.007299         0.1986
  36   0.0000       0.015910         0.4329
  37   0.0000       0.028495         0.7754

MULLIKEN ATOMIC CHARGES
-----------------------
   0 C :   -0.235076
   1 C :   -1.289302
   2 C :   -0.358113
   3 F :   -0.375632
   4 H :    0.349574
   5 H :    0.426101
   6 H :    0.308708
   7 C :   -0.519494
   8 H :    0.224826
   9 H :    0.252629
  10 C :   -0.504291
  11 H :    0.266981
  12 H :    0.207682
  13 H :    0.315159
  14 H :    0.219111
  15 C :   -0.392891
  16 H :    0.321141
  17 C :   -0.529433
  18 H :    0.191539
  19 H :    0.314111
  20 H :    0.283129
  21 H :    0.299188
  22 H :    0.224352
Sum of atomic charges:    0.0000000

LOEWDIN ATOMIC CHARGES
----------------------
   0 C :   -0.249291
   1 C :   -0.103151
   2 C :   -0.212568
   3 F :   -0.012568
   4 H :    0.061974
   5 H :    0.057930
   6 H :   -0.038571
   7 C :   -0.206952
   8 H :    0.102409
   9 H :    0.097718
  10 C :   -0.199437
  11 H :    0.108098
  12 H :    0.103943
  13 H :    0.105781
  14 H :    0.089284
  15 C :   -0.196458
  16 H :    0.109040
  17 C :   -0.171138
  18 H :    0.097641
  19 H :    0.120196
  20 H :    0.116734
  21 H :    0.104184
  22 H :    0.115202

  Mayer bond orders larger than 0.100000
B(  0-C ,  1-C ) :   0.4401 B(  0-C ,  7-C ) :   0.8451 B(  0-C ,  8-H ) :   0.9971
B(  0-C ,  9-H ) :   0.9242 B(  1-C ,  2-C ) :   0.1378 B(  1-C ,  3-F ) :   0.1238
B(  1-C ,  4-H ) :   1.0171 B(  1-C ,  5-H ) :   0.9488 B(  1-C ,  6-H ) :   0.9544
B(  2-C ,  3-F ) :   0.7667 B(  2-C , 17-C ) :   0.8456 B(  2-C , 19-H ) :   0.9393
B(  2-C , 20-H ) :   0.9287 B(  3-F ,  6-H ) :  -0.1676 B(  7-C , 10-C ) :   0.8964
B(  7-C , 11-H ) :   0.9327 B(  7-C , 12-H ) :   0.9636 B(  7-C , 15-C ) :   0.1388
B( 10-C , 13-H ) :   0.9048 B( 10-C , 14-H ) :   1.0083 B( 10-C , 15-C ) :   0.7012
B( 10-C , 17-C ) :   0.1594 B( 15-C , 16-H ) :   0.9202 B( 15-C , 17-C ) :   0.8230
B( 15-C , 18-H ) :   1.0142 B( 17-C , 21-H ) :   0.9174 B( 17-C , 22-H ) :   0.9876

Dispersion correction           -0.042900242
FINAL SINGLE POINT ENERGY      -375.551451482685

DIPOLE MOMENT
-------------
                                X             Y             Z
Electronic contribution:      5.13131      -2.29684       2.75190
Nuclear contribution   :     -5.08831       2.68947      -1.99048
                        -----------------------------------------
Total Dipole Moment    :      0.04300       0.39264       0.76142
                        -----------------------------------------
Magnitude (a.u.)       :      0.85777
Magnitude (Debye)      :      2.18029

Rotational constants in cm-1:     0.084646     0.055672     0.038419
Rotational constants in MHz :  2537.625105  1668.992890  1151.781380

                             ****ORCA TERMINATED NORMALLY****
TOTAL RUN TIME: 0 days 0 hours 0 minutes 35 seconds 486 msec
