                         Program Version 5.0.0 -  RELEASE  -
|  1> !DLPNO-CCSD(T) aug-cc-pVTZ aug-cc-pVTZ/C TightSCF TightPNO RIJCOSX def2/J
|  2> *xyz -1 1
|  3> C          3.38093        2.08304       -3.35013
|  4> C          2.49556        1.81615       -2.13636
|  5> C          1.87218        0.42790       -2.07750
|  6> H          2.61427       -0.36583       -2.19889
|  7> H          1.38995        0.27309       -1.11236
|  8> S          0.57902        0.14047       -3.29794
|  9> O          0.22886       -1.24687       -3.12787
| 10> O         -0.43927        1.11897       -3.01455
| 11> O          1.24788        0.40347       -4.59565
| 12> H          1.69700        2.56197       -2.14111
| 13> H          3.08079        1.98744       -1.22584
| 14> H          2.81820        1.91840       -4.24519
| 15> H          4.22171        1.42153       -3.33067
| 16> H          3.72372        3.09635       -3.32565
| 17> *
| 18>
| 19> %MaxCore 64000
| 20>
| 21> %pal nprocs 2
| 22> end
| 23>
| 24> %scf
| 25>   MaxIter 150
| 26> end
| 27>
| 28>
| 29>                          ****END OF INPUT****

CARTESIAN COORDINATES (ANGSTROEM)
---------------------------------
  C      3.380930    2.083040   -3.350130
  C      2.495560    1.816150   -2.136360
  C      1.872180    0.427900   -2.077500
  H      2.614270   -0.365830   -2.198890
  H      1.389950    0.273090   -1.112360
  S      0.579020    0.140470   -3.297940
  O      0.228860   -1.246870   -3.127870
  O     -0.439270    1.118970   -3.014550
  O      1.247880    0.403470   -4.595650
  H      1.697000    2.561970   -2.141110
  H      3.080790    1.987440   -1.225840
  H      2.818200    1.918400   -4.245190
  H      4.221710    1.421530   -3.330670
  H      3.723720    3.096350   -3.325650

 Total Charge           Charge          ....   -1
 Multiplicity           Mult            ....    1
 Number of Electrons    NEL             ....   66
 Basis Dimension        Dim             ....  487

ORBITAL ENERGIES
----------------

  NO   OCC          E(Eh)            E(eV)
   0   2.0000     -91.984775     -2503.0330
   1   2.0000     -20.336675      -553.3891
   2   2.0000     -20.336521      -553.3849
   3   2.0000     -20.321373      -552.9727
   4   2.0000     -11.092025      -301.8293
   5   2.0000     -11.090320      -301.7829
   6   2.0000     -11.068527      -301.1899
   7   2.0000      -8.948239      -243.4940
   8   2.0000      -6.634380      -180.5307
   9   2.0000      -6.633199      -180.4985
  10   2.0000      -6.633061      -180.4948
  11   2.0000      -1.278697       -34.7951
  12   2.0000      -1.138202       -30.9720
  13   2.0000      -1.110591       -30.2207
  14   2.0000      -0.931491       -25.3472
  15   2.0000      -0.817707       -22.2509
  16   2.0000      -0.690919       -18.8008
  17   2.0000      -0.597236       -16.2516
  18   2.0000      -0.515467       -14.0266
  19   2.0000      -0.487003       -13.2520
  20   2.0000      -0.469736       -12.7822
  21   2.0000      -0.451805       -12.2942
  22   2.0000      -0.450096       -12.2477
  23   2.0000      -0.422258       -11.4902
  24   2.0000      -0.370644       -10.0857
  25   2.0000      -0.357061        -9.7161
  26   2.0000      -0.344807        -9.3827
  27   2.0000      -0.327711        -8.9175
  28   2.0000      -0.324660        -8.8345
  29   2.0000      -0.285039        -7.7563
  30   2.0000      -0.270167        -7.3516
  31   2.0000      -0.244722        -6.6592
  32   2.0000      -0.234177        -6.3723
  33   0.0000       0.110400         3.0041
  34   0.0000       0.120377         3.2756
  35   0.0000       0.126937         3.4541
  36   0.0000       0.141797         3.8585
  37   0.0000       0.147878         4.0240

MULLIKEN ATOMIC CHARGES
-----------------------
   0 C :   -1.024072
   1 C :   -0.463345
   2 C :   -0.546654
   3 H :    0.255655
   4 H :    0.238303
   5 S :    2.193082
   6 O :   -1.037430
   7 O :   -1.050930
   8 O :   -1.055853
   9 H :    0.288057
  10 H :    0.250677
  11 H :    0.423440
  12 H :    0.262922
  13 H :    0.266147
Sum of atomic charges:   -1.0000000

LOEWDIN ATOMIC CHARGES
----------------------
   0 C :    0.562638
   1 C :    0.201338
   2 C :    0.133781
   3 H :   -0.198758
   4 H :   -0.211299
   5 S :   -0.382587
   6 O :   -0.047527
   7 O :   -0.038193
   8 O :   -0.024092
   9 H :   -0.172753
  10 H :   -0.163376
  11 H :   -0.269858
  12 H :   -0.191479
  13 H :   -0.197834

  Mayer bond orders larger than 0.100000
B(  0-C ,  1-C ) :   0.7934 B(  0-C , 11-H ) :   0.8277 B(  0-C , 12-H ) :   0.9801
B(  0-C , 13-H ) :   0.9942 B(  1-C ,  2-C ) :   0.9088 B(  1-C ,  5-S ) :   0.1054
B(  1-C ,  9-H ) :   0.9431 B(  1-C , 10-H ) :   0.9621 B(  2-C ,  3-H ) :   0.9331
B(  2-C ,  4-H ) :   0.9650 B(  2-C ,  5-S ) :   0.7499 B(  5-S ,  6-O ) :   1.3509
B(  5-S ,  7-O ) :   1.3826 B(  5-S ,  8-O ) :   1.3172

E(0)                                       ...   -739.970991516
E(0)                                       ...   -739.970991516
E(CORR)(strong-pairs)                      ...     -1.490307268
E(CORR)(weak-pairs)                        ...     -0.001581656
E(CORR)(corrected)                         ...     -1.491888923
E(TOT)                                     ...   -741.462880439
E(CCSD(T))                                 ...   -741.526209128
FINAL SINGLE POINT ENERGY      -741.526209128258

DIPOLE MOMENT
-------------
                                X             Y             Z
Electronic contribution:     -8.72150      -5.51520      -2.80718
Nuclear contribution   :     10.42821       6.37804       4.08250
                        -----------------------------------------
Total Dipole Moment    :      1.70671       0.86284       1.27532
                        -----------------------------------------
Magnitude (a.u.)       :      2.29865
Magnitude (Debye)      :      5.84272

Rotational constants in cm-1:     0.136992     0.054831     0.052480
Rotational constants in MHz :  4106.928256  1643.799656  1573.299166

                             ****ORCA TERMINATED NORMALLY****
TOTAL RUN TIME: 0 days 1 hours 36 minutes 7 seconds 700 msec
