                         Program Version 5.0.0 -  RELEASE  -
|  1> !DLPNO-CCSD(T) aug-cc-pVTZ aug-cc-pVTZ/C TightSCF TightPNO RIJCOSX def2/J
|  2> *xyz 1 1
|  3> C          3.38093        2.08304       -3.35013
|  4> N          4.53592        1.18245       -3.42852
|  5> C          2.49556        1.81615       -2.13636
|  6> C          1.87218        0.42790       -2.07750
|  7> C          4.67196        0.12227       -4.22060
|  8> N          5.86602       -0.50785       -4.22428
|  9> N          3.69888       -0.31284       -4.98699
| 10> H          2.73141       -0.05009       -4.84900
| 11> H          3.89005       -1.05517       -5.64373
| 12> H          5.25193        1.30346       -2.72101
| 13> H          6.69516       -0.06232       -3.85160
| 14> H          5.97538       -1.39688       -4.69141
| 15> H          1.69700        2.56197       -2.14111
| 16> H          3.08079        1.98744       -1.22584
| 17> H          2.80646        1.98651       -4.26848
| 18> H          3.77871        3.09828       -3.30738
| 19> H          1.29954        0.25615       -2.96490
| 20> H          1.23321        0.35984       -1.22194
| 21> H          2.64581       -0.30765       -2.00430
| 22> *
| 23>
| 24> %MaxCore 64000
| 25>
| 26> %pal nprocs 2
| 27> end
| 28>
| 29> %scf
| 30>   MaxIter 150
| 31> end
| 32>
| 33>
| 34>                          ****END OF INPUT****

CARTESIAN COORDINATES (ANGSTROEM)
---------------------------------
  C      3.380930    2.083040   -3.350130
  N      4.535920    1.182450   -3.428520
  C      2.495560    1.816150   -2.136360
  C      1.872180    0.427900   -2.077500
  C      4.671960    0.122270   -4.220600
  N      5.866020   -0.507850   -4.224280
  N      3.698880   -0.312840   -4.986990
  H      2.731410   -0.050090   -4.849000
  H      3.890050   -1.055170   -5.643730
  H      5.251930    1.303460   -2.721010
  H      6.695160   -0.062320   -3.851600
  H      5.975380   -1.396880   -4.691410
  H      1.697000    2.561970   -2.141110
  H      3.080790    1.987440   -1.225840
  H      2.806460    1.986510   -4.268480
  H      3.778710    3.098280   -3.307380
  H      1.299540    0.256150   -2.964900
  H      1.233210    0.359840   -1.221940
  H      2.645810   -0.307650   -2.004300

 Total Charge           Charge          ....    1
 Multiplicity           Mult            ....    1
 Number of Electrons    NEL             ....   56
 Basis Dimension        Dim             ....  598

ORBITAL ENERGIES
----------------

  NO   OCC          E(Eh)            E(eV)
   0   2.0000     -15.786221      -429.5649
   1   2.0000     -15.778594      -429.3574
   2   2.0000     -15.777804      -429.3359
   3   2.0000     -11.586368      -315.2811
   4   2.0000     -11.427164      -310.9489
   5   2.0000     -11.362353      -309.1854
   6   2.0000     -11.341255      -308.6112
   7   2.0000      -1.535931       -41.7948
   8   2.0000      -1.400899       -38.1204
   9   2.0000      -1.383220       -37.6393
  10   2.0000      -1.207591       -32.8602
  11   2.0000      -1.107251       -30.1298
  12   2.0000      -1.040247       -28.3066
  13   2.0000      -0.977142       -26.5894
  14   2.0000      -0.965095       -26.2616
  15   2.0000      -0.921999       -25.0889
  16   2.0000      -0.865860       -23.5612
  17   2.0000      -0.859652       -23.3923
  18   2.0000      -0.806753       -21.9529
  19   2.0000      -0.793455       -21.5910
  20   2.0000      -0.761517       -20.7219
  21   2.0000      -0.735499       -20.0140
  22   2.0000      -0.707899       -19.2629
  23   2.0000      -0.658271       -17.9125
  24   2.0000      -0.631649       -17.1880
  25   2.0000      -0.624647       -16.9975
  26   2.0000      -0.618639       -16.8340
  27   2.0000      -0.573783       -15.6134
  28   0.0000      -0.090522        -2.4632
  29   0.0000      -0.073472        -1.9993
  30   0.0000      -0.064631        -1.7587
  31   0.0000      -0.058905        -1.6029
  32   0.0000      -0.046940        -1.2773

MULLIKEN ATOMIC CHARGES
-----------------------
   0 C :   -0.362421
   1 N :   -0.043931
   2 C :   -0.435815
   3 C :   -0.919636
   4 C :    0.543229
   5 N :   -0.448391
   6 N :   -0.237378
   7 H :    0.279303
   8 H :    0.131342
   9 H :    0.072681
  10 H :    0.154125
  11 H :    0.160559
  12 H :    0.315179
  13 H :    0.251210
  14 H :    0.285718
  15 H :    0.390213
  16 H :    0.249207
  17 H :    0.313862
  18 H :    0.300944
Sum of atomic charges:    1.0000000

LOEWDIN ATOMIC CHARGES
----------------------
   0 C :    0.254634
   1 N :    0.621184
   2 C :    0.297685
   3 C :    0.611728
   4 C :   -0.369457
   5 N :    0.934533
   6 N :    0.939352
   7 H :   -0.261116
   8 H :   -0.233842
   9 H :   -0.233631
  10 H :   -0.242648
  11 H :   -0.249362
  12 H :   -0.134199
  13 H :   -0.134840
  14 H :   -0.151196
  15 H :   -0.120853
  16 H :   -0.182811
  17 H :   -0.161237
  18 H :   -0.183925

  Mayer bond orders larger than 0.100000
B(  0-C ,  1-N ) :   0.9084 B(  0-C ,  2-C ) :   0.9025 B(  0-C ,  4-C ) :  -0.1212
B(  0-C , 14-H ) :   0.9796 B(  0-C , 15-H ) :   0.8496 B(  1-N ,  4-C ) :   1.0247
B(  1-N ,  9-H ) :   1.0948 B(  2-C ,  3-C ) :   0.8060 B(  2-C , 12-H ) :   0.8971
B(  2-C , 13-H ) :   0.9538 B(  3-C , 16-H ) :   0.9687 B(  3-C , 17-H ) :   0.9578
B(  3-C , 18-H ) :   0.9390 B(  4-C ,  5-N ) :   1.0063 B(  4-C ,  6-N ) :   0.9672
B(  4-C ,  7-H ) :  -0.1265 B(  5-N ,  6-N ) :  -0.1089 B(  5-N , 10-H ) :   1.0782
B(  5-N , 11-H ) :   1.0710 B(  6-N ,  7-H ) :   0.9427 B(  6-N ,  8-H ) :   1.0700

E(0)                                       ...   -321.756530671
E(0)                                       ...   -321.756530671
E(CORR)(strong-pairs)                      ...     -1.370321615
E(CORR)(weak-pairs)                        ...     -0.001614765
E(CORR)(corrected)                         ...     -1.371936380
E(TOT)                                     ...   -323.128467052
E(CCSD(T))                                 ...   -323.183540257
FINAL SINGLE POINT ENERGY      -323.183540256797

DIPOLE MOMENT
-------------
                                X             Y             Z
Electronic contribution:      5.31668      -1.49027      -3.81604
Nuclear contribution   :     -4.20917       0.72396       2.93051
                        -----------------------------------------
Total Dipole Moment    :      1.10751      -0.76631      -0.88552
                        -----------------------------------------
Magnitude (a.u.)       :      1.61182
Magnitude (Debye)      :      4.09691

Rotational constants in cm-1:     0.153116     0.051500     0.046494
Rotational constants in MHz :  4590.307026  1543.937577  1393.864628

                             ****ORCA TERMINATED NORMALLY****
TOTAL RUN TIME: 0 days 2 hours 27 minutes 22 seconds 14 msec
