                         Program Version 5.0.0 -  RELEASE  -
|  1> !DLPNO-CCSD(T) aug-cc-pVTZ aug-cc-pVTZ/C TightSCF TightPNO RIJCOSX def2/J
|  2> *xyz 0 1
|  3> C          3.38093        2.08304       -3.35013
|  4> C          2.49556        1.81615       -2.13636
|  5> C          1.87218        0.42790       -2.07750
|  6> H          2.61427       -0.36583       -2.19889
|  7> H          1.38995        0.27309       -1.11236
|  8> S          0.57902        0.14047       -3.29794
|  9> F          0.22886       -1.24687       -3.12787
| 10> O         -0.43927        1.11897       -3.01455
| 11> O          1.24788        0.40347       -4.59565
| 12> H          1.69700        2.56197       -2.14111
| 13> H          3.08079        1.98744       -1.22584
| 14> H          2.81820        1.91840       -4.24519
| 15> H          4.22171        1.42153       -3.33067
| 16> H          3.72372        3.09635       -3.32565
| 17> *
| 18>
| 19> %MaxCore 64000
| 20>
| 21> %pal nprocs 2
| 22> end
| 23>
| 24> %scf
| 25>   MaxIter 150
| 26> end
| 27>
| 28>
| 29>                          ****END OF INPUT****

CARTESIAN COORDINATES (ANGSTROEM)
---------------------------------
  C      3.380930    2.083040   -3.350130
  C      2.495560    1.816150   -2.136360
  C      1.872180    0.427900   -2.077500
  H      2.614270   -0.365830   -2.198890
  H      1.389950    0.273090   -1.112360
  S      0.579020    0.140470   -3.297940
  F      0.228860   -1.246870   -3.127870
  O     -0.439270    1.118970   -3.014550
  O      1.247880    0.403470   -4.595650
  H      1.697000    2.561970   -2.141110
  H      3.080790    1.987440   -1.225840
  H      2.818200    1.918400   -4.245190
  H      4.221710    1.421530   -3.330670
  H      3.723720    3.096350   -3.325650

 Total Charge           Charge          ....    0
 Multiplicity           Mult            ....    1
 Number of Electrons    NEL             ....   66
 Basis Dimension        Dim             ....  487

ORBITAL ENERGIES
----------------

  NO   OCC          E(Eh)            E(eV)
   0   2.0000     -92.251200     -2510.2828
   1   2.0000     -26.436299      -719.3683
   2   2.0000     -20.571180      -559.7703
   3   2.0000     -20.555030      -559.3308
   4   2.0000     -11.291488      -307.2570
   5   2.0000     -11.250414      -306.1393
   6   2.0000     -11.207383      -304.9684
   7   2.0000      -9.214804      -250.7476
   8   2.0000      -6.902299      -187.8211
   9   2.0000      -6.898382      -187.7145
  10   2.0000      -6.897655      -187.6947
  11   2.0000      -1.805125       -49.1200
  12   2.0000      -1.455760       -39.6132
  13   2.0000      -1.342768       -36.5386
  14   2.0000      -1.107098       -30.1257
  15   2.0000      -1.016576       -27.6624
  16   2.0000      -0.953815       -25.9546
  17   2.0000      -0.861803       -23.4509
  18   2.0000      -0.833119       -22.6703
  19   2.0000      -0.810376       -22.0515
  20   2.0000      -0.765700       -20.8358
  21   2.0000      -0.677544       -18.4369
  22   2.0000      -0.661275       -17.9942
  23   2.0000      -0.626010       -17.0346
  24   2.0000      -0.615365       -16.7449
  25   2.0000      -0.592357       -16.1189
  26   2.0000      -0.558628       -15.2010
  27   2.0000      -0.526275       -14.3207
  28   2.0000      -0.515480       -14.0269
  29   2.0000      -0.500916       -13.6306
  30   2.0000      -0.497348       -13.5335
  31   2.0000      -0.475197       -12.9308
  32   2.0000      -0.462522       -12.5859
  33   0.0000       0.023763         0.6466
  34   0.0000       0.035943         0.9781
  35   0.0000       0.038535         1.0486
  36   0.0000       0.047110         1.2819
  37   0.0000       0.057351         1.5606

MULLIKEN ATOMIC CHARGES
-----------------------
   0 C :   -1.006356
   1 C :   -0.440145
   2 C :   -0.517878
   3 H :    0.296369
   4 H :    0.282275
   5 S :    2.129502
   6 F :   -0.497743
   7 O :   -0.896404
   8 O :   -0.907891
   9 H :    0.300358
  10 H :    0.280213
  11 H :    0.412903
  12 H :    0.274290
  13 H :    0.290506
Sum of atomic charges:   -0.0000000

LOEWDIN ATOMIC CHARGES
----------------------
   0 C :    0.588165
   1 C :    0.236882
   2 C :    0.185980
   3 H :   -0.183799
   4 H :   -0.196822
   5 S :   -0.093670
   6 F :    0.291406
   7 O :    0.041959
   8 O :    0.050204
   9 H :   -0.161545
  10 H :   -0.139981
  11 H :   -0.259484
  12 H :   -0.181015
  13 H :   -0.178280

  Mayer bond orders larger than 0.100000
B(  0-C ,  1-C ) :   0.8072 B(  0-C , 11-H ) :   0.8469 B(  0-C , 12-H ) :   0.9651
B(  0-C , 13-H ) :   0.9756 B(  1-C ,  2-C ) :   0.9164 B(  1-C ,  9-H ) :   0.9328
B(  1-C , 10-H ) :   0.9353 B(  2-C ,  3-H ) :   0.8943 B(  2-C ,  4-H ) :   0.9260
B(  2-C ,  5-S ) :   0.8448 B(  5-S ,  6-F ) :   0.5335 B(  5-S ,  7-O ) :   1.5764
B(  5-S ,  8-O ) :   1.5449 B(  7-O ,  8-O ) :   0.1039

E(0)                                       ...   -764.465236136
E(0)                                       ...   -764.465236136
E(CORR)(strong-pairs)                      ...     -1.495403959
E(CORR)(weak-pairs)                        ...     -0.001611779
E(CORR)(corrected)                         ...     -1.497015739
E(TOT)                                     ...   -765.962251875
E(CCSD(T))                                 ...   -766.023175000
FINAL SINGLE POINT ENERGY      -766.023175000337

DIPOLE MOMENT
-------------
                                X             Y             Z
Electronic contribution:    -10.63615      -8.99134      -2.73653
Nuclear contribution   :     11.47400       8.34657       4.07449
                        -----------------------------------------
Total Dipole Moment    :      0.83785      -0.64477       1.33796
                        -----------------------------------------
Magnitude (a.u.)       :      1.70524
Magnitude (Debye)      :      4.33438

Rotational constants in cm-1:     0.134491     0.052696     0.050832
Rotational constants in MHz :  4031.952949  1579.780527  1523.918863

                             ****ORCA TERMINATED NORMALLY****
TOTAL RUN TIME: 0 days 1 hours 31 minutes 54 seconds 234 msec
