                         Program Version 5.0.0 -  RELEASE  -
|  1> !DLPNO-CCSD(T) aug-cc-pVTZ aug-cc-pVTZ/C TightSCF TightPNO RIJCOSX def2/J
|  2> *xyz 0 1
|  3> C          3.38093        2.08304       -3.35013
|  4> C          4.53592        1.18245       -3.42852
|  5> C          2.49556        1.81615       -2.13636
|  6> C          1.87218        0.42790       -2.07750
|  7> C          4.67196        0.12227       -4.22060
|  8> N          5.86602       -0.50785       -4.22428
|  9> N          3.69888       -0.31284       -4.98699
| 10> H          2.73141       -0.05009       -4.84900
| 11> H          3.89005       -1.05517       -5.64373
| 12> H          5.25193        1.30346       -2.72101
| 13> H          6.69516       -0.06232       -3.85160
| 14> H          5.97538       -1.39688       -4.69141
| 15> H          1.69700        2.56197       -2.14111
| 16> H          3.08079        1.98744       -1.22584
| 17> H          2.80646        1.98651       -4.26848
| 18> H          3.77871        3.09828       -3.30738
| 19> H          1.29954        0.25615       -2.96490
| 20> H          1.23321        0.35984       -1.22194
| 21> H          2.64581       -0.30765       -2.00430
| 22> *
| 23>
| 24> %MaxCore 64000
| 25>
| 26> %pal nprocs 2
| 27> end
| 28>
| 29> %scf
| 30>   MaxIter 150
| 31> end
| 32>
| 33>
| 34>                          ****END OF INPUT****

CARTESIAN COORDINATES (ANGSTROEM)
---------------------------------
  C      3.380930    2.083040   -3.350130
  C      4.535920    1.182450   -3.428520
  C      2.495560    1.816150   -2.136360
  C      1.872180    0.427900   -2.077500
  C      4.671960    0.122270   -4.220600
  N      5.866020   -0.507850   -4.224280
  N      3.698880   -0.312840   -4.986990
  H      2.731410   -0.050090   -4.849000
  H      3.890050   -1.055170   -5.643730
  H      5.251930    1.303460   -2.721010
  H      6.695160   -0.062320   -3.851600
  H      5.975380   -1.396880   -4.691410
  H      1.697000    2.561970   -2.141110
  H      3.080790    1.987440   -1.225840
  H      2.806460    1.986510   -4.268480
  H      3.778710    3.098280   -3.307380
  H      1.299540    0.256150   -2.964900
  H      1.233210    0.359840   -1.221940
  H      2.645810   -0.307650   -2.004300

 Total Charge           Charge          ....    0
 Multiplicity           Mult            ....    1
 Number of Electrons    NEL             ....   56
 Basis Dimension        Dim             ....  598

ORBITAL ENERGIES
----------------

  NO   OCC          E(Eh)            E(eV)
   0   2.0000     -15.563827      -423.5133
   1   2.0000     -15.556956      -423.3263
   2   2.0000     -11.283097      -307.0287
   3   2.0000     -11.197545      -304.7007
   4   2.0000     -11.193244      -304.5837
   5   2.0000     -11.191090      -304.5251
   6   2.0000     -11.137694      -303.0720
   7   2.0000      -1.277958       -34.7750
   8   2.0000      -1.162744       -31.6399
   9   2.0000      -1.061222       -28.8773
  10   2.0000      -0.982492       -26.7350
  11   2.0000      -0.900331       -24.4993
  12   2.0000      -0.809420       -22.0254
  13   2.0000      -0.766652       -20.8617
  14   2.0000      -0.724535       -19.7156
  15   2.0000      -0.688724       -18.7411
  16   2.0000      -0.648414       -17.6443
  17   2.0000      -0.610422       -16.6104
  18   2.0000      -0.595110       -16.1938
  19   2.0000      -0.576868       -15.6974
  20   2.0000      -0.543035       -14.7767
  21   2.0000      -0.528814       -14.3898
  22   2.0000      -0.500021       -13.6063
  23   2.0000      -0.471116       -12.8197
  24   2.0000      -0.454091       -12.3564
  25   2.0000      -0.450276       -12.2526
  26   2.0000      -0.412505       -11.2248
  27   2.0000      -0.256070        -6.9680
  28   0.0000       0.023938         0.6514
  29   0.0000       0.034925         0.9504
  30   0.0000       0.038055         1.0355
  31   0.0000       0.042490         1.1562
  32   0.0000       0.051018         1.3883

MULLIKEN ATOMIC CHARGES
-----------------------
   0 C :   -0.147740
   1 C :   -0.174246
   2 C :   -0.438854
   3 C :   -0.957669
   4 C :    0.514918
   5 N :   -0.627383
   6 N :   -0.407173
   7 H :    0.195892
   8 H :    0.101659
   9 H :    0.025993
  10 H :    0.083844
  11 H :    0.095457
  12 H :    0.260889
  13 H :    0.208055
  14 H :    0.073996
  15 H :    0.340894
  16 H :    0.232845
  17 H :    0.302403
  18 H :    0.316220
Sum of atomic charges:   -0.0000000

LOEWDIN ATOMIC CHARGES
----------------------
   0 C :    0.231211
   1 C :    0.195254
   2 C :    0.264178
   3 C :    0.591423
   4 C :   -0.429728
   5 N :    0.851612
   6 N :    0.863160
   7 H :   -0.286169
   8 H :   -0.273908
   9 H :   -0.267559
  10 H :   -0.273583
  11 H :   -0.291716
  12 H :   -0.154983
  13 H :   -0.142488
  14 H :   -0.171738
  15 H :   -0.148444
  16 H :   -0.188050
  17 H :   -0.181451
  18 H :   -0.187022

  Mayer bond orders larger than 0.100000
B(  0-C ,  1-C ) :   0.5852 B(  0-C ,  2-C ) :   0.8493 B(  0-C ,  4-C ) :   0.1148
B(  0-C , 14-H ) :   1.0161 B(  0-C , 15-H ) :   0.9839 B(  1-C ,  2-C ) :   0.1085
B(  1-C ,  4-C ) :   1.1494 B(  1-C ,  5-N ) :  -0.2723 B(  1-C ,  6-N ) :  -0.1757
B(  1-C ,  9-H ) :   1.2230 B(  1-C , 15-H ) :  -0.1436 B(  2-C ,  3-C ) :   0.7692
B(  2-C , 12-H ) :   0.9588 B(  2-C , 13-H ) :   0.9891 B(  3-C , 16-H ) :   0.9866
B(  3-C , 17-H ) :   0.9599 B(  3-C , 18-H ) :   0.9353 B(  4-C ,  5-N ) :   0.8402
B(  4-C ,  6-N ) :   0.8050 B(  4-C ,  9-H ) :   0.1576 B(  4-C , 11-H ) :  -0.1340
B(  4-C , 14-H ) :   0.1481 B(  5-N ,  6-N ) :  -0.1668 B(  5-N , 10-H ) :   1.1533
B(  5-N , 11-H ) :   1.1213 B(  6-N ,  7-H ) :   1.0414 B(  6-N ,  8-H ) :   1.0915

E(0)                                       ...   -305.300909272
E(0)                                       ...   -305.300909272
E(CORR)(strong-pairs)                      ...     -1.354068251
E(CORR)(weak-pairs)                        ...     -0.001604854
E(CORR)(corrected)                         ...     -1.355673104
E(TOT)                                     ...   -306.656582377
E(CCSD(T))                                 ...   -306.712149836
FINAL SINGLE POINT ENERGY      -306.712149836138

DIPOLE MOMENT
-------------
                                X             Y             Z
Electronic contribution:      4.21597      -1.68044      -3.48320
Nuclear contribution   :     -4.04774       0.83876       2.94666
                        -----------------------------------------
Total Dipole Moment    :      0.16823      -0.84168      -0.53654
                        -----------------------------------------
Magnitude (a.u.)       :      1.01222
Magnitude (Debye)      :      2.57287

Rotational constants in cm-1:     0.155283     0.051523     0.046710
Rotational constants in MHz :  4655.262593  1544.606434  1400.328421

                             ****ORCA TERMINATED NORMALLY****
TOTAL RUN TIME: 0 days 2 hours 28 minutes 23 seconds 445 msec
