                         Program Version 5.0.0 -  RELEASE  -
|  1> !DLPNO-CCSD(T) aug-cc-pVTZ aug-cc-pVTZ/C TightSCF TightPNO RIJCOSX def2/J
|  2> *xyz 0 1
|  3> C          3.38093        2.08304       -3.35013
|  4> C          2.49556        1.81615       -2.13636
|  5> C          1.87218        0.42790       -2.07750
|  6> H          2.61427       -0.36583       -2.19889
|  7> H          1.38995        0.27309       -1.11236
|  8> S          0.57902        0.14047       -3.29794
|  9> O          0.22886       -1.24687       -3.12787
| 10> F         -0.43927        1.11897       -3.01455
| 11> O          1.24788        0.40347       -4.59565
| 12> H          1.69700        2.56197       -2.14111
| 13> H          3.08079        1.98744       -1.22584
| 14> H          2.81820        1.91840       -4.24519
| 15> H          4.22171        1.42153       -3.33067
| 16> H          3.72372        3.09635       -3.32565
| 17> *
| 18>
| 19> %MaxCore 64000
| 20>
| 21> %pal nprocs 2
| 22> end
| 23>
| 24> %scf
| 25>   MaxIter 150
| 26> end
| 27>
| 28>
| 29>                          ****END OF INPUT****

CARTESIAN COORDINATES (ANGSTROEM)
---------------------------------
  C      3.380930    2.083040   -3.350130
  C      2.495560    1.816150   -2.136360
  C      1.872180    0.427900   -2.077500
  H      2.614270   -0.365830   -2.198890
  H      1.389950    0.273090   -1.112360
  S      0.579020    0.140470   -3.297940
  O      0.228860   -1.246870   -3.127870
  F     -0.439270    1.118970   -3.014550
  O      1.247880    0.403470   -4.595650
  H      1.697000    2.561970   -2.141110
  H      3.080790    1.987440   -1.225840
  H      2.818200    1.918400   -4.245190
  H      4.221710    1.421530   -3.330670
  H      3.723720    3.096350   -3.325650

 Total Charge           Charge          ....    0
 Multiplicity           Mult            ....    1
 Number of Electrons    NEL             ....   66
 Basis Dimension        Dim             ....  487

ORBITAL ENERGIES
----------------

  NO   OCC          E(Eh)            E(eV)
   0   2.0000     -92.251351     -2510.2869
   1   2.0000     -26.436264      -719.3673
   2   2.0000     -20.571312      -559.7739
   3   2.0000     -20.555253      -559.3369
   4   2.0000     -11.291359      -307.2535
   5   2.0000     -11.254668      -306.2551
   6   2.0000     -11.211448      -305.0790
   7   2.0000      -9.214896      -250.7501
   8   2.0000      -6.902491      -187.8263
   9   2.0000      -6.898444      -187.7162
  10   2.0000      -6.897663      -187.6950
  11   2.0000      -1.805695       -49.1355
  12   2.0000      -1.454772       -39.5864
  13   2.0000      -1.343725       -36.5646
  14   2.0000      -1.111385       -30.2423
  15   2.0000      -1.014142       -27.5962
  16   2.0000      -0.957135       -26.0450
  17   2.0000      -0.860281       -23.4094
  18   2.0000      -0.834698       -22.7133
  19   2.0000      -0.825450       -22.4616
  20   2.0000      -0.756959       -20.5979
  21   2.0000      -0.675077       -18.3698
  22   2.0000      -0.660455       -17.9719
  23   2.0000      -0.629951       -17.1418
  24   2.0000      -0.621152       -16.9024
  25   2.0000      -0.595239       -16.1973
  26   2.0000      -0.558966       -15.2102
  27   2.0000      -0.532597       -14.4927
  28   2.0000      -0.520975       -14.1765
  29   2.0000      -0.504257       -13.7215
  30   2.0000      -0.497884       -13.5481
  31   2.0000      -0.477256       -12.9868
  32   2.0000      -0.459776       -12.5111
  33   0.0000       0.023224         0.6320
  34   0.0000       0.035315         0.9610
  35   0.0000       0.036559         0.9948
  36   0.0000       0.045352         1.2341
  37   0.0000       0.056534         1.5384

MULLIKEN ATOMIC CHARGES
-----------------------
   0 C :   -0.993575
   1 C :   -0.495408
   2 C :   -0.472815
   3 H :    0.312884
   4 H :    0.273977
   5 S :    2.141164
   6 O :   -0.893057
   7 F :   -0.511263
   8 O :   -0.899802
   9 H :    0.268696
  10 H :    0.282392
  11 H :    0.414237
  12 H :    0.281869
  13 H :    0.290701
Sum of atomic charges:   -0.0000000

LOEWDIN ATOMIC CHARGES
----------------------
   0 C :    0.586903
   1 C :    0.225787
   2 C :    0.187837
   3 H :   -0.166658
   4 H :   -0.195780
   5 S :   -0.095427
   6 O :    0.034980
   7 F :    0.296204
   8 O :    0.053855
   9 H :   -0.164031
  10 H :   -0.142039
  11 H :   -0.263508
  12 H :   -0.178573
  13 H :   -0.179549

  Mayer bond orders larger than 0.100000
B(  0-C ,  1-C ) :   0.8165 B(  0-C , 11-H ) :   0.8492 B(  0-C , 12-H ) :   0.9630
B(  0-C , 13-H ) :   0.9754 B(  1-C ,  2-C ) :   0.9072 B(  1-C ,  9-H ) :   0.9462
B(  1-C , 10-H ) :   0.9463 B(  2-C ,  3-H ) :   0.8952 B(  2-C ,  4-H ) :   0.9349
B(  2-C ,  5-S ) :   0.8610 B(  5-S ,  6-O ) :   1.5401 B(  5-S ,  7-F ) :   0.5643
B(  5-S ,  8-O ) :   1.5311

E(0)                                       ...   -764.465097845
E(0)                                       ...   -764.465097845
E(CORR)(strong-pairs)                      ...     -1.495230602
E(CORR)(weak-pairs)                        ...     -0.001578524
E(CORR)(corrected)                         ...     -1.496809126
E(TOT)                                     ...   -765.961906971
E(CCSD(T))                                 ...   -766.022770324
FINAL SINGLE POINT ENERGY      -766.022770324157

DIPOLE MOMENT
-------------
                                X             Y             Z
Electronic contribution:    -11.80465      -4.74312      -2.52956
Nuclear contribution   :     12.19253       5.80225       3.95262
                        -----------------------------------------
Total Dipole Moment    :      0.38788       1.05913       1.42306
                        -----------------------------------------
Magnitude (a.u.)       :      1.81585
Magnitude (Debye)      :      4.61553

Rotational constants in cm-1:     0.130581     0.053444     0.051914
Rotational constants in MHz :  3914.711139  1602.211061  1556.338643

                             ****ORCA TERMINATED NORMALLY****
TOTAL RUN TIME: 0 days 1 hours 31 minutes 1 seconds 833 msec
