                         Program Version 5.0.0 -  RELEASE  -
|  1> !DLPNO-CCSD(T) aug-cc-pVTZ aug-cc-pVTZ/C TightSCF TightPNO RIJCOSX def2/J
|  2> *xyz 0 1
|  3> C          3.38093        2.08304       -3.35013
|  4> N          4.53592        1.18245       -3.42852
|  5> C          2.49556        1.81615       -2.13636
|  6> C          1.87218        0.42790       -2.07750
|  7> C          4.67196        0.12227       -4.22060
|  8> C          5.86602       -0.50785       -4.22428
|  9> N          3.69888       -0.31284       -4.98699
| 10> H          2.73141       -0.05009       -4.84900
| 11> H          3.89005       -1.05517       -5.64373
| 12> H          5.25193        1.30346       -2.72101
| 13> H          6.69516       -0.06232       -3.85160
| 14> H          5.97538       -1.39688       -4.69141
| 15> H          1.69700        2.56197       -2.14111
| 16> H          3.08079        1.98744       -1.22584
| 17> H          2.80646        1.98651       -4.26848
| 18> H          3.77871        3.09828       -3.30738
| 19> H          1.29954        0.25615       -2.96490
| 20> H          1.23321        0.35984       -1.22194
| 21> H          2.64581       -0.30765       -2.00430
| 22> *
| 23>
| 24> %MaxCore 64000
| 25>
| 26> %pal nprocs 2
| 27> end
| 28>
| 29> %scf
| 30>   MaxIter 150
| 31> end
| 32>
| 33>
| 34>                          ****END OF INPUT****

CARTESIAN COORDINATES (ANGSTROEM)
---------------------------------
  C      3.380930    2.083040   -3.350130
  N      4.535920    1.182450   -3.428520
  C      2.495560    1.816150   -2.136360
  C      1.872180    0.427900   -2.077500
  C      4.671960    0.122270   -4.220600
  C      5.866020   -0.507850   -4.224280
  N      3.698880   -0.312840   -4.986990
  H      2.731410   -0.050090   -4.849000
  H      3.890050   -1.055170   -5.643730
  H      5.251930    1.303460   -2.721010
  H      6.695160   -0.062320   -3.851600
  H      5.975380   -1.396880   -4.691410
  H      1.697000    2.561970   -2.141110
  H      3.080790    1.987440   -1.225840
  H      2.806460    1.986510   -4.268480
  H      3.778710    3.098280   -3.307380
  H      1.299540    0.256150   -2.964900
  H      1.233210    0.359840   -1.221940
  H      2.645810   -0.307650   -2.004300

 Total Charge           Charge          ....    0
 Multiplicity           Mult            ....    1
 Number of Electrons    NEL             ....   56
 Basis Dimension        Dim             ....  598

ORBITAL ENERGIES
----------------

  NO   OCC          E(Eh)            E(eV)
   0   2.0000     -15.564333      -423.5270
   1   2.0000     -15.557518      -423.3416
   2   2.0000     -11.290146      -307.2205
   3   2.0000     -11.265892      -306.5605
   4   2.0000     -11.226415      -305.4863
   5   2.0000     -11.211984      -305.0936
   6   2.0000     -11.124303      -302.7077
   7   2.0000      -1.287520       -35.0352
   8   2.0000      -1.185850       -32.2686
   9   2.0000      -1.063802       -28.9475
  10   2.0000      -0.978287       -26.6205
  11   2.0000      -0.915606       -24.9149
  12   2.0000      -0.815374       -22.1875
  13   2.0000      -0.804832       -21.9006
  14   2.0000      -0.728635       -19.8272
  15   2.0000      -0.674148       -18.3445
  16   2.0000      -0.642989       -17.4966
  17   2.0000      -0.629490       -17.1293
  18   2.0000      -0.617345       -16.7988
  19   2.0000      -0.560242       -15.2449
  20   2.0000      -0.557074       -15.1588
  21   2.0000      -0.546213       -14.8632
  22   2.0000      -0.526566       -14.3286
  23   2.0000      -0.497852       -13.5472
  24   2.0000      -0.490522       -13.3478
  25   2.0000      -0.486254       -13.2316
  26   2.0000      -0.394859       -10.7447
  27   2.0000      -0.255805        -6.9608
  28   0.0000       0.026204         0.7130
  29   0.0000       0.032736         0.8908
  30   0.0000       0.036784         1.0009
  31   0.0000       0.038018         1.0345
  32   0.0000       0.052026         1.4157

MULLIKEN ATOMIC CHARGES
-----------------------
   0 C :   -0.407338
   1 N :   -0.135686
   2 C :   -0.460847
   3 C :   -0.935636
   4 C :    0.688194
   5 C :   -1.381268
   6 N :   -0.456443
   7 H :    0.250982
   8 H :    0.008642
   9 H :   -0.003859
  10 H :    0.501046
  11 H :    0.273120
  12 H :    0.282744
  13 H :    0.235356
  14 H :    0.272510
  15 H :    0.397332
  16 H :    0.241481
  17 H :    0.305779
  18 H :    0.323891
Sum of atomic charges:    0.0000000

LOEWDIN ATOMIC CHARGES
----------------------
   0 C :    0.221187
   1 N :    0.568896
   2 C :    0.276699
   3 C :    0.599316
   4 C :   -0.465419
   5 C :    0.535305
   6 N :    0.860025
   7 H :   -0.298704
   8 H :   -0.262562
   9 H :   -0.255886
  10 H :   -0.314432
  11 H :   -0.322417
  12 H :   -0.151333
  13 H :   -0.143263
  14 H :   -0.162150
  15 H :   -0.140014
  16 H :   -0.187515
  17 H :   -0.177453
  18 H :   -0.180283

  Mayer bond orders larger than 0.100000
B(  0-C ,  1-N ) :   0.9578 B(  0-C ,  2-C ) :   0.8855 B(  0-C ,  4-C ) :  -0.1125
B(  0-C , 14-H ) :   0.9955 B(  0-C , 15-H ) :   0.8547 B(  1-N ,  4-C ) :   0.8655
B(  1-N ,  5-C ) :  -0.2479 B(  1-N ,  6-N ) :  -0.1478 B(  1-N ,  9-H ) :   1.1803
B(  2-C ,  3-C ) :   0.8004 B(  2-C , 12-H ) :   0.9257 B(  2-C , 13-H ) :   0.9552
B(  3-C , 16-H ) :   0.9758 B(  3-C , 17-H ) :   0.9615 B(  3-C , 18-H ) :   0.9189
B(  4-C ,  5-C ) :   1.0556 B(  4-C ,  6-N ) :   0.7867 B(  4-C ,  7-H ) :  -0.1896
B(  5-C ,  6-N ) :  -0.1669 B(  5-C , 10-H ) :   0.7680 B(  5-C , 11-H ) :   1.1445
B(  6-N ,  7-H ) :   0.9584 B(  6-N ,  8-H ) :   1.2161

E(0)                                       ...   -305.292903440
E(0)                                       ...   -305.292903440
E(CORR)(strong-pairs)                      ...     -1.350517416
E(CORR)(weak-pairs)                        ...     -0.001598148
E(CORR)(corrected)                         ...     -1.352115564
E(TOT)                                     ...   -306.645019004
E(CCSD(T))                                 ...   -306.700433036
FINAL SINGLE POINT ENERGY      -306.700433035849

DIPOLE MOMENT
-------------
                                X             Y             Z
Electronic contribution:      2.59169       0.06139      -2.60376
Nuclear contribution   :     -3.75638       0.46849       2.77235
                        -----------------------------------------
Total Dipole Moment    :     -1.16469       0.52988       0.16859
                        -----------------------------------------
Magnitude (a.u.)       :      1.29062
Magnitude (Debye)      :      3.28049

Rotational constants in cm-1:     0.154609     0.053528     0.048030
Rotational constants in MHz :  4635.053294  1604.739826  1439.897073

                             ****ORCA TERMINATED NORMALLY****
TOTAL RUN TIME: 0 days 2 hours 43 minutes 15 seconds 876 msec
