                         Program Version 5.0.0 -  RELEASE  -
|  1> !DLPNO-CCSD(T) aug-cc-pVTZ aug-cc-pVTZ/C TightSCF TightPNO RIJCOSX def2/J
|  2> *xyz 0 1
|  3> C          3.38093        2.08304       -3.35013
|  4> C          2.49556        1.81615       -2.13636
|  5> C          1.87218        0.42790       -2.07750
|  6> H          2.61427       -0.36583       -2.19889
|  7> H          1.38995        0.27309       -1.11236
|  8> S          0.57902        0.14047       -3.29794
|  9> O          0.22886       -1.24687       -3.12787
| 10> O         -0.43927        1.11897       -3.01455
| 11> F          1.24788        0.40347       -4.59565
| 12> H          1.69700        2.56197       -2.14111
| 13> H          3.08079        1.98744       -1.22584
| 14> H          2.81820        1.91840       -4.24519
| 15> H          4.22171        1.42153       -3.33067
| 16> H          3.72372        3.09635       -3.32565
| 17> *
| 18>
| 19> %MaxCore 64000
| 20>
| 21> %pal nprocs 8
| 22> end
| 23>
| 24> %scf
| 25>   MaxIter 150
| 26> end
| 27>
| 28>
| 29>                          ****END OF INPUT****

CARTESIAN COORDINATES (ANGSTROEM)
---------------------------------
  C      3.380930    2.083040   -3.350130
  C      2.495560    1.816150   -2.136360
  C      1.872180    0.427900   -2.077500
  H      2.614270   -0.365830   -2.198890
  H      1.389950    0.273090   -1.112360
  S      0.579020    0.140470   -3.297940
  O      0.228860   -1.246870   -3.127870
  O     -0.439270    1.118970   -3.014550
  F      1.247880    0.403470   -4.595650
  H      1.697000    2.561970   -2.141110
  H      3.080790    1.987440   -1.225840
  H      2.818200    1.918400   -4.245190
  H      4.221710    1.421530   -3.330670
  H      3.723720    3.096350   -3.325650

 Total Charge           Charge          ....    0
 Multiplicity           Mult            ....    1
 Number of Electrons    NEL             ....   66
 Basis Dimension        Dim             ....  487

ORBITAL ENERGIES
----------------

  NO   OCC          E(Eh)            E(eV)
   0   2.0000     -92.249032     -2510.2238
   1   2.0000     -26.411860      -718.7033
   2   2.0000     -20.570253      -559.7450
   3   2.0000     -20.570128      -559.7417
   4   2.0000     -11.290019      -307.2170
   5   2.0000     -11.254642      -306.2544
   6   2.0000     -11.227848      -305.5253
   7   2.0000      -9.212361      -250.6811
   8   2.0000      -6.900075      -187.7606
   9   2.0000      -6.896038      -187.6507
  10   2.0000      -6.895169      -187.6271
  11   2.0000      -1.766483       -48.0684
  12   2.0000      -1.466949       -39.9177
  13   2.0000      -1.365768       -37.1644
  14   2.0000      -1.113539       -30.3009
  15   2.0000      -1.011164       -27.5152
  16   2.0000      -0.942288       -25.6410
  17   2.0000      -0.863480       -23.4965
  18   2.0000      -0.807760       -21.9803
  19   2.0000      -0.800987       -21.7960
  20   2.0000      -0.757540       -20.6137
  21   2.0000      -0.679272       -18.4839
  22   2.0000      -0.650176       -17.6922
  23   2.0000      -0.649561       -17.6755
  24   2.0000      -0.631399       -17.1812
  25   2.0000      -0.599979       -16.3263
  26   2.0000      -0.569289       -15.4912
  27   2.0000      -0.542002       -14.7486
  28   2.0000      -0.519142       -14.1266
  29   2.0000      -0.511031       -13.9059
  30   2.0000      -0.505794       -13.7634
  31   2.0000      -0.491623       -13.3777
  32   2.0000      -0.475107       -12.9283
  33   0.0000       0.023980         0.6525
  34   0.0000       0.034325         0.9340
  35   0.0000       0.036351         0.9892
  36   0.0000       0.044830         1.2199
  37   0.0000       0.058380         1.5886

MULLIKEN ATOMIC CHARGES
-----------------------
   0 C :   -1.009351
   1 C :   -0.477960
   2 C :   -0.480041
   3 H :    0.284937
   4 H :    0.299034
   5 S :    2.165817
   6 O :   -0.893976
   7 O :   -0.902925
   8 F :   -0.528906
   9 H :    0.284051
  10 H :    0.287247
  11 H :    0.397759
  12 H :    0.277389
  13 H :    0.296924
Sum of atomic charges:   -0.0000000

LOEWDIN ATOMIC CHARGES
----------------------
   0 C :    0.589476
   1 C :    0.226689
   2 C :    0.188153
   3 H :   -0.182535
   4 H :   -0.179087
   5 S :   -0.104888
   6 O :    0.034745
   7 O :    0.042980
   8 F :    0.284689
   9 H :   -0.164843
  10 H :   -0.140482
  11 H :   -0.239203
  12 H :   -0.180595
  13 H :   -0.175100

  Mayer bond orders larger than 0.100000
B(  0-C ,  1-C ) :   0.8120 B(  0-C , 11-H ) :   0.8691 B(  0-C , 12-H ) :   0.9578
B(  0-C , 13-H ) :   0.9762 B(  1-C ,  2-C ) :   0.9273 B(  1-C ,  9-H ) :   0.9448
B(  1-C , 10-H ) :   0.9407 B(  2-C ,  3-H ) :   0.9125 B(  2-C ,  4-H ) :   0.9250
B(  2-C ,  5-S ) :   0.8265 B(  5-S ,  6-O ) :   1.5306 B(  5-S ,  7-O ) :   1.5788
B(  5-S ,  8-F ) :   0.5890

E(0)                                       ...   -764.484555208
E(0)                                       ...   -764.484555208
E(CORR)(strong-pairs)                      ...     -1.493919942
E(CORR)(weak-pairs)                        ...     -0.001549422
E(CORR)(corrected)                         ...     -1.495469364
E(TOT)                                     ...   -765.980024572
E(CCSD(T))                                 ...   -766.040536242
FINAL SINGLE POINT ENERGY      -766.040536241594

DIPOLE MOMENT
-------------
                                X             Y             Z
Electronic contribution:     -8.72795      -5.97646      -5.33122
Nuclear contribution   :     10.37810       6.57173       5.65300
                        -----------------------------------------
Total Dipole Moment    :      1.65015       0.59527       0.32178
                        -----------------------------------------
Magnitude (a.u.)       :      1.78351
Magnitude (Debye)      :      4.53332

Rotational constants in cm-1:     0.130522     0.054787     0.051463
Rotational constants in MHz :  3912.959799  1642.486768  1542.828917

                             ****ORCA TERMINATED NORMALLY****
TOTAL RUN TIME: 0 days 0 hours 23 minutes 12 seconds 901 msec
