                         Program Version 5.0.0 -  RELEASE  -
|  1> !DLPNO-CCSD(T) aug-cc-pVTZ aug-cc-pVTZ/C TightSCF TightPNO RIJCOSX def2/J
|  2> *xyz 0 1
|  3> C          3.38093        2.08304       -3.35013
|  4> N          4.53592        1.18245       -3.42852
|  5> C          2.49556        1.81615       -2.13636
|  6> C          1.87218        0.42790       -2.07750
|  7> C          4.67196        0.12227       -4.22060
|  8> N          5.86602       -0.50785       -4.22428
|  9> C          3.69888       -0.31284       -4.98699
| 10> H          2.73141       -0.05009       -4.84900
| 11> H          3.89005       -1.05517       -5.64373
| 12> H          5.25193        1.30346       -2.72101
| 13> H          6.69516       -0.06232       -3.85160
| 14> H          5.97538       -1.39688       -4.69141
| 15> H          1.69700        2.56197       -2.14111
| 16> H          3.08079        1.98744       -1.22584
| 17> H          2.80646        1.98651       -4.26848
| 18> H          3.77871        3.09828       -3.30738
| 19> H          1.29954        0.25615       -2.96490
| 20> H          1.23321        0.35984       -1.22194
| 21> H          2.64581       -0.30765       -2.00430
| 22> *
| 23>
| 24> %MaxCore 64000
| 25>
| 26> %pal nprocs 2
| 27> end
| 28>
| 29> %scf
| 30>   MaxIter 150
| 31> end
| 32>
| 33>
| 34>                          ****END OF INPUT****

CARTESIAN COORDINATES (ANGSTROEM)
---------------------------------
  C      3.380930    2.083040   -3.350130
  N      4.535920    1.182450   -3.428520
  C      2.495560    1.816150   -2.136360
  C      1.872180    0.427900   -2.077500
  C      4.671960    0.122270   -4.220600
  N      5.866020   -0.507850   -4.224280
  C      3.698880   -0.312840   -4.986990
  H      2.731410   -0.050090   -4.849000
  H      3.890050   -1.055170   -5.643730
  H      5.251930    1.303460   -2.721010
  H      6.695160   -0.062320   -3.851600
  H      5.975380   -1.396880   -4.691410
  H      1.697000    2.561970   -2.141110
  H      3.080790    1.987440   -1.225840
  H      2.806460    1.986510   -4.268480
  H      3.778710    3.098280   -3.307380
  H      1.299540    0.256150   -2.964900
  H      1.233210    0.359840   -1.221940
  H      2.645810   -0.307650   -2.004300

 Total Charge           Charge          ....    0
 Multiplicity           Mult            ....    1
 Number of Electrons    NEL             ....   56
 Basis Dimension        Dim             ....  598

ORBITAL ENERGIES
----------------

  NO   OCC          E(Eh)            E(eV)
   0   2.0000     -15.557721      -423.3471
   1   2.0000     -15.557575      -423.3431
   2   2.0000     -11.285022      -307.0811
   3   2.0000     -11.256741      -306.3115
   4   2.0000     -11.217805      -305.2520
   5   2.0000     -11.197988      -304.7127
   6   2.0000     -11.128701      -302.8273
   7   2.0000      -1.279055       -34.8048
   8   2.0000      -1.174651       -31.9639
   9   2.0000      -1.048364       -28.5274
  10   2.0000      -0.979441       -26.6520
  11   2.0000      -0.928672       -25.2704
  12   2.0000      -0.818240       -22.2654
  13   2.0000      -0.762942       -20.7607
  14   2.0000      -0.722715       -19.6661
  15   2.0000      -0.692038       -18.8313
  16   2.0000      -0.630884       -17.1672
  17   2.0000      -0.624218       -16.9858
  18   2.0000      -0.588036       -16.0013
  19   2.0000      -0.575733       -15.6665
  20   2.0000      -0.546627       -14.8745
  21   2.0000      -0.539815       -14.6891
  22   2.0000      -0.527464       -14.3530
  23   2.0000      -0.488822       -13.3015
  24   2.0000      -0.484014       -13.1707
  25   2.0000      -0.472263       -12.8509
  26   2.0000      -0.387329       -10.5398
  27   2.0000      -0.270787        -7.3685
  28   0.0000       0.025133         0.6839
  29   0.0000       0.034075         0.9272
  30   0.0000       0.038658         1.0519
  31   0.0000       0.040305         1.0968
  32   0.0000       0.051099         1.3905

MULLIKEN ATOMIC CHARGES
-----------------------
   0 C :   -0.458906
   1 N :   -0.115219
   2 C :   -0.467922
   3 C :   -0.925550
   4 C :    0.643204
   5 N :   -0.595745
   6 C :   -1.168485
   7 H :    0.522764
   8 H :    0.242798
   9 H :    0.065305
  10 H :    0.081197
  11 H :    0.067661
  12 H :    0.291375
  13 H :    0.226269
  14 H :    0.351742
  15 H :    0.354440
  16 H :    0.276673
  17 H :    0.301164
  18 H :    0.307236
Sum of atomic charges:    0.0000000

LOEWDIN ATOMIC CHARGES
----------------------
   0 C :    0.224023
   1 N :    0.566062
   2 C :    0.277369
   3 C :    0.596940
   4 C :   -0.455298
   5 N :    0.856494
   6 C :    0.532557
   7 H :   -0.316717
   8 H :   -0.303545
   9 H :   -0.264845
  10 H :   -0.284672
  11 H :   -0.278209
  12 H :   -0.150719
  13 H :   -0.146561
  14 H :   -0.164320
  15 H :   -0.140225
  16 H :   -0.184831
  17 H :   -0.180527
  18 H :   -0.182977

  Mayer bond orders larger than 0.100000
B(  0-C ,  1-N ) :   0.9984 B(  0-C ,  2-C ) :   0.8758 B(  0-C , 14-H ) :   0.9578
B(  0-C , 15-H ) :   0.8918 B(  1-N ,  4-C ) :   0.8829 B(  1-N ,  5-N ) :  -0.1548
B(  1-N ,  6-C ) :  -0.1993 B(  1-N ,  9-H ) :   1.1090 B(  2-C ,  3-C ) :   0.8022
B(  2-C , 12-H ) :   0.9137 B(  2-C , 13-H ) :   0.9701 B(  3-C , 16-H ) :   0.9664
B(  3-C , 17-H ) :   0.9503 B(  3-C , 18-H ) :   0.9561 B(  4-C ,  5-N ) :   0.7792
B(  4-C ,  6-C ) :   1.1804 B(  5-N ,  6-C ) :  -0.2517 B(  5-N , 10-H ) :   1.1541
B(  5-N , 11-H ) :   1.1669 B(  6-C ,  7-H ) :   0.7579 B(  6-C ,  8-H ) :   1.1074

E(0)                                       ...   -305.297915617
E(0)                                       ...   -305.297915617
E(CORR)(strong-pairs)                      ...     -1.350748711
E(CORR)(weak-pairs)                        ...     -0.001613380
E(CORR)(corrected)                         ...     -1.352362092
E(TOT)                                     ...   -306.650277709
E(CCSD(T))                                 ...   -306.705554617
FINAL SINGLE POINT ENERGY      -306.705554617422

DIPOLE MOMENT
-------------
                                X             Y             Z
Electronic contribution:      4.88047      -0.20531      -1.93349
Nuclear contribution   :     -4.23110       0.51121       2.60527
                        -----------------------------------------
Total Dipole Moment    :      0.64937       0.30590       0.67179
                        -----------------------------------------
Magnitude (a.u.)       :      0.98314
Magnitude (Debye)      :      2.49893

Rotational constants in cm-1:     0.158478     0.052124     0.047173
Rotational constants in MHz :  4751.056263  1562.646208  1414.197352

                             ****ORCA TERMINATED NORMALLY****
TOTAL RUN TIME: 0 days 2 hours 23 minutes 14 seconds 670 msec
