                         Program Version 5.0.0 -  RELEASE  -
|  1> !DLPNO-CCSD(T) aug-cc-pVTZ aug-cc-pVTZ/C TightSCF TightPNO RIJCOSX def2/J
|  2>
|  3> *xyzfile 0 1 D3.xyz
|  4>
|  5> %MaxCore 64000
|  6>
|  7> %pal nprocs 18
|  8> end
|  9>
| 10> %scf
| 11>   MaxIter 150
| 12> end
| 13>
| 14>
| 15>                          ****END OF INPUT****

CARTESIAN COORDINATES (ANGSTROEM)
---------------------------------
  C      3.380928    2.083045   -3.350127
  N      4.535924    1.182447   -3.428518
  C      2.495557    1.816150   -2.136364
  C      1.872181    0.427903   -2.077497
  H      2.614270   -0.365825   -2.198894
  H      1.389953    0.273087   -1.112360
  S      0.579024    0.140472   -3.297943
  C      4.671956    0.122273   -4.220598
  N      5.866023   -0.507849   -4.224284
  C      3.698881   -0.312844   -4.986988
  H      2.731405   -0.050091   -4.849000
  H      3.890046   -1.055172   -5.643730
  H      5.251933    1.303459   -2.721014
  H      6.695165   -0.062322   -3.851596
  H      5.975383   -1.396884   -4.691414
  F      0.228860   -1.246868   -3.127871
  O     -0.439269    1.118966   -3.014550
  O      1.247881    0.403474   -4.595647
  H      1.697003    2.561969   -2.141109
  H      3.080787    1.987436   -1.225838
  H      2.806463    1.986511   -4.268484
  H      3.778714    3.098282   -3.307383

 Total Charge           Charge          ....    0
 Multiplicity           Mult            ....    1
 Number of Electrons    NEL             ....   96
 Basis Dimension        Dim             ....  763

ORBITAL ENERGIES
----------------

  NO   OCC          E(Eh)            E(eV)
   0   2.0000     -92.252580     -2510.3203
   1   2.0000     -26.435879      -719.3568
   2   2.0000     -20.571603      -559.7818
   3   2.0000     -20.552356      -559.2580
   4   2.0000     -15.559598      -423.3982
   5   2.0000     -15.552567      -423.2069
   6   2.0000     -11.290460      -307.2290
   7   2.0000     -11.275228      -306.8146
   8   2.0000     -11.264613      -306.5257
   9   2.0000     -11.255983      -306.2909
  10   2.0000     -11.104286      -302.1630
  11   2.0000      -9.216119      -250.7833
  12   2.0000      -6.903580      -187.8560
  13   2.0000      -6.899717      -187.7508
  14   2.0000      -6.899009      -187.7316
  15   2.0000      -1.804580       -49.1051
  16   2.0000      -1.458438       -39.6861
  17   2.0000      -1.349373       -36.7183
  18   2.0000      -1.277629       -34.7660
  19   2.0000      -1.175198       -31.9788
  20   2.0000      -1.101194       -29.9650
  21   2.0000      -1.013638       -27.5825
  22   2.0000      -0.974346       -26.5133
  23   2.0000      -0.943537       -25.6750
  24   2.0000      -0.869934       -23.6721
  25   2.0000      -0.833010       -22.6673
  26   2.0000      -0.816117       -22.2077
  27   2.0000      -0.784478       -21.3467
  28   2.0000      -0.753899       -20.5146
  29   2.0000      -0.723505       -19.6876
  30   2.0000      -0.700077       -19.0501
  31   2.0000      -0.671334       -18.2679
  32   2.0000      -0.669492       -18.2178
  33   2.0000      -0.637342       -17.3429
  34   2.0000      -0.619158       -16.8482
  35   2.0000      -0.610407       -16.6100
  36   2.0000      -0.570559       -15.5257
  37   2.0000      -0.564951       -15.3731
  38   2.0000      -0.556558       -15.1447
  39   2.0000      -0.541304       -14.7296
  40   2.0000      -0.531583       -14.4651
  41   2.0000      -0.522904       -14.2289
  42   2.0000      -0.503922       -13.7124
  43   2.0000      -0.496229       -13.5031
  44   2.0000      -0.469543       -12.7769
  45   2.0000      -0.439222       -11.9518
  46   2.0000      -0.390413       -10.6237
  47   2.0000      -0.260789        -7.0964
  48   0.0000       0.019664         0.5351
  49   0.0000       0.030372         0.8265
  50   0.0000       0.032619         0.8876
  51   0.0000       0.041671         1.1339
  52   0.0000       0.049001         1.3334

MULLIKEN ATOMIC CHARGES
-----------------------
   0 C :   -0.442192
   1 N :   -0.178828
   2 C :   -0.498130
   3 C :   -0.494297
   4 H :    0.252480
   5 H :    0.312116
   6 S :    2.177118
   7 C :    0.574694
   8 N :   -0.668390
   9 C :   -1.167699
  10 H :    0.779926
  11 H :    0.222536
  12 H :    0.043037
  13 H :    0.071842
  14 H :    0.057196
  15 F :   -0.514049
  16 O :   -0.970407
  17 O :   -0.833486
  18 H :    0.338390
  19 H :    0.228661
  20 H :    0.315861
  21 H :    0.393621
Sum of atomic charges:   -0.0000000

LOEWDIN ATOMIC CHARGES
----------------------
   0 C :    0.224873
   1 N :    0.566096
   2 C :    0.276315
   3 C :    0.207582
   4 H :   -0.188904
   5 H :   -0.190407
   6 S :    0.014008
   7 C :   -0.448703
   8 N :    0.850841
   9 C :    0.530034
  10 H :   -0.674503
  11 H :   -0.287103
  12 H :   -0.268236
  13 H :   -0.289026
  14 H :   -0.280224
  15 F :    0.304755
  16 O :    0.049004
  17 O :    0.237391
  18 H :   -0.157374
  19 H :   -0.136481
  20 H :   -0.206395
  21 H :   -0.133543

  Mayer bond orders larger than 0.100000
B(  0-C ,  1-N ) :   1.0050 B(  0-C ,  2-C ) :   0.7871 B(  0-C ,  3-C ) :   0.1033
B(  0-C ,  7-C ) :  -0.1419 B(  0-C , 20-H ) :   1.0354 B(  0-C , 21-H ) :   0.8496
B(  1-N ,  7-C ) :   0.8927 B(  1-N ,  8-N ) :  -0.1729 B(  1-N ,  9-C ) :  -0.1824
B(  1-N , 12-H ) :   1.1537 B(  2-C ,  3-C ) :   0.8787 B(  2-C ,  6-S ) :   0.1242
B(  2-C , 18-H ) :   0.8953 B(  2-C , 19-H ) :   0.9785 B(  3-C ,  4-H ) :   0.9520
B(  3-C ,  5-H ) :   0.9036 B(  3-C ,  6-S ) :   0.8128 B(  6-S , 15-F ) :   0.3798
B(  6-S , 16-O ) :   1.4740 B(  6-S , 17-O ) :   1.6346 B(  7-C ,  8-N ) :   0.6736
B(  7-C ,  9-C ) :   1.2381 B(  7-C , 10-H ) :  -0.1416 B(  7-C , 12-H ) :  -0.1376
B(  7-C , 13-H ) :  -0.1050 B(  8-N ,  9-C ) :  -0.2415 B(  8-N , 13-H ) :   1.1831
B(  8-N , 14-H ) :   1.1736 B(  9-C , 10-H ) :   0.4339 B(  9-C , 11-H ) :   1.1585

E(0)                                       ...   -951.426966891
E(0)                                       ...   -951.426966891
E(CORR)(strong-pairs)                      ...     -2.262098932
E(CORR)(weak-pairs)                        ...     -0.003282362
E(CORR)(corrected)                         ...     -2.265381293
E(TOT)                                     ...   -953.692348184
E(CCSD(T))                                 ...   -953.788738170
FINAL SINGLE POINT ENERGY      -953.788738169860

DIPOLE MOMENT
-------------
                                X             Y             Z
Electronic contribution:    -14.64169      -5.53171       0.19824
Nuclear contribution   :     15.84345       5.19593       1.66752
                        -----------------------------------------
Total Dipole Moment    :      1.20176      -0.33577       1.86576
                        -----------------------------------------
Magnitude (a.u.)       :      2.24456
Magnitude (Debye)      :      5.70521

Rotational constants in cm-1:     0.059060     0.020573     0.017713
Rotational constants in MHz :  1770.576058   616.749938   531.036486

                             ****ORCA TERMINATED NORMALLY****
TOTAL RUN TIME: 0 days 1 hours 47 minutes 56 seconds 794 msec
