                         Program Version 5.0.0 -  RELEASE  -
|  1> !DLPNO-CCSD(T) aug-cc-pVTZ aug-cc-pVTZ/C TightSCF TightPNO RIJCOSX def2/J
|  2>
|  3> *xyzfile 0 1 D4.xyz
|  4>
|  5> %MaxCore 64000
|  6>
|  7> %pal nprocs 18
|  8> end
|  9>
| 10> %scf
| 11>   MaxIter 150
| 12> end
| 13>
| 14>
| 15>                          ****END OF INPUT****

CARTESIAN COORDINATES (ANGSTROEM)
---------------------------------
  C      3.380928    2.083045   -3.350127
  C      4.535924    1.182447   -3.428518
  C      2.495557    1.816150   -2.136364
  C      1.872181    0.427903   -2.077497
  H      2.614270   -0.365825   -2.198894
  H      1.389953    0.273087   -1.112360
  S      0.579024    0.140472   -3.297943
  C      4.671956    0.122273   -4.220598
  N      5.866023   -0.507849   -4.224284
  N      3.698881   -0.312844   -4.986988
  H      2.731405   -0.050091   -4.849000
  H      3.890046   -1.055172   -5.643730
  H      5.251933    1.303459   -2.721014
  H      6.695165   -0.062322   -3.851596
  H      5.975383   -1.396884   -4.691414
  O      0.228860   -1.246868   -3.127871
  F     -0.439269    1.118966   -3.014550
  O      1.247881    0.403474   -4.595647
  H      1.697003    2.561969   -2.141109
  H      3.080787    1.987436   -1.225838
  H      2.806463    1.986511   -4.268484
  H      3.778714    3.098282   -3.307383

 Total Charge           Charge          ....    0
 Multiplicity           Mult            ....    1
 Number of Electrons    NEL             ....   96
 Basis Dimension        Dim             ....  763

ORBITAL ENERGIES
----------------

  NO   OCC          E(Eh)            E(eV)
   0   2.0000     -92.260563     -2510.5376
   1   2.0000     -26.442341      -719.5327
   2   2.0000     -20.578763      -559.9766
   3   2.0000     -20.570176      -559.7429
   4   2.0000     -15.553683      -423.2372
   5   2.0000     -15.533976      -422.7010
   6   2.0000     -11.284875      -307.0771
   7   2.0000     -11.281002      -306.9717
   8   2.0000     -11.238618      -305.8183
   9   2.0000     -11.201208      -304.8004
  10   2.0000     -11.136323      -303.0347
  11   2.0000      -9.224268      -251.0051
  12   2.0000      -6.911740      -188.0780
  13   2.0000      -6.907783      -187.9703
  14   2.0000      -6.907121      -187.9523
  15   2.0000      -1.811512       -49.2938
  16   2.0000      -1.467699       -39.9381
  17   2.0000      -1.363018       -37.0896
  18   2.0000      -1.267716       -34.4963
  19   2.0000      -1.152621       -31.3644
  20   2.0000      -1.108459       -30.1627
  21   2.0000      -1.030947       -28.0535
  22   2.0000      -0.982005       -26.7217
  23   2.0000      -0.927826       -25.2474
  24   2.0000      -0.855888       -23.2899
  25   2.0000      -0.841644       -22.9023
  26   2.0000      -0.824786       -22.4436
  27   2.0000      -0.790069       -21.4989
  28   2.0000      -0.753075       -20.4922
  29   2.0000      -0.717740       -19.5307
  30   2.0000      -0.697987       -18.9932
  31   2.0000      -0.665322       -18.1043
  32   2.0000      -0.663797       -18.0628
  33   2.0000      -0.654103       -17.7991
  34   2.0000      -0.623939       -16.9783
  35   2.0000      -0.613779       -16.7018
  36   2.0000      -0.573001       -15.5922
  37   2.0000      -0.565972       -15.4009
  38   2.0000      -0.561686       -15.2843
  39   2.0000      -0.538199       -14.6452
  40   2.0000      -0.512911       -13.9570
  41   2.0000      -0.505076       -13.7438
  42   2.0000      -0.499272       -13.5859
  43   2.0000      -0.489816       -13.3286
  44   2.0000      -0.476072       -12.9546
  45   2.0000      -0.454012       -12.3543
  46   2.0000      -0.399393       -10.8680
  47   2.0000      -0.256877        -6.9900
  48   0.0000       0.025564         0.6956
  49   0.0000       0.030338         0.8255
  50   0.0000       0.037579         1.0226
  51   0.0000       0.039485         1.0744
  52   0.0000       0.050497         1.3741

MULLIKEN ATOMIC CHARGES
-----------------------
   0 C :   -0.136131
   1 C :   -0.170340
   2 C :   -0.558787
   3 C :   -0.466095
   4 H :    0.240959
   5 H :    0.358342
   6 S :    2.218130
   7 C :    0.567277
   8 N :   -0.698771
   9 N :   -0.495939
  10 H :    0.353735
  11 H :    0.099068
  12 H :   -0.096187
  13 H :    0.086661
  14 H :    0.089202
  15 O :   -0.946430
  16 F :   -0.530382
  17 O :   -0.843708
  18 H :    0.268420
  19 H :    0.208016
  20 H :    0.016667
  21 H :    0.436292
Sum of atomic charges:   -0.0000000

LOEWDIN ATOMIC CHARGES
----------------------
   0 C :    0.223073
   1 C :    0.194559
   2 C :    0.251566
   3 C :    0.206368
   4 H :   -0.173782
   5 H :   -0.188636
   6 S :    0.013115
   7 C :   -0.422365
   8 N :    0.854537
   9 N :    0.874211
  10 H :   -0.659646
  11 H :   -0.261767
  12 H :   -0.274364
  13 H :   -0.275732
  14 H :   -0.290250
  15 O :    0.050572
  16 F :    0.306963
  17 O :    0.237451
  18 H :   -0.164409
  19 H :   -0.134692
  20 H :   -0.221522
  21 H :   -0.145250

  Mayer bond orders larger than 0.100000
B(  0-C ,  1-C ) :   0.5449 B(  0-C ,  2-C ) :   0.7940 B(  0-C ,  7-C ) :   0.1741
B(  0-C , 20-H ) :   1.1198 B(  0-C , 21-H ) :   0.9132 B(  1-C ,  2-C ) :   0.1047
B(  1-C ,  7-C ) :   1.1219 B(  1-C ,  8-N ) :  -0.2959 B(  1-C ,  9-N ) :  -0.1642
B(  1-C , 12-H ) :   1.3762 B(  1-C , 20-H ) :   0.1262 B(  1-C , 21-H ) :  -0.2084
B(  2-C ,  3-C ) :   0.8419 B(  2-C , 18-H ) :   0.9517 B(  2-C , 19-H ) :   1.0313
B(  3-C ,  4-H ) :   0.9658 B(  3-C ,  5-H ) :   0.8645 B(  3-C ,  6-S ) :   0.8332
B(  6-S , 15-O ) :   1.4181 B(  6-S , 16-F ) :   0.4609 B(  6-S , 17-O ) :   1.5642
B(  7-C ,  8-N ) :   0.8535 B(  7-C ,  9-N ) :   0.8016 B(  7-C , 10-H ) :  -0.1256
B(  7-C , 14-H ) :  -0.1512 B(  7-C , 20-H ) :   0.1187 B(  8-N ,  9-N ) :  -0.1578
B(  8-N , 13-H ) :   1.1440 B(  8-N , 14-H ) :   1.1402 B(  9-N , 10-H ) :   0.8316
B(  9-N , 11-H ) :   1.1118 B( 12-H , 20-H ) :   0.1159 B( 17-O , 20-H ) :  -0.1009

E(0)                                       ...   -951.458981411
E(0)                                       ...   -951.458981411
E(CORR)(strong-pairs)                      ...     -2.261910962
E(CORR)(weak-pairs)                        ...     -0.003289844
E(CORR)(corrected)                         ...     -2.265200806
E(TOT)                                     ...   -953.724182217
E(CCSD(T))                                 ...   -953.820425056
FINAL SINGLE POINT ENERGY      -953.820425056059

DIPOLE MOMENT
-------------
                                X             Y             Z
Electronic contribution:    -16.39845      -2.59152      -0.86377
Nuclear contribution   :     16.65743       2.74852       1.69529
                        -----------------------------------------
Total Dipole Moment    :      0.25898       0.15699       0.83151
                        -----------------------------------------
Magnitude (a.u.)       :      0.88495
Magnitude (Debye)      :      2.24936

Rotational constants in cm-1:     0.059907     0.020458     0.017675
Rotational constants in MHz :  1795.978106   613.328205   529.885290

                             ****ORCA TERMINATED NORMALLY****
TOTAL RUN TIME: 0 days 1 hours 48 minutes 33 seconds 823 msec
