                         Program Version 5.0.0 -  RELEASE  -
|  1> !DLPNO-CCSD(T) aug-cc-pVTZ aug-cc-pVTZ/C TightSCF TightPNO RIJCOSX def2/J
|  2>
|  3> *xyzfile 0 1 D6.xyz
|  4>
|  5> %MaxCore 64000
|  6>
|  7> %pal nprocs 18
|  8> end
|  9>
| 10> %scf
| 11>   MaxIter 150
| 12> end
| 13>
| 14>
| 15>                          ****END OF INPUT****

CARTESIAN COORDINATES (ANGSTROEM)
---------------------------------
  C      3.380928    2.083045   -3.350127
  N      4.535924    1.182447   -3.428518
  C      2.495557    1.816150   -2.136364
  C      1.872181    0.427903   -2.077497
  H      2.614270   -0.365825   -2.198894
  H      1.389953    0.273087   -1.112360
  S      0.579024    0.140472   -3.297943
  C      4.671956    0.122273   -4.220598
  N      5.866023   -0.507849   -4.224284
  C      3.698881   -0.312844   -4.986988
  H      2.731405   -0.050091   -4.849000
  H      3.890046   -1.055172   -5.643730
  H      5.251933    1.303459   -2.721014
  H      6.695165   -0.062322   -3.851596
  H      5.975383   -1.396884   -4.691414
  O      0.228860   -1.246868   -3.127871
  F     -0.439269    1.118966   -3.014550
  O      1.247881    0.403474   -4.595647
  H      1.697003    2.561969   -2.141109
  H      3.080787    1.987436   -1.225838
  H      2.806463    1.986511   -4.268484
  H      3.778714    3.098282   -3.307383

 Total Charge           Charge          ....    0
 Multiplicity           Mult            ....    1
 Number of Electrons    NEL             ....   96
 Basis Dimension        Dim             ....  763

ORBITAL ENERGIES
----------------

  NO   OCC          E(Eh)            E(eV)
   0   2.0000     -92.251765     -2510.2982
   1   2.0000     -26.436115      -719.3633
   2   2.0000     -20.570987      -559.7650
   3   2.0000     -20.553969      -559.3019
   4   2.0000     -15.559813      -423.4040
   5   2.0000     -15.550241      -423.1436
   6   2.0000     -11.290467      -307.2292
   7   2.0000     -11.272636      -306.7440
   8   2.0000     -11.267542      -306.6054
   9   2.0000     -11.259549      -306.3879
  10   2.0000     -11.102874      -302.1246
  11   2.0000      -9.215377      -250.7632
  12   2.0000      -6.902975      -187.8395
  13   2.0000      -6.898914      -187.7290
  14   2.0000      -6.898162      -187.7085
  15   2.0000      -1.805920       -49.1416
  16   2.0000      -1.456948       -39.6456
  17   2.0000      -1.349716       -36.7276
  18   2.0000      -1.276717       -34.7412
  19   2.0000      -1.174493       -31.9596
  20   2.0000      -1.104626       -30.0584
  21   2.0000      -1.010707       -27.5027
  22   2.0000      -0.974497       -26.5174
  23   2.0000      -0.945027       -25.7155
  24   2.0000      -0.869238       -23.6532
  25   2.0000      -0.836090       -22.7512
  26   2.0000      -0.828630       -22.5482
  27   2.0000      -0.775640       -21.1062
  28   2.0000      -0.753558       -20.5054
  29   2.0000      -0.719919       -19.5900
  30   2.0000      -0.696646       -18.9567
  31   2.0000      -0.670798       -18.2533
  32   2.0000      -0.665770       -18.1165
  33   2.0000      -0.644688       -17.5429
  34   2.0000      -0.622154       -16.9297
  35   2.0000      -0.608241       -16.5511
  36   2.0000      -0.584724       -15.9111
  37   2.0000      -0.562746       -15.3131
  38   2.0000      -0.555554       -15.1174
  39   2.0000      -0.544664       -14.8211
  40   2.0000      -0.530093       -14.4246
  41   2.0000      -0.523242       -14.2381
  42   2.0000      -0.505167       -13.7463
  43   2.0000      -0.481459       -13.1012
  44   2.0000      -0.466122       -12.6838
  45   2.0000      -0.450282       -12.2528
  46   2.0000      -0.390190       -10.6176
  47   2.0000      -0.258497        -7.0341
  48   0.0000       0.018685         0.5084
  49   0.0000       0.029000         0.7891
  50   0.0000       0.032393         0.8815
  51   0.0000       0.039048         1.0625
  52   0.0000       0.050473         1.3734

MULLIKEN ATOMIC CHARGES
-----------------------
   0 C :   -0.424078
   1 N :   -0.179427
   2 C :   -0.572946
   3 C :   -0.457488
   4 H :    0.263394
   5 H :    0.339530
   6 S :    2.203465
   7 C :    0.573018
   8 N :   -0.667311
   9 C :   -1.154487
  10 H :    0.769089
  11 H :    0.230134
  12 H :    0.041981
  13 H :    0.070404
  14 H :    0.057929
  15 O :   -0.951355
  16 F :   -0.535206
  17 O :   -0.849074
  18 H :    0.311831
  19 H :    0.218619
  20 H :    0.314343
  21 H :    0.397635
Sum of atomic charges:   -0.0000000

LOEWDIN ATOMIC CHARGES
----------------------
   0 C :    0.220947
   1 N :    0.566113
   2 C :    0.264471
   3 C :    0.208086
   4 H :   -0.172484
   5 H :   -0.189329
   6 S :    0.008924
   7 C :   -0.447163
   8 N :    0.850936
   9 C :    0.535582
  10 H :   -0.664784
  11 H :   -0.283602
  12 H :   -0.268390
  13 H :   -0.289466
  14 H :   -0.279427
  15 O :    0.051583
  16 F :    0.300740
  17 O :    0.232041
  18 H :   -0.159822
  19 H :   -0.138682
  20 H :   -0.211090
  21 H :   -0.135185

  Mayer bond orders larger than 0.100000
B(  0-C ,  1-N ) :   1.0108 B(  0-C ,  2-C ) :   0.8002 B(  0-C ,  7-C ) :  -0.1352
B(  0-C , 20-H ) :   1.0377 B(  0-C , 21-H ) :   0.8478 B(  1-N ,  7-C ) :   0.8882
B(  1-N ,  8-N ) :  -0.1722 B(  1-N ,  9-C ) :  -0.1879 B(  1-N , 12-H ) :   1.1542
B(  2-C ,  3-C ) :   0.8658 B(  2-C , 17-O ) :   0.1137 B(  2-C , 18-H ) :   0.9002
B(  2-C , 19-H ) :   1.0045 B(  3-C ,  4-H ) :   0.9674 B(  3-C ,  5-H ) :   0.8785
B(  3-C ,  6-S ) :   0.8177 B(  6-S , 15-O ) :   1.3822 B(  6-S , 16-F ) :   0.4575
B(  6-S , 17-O ) :   1.6341 B(  7-C ,  8-N ) :   0.6674 B(  7-C ,  9-C ) :   1.2486
B(  7-C , 10-H ) :  -0.1419 B(  7-C , 12-H ) :  -0.1354 B(  7-C , 13-H ) :  -0.1041
B(  8-N ,  9-C ) :  -0.2428 B(  8-N , 13-H ) :   1.1847 B(  8-N , 14-H ) :   1.1720
B(  9-C , 10-H ) :   0.4528 B(  9-C , 11-H ) :   1.1420

E(0)                                       ...   -951.426224993
E(0)                                       ...   -951.426224993
E(CORR)(strong-pairs)                      ...     -2.262406537
E(CORR)(weak-pairs)                        ...     -0.003331306
E(CORR)(corrected)                         ...     -2.265737843
E(TOT)                                     ...   -953.691962836
E(CCSD(T))                                 ...   -953.788360295
FINAL SINGLE POINT ENERGY      -953.788360295032

DIPOLE MOMENT
-------------
                                X             Y             Z
Electronic contribution:    -15.83177      -1.29858       0.39732
Nuclear contribution   :     16.57580       2.60270       1.54331
                        -----------------------------------------
Total Dipole Moment    :      0.74403       1.30412       1.94063
                        -----------------------------------------
Magnitude (a.u.)       :      2.45364
Magnitude (Debye)      :      6.23666

Rotational constants in cm-1:     0.060402     0.020377     0.017632
Rotational constants in MHz :  1810.792194   610.900365   528.582827

                             ****ORCA TERMINATED NORMALLY****
TOTAL RUN TIME: 0 days 1 hours 23 minutes 48 seconds 435 msec
