                         Program Version 5.0.0 -  RELEASE  -
|  1> !DLPNO-CCSD(T) aug-cc-pVTZ aug-cc-pVTZ/C TightSCF TightPNO RIJCOSX def2/J
|  2>
|  3> *xyzfile 0 1 D8.xyz
|  4>
|  5> %MaxCore 64000
|  6>
|  7> %pal nprocs 18
|  8> end
|  9>
| 10> %scf
| 11>   MaxIter 150
| 12> end
| 13>
| 14>
| 15>                          ****END OF INPUT****

CARTESIAN COORDINATES (ANGSTROEM)
---------------------------------
  C      3.380928    2.083045   -3.350127
  N      4.535924    1.182447   -3.428518
  C      2.495557    1.816150   -2.136364
  C      1.872181    0.427903   -2.077497
  H      2.614270   -0.365825   -2.198894
  H      1.389953    0.273087   -1.112360
  S      0.579024    0.140472   -3.297943
  C      4.671956    0.122273   -4.220598
  C      5.866023   -0.507849   -4.224284
  N      3.698881   -0.312844   -4.986988
  H      2.731405   -0.050091   -4.849000
  H      3.890046   -1.055172   -5.643730
  H      5.251933    1.303459   -2.721014
  H      6.695165   -0.062322   -3.851596
  H      5.975383   -1.396884   -4.691414
  O      0.228860   -1.246868   -3.127871
  O     -0.439269    1.118966   -3.014550
  F      1.247881    0.403474   -4.595647
  H      1.697003    2.561969   -2.141109
  H      3.080787    1.987436   -1.225838
  H      2.806463    1.986511   -4.268484
  H      3.778714    3.098282   -3.307383

 Total Charge           Charge          ....    0
 Multiplicity           Mult            ....    1
 Number of Electrons    NEL             ....   96
 Basis Dimension        Dim             ....  763

ORBITAL ENERGIES
----------------

  NO   OCC          E(Eh)            E(eV)
   0   2.0000     -92.265160     -2510.6626
   1   2.0000     -26.441110      -719.4992
   2   2.0000     -20.585557      -560.1615
   3   2.0000     -20.584995      -560.1462
   4   2.0000     -15.575213      -423.8231
   5   2.0000     -15.566342      -423.5817
   6   2.0000     -11.301159      -307.5202
   7   2.0000     -11.300690      -307.5074
   8   2.0000     -11.290355      -307.2262
   9   2.0000     -11.267020      -306.5912
  10   2.0000     -11.134714      -302.9910
  11   2.0000      -9.228858      -251.1300
  12   2.0000      -6.916782      -188.2152
  13   2.0000      -6.912258      -188.0921
  14   2.0000      -6.911447      -188.0700
  15   2.0000      -1.802098       -49.0376
  16   2.0000      -1.483206       -40.3601
  17   2.0000      -1.380466       -37.5644
  18   2.0000      -1.302033       -35.4301
  19   2.0000      -1.201444       -32.6929
  20   2.0000      -1.119273       -30.4570
  21   2.0000      -1.035290       -28.1717
  22   2.0000      -0.976733       -26.5782
  23   2.0000      -0.954103       -25.9625
  24   2.0000      -0.877450       -23.8766
  25   2.0000      -0.847695       -23.0670
  26   2.0000      -0.835633       -22.7387
  27   2.0000      -0.815476       -22.1902
  28   2.0000      -0.774626       -21.0787
  29   2.0000      -0.728588       -19.8259
  30   2.0000      -0.702282       -19.1101
  31   2.0000      -0.675561       -18.3829
  32   2.0000      -0.673198       -18.3187
  33   2.0000      -0.664289       -18.0762
  34   2.0000      -0.653384       -17.7795
  35   2.0000      -0.628541       -17.1035
  36   2.0000      -0.596736       -16.2380
  37   2.0000      -0.577028       -15.7017
  38   2.0000      -0.570594       -15.5266
  39   2.0000      -0.552652       -15.0384
  40   2.0000      -0.546240       -14.8639
  41   2.0000      -0.535079       -14.5602
  42   2.0000      -0.520417       -14.1613
  43   2.0000      -0.516219       -14.0470
  44   2.0000      -0.505938       -13.7673
  45   2.0000      -0.489352       -13.3159
  46   2.0000      -0.410854       -11.1799
  47   2.0000      -0.267148        -7.2695
  48   0.0000       0.021062         0.5731
  49   0.0000       0.030841         0.8392
  50   0.0000       0.034338         0.9344
  51   0.0000       0.037027         1.0076
  52   0.0000       0.049833         1.3560

MULLIKEN ATOMIC CHARGES
-----------------------
   0 C :   -0.380413
   1 N :   -0.197361
   2 C :   -0.546210
   3 C :   -0.465471
   4 H :    0.245374
   5 H :    0.338574
   6 S :    2.272994
   7 C :    0.714668
   8 C :   -1.395381
   9 N :   -0.562602
  10 H :    0.509177
  11 H :   -0.014109
  12 H :   -0.020604
  13 H :    0.548369
  14 H :    0.213258
  15 O :   -0.941339
  16 O :   -0.958624
  17 F :   -0.557352
  18 H :    0.321472
  19 H :    0.231567
  20 H :    0.190322
  21 H :    0.453691
Sum of atomic charges:    0.0000000

LOEWDIN ATOMIC CHARGES
----------------------
   0 C :    0.218023
   1 N :    0.571231
   2 C :    0.264448
   3 C :    0.205267
   4 H :   -0.183755
   5 H :   -0.170164
   6 S :   -0.037768
   7 C :   -0.459808
   8 C :    0.540978
   9 N :    0.867489
  10 H :   -0.601379
  11 H :   -0.249922
  12 H :   -0.255311
  13 H :   -0.313165
  14 H :   -0.318770
  15 O :    0.052743
  16 O :    0.054860
  17 F :    0.438426
  18 H :   -0.161116
  19 H :   -0.134557
  20 H :   -0.196015
  21 H :   -0.131736

  Mayer bond orders larger than 0.100000
B(  0-C ,  1-N ) :   0.8934 B(  0-C ,  2-C ) :   0.8191 B(  0-C ,  3-C ) :   0.1080
B(  0-C ,  7-C ) :  -0.1609 B(  0-C , 17-F ) :  -0.1005 B(  0-C , 20-H ) :   1.1174
B(  0-C , 21-H ) :   0.8051 B(  1-N ,  7-C ) :   0.8619 B(  1-N ,  8-C ) :  -0.2513
B(  1-N ,  9-N ) :  -0.1192 B(  1-N , 12-H ) :   1.2099 B(  2-C ,  3-C ) :   0.8936
B(  2-C ,  6-S ) :   0.1060 B(  2-C , 18-H ) :   0.9051 B(  2-C , 19-H ) :   0.9843
B(  3-C ,  4-H ) :   0.9666 B(  3-C ,  5-H ) :   0.8814 B(  3-C ,  6-S ) :   0.7714
B(  6-S , 15-O ) :   1.4561 B(  6-S , 16-O ) :   1.4369 B(  6-S , 17-F ) :   0.7163
B(  7-C ,  8-C ) :   1.0091 B(  7-C ,  9-N ) :   0.7175 B(  7-C , 10-H ) :  -0.2828
B(  8-C ,  9-N ) :  -0.1924 B(  8-C , 10-H ) :   0.1052 B(  8-C , 13-H ) :   0.6746
B(  8-C , 14-H ) :   1.2631 B(  9-N , 10-H ) :   0.6999 B(  9-N , 11-H ) :   1.2915
B( 10-H , 17-F ) :  -0.1689

E(0)                                       ...   -951.451344587
E(0)                                       ...   -951.451344587
E(CORR)(strong-pairs)                      ...     -2.258460579
E(CORR)(weak-pairs)                        ...     -0.003299022
E(CORR)(corrected)                         ...     -2.261759601
E(TOT)                                     ...   -953.713104188
E(CCSD(T))                                 ...   -953.808956465
FINAL SINGLE POINT ENERGY      -953.808956464945

DIPOLE MOMENT
-------------
                                X             Y             Z
Electronic contribution:    -14.56404      -2.31744      -2.88147
Nuclear contribution   :     14.93782       3.36795       3.35075
                        -----------------------------------------
Total Dipole Moment    :      0.37378       1.05051       0.46929
                        -----------------------------------------
Magnitude (a.u.)       :      1.20975
Magnitude (Debye)      :      3.07495

Rotational constants in cm-1:     0.059219     0.021387     0.018380
Rotational constants in MHz :  1775.354399   641.172207   551.019443

                             ****ORCA TERMINATED NORMALLY****
TOTAL RUN TIME: 0 days 1 hours 26 minutes 33 seconds 213 msec
