                         Program Version 5.0.0 -  RELEASE  -
|  1> !TPSS D3BJ RIJCOSX def2-SVPD def2/J TightSCF
|  2>
|  3> *xyz -1 1
|  4> C          2.95263        1.86308       -3.57485
|  5> C          4.12921        0.89839       -3.41895
|  6> H          3.73369       -0.10060       -3.23763
|  7> H          4.71910        0.86256       -4.33901
|  8> C          5.01734        1.31521       -2.22130
|  9> O          4.73706        0.85411       -1.12283
| 10> O          5.92815        2.16811       -2.49136
| 11> H          2.35067        1.56005       -4.40594
| 12> H          3.32277        2.85258       -3.74453
| 13> H          2.36134        1.85149       -2.68315
| 14> *
| 15> %MaxCore 64000
| 16>
| 17> %pal nprocs 4
| 18> end
| 19>
| 20> %scf
| 21>   MaxIter 150
| 22> end
| 23>
| 24>
| 25>                          ****END OF INPUT****

CARTESIAN COORDINATES (ANGSTROEM)
---------------------------------
  C      2.952630    1.863080   -3.574850
  C      4.129210    0.898390   -3.418950
  H      3.733690   -0.100600   -3.237630
  H      4.719100    0.862560   -4.339010
  C      5.017340    1.315210   -2.221300
  O      4.737060    0.854110   -1.122830
  O      5.928150    2.168110   -2.491360
  H      2.350670    1.560050   -4.405940
  H      3.322770    2.852580   -3.744530
  H      2.361340    1.851490   -2.683150

 Total Charge           Charge          ....   -1
 Multiplicity           Mult            ....    1
 Number of Electrons    NEL             ....   40
 Basis Dimension        Dim             ....  146

ORBITAL ENERGIES
----------------

  NO   OCC          E(Eh)            E(eV)
   0   2.0000     -18.643707      -507.3211
   1   2.0000     -18.634005      -507.0571
   2   2.0000      -9.875627      -268.7295
   3   2.0000      -9.840617      -267.7768
   4   2.0000      -9.823342      -267.3067
   5   2.0000      -0.745391       -20.2831
   6   2.0000      -0.652441       -17.7538
   7   2.0000      -0.541715       -14.7408
   8   2.0000      -0.413350       -11.2478
   9   2.0000      -0.272432        -7.4133
  10   2.0000      -0.248796        -6.7701
  11   2.0000      -0.212824        -5.7912
  12   2.0000      -0.187292        -5.0965
  13   2.0000      -0.168232        -4.5778
  14   2.0000      -0.167592        -4.5604
  15   2.0000      -0.135734        -3.6935
  16   2.0000      -0.127371        -3.4660
  17   2.0000      -0.014236        -0.3874
  18   2.0000       0.001046         0.0285
  19   2.0000       0.014401         0.3919
  20   0.0000       0.147123         4.0034
  21   0.0000       0.179832         4.8935
  22   0.0000       0.192315         5.2331
  23   0.0000       0.212471         5.7816
  24   0.0000       0.220290         5.9944

MULLIKEN ATOMIC CHARGES
-----------------------
   0 C :    0.434232
   1 C :   -0.352870
   2 H :    0.006891
   3 H :   -0.010138
   4 C :    0.482544
   5 O :   -0.659279
   6 O :   -0.753800
   7 H :   -0.066046
   8 H :   -0.042324
   9 H :   -0.039211
Sum of atomic charges:   -1.0000000

LOEWDIN ATOMIC CHARGES
----------------------
   0 C :    0.107132
   1 C :   -0.036381
   2 H :   -0.009420
   3 H :   -0.004762
   4 C :   -0.306612
   5 O :   -0.302111
   6 O :   -0.344873
   7 H :   -0.048112
   8 H :   -0.027688
   9 H :   -0.027172

  Mayer bond orders larger than 0.100000
B(  0-C ,  1-C ) :   1.3190 B(  0-C ,  2-H ) :   0.1016 B(  0-C ,  7-H ) :   0.8721
B(  0-C ,  8-H ) :   0.8651 B(  0-C ,  9-H ) :   0.8561 B(  1-C ,  2-H ) :   0.9514
B(  1-C ,  3-H ) :   0.9677 B(  1-C ,  4-C ) :   1.0477 B(  1-C ,  7-H ) :   0.1427
B(  1-C ,  8-H ) :   0.1774 B(  1-C ,  9-H ) :   0.1812 B(  2-H ,  4-C ) :   0.1023
B(  4-C ,  5-O ) :   1.4905 B(  4-C ,  6-O ) :   1.4123

Dispersion correction           -0.008081358
FINAL SINGLE POINT ENERGY      -267.702057081556

DIPOLE MOMENT
-------------
                                X             Y             Z
Electronic contribution:      4.44668      -0.19285       3.93314
Nuclear contribution   :     -5.85873      -0.10793      -5.24103
                        -----------------------------------------
Total Dipole Moment    :     -1.41205      -0.30078      -1.30789
                        -----------------------------------------
Magnitude (a.u.)       :      1.94806
Magnitude (Debye)      :      4.95157

Rotational constants in cm-1:     0.292505     0.135951     0.110253
Rotational constants in MHz :  8769.065873  4075.717001  3305.311891

                             ****ORCA TERMINATED NORMALLY****
TOTAL RUN TIME: 0 days 0 hours 0 minutes 11 seconds 197 msec
