                         Program Version 5.0.0 -  RELEASE  -
|  1> !TPSS D3BJ RIJCOSX def2-SVPD def2/J TightSCF
|  2>
|  3> *xyz 1 1
|  4> C          3.34350        3.35457       -3.59200
|  5> C          2.95263        1.86308       -3.57485
|  6> C          4.25587        3.70385       -4.72605
|  7> N          3.73403        4.29378       -5.80077
|  8> N          5.51504        3.40725       -4.63718
|  9> H          6.14919        3.60120       -5.39905
| 10> H          5.81358        2.89950       -3.80879
| 11> H          2.74138        4.51311       -5.82470
| 12> H          4.28755        4.52126       -6.61434
| 13> H          3.86125        3.59725       -2.66298
| 14> H          2.44649        3.97346       -3.65656
| 15> H          2.44395        1.61721       -4.48352
| 16> H          2.30781        1.67290       -2.74242
| 17> H          3.83491        1.26414       -3.48670
| 18> *
| 19> %MaxCore 64000
| 20>
| 21> %pal nprocs 4
| 22> end
| 23>
| 24> %scf
| 25>   MaxIter 150
| 26> end
| 27>
| 28>
| 29>                          ****END OF INPUT****

CARTESIAN COORDINATES (ANGSTROEM)
---------------------------------
  C      3.343500    3.354570   -3.592000
  C      2.952630    1.863080   -3.574850
  C      4.255870    3.703850   -4.726050
  N      3.734030    4.293780   -5.800770
  N      5.515040    3.407250   -4.637180
  H      6.149190    3.601200   -5.399050
  H      5.813580    2.899500   -3.808790
  H      2.741380    4.513110   -5.824700
  H      4.287550    4.521260   -6.614340
  H      3.861250    3.597250   -2.662980
  H      2.446490    3.973460   -3.656560
  H      2.443950    1.617210   -4.483520
  H      2.307810    1.672900   -2.742420
  H      3.834910    1.264140   -3.486700

 Total Charge           Charge          ....    1
 Multiplicity           Mult            ....    1
 Number of Electrons    NEL             ....   40
 Basis Dimension        Dim             ....  172

ORBITAL ENERGIES
----------------

  NO   OCC          E(Eh)            E(eV)
   0   2.0000     -14.366878      -390.9426
   1   2.0000     -14.362784      -390.8312
   2   2.0000     -10.312246      -280.6105
   3   2.0000     -10.200288      -277.5639
   4   2.0000     -10.159917      -276.4654
   5   2.0000      -1.130951       -30.7748
   6   2.0000      -1.042212       -28.3600
   7   2.0000      -0.906191       -24.6587
   8   2.0000      -0.806194       -21.9376
   9   2.0000      -0.765493       -20.8301
  10   2.0000      -0.732508       -19.9326
  11   2.0000      -0.705099       -19.1867
  12   2.0000      -0.661577       -18.0024
  13   2.0000      -0.606238       -16.4966
  14   2.0000      -0.584494       -15.9049
  15   2.0000      -0.572708       -15.5842
  16   2.0000      -0.508016       -13.8238
  17   2.0000      -0.500617       -13.6225
  18   2.0000      -0.493831       -13.4378
  19   2.0000      -0.457341       -12.4449
  20   0.0000      -0.237932        -6.4745
  21   0.0000      -0.174123        -4.7381
  22   0.0000      -0.131024        -3.5653
  23   0.0000      -0.128582        -3.4989
  24   0.0000      -0.101043        -2.7495

MULLIKEN ATOMIC CHARGES
-----------------------
   0 C :   -0.352656
   1 C :    0.572661
   2 C :    0.803696
   3 N :   -0.069854
   4 N :    0.100610
   5 H :   -0.141902
   6 H :    0.081844
   7 H :    0.055834
   8 H :   -0.119823
   9 H :    0.050087
  10 H :    0.013712
  11 H :   -0.025009
  12 H :    0.041352
  13 H :   -0.010552
Sum of atomic charges:    1.0000000

LOEWDIN ATOMIC CHARGES
----------------------
   0 C :    0.019895
   1 C :    0.184412
   2 C :   -0.049354
   3 N :    0.285706
   4 N :    0.289162
   5 H :    0.052686
   6 H :    0.060127
   7 H :    0.051774
   8 H :    0.042632
   9 H :    0.041128
  10 H :    0.034891
  11 H :   -0.005242
  12 H :    0.004954
  13 H :   -0.012771

  Mayer bond orders larger than 0.100000
B(  0-C ,  1-C ) :   1.2777 B(  0-C ,  2-C ) :   1.1100 B(  0-C ,  3-N ) :   0.1023
B(  0-C ,  9-H ) :   0.9048 B(  0-C , 10-H ) :   0.9124 B(  0-C , 11-H ) :   0.1498
B(  0-C , 12-H ) :   0.1411 B(  0-C , 13-H ) :   0.1782 B(  1-C , 11-H ) :   0.8671
B(  1-C , 12-H ) :   0.8471 B(  1-C , 13-H ) :   0.8132 B(  2-C ,  3-N ) :   0.9568
B(  2-C ,  4-N ) :   1.1837 B(  2-C ,  5-H ) :  -0.1614 B(  2-C ,  8-H ) :  -0.2152
B(  2-C , 10-H ) :   0.1016 B(  3-N ,  4-N ) :   0.1814 B(  3-N ,  7-H ) :   1.0817
B(  3-N ,  8-H ) :   1.3410 B(  4-N ,  5-H ) :   1.3088 B(  4-N ,  6-H ) :   1.0502
B(  5-H ,  6-H ) :  -0.1554 B(  7-H ,  8-H ) :  -0.1728

Dispersion correction           -0.012436221
FINAL SINGLE POINT ENERGY      -228.927921946107

DIPOLE MOMENT
-------------
                                X             Y             Z
Electronic contribution:      2.38213       2.57714      -2.29572
Nuclear contribution   :     -1.74195      -2.09431       1.58516
                        -----------------------------------------
Total Dipole Moment    :      0.64019       0.48283      -0.71056
                        -----------------------------------------
Magnitude (a.u.)       :      1.07138
Magnitude (Debye)      :      2.72324

Rotational constants in cm-1:     0.258965     0.126500     0.098780
Rotational constants in MHz :  7763.584551  3792.383135  2961.336502

                             ****ORCA TERMINATED NORMALLY****
TOTAL RUN TIME: 0 days 0 hours 0 minutes 14 seconds 286 msec
