                         Program Version 5.0.0 -  RELEASE  -
|  1> !TPSS D3BJ RIJCOSX def2-SVPD def2/J TightSCF
|  2>
|  3> *xyz 0 1
|  4> C          2.95263        1.86308       -3.57485
|  5> C          4.12921        0.89839       -3.41895
|  6> H          3.73369       -0.10060       -3.23763
|  7> H          4.71910        0.86256       -4.33901
|  8> C          5.01734        1.31521       -2.22130
|  9> F          4.73706        0.85411       -1.12283
| 10> O          5.92815        2.16811       -2.49136
| 11> H          2.35067        1.56005       -4.40594
| 12> H          3.32277        2.85258       -3.74453
| 13> H          2.36134        1.85149       -2.68315
| 14> *
| 15> %MaxCore 64000
| 16>
| 17> %pal nprocs 4
| 18> end
| 19>
| 20> %scf
| 21>   MaxIter 150
| 22> end
| 23>
| 24>
| 25>                          ****END OF INPUT****

CARTESIAN COORDINATES (ANGSTROEM)
---------------------------------
  C      2.952630    1.863080   -3.574850
  C      4.129210    0.898390   -3.418950
  H      3.733690   -0.100600   -3.237630
  H      4.719100    0.862560   -4.339010
  C      5.017340    1.315210   -2.221300
  F      4.737060    0.854110   -1.122830
  O      5.928150    2.168110   -2.491360
  H      2.350670    1.560050   -4.405940
  H      3.322770    2.852580   -3.744530
  H      2.361340    1.851490   -2.683150

 Total Charge           Charge          ....    0
 Multiplicity           Mult            ....    1
 Number of Electrons    NEL             ....   40
 Basis Dimension        Dim             ....  146

ORBITAL ENERGIES
----------------

  NO   OCC          E(Eh)            E(eV)
   0   2.0000     -24.510127      -666.9545
   1   2.0000     -18.903465      -514.3894
   2   2.0000     -10.173484      -276.8346
   3   2.0000     -10.032332      -272.9936
   4   2.0000     -10.012099      -272.4431
   5   2.0000      -1.250807       -34.0362
   6   2.0000      -0.942399       -25.6440
   7   2.0000      -0.738073       -20.0840
   8   2.0000      -0.633167       -17.2293
   9   2.0000      -0.592963       -16.1353
  10   2.0000      -0.510365       -13.8877
  11   2.0000      -0.494986       -13.4693
  12   2.0000      -0.456679       -12.4269
  13   2.0000      -0.423922       -11.5355
  14   2.0000      -0.392647       -10.6845
  15   2.0000      -0.361354        -9.8329
  16   2.0000      -0.340065        -9.2536
  17   2.0000      -0.335206        -9.1214
  18   2.0000      -0.308295        -8.3891
  19   2.0000      -0.242444        -6.5972
  20   0.0000      -0.065184        -1.7737
  21   0.0000       0.002920         0.0795
  22   0.0000       0.035925         0.9776
  23   0.0000       0.045815         1.2467
  24   0.0000       0.062563         1.7024

MULLIKEN ATOMIC CHARGES
-----------------------
   0 C :    0.457280
   1 C :   -0.372017
   2 H :    0.038319
   3 H :    0.024544
   4 C :    0.833729
   5 F :   -0.349852
   6 O :   -0.556684
   7 H :   -0.023875
   8 H :   -0.021865
   9 H :   -0.029579
Sum of atomic charges:    0.0000000

LOEWDIN ATOMIC CHARGES
----------------------
   0 C :    0.146879
   1 C :    0.012378
   2 H :    0.015516
   3 H :    0.030998
   4 C :   -0.016973
   5 F :   -0.003456
   6 O :   -0.146314
   7 H :   -0.015130
   8 H :   -0.009716
   9 H :   -0.014181

  Mayer bond orders larger than 0.100000
B(  0-C ,  1-C ) :   1.3308 B(  0-C ,  7-H ) :   0.8727 B(  0-C ,  8-H ) :   0.8659
B(  0-C ,  9-H ) :   0.8518 B(  1-C ,  2-H ) :   0.9295 B(  1-C ,  3-H ) :   0.9584
B(  1-C ,  4-C ) :   1.0535 B(  1-C ,  7-H ) :   0.1289 B(  1-C ,  8-H ) :   0.1554
B(  1-C ,  9-H ) :   0.1559 B(  4-C ,  5-F ) :   0.7383 B(  4-C ,  6-O ) :   1.7118
B(  5-F ,  6-O ) :   0.1193

Dispersion correction           -0.007641014
FINAL SINGLE POINT ENERGY      -292.227623668656

DIPOLE MOMENT
-------------
                                X             Y             Z
Electronic contribution:      5.07041      -1.16348       6.53317
Nuclear contribution   :     -6.06116       0.51860      -6.80802
                        -----------------------------------------
Total Dipole Moment    :     -0.99075      -0.64488      -0.27485
                        -----------------------------------------
Magnitude (a.u.)       :      1.21367
Magnitude (Debye)      :      3.08490

Rotational constants in cm-1:     0.276196     0.132056     0.105465
Rotational constants in MHz :  8280.156449  3958.940601  3161.775929

                             ****ORCA TERMINATED NORMALLY****
TOTAL RUN TIME: 0 days 0 hours 0 minutes 10 seconds 976 msec
