                         Program Version 5.0.0 -  RELEASE  -
|  1> !TPSS D3BJ RIJCOSX def2-SVPD def2/J TightSCF
|  2>
|  3> *xyz 0 1
|  4> C          3.34350        3.35457       -3.59200
|  5> C          2.95263        1.86308       -3.57485
|  6> C          4.25587        3.70385       -4.72605
|  7> C          3.73403        4.29378       -5.80077
|  8> N          5.51504        3.40725       -4.63718
|  9> H          6.14919        3.60120       -5.39905
| 10> H          5.81358        2.89950       -3.80879
| 11> H          2.74138        4.51311       -5.82470
| 12> H          4.28755        4.52126       -6.61434
| 13> H          3.86125        3.59725       -2.66298
| 14> H          2.44649        3.97346       -3.65656
| 15> H          2.44395        1.61721       -4.48352
| 16> H          2.30781        1.67290       -2.74242
| 17> H          3.83491        1.26414       -3.48670
| 18> *
| 19> %MaxCore 64000
| 20>
| 21> %pal nprocs 4
| 22> end
| 23>
| 24> %scf
| 25>   MaxIter 150
| 26> end
| 27>
| 28>
| 29>                          ****END OF INPUT****

CARTESIAN COORDINATES (ANGSTROEM)
---------------------------------
  C      3.343500    3.354570   -3.592000
  C      2.952630    1.863080   -3.574850
  C      4.255870    3.703850   -4.726050
  C      3.734030    4.293780   -5.800770
  N      5.515040    3.407250   -4.637180
  H      6.149190    3.601200   -5.399050
  H      5.813580    2.899500   -3.808790
  H      2.741380    4.513110   -5.824700
  H      4.287550    4.521260   -6.614340
  H      3.861250    3.597250   -2.662980
  H      2.446490    3.973460   -3.656560
  H      2.443950    1.617210   -4.483520
  H      2.307810    1.672900   -2.742420
  H      3.834910    1.264140   -3.486700

 Total Charge           Charge          ....    0
 Multiplicity           Mult            ....    1
 Number of Electrons    NEL             ....   40
 Basis Dimension        Dim             ....  172

ORBITAL ENERGIES
----------------

  NO   OCC          E(Eh)            E(eV)
   0   2.0000     -14.122827      -384.3017
   1   2.0000     -10.012201      -272.4458
   2   2.0000     -10.000141      -272.1177
   3   2.0000      -9.989262      -271.8216
   4   2.0000      -9.932045      -270.2647
   5   2.0000      -0.865240       -23.5444
   6   2.0000      -0.714052       -19.4303
   7   2.0000      -0.651822       -17.7370
   8   2.0000      -0.580868       -15.8062
   9   2.0000      -0.520275       -14.1574
  10   2.0000      -0.488119       -13.2824
  11   2.0000      -0.434594       -11.8259
  12   2.0000      -0.397415       -10.8142
  13   2.0000      -0.379287       -10.3209
  14   2.0000      -0.352450        -9.5906
  15   2.0000      -0.343337        -9.3427
  16   2.0000      -0.318288        -8.6611
  17   2.0000      -0.296905        -8.0792
  18   2.0000      -0.292713        -7.9651
  19   2.0000      -0.156698        -4.2640
  20   0.0000       0.002915         0.0793
  21   0.0000       0.023217         0.6318
  22   0.0000       0.040819         1.1107
  23   0.0000       0.048275         1.3136
  24   0.0000       0.055486         1.5099

MULLIKEN ATOMIC CHARGES
-----------------------
   0 C :   -0.189012
   1 C :    0.574218
   2 C :   -0.047879
   3 C :    0.348998
   4 N :    0.219158
   5 H :   -0.204095
   6 H :   -0.088692
   7 H :   -0.088293
   8 H :   -0.452689
   9 H :   -0.047066
  10 H :    0.066009
  11 H :   -0.052460
  12 H :    0.001644
  13 H :   -0.039840
Sum of atomic charges:    0.0000000

LOEWDIN ATOMIC CHARGES
----------------------
   0 C :   -0.022513
   1 C :    0.144396
   2 C :   -0.271312
   3 C :    0.180980
   4 N :    0.172810
   5 H :    0.012760
   6 H :    0.006752
   7 H :   -0.086668
   8 H :   -0.094361
   9 H :    0.012070
  10 H :    0.018009
  11 H :   -0.018581
  12 H :   -0.024459
  13 H :   -0.029881

  Mayer bond orders larger than 0.100000
B(  0-C ,  1-C ) :   1.2526 B(  0-C ,  2-C ) :   1.1482 B(  0-C ,  3-C ) :   0.1684
B(  0-C ,  4-N ) :   0.1054 B(  0-C ,  9-H ) :   0.8713 B(  0-C , 10-H ) :   0.8627
B(  0-C , 11-H ) :   0.1655 B(  0-C , 12-H ) :   0.1629 B(  0-C , 13-H ) :   0.2016
B(  1-C , 11-H ) :   0.8806 B(  1-C , 12-H ) :   0.8315 B(  1-C , 13-H ) :   0.8190
B(  2-C ,  3-C ) :   1.6072 B(  2-C ,  4-N ) :   1.2832 B(  2-C ,  8-H ) :   0.1670
B(  2-C ,  9-H ) :   0.1515 B(  2-C , 10-H ) :   0.1335 B(  3-C ,  4-N ) :   0.2631
B(  3-C ,  7-H ) :   0.9604 B(  3-C ,  8-H ) :   0.7777 B(  4-N ,  5-H ) :   1.2672
B(  4-N ,  6-H ) :   1.0967 B(  5-H ,  6-H ) :  -0.1197

Dispersion correction           -0.012939304
FINAL SINGLE POINT ENERGY      -212.466304751047

DIPOLE MOMENT
-------------
                                X             Y             Z
Electronic contribution:      2.34812       1.49015      -0.87881
Nuclear contribution   :     -1.79713      -1.86925       1.28073
                        -----------------------------------------
Total Dipole Moment    :      0.55099      -0.37910       0.40193
                        -----------------------------------------
Magnitude (a.u.)       :      0.78029
Magnitude (Debye)      :      1.98333

Rotational constants in cm-1:     0.269040     0.129645     0.102087
Rotational constants in MHz :  8065.609820  3886.645139  3060.489045

                             ****ORCA TERMINATED NORMALLY****
TOTAL RUN TIME: 0 days 0 hours 0 minutes 14 seconds 828 msec
