                         Program Version 5.0.0 -  RELEASE  -
|  1> !TPSS D3BJ RIJCOSX def2-SVPD def2/J TightSCF
|  2>
|  3> *xyz 0 1
|  4> C          2.95263        1.86308       -3.57485
|  5> C          4.12921        0.89839       -3.41895
|  6> H          3.73369       -0.10060       -3.23763
|  7> H          4.71910        0.86256       -4.33901
|  8> C          5.01734        1.31521       -2.22130
|  9> O          4.73706        0.85411       -1.12283
| 10> F          5.92815        2.16811       -2.49136
| 11> H          2.35067        1.56005       -4.40594
| 12> H          3.32277        2.85258       -3.74453
| 13> H          2.36134        1.85149       -2.68315
| 14> *
| 15> %MaxCore 64000
| 16>
| 17> %pal nprocs 4
| 18> end
| 19>
| 20> %scf
| 21>   MaxIter 150
| 22> end
| 23>
| 24>
| 25>                          ****END OF INPUT****

CARTESIAN COORDINATES (ANGSTROEM)
---------------------------------
  C      2.952630    1.863080   -3.574850
  C      4.129210    0.898390   -3.418950
  H      3.733690   -0.100600   -3.237630
  H      4.719100    0.862560   -4.339010
  C      5.017340    1.315210   -2.221300
  O      4.737060    0.854110   -1.122830
  F      5.928150    2.168110   -2.491360
  H      2.350670    1.560050   -4.405940
  H      3.322770    2.852580   -3.744530
  H      2.361340    1.851490   -2.683150

 Total Charge           Charge          ....    0
 Multiplicity           Mult            ....    1
 Number of Electrons    NEL             ....   40
 Basis Dimension        Dim             ....  146

ORBITAL ENERGIES
----------------

  NO   OCC          E(Eh)            E(eV)
   0   2.0000     -24.489875      -666.4034
   1   2.0000     -18.912392      -514.6323
   2   2.0000     -10.169465      -276.7252
   3   2.0000     -10.031935      -272.9828
   4   2.0000     -10.012387      -272.4509
   5   2.0000      -1.210998       -32.9529
   6   2.0000      -0.974688       -26.5226
   7   2.0000      -0.737924       -20.0799
   8   2.0000      -0.623780       -16.9739
   9   2.0000      -0.579920       -15.7804
  10   2.0000      -0.492140       -13.3918
  11   2.0000      -0.476709       -12.9719
  12   2.0000      -0.454589       -12.3700
  13   2.0000      -0.422226       -11.4893
  14   2.0000      -0.394791       -10.7428
  15   2.0000      -0.363363        -9.8876
  16   2.0000      -0.346470        -9.4279
  17   2.0000      -0.336068        -9.1449
  18   2.0000      -0.323959        -8.8154
  19   2.0000      -0.254268        -6.9190
  20   0.0000      -0.060129        -1.6362
  21   0.0000       0.003566         0.0970
  22   0.0000       0.036238         0.9861
  23   0.0000       0.046423         1.2632
  24   0.0000       0.062764         1.7079

MULLIKEN ATOMIC CHARGES
-----------------------
   0 C :    0.456439
   1 C :   -0.369644
   2 H :    0.040617
   3 H :    0.019971
   4 C :    0.828864
   5 O :   -0.492632
   6 F :   -0.408458
   7 H :   -0.024335
   8 H :   -0.035162
   9 H :   -0.015660
Sum of atomic charges:   -0.0000000

LOEWDIN ATOMIC CHARGES
----------------------
   0 C :    0.146727
   1 C :    0.014155
   2 H :    0.026548
   3 H :    0.020838
   4 C :   -0.014771
   5 O :   -0.111063
   6 F :   -0.043421
   7 H :   -0.015146
   8 H :   -0.014657
   9 H :   -0.009210

  Mayer bond orders larger than 0.100000
B(  0-C ,  1-C ) :   1.3308 B(  0-C ,  7-H ) :   0.8739 B(  0-C ,  8-H ) :   0.8598
B(  0-C ,  9-H ) :   0.8575 B(  1-C ,  2-H ) :   0.9461 B(  1-C ,  3-H ) :   0.9460
B(  1-C ,  4-C ) :   1.0419 B(  1-C ,  7-H ) :   0.1288 B(  1-C ,  8-H ) :   0.1505
B(  1-C ,  9-H ) :   0.1598 B(  4-C ,  5-O ) :   1.7711 B(  4-C ,  6-F ) :   0.6716
B(  5-O ,  6-F ) :   0.1198

Dispersion correction           -0.007640549
FINAL SINGLE POINT ENERGY      -292.243260874616

DIPOLE MOMENT
-------------
                                X             Y             Z
Electronic contribution:      7.04026       1.01106       4.25978
Nuclear contribution   :     -7.35982      -0.91407      -5.31589
                        -----------------------------------------
Total Dipole Moment    :     -0.31956       0.09699      -1.05612
                        -----------------------------------------
Magnitude (a.u.)       :      1.10766
Magnitude (Debye)      :      2.81544

Rotational constants in cm-1:     0.275433     0.132201     0.105422
Rotational constants in MHz :  8257.268192  3963.279062  3160.465566

                             ****ORCA TERMINATED NORMALLY****
TOTAL RUN TIME: 0 days 0 hours 0 minutes 10 seconds 926 msec
