                         Program Version 5.0.0 -  RELEASE  -
|  1> !TPSS D3BJ RIJCOSX def2-SVPD def2/J TightSCF
|  2>
|  3> *xyz 0 1
|  4> C          3.34350        3.35457       -3.59200
|  5> C          2.95263        1.86308       -3.57485
|  6> C          4.25587        3.70385       -4.72605
|  7> N          3.73403        4.29378       -5.80077
|  8> C          5.51504        3.40725       -4.63718
|  9> H          6.14919        3.60120       -5.39905
| 10> H          5.81358        2.89950       -3.80879
| 11> H          2.74138        4.51311       -5.82470
| 12> H          4.28755        4.52126       -6.61434
| 13> H          3.86125        3.59725       -2.66298
| 14> H          2.44649        3.97346       -3.65656
| 15> H          2.44395        1.61721       -4.48352
| 16> H          2.30781        1.67290       -2.74242
| 17> H          3.83491        1.26414       -3.48670
| 18> *
| 19> %MaxCore 64000
| 20>
| 21> %pal nprocs 4
| 22> end
| 23>
| 24> %scf
| 25>   MaxIter 150
| 26> end
| 27>
| 28>
| 29>                          ****END OF INPUT****

CARTESIAN COORDINATES (ANGSTROEM)
---------------------------------
  C      3.343500    3.354570   -3.592000
  C      2.952630    1.863080   -3.574850
  C      4.255870    3.703850   -4.726050
  N      3.734030    4.293780   -5.800770
  C      5.515040    3.407250   -4.637180
  H      6.149190    3.601200   -5.399050
  H      5.813580    2.899500   -3.808790
  H      2.741380    4.513110   -5.824700
  H      4.287550    4.521260   -6.614340
  H      3.861250    3.597250   -2.662980
  H      2.446490    3.973460   -3.656560
  H      2.443950    1.617210   -4.483520
  H      2.307810    1.672900   -2.742420
  H      3.834910    1.264140   -3.486700

 Total Charge           Charge          ....    0
 Multiplicity           Mult            ....    1
 Number of Electrons    NEL             ....   40
 Basis Dimension        Dim             ....  172

ORBITAL ENERGIES
----------------

  NO   OCC          E(Eh)            E(eV)
   0   2.0000     -14.119232      -384.2038
   1   2.0000     -10.010122      -272.3893
   2   2.0000      -9.999808      -272.1086
   3   2.0000      -9.987262      -271.7672
   4   2.0000      -9.930600      -270.2254
   5   2.0000      -0.851290       -23.1648
   6   2.0000      -0.716354       -19.4930
   7   2.0000      -0.655465       -17.8361
   8   2.0000      -0.581776       -15.8309
   9   2.0000      -0.514396       -13.9974
  10   2.0000      -0.476671       -12.9709
  11   2.0000      -0.438281       -11.9262
  12   2.0000      -0.398701       -10.8492
  13   2.0000      -0.372725       -10.1424
  14   2.0000      -0.353326        -9.6145
  15   2.0000      -0.344037        -9.3617
  16   2.0000      -0.314321        -8.5531
  17   2.0000      -0.301162        -8.1950
  18   2.0000      -0.288154        -7.8411
  19   2.0000      -0.160425        -4.3654
  20   0.0000       0.005356         0.1457
  21   0.0000       0.023897         0.6503
  22   0.0000       0.040276         1.0960
  23   0.0000       0.048088         1.3086
  24   0.0000       0.057842         1.5740

MULLIKEN ATOMIC CHARGES
-----------------------
   0 C :   -0.176755
   1 C :    0.538394
   2 C :    0.134118
   3 N :    0.032836
   4 C :    0.303368
   5 H :   -0.401830
   6 H :   -0.062161
   7 H :   -0.085963
   8 H :   -0.185087
   9 H :    0.086189
  10 H :   -0.093137
  11 H :   -0.057565
  12 H :    0.009053
  13 H :   -0.041459
Sum of atomic charges:   -0.0000000

LOEWDIN ATOMIC CHARGES
----------------------
   0 C :   -0.023108
   1 C :    0.145746
   2 C :   -0.261374
   3 N :    0.172034
   4 C :    0.170505
   5 H :   -0.083342
   6 H :   -0.073717
   7 H :   -0.004378
   8 H :    0.001099
   9 H :    0.020236
  10 H :    0.007030
  11 H :   -0.021626
  12 H :   -0.025258
  13 H :   -0.023846

  Mayer bond orders larger than 0.100000
B(  0-C ,  1-C ) :   1.2742 B(  0-C ,  2-C ) :   1.0749 B(  0-C ,  3-N ) :   0.1286
B(  0-C ,  4-C ) :   0.1815 B(  0-C ,  9-H ) :   0.8465 B(  0-C , 10-H ) :   0.8846
B(  0-C , 11-H ) :   0.1794 B(  0-C , 12-H ) :   0.1460 B(  0-C , 13-H ) :   0.1810
B(  1-C , 10-H ) :   0.1009 B(  1-C , 11-H ) :   0.8647 B(  1-C , 12-H ) :   0.8287
B(  1-C , 13-H ) :   0.8602 B(  2-C ,  3-N ) :   1.0753 B(  2-C ,  4-C ) :   1.7326
B(  2-C ,  5-H ) :   0.2202 B(  2-C ,  6-H ) :   0.1422 B(  2-C ,  8-H ) :  -0.1407
B(  2-C ,  9-H ) :   0.1060 B(  2-C , 10-H ) :   0.1239 B(  3-N ,  4-C ) :   0.2816
B(  3-N ,  7-H ) :   1.1118 B(  3-N ,  8-H ) :   1.3214 B(  4-C ,  5-H ) :   0.7698
B(  4-C ,  6-H ) :   0.8095 B(  7-H ,  8-H ) :  -0.1549

Dispersion correction           -0.012951692
FINAL SINGLE POINT ENERGY      -212.466325744735

DIPOLE MOMENT
-------------
                                X             Y             Z
Electronic contribution:      0.79743       2.27834      -1.88276
Nuclear contribution   :     -1.38463      -2.07457       1.55023
                        -----------------------------------------
Total Dipole Moment    :     -0.58719       0.20377      -0.33253
                        -----------------------------------------
Magnitude (a.u.)       :      0.70491
Magnitude (Debye)      :      1.79173

Rotational constants in cm-1:     0.272312     0.128195     0.101724
Rotational constants in MHz :  8163.717141  3843.180148  3049.598073

                             ****ORCA TERMINATED NORMALLY****
TOTAL RUN TIME: 0 days 0 hours 0 minutes 14 seconds 524 msec
