                         Program Version 5.0.0 -  RELEASE  -
|  1> !TPSS D3BJ RIJCOSX def2-SVPD def2/J TightSCF xyzfile
|  2>
|  3> *xyzfile 0 1 D2.xyz
|  4>
|  5> %MaxCore 64000
|  6>
|  7> %pal nprocs 4
|  8> end
|  9>
| 10> %scf
| 11>   MaxIter 150
| 12> end
| 13>
| 14>
| 15>                          ****END OF INPUT****

CARTESIAN COORDINATES (ANGSTROEM)
---------------------------------
  C      3.343500    3.354571   -3.591998
  C      2.952633    1.863077   -3.574849
  C      4.129209    0.898394   -3.418950
  H      3.733687   -0.100605   -3.237633
  H      4.719095    0.862556   -4.339005
  C      5.017344    1.315212   -2.221305
  C      4.255868    3.703851   -4.726054
  N      3.734032    4.293783   -5.800770
  C      5.515039    3.407255   -4.637185
  H      6.149187    3.601203   -5.399053
  H      5.813584    2.899504   -3.808785
  H      2.741380    4.513109   -5.824701
  H      4.287548    4.521260   -6.614341
  H      2.278938    1.735250   -2.725496
  H      2.377466    1.625787   -4.475869
  F      4.737055    0.854112   -1.122825
  O      5.928146    2.168108   -2.491365
  H      3.861246    3.597252   -2.662979
  H      2.446493    3.973461   -3.656556

 Total Charge           Charge          ....    0
 Multiplicity           Mult            ....    1
 Number of Electrons    NEL             ....   70
 Basis Dimension        Dim             ....  266

ORBITAL ENERGIES
----------------

  NO   OCC          E(Eh)            E(eV)
   0   2.0000     -24.513116      -667.0358
   1   2.0000     -18.904938      -514.4295
   2   2.0000     -14.111010      -383.9801
   3   2.0000     -10.178017      -276.9579
   4   2.0000     -10.028368      -272.8858
   5   2.0000     -10.020482      -272.6712
   6   2.0000     -10.002812      -272.1903
   7   2.0000      -9.999273      -272.0941
   8   2.0000      -9.901187      -269.4250
   9   2.0000      -1.253047       -34.0971
  10   2.0000      -0.954397       -25.9705
  11   2.0000      -0.843654       -22.9570
  12   2.0000      -0.751883       -20.4598
  13   2.0000      -0.686289       -18.6749
  14   2.0000      -0.640095       -17.4179
  15   2.0000      -0.617736       -16.8095
  16   2.0000      -0.566923       -15.4268
  17   2.0000      -0.521063       -14.1789
  18   2.0000      -0.508823       -13.8458
  19   2.0000      -0.491408       -13.3719
  20   2.0000      -0.481157       -13.0930
  21   2.0000      -0.451980       -12.2990
  22   2.0000      -0.434911       -11.8345
  23   2.0000      -0.422137       -11.4869
  24   2.0000      -0.402677       -10.9574
  25   2.0000      -0.373421       -10.1613
  26   2.0000      -0.352663        -9.5964
  27   2.0000      -0.350351        -9.5335
  28   2.0000      -0.325016        -8.8441
  29   2.0000      -0.317759        -8.6467
  30   2.0000      -0.311198        -8.4681
  31   2.0000      -0.288129        -7.8404
  32   2.0000      -0.281221        -7.6524
  33   2.0000      -0.226301        -6.1580
  34   2.0000      -0.149127        -4.0579
  35   0.0000      -0.071088        -1.9344
  36   0.0000       0.000503         0.0137
  37   0.0000       0.019810         0.5390
  38   0.0000       0.025022         0.6809
  39   0.0000       0.036614         0.9963

MULLIKEN ATOMIC CHARGES
-----------------------
   0 C :    0.227525
   1 C :   -0.016278
   2 C :    0.050996
   3 H :   -0.168834
   4 H :    0.215741
   5 C :    0.866695
   6 C :    0.258186
   7 N :   -0.032025
   8 C :    0.641092
   9 H :   -0.648656
  10 H :   -0.053775
  11 H :   -0.120622
  12 H :   -0.194736
  13 H :    0.039855
  14 H :   -0.120283
  15 F :   -0.387197
  16 O :   -0.549740
  17 H :    0.230025
  18 H :   -0.237971
Sum of atomic charges:    0.0000000

LOEWDIN ATOMIC CHARGES
----------------------
   0 C :    0.028369
   1 C :    0.003950
   2 C :    0.069598
   3 H :    0.015986
   4 H :    0.029111
   5 C :    0.036851
   6 C :   -0.230964
   7 N :    0.165399
   8 C :    0.204623
   9 H :   -0.074574
  10 H :   -0.189509
  11 H :   -0.010222
  12 H :   -0.000603
  13 H :    0.017942
  14 H :    0.025384
  15 F :    0.008031
  16 O :   -0.129416
  17 H :    0.019038
  18 H :    0.011005

  Mayer bond orders larger than 0.100000
B(  0-C ,  1-C ) :   1.1800 B(  0-C ,  6-C ) :   1.0142 B(  0-C ,  7-N ) :   0.1364
B(  0-C ,  8-C ) :   0.2279 B(  0-C , 13-H ) :   0.1128 B(  0-C , 14-H ) :   0.1387
B(  0-C , 17-H ) :   0.7251 B(  0-C , 18-H ) :   0.9293 B(  1-C ,  2-C ) :   1.2661
B(  1-C ,  3-H ) :   0.1825 B(  1-C ,  4-H ) :   0.1416 B(  1-C , 13-H ) :   0.8182
B(  1-C , 14-H ) :   0.9518 B(  1-C , 17-H ) :   0.1403 B(  1-C , 18-H ) :   0.1675
B(  2-C ,  3-H ) :   0.8974 B(  2-C ,  4-H ) :   0.8064 B(  2-C ,  5-C ) :   1.0639
B(  2-C , 10-H ) :   0.1098 B(  2-C , 13-H ) :   0.1227 B(  2-C , 15-F ) :   0.1062
B(  2-C , 16-O ) :   0.1133 B(  3-H , 10-H ) :  -0.1048 B(  4-H , 10-H ) :   0.1152
B(  5-C , 15-F ) :   0.6684 B(  5-C , 16-O ) :   1.5925 B(  6-C ,  7-N ) :   0.9441
B(  6-C ,  8-C ) :   1.7896 B(  6-C ,  9-H ) :   0.2422 B(  6-C , 10-H ) :   0.2902
B(  6-C , 12-H ) :  -0.1422 B(  7-N ,  8-C ) :   0.3135 B(  7-N , 11-H ) :   1.1918
B(  7-N , 12-H ) :   1.3663 B(  8-C ,  9-H ) :   0.8699 B(  8-C , 10-H ) :   0.5572
B(  9-H , 10-H ) :  -0.2727 B( 11-H , 12-H ) :  -0.1510 B( 15-F , 16-O ) :   0.1123

Dispersion correction           -0.023637212
FINAL SINGLE POINT ENERGY      -464.172996917945

DIPOLE MOMENT
-------------
                                X             Y             Z
Electronic contribution:      4.33326      -5.08760       9.53327
Nuclear contribution   :     -5.64491       4.57111      -9.93176
                        -----------------------------------------
Total Dipole Moment    :     -1.31164      -0.51649      -0.39849
                        -----------------------------------------
Magnitude (a.u.)       :      1.46491
Magnitude (Debye)      :      3.72352

Rotational constants in cm-1:     0.109825     0.034347     0.029470
Rotational constants in MHz :  3292.465653  1029.684117   883.494260

                             ****ORCA TERMINATED NORMALLY****
TOTAL RUN TIME: 0 days 0 hours 0 minutes 25 seconds 109 msec
