                         Program Version 5.0.0 -  RELEASE  -
|  1> !wB97X-D3 RIJCOSX def2-SVPD def2/J TightSCF CPCM(Water)
|  2> *xyz -1 1
|  3> C         -2.12050        0.88520        1.78951
|  4> C         -0.77894        0.17197        1.80496
|  5> H          0.01569        0.91077        1.93915
|  6> H         -0.74355       -0.50683        2.66542
|  7> C         -0.60249       -0.63071        0.49224
|  8> H          0.31389       -1.24035        0.60350
|  9> H         -0.36383        0.11332       -0.30117
| 10> O         -1.71206       -1.37684        0.20253
| 11> H         -2.16160        1.54956        0.95175
| 12> H         -2.23761        1.44436        2.69423
| 13> H         -2.90702        0.16393        1.71165
| 14> *
| 15> %MaxCore 64000
| 16>
| 17> %pal nprocs 18
| 18> end
| 19> %scf
| 20>   MaxIter 150
| 21> end
| 22>
| 23>                          ****END OF INPUT****

CARTESIAN COORDINATES (ANGSTROEM)
---------------------------------
  C     -2.120500    0.885200    1.789510
  C     -0.778940    0.171970    1.804960
  H      0.015690    0.910770    1.939150
  H     -0.743550   -0.506830    2.665420
  C     -0.602490   -0.630710    0.492240
  H      0.313890   -1.240350    0.603500
  H     -0.363830    0.113320   -0.301170
  O     -1.712060   -1.376840    0.202530
  H     -2.161600    1.549560    0.951750
  H     -2.237610    1.444360    2.694230
  H     -2.907020    0.163930    1.711650

 Total Charge           Charge          ....   -1
 Multiplicity           Mult            ....    1
 Number of Electrons    NEL             ....   34
 Basis Dimension        Dim             ....  139

ORBITAL ENERGIES
----------------

  NO   OCC          E(Eh)            E(eV)
   0   2.0000     -19.117433      -520.2118
   1   2.0000     -10.284408      -279.8530
   2   2.0000     -10.253828      -279.0208
   3   2.0000     -10.249695      -278.9084
   4   2.0000      -0.989214       -26.9179
   5   2.0000      -0.849049       -23.1038
   6   2.0000      -0.732708       -19.9380
   7   2.0000      -0.637349       -17.3431
   8   2.0000      -0.537044       -14.6137
   9   2.0000      -0.526690       -14.3320
  10   2.0000      -0.477121       -12.9831
  11   2.0000      -0.450570       -12.2606
  12   2.0000      -0.416132       -11.3235
  13   2.0000      -0.411907       -11.2086
  14   2.0000      -0.398232       -10.8364
  15   2.0000      -0.269197        -7.3252
  16   2.0000      -0.268523        -7.3069
  17   0.0000       0.103660         2.8207
  18   0.0000       0.127257         3.4628
  19   0.0000       0.135502         3.6872
  20   0.0000       0.146940         3.9984
  21   0.0000       0.172957         4.7064

MULLIKEN ATOMIC CHARGES
-----------------------
   0 C :    0.593116
   1 C :   -0.383785
   2 H :   -0.092635
   3 H :   -0.091394
   4 C :    0.439276
   5 H :   -0.182989
   6 H :   -0.105522
   7 O :   -0.956096
   8 H :   -0.065676
   9 H :   -0.085324
  10 H :   -0.068971
Sum of atomic charges:   -1.0000000

LOEWDIN ATOMIC CHARGES
----------------------
   0 C :    0.081354
   1 C :   -0.102920
   2 H :    0.007332
   3 H :    0.009163
   4 C :   -0.219828
   5 H :   -0.019540
   6 H :   -0.011176
   7 O :   -0.650951
   8 H :   -0.020007
   9 H :   -0.027763
  10 H :   -0.045665

  Mayer bond orders larger than 0.100000
B(  0-C ,  1-C ) :   1.2751 B(  0-C ,  8-H ) :   0.8139 B(  0-C ,  9-H ) :   0.8388
B(  0-C , 10-H ) :   0.8316 B(  1-C ,  2-H ) :   0.9701 B(  1-C ,  3-H ) :   0.9505
B(  1-C ,  4-C ) :   1.0653 B(  1-C ,  5-H ) :   0.1028 B(  1-C ,  6-H ) :   0.1064
B(  1-C ,  8-H ) :   0.1737 B(  1-C ,  9-H ) :   0.1703 B(  1-C , 10-H ) :   0.1846
B(  4-C ,  5-H ) :   0.9542 B(  4-C ,  6-H ) :   0.9148 B(  4-C ,  7-O ) :   1.2669

Dispersion correction           -0.001904531
FINAL SINGLE POINT ENERGY      -193.665772021313

DIPOLE MOMENT
-------------
                                X             Y             Z
Electronic contribution:     -0.15615      -1.71324      -1.04873
Nuclear contribution   :      1.03476       3.87369       2.65163
                        -----------------------------------------
Total Dipole Moment    :      0.87860       2.16045       1.60290
                        -----------------------------------------
Magnitude (a.u.)       :      2.82998
Magnitude (Debye)      :      7.19324

Rotational constants in cm-1:     0.475803     0.193433     0.155403
Rotational constants in MHz : 14264.216647  5798.988361  4658.874800

                             ****ORCA TERMINATED NORMALLY****
TOTAL RUN TIME: 0 days 0 hours 0 minutes 7 seconds 568 msec
