                         Program Version 5.0.0 -  RELEASE  -
|  1> !wB97X-D3 RIJCOSX def2-SVPD def2/J TightSCF CPCM(Water)
|  2> *xyz 1 1
|  3> C         -2.12050        0.88520        1.78951
|  4> C         -0.77894        0.17197        1.80496
|  5> H         -2.32419        1.47265        2.68608
|  6> H         -2.18770        1.54127        0.91948
|  7> N         -3.17690       -0.15948        1.61070
|  8> H          0.01569        0.91077        1.93915
|  9> H         -0.74355       -0.50683        2.66542
| 10> C         -0.60249       -0.63071        0.49224
| 11> H         -4.06474        0.23127        1.28675
| 12> H         -3.34407       -0.67151        2.48493
| 13> H         -2.71686       -0.78189        0.93588
| 14> H         -0.63812        0.03805       -0.34226
| 15> H         -1.38918       -1.35085        0.40604
| 16> H          0.34172       -1.13388        0.50602
| 17> *
| 18> %MaxCore 64000
| 19>
| 20> %pal nprocs 18
| 21> end
| 22>
| 23> %scf
| 24>   MaxIter 150
| 25> end
| 26>
| 27>
| 28>                          ****END OF INPUT****

CARTESIAN COORDINATES (ANGSTROEM)
---------------------------------
  C     -2.120500    0.885200    1.789510
  C     -0.778940    0.171970    1.804960
  H     -2.324190    1.472650    2.686080
  H     -2.187700    1.541270    0.919480
  N     -3.176900   -0.159480    1.610700
  H      0.015690    0.910770    1.939150
  H     -0.743550   -0.506830    2.665420
  C     -0.602490   -0.630710    0.492240
  H     -4.064740    0.231270    1.286750
  H     -3.344070   -0.671510    2.484930
  H     -2.716860   -0.781890    0.935880
  H     -0.638120    0.038050   -0.342260
  H     -1.389180   -1.350850    0.406040
  H      0.341720   -1.133880    0.506020

 Total Charge           Charge          ....    1
 Multiplicity           Mult            ....    1
 Number of Electrons    NEL             ....   34
 Basis Dimension        Dim             ....  160

ORBITAL ENERGIES
----------------

  NO   OCC          E(Eh)            E(eV)
   0   2.0000     -14.551239      -395.9594
   1   2.0000     -10.350775      -281.6589
   2   2.0000     -10.305625      -280.4303
   3   2.0000     -10.288900      -279.9752
   4   2.0000      -1.110788       -30.2261
   5   2.0000      -0.910070       -24.7643
   6   2.0000      -0.817065       -22.2335
   7   2.0000      -0.722623       -19.6636
   8   2.0000      -0.699832       -19.0434
   9   2.0000      -0.674732       -18.3604
  10   2.0000      -0.595313       -16.1993
  11   2.0000      -0.560934       -15.2638
  12   2.0000      -0.538105       -14.6426
  13   2.0000      -0.509953       -13.8765
  14   2.0000      -0.465491       -12.6666
  15   2.0000      -0.455430       -12.3929
  16   2.0000      -0.448431       -12.2024
  17   0.0000       0.087753         2.3879
  18   0.0000       0.116493         3.1699
  19   0.0000       0.119016         3.2386
  20   0.0000       0.127888         3.4800
  21   0.0000       0.162468         4.4210

MULLIKEN ATOMIC CHARGES
-----------------------
   0 C :    0.503078
   1 C :   -0.332714
   2 H :   -0.086451
   3 H :    0.075435
   4 N :   -0.726316
   5 H :   -0.039741
   6 H :    0.070068
   7 C :    0.522784
   8 H :    0.390567
   9 H :    0.467002
  10 H :    0.213299
  11 H :    0.037445
  12 H :   -0.086069
  13 H :   -0.008387
Sum of atomic charges:    1.0000000

LOEWDIN ATOMIC CHARGES
----------------------
   0 C :    0.091710
   1 C :   -0.033950
   2 H :    0.049734
   3 H :    0.054385
   4 N :    0.364028
   5 H :    0.037154
   6 H :    0.037384
   7 C :    0.148404
   8 H :    0.120068
   9 H :    0.124218
  10 H :    0.030846
  11 H :    0.003524
  12 H :   -0.026126
  13 H :   -0.001379

  Mayer bond orders larger than 0.100000
B(  0-C ,  1-C ) :   1.1302 B(  0-C ,  2-H ) :   0.9785 B(  0-C ,  3-H ) :   0.9188
B(  0-C ,  4-N ) :   0.7689 B(  1-C ,  5-H ) :   0.9989 B(  1-C ,  6-H ) :   0.9402
B(  1-C ,  7-C ) :   1.2313 B(  1-C , 11-H ) :   0.1477 B(  1-C , 12-H ) :   0.1223
B(  1-C , 13-H ) :   0.1583 B(  2-H ,  4-N ) :   0.1266 B(  4-N ,  8-H ) :   0.7254
B(  4-N ,  9-H ) :   0.7150 B(  4-N , 10-H ) :   0.8330 B(  7-C , 11-H ) :   0.8071
B(  7-C , 12-H ) :   0.8685 B(  7-C , 13-H ) :   0.8434 B( 10-H , 12-H ) :   0.2443

Dispersion correction           -0.002778400
FINAL SINGLE POINT ENERGY      -174.791141080673

DIPOLE MOMENT
-------------
                                X             Y             Z
Electronic contribution:     -2.35492       0.42254       1.00255
Nuclear contribution   :      0.18509      -0.64781      -0.64735
                        -----------------------------------------
Total Dipole Moment    :     -2.16982      -0.22527       0.35520
                        -----------------------------------------
Magnitude (a.u.)       :      2.21021
Magnitude (Debye)      :      5.61792

Rotational constants in cm-1:     0.411855     0.178330     0.145265
Rotational constants in MHz : 12347.103052  5346.196801  4354.936890

                             ****ORCA TERMINATED NORMALLY****
TOTAL RUN TIME: 0 days 0 hours 0 minutes 8 seconds 628 msec
