                         Program Version 5.0.0 -  RELEASE  -
|  1> !wB97X-D3 RIJCOSX def2-SVPD def2/J TightSCF CPCM(Water)
|  2> *xyz 0 1
|  3> C         -2.12050        0.88520        1.78951
|  4> C         -0.77894        0.17197        1.80496
|  5> H          0.01569        0.91077        1.93915
|  6> H         -0.74355       -0.50683        2.66542
|  7> C         -0.60249       -0.63071        0.49224
|  8> H          0.31389       -1.24035        0.60350
|  9> H         -0.36383        0.11332       -0.30117
| 10> F         -1.71206       -1.37684        0.20253
| 11> H         -2.16160        1.54956        0.95175
| 12> H         -2.23761        1.44436        2.69423
| 13> H         -2.90702        0.16393        1.71165
| 14> *
| 15> %MaxCore 64000
| 16>
| 17> %pal nprocs 18
| 18> end
| 19> %scf
| 20>   MaxIter 150
| 21> end
| 22>
| 23>                          ****END OF INPUT****

CARTESIAN COORDINATES (ANGSTROEM)
---------------------------------
  C     -2.120500    0.885200    1.789510
  C     -0.778940    0.171970    1.804960
  H      0.015690    0.910770    1.939150
  H     -0.743550   -0.506830    2.665420
  C     -0.602490   -0.630710    0.492240
  H      0.313890   -1.240350    0.603500
  H     -0.363830    0.113320   -0.301170
  F     -1.712060   -1.376840    0.202530
  H     -2.161600    1.549560    0.951750
  H     -2.237610    1.444360    2.694230
  H     -2.907020    0.163930    1.711650

 Total Charge           Charge          ....    0
 Multiplicity           Mult            ....    1
 Number of Electrons    NEL             ....   34
 Basis Dimension        Dim             ....  139

ORBITAL ENERGIES
----------------

  NO   OCC          E(Eh)            E(eV)
   0   2.0000     -24.798427      -674.7995
   1   2.0000     -10.362545      -281.9792
   2   2.0000     -10.286169      -279.9009
   3   2.0000     -10.266822      -279.3744
   4   2.0000      -1.308402       -35.6034
   5   2.0000      -0.893319       -24.3084
   6   2.0000      -0.791555       -21.5393
   7   2.0000      -0.696117       -18.9423
   8   2.0000      -0.614847       -16.7308
   9   2.0000      -0.599668       -16.3178
  10   2.0000      -0.578511       -15.7421
  11   2.0000      -0.533256       -14.5106
  12   2.0000      -0.493828       -13.4378
  13   2.0000      -0.468042       -12.7361
  14   2.0000      -0.442719       -12.0470
  15   2.0000      -0.416993       -11.3470
  16   2.0000      -0.414725       -11.2852
  17   0.0000       0.098860         2.6901
  18   0.0000       0.124751         3.3946
  19   0.0000       0.132090         3.5944
  20   0.0000       0.150946         4.1075
  21   0.0000       0.175095         4.7646

MULLIKEN ATOMIC CHARGES
-----------------------
   0 C :    0.500550
   1 C :   -0.515076
   2 H :   -0.031588
   3 H :   -0.032739
   4 C :    0.651731
   5 H :   -0.033829
   6 H :    0.036612
   7 F :   -0.474133
   8 H :   -0.030385
   9 H :   -0.059259
  10 H :   -0.011884
Sum of atomic charges:    0.0000000

LOEWDIN ATOMIC CHARGES
----------------------
   0 C :    0.104497
   1 C :   -0.062467
   2 H :    0.030869
   3 H :    0.025014
   4 C :    0.107736
   5 H :    0.034785
   6 H :    0.042926
   7 F :   -0.234744
   8 H :   -0.011010
   9 H :   -0.015796
  10 H :   -0.021812

  Mayer bond orders larger than 0.100000
B(  0-C ,  1-C ) :   1.2818 B(  0-C ,  8-H ) :   0.8394 B(  0-C ,  9-H ) :   0.8651
B(  0-C , 10-H ) :   0.8467 B(  1-C ,  2-H ) :   0.9844 B(  1-C ,  3-H ) :   0.9788
B(  1-C ,  4-C ) :   1.1521 B(  1-C ,  8-H ) :   0.1610 B(  1-C ,  9-H ) :   0.1617
B(  1-C , 10-H ) :   0.1542 B(  4-C ,  5-H ) :   0.9558 B(  4-C ,  6-H ) :   0.9102
B(  4-C ,  7-F ) :   0.7038

Dispersion correction           -0.001910615
FINAL SINGLE POINT ENERGY      -218.168260666282

DIPOLE MOMENT
-------------
                                X             Y             Z
Electronic contribution:     -0.83063      -4.71880      -3.42033
Nuclear contribution   :      1.51874       5.24801       3.69322
                        -----------------------------------------
Total Dipole Moment    :      0.68811       0.52922       0.27289
                        -----------------------------------------
Magnitude (a.u.)       :      0.90997
Magnitude (Debye)      :      2.31295

Rotational constants in cm-1:     0.461913     0.182549     0.147043
Rotational constants in MHz : 13847.794369  5472.673442  4408.246847

                             ****ORCA TERMINATED NORMALLY****
TOTAL RUN TIME: 0 days 0 hours 0 minutes 7 seconds 91 msec
