                         Program Version 5.0.0 -  RELEASE  -
|  1> !wB97X-D3 RIJCOSX def2-SVPD def2/J TightSCF CPCM(Water)
|  2> *xyz 0 1
|  3> C         -2.12050        0.88520        1.78951
|  4> C         -0.77894        0.17197        1.80496
|  5> H         -2.32419        1.47265        2.68608
|  6> H         -2.18770        1.54127        0.91948
|  7> C         -3.17690       -0.15948        1.61070
|  8> H          0.01569        0.91077        1.93915
|  9> H         -0.74355       -0.50683        2.66542
| 10> C         -0.60249       -0.63071        0.49224
| 11> H         -4.06474        0.23127        1.28675
| 12> H         -3.34407       -0.67151        2.48493
| 13> H         -2.71686       -0.78189        0.93588
| 14> H         -0.63812        0.03805       -0.34226
| 15> H         -1.38918       -1.35085        0.40604
| 16> H          0.34172       -1.13388        0.50602
| 17> *
| 18> %MaxCore 64000
| 19>
| 20> %pal nprocs 18
| 21> end
| 22>
| 23> %scf
| 24>   MaxIter 150
| 25> end
| 26>
| 27>
| 28>                          ****END OF INPUT****

CARTESIAN COORDINATES (ANGSTROEM)
---------------------------------
  C     -2.120500    0.885200    1.789510
  C     -0.778940    0.171970    1.804960
  H     -2.324190    1.472650    2.686080
  H     -2.187700    1.541270    0.919480
  C     -3.176900   -0.159480    1.610700
  H      0.015690    0.910770    1.939150
  H     -0.743550   -0.506830    2.665420
  C     -0.602490   -0.630710    0.492240
  H     -4.064740    0.231270    1.286750
  H     -3.344070   -0.671510    2.484930
  H     -2.716860   -0.781890    0.935880
  H     -0.638120    0.038050   -0.342260
  H     -1.389180   -1.350850    0.406040
  H      0.341720   -1.133880    0.506020

 Total Charge           Charge          ....    0
 Multiplicity           Mult            ....    1
 Number of Electrons    NEL             ....   34
 Basis Dimension        Dim             ....  160

ORBITAL ENERGIES
----------------

  NO   OCC          E(Eh)            E(eV)
   0   2.0000     -10.277483      -279.6645
   1   2.0000     -10.269854      -279.4569
   2   2.0000     -10.266024      -279.3527
   3   2.0000     -10.240011      -278.6449
   4   2.0000      -0.917106       -24.9557
   5   2.0000      -0.824814       -22.4443
   6   2.0000      -0.750260       -20.4156
   7   2.0000      -0.665941       -18.1212
   8   2.0000      -0.580527       -15.7970
   9   2.0000      -0.559551       -15.2261
  10   2.0000      -0.517304       -14.0766
  11   2.0000      -0.484745       -13.1906
  12   2.0000      -0.467591       -12.7238
  13   2.0000      -0.451002       -12.2724
  14   2.0000      -0.416947       -11.3457
  15   2.0000      -0.412478       -11.2241
  16   2.0000      -0.401155       -10.9160
  17   0.0000       0.103428         2.8144
  18   0.0000       0.122795         3.3414
  19   0.0000       0.125969         3.4278
  20   0.0000       0.135487         3.6868
  21   0.0000       0.176242         4.7958

MULLIKEN ATOMIC CHARGES
-----------------------
   0 C :   -0.309357
   1 C :   -0.225650
   2 H :   -0.201866
   3 H :    0.039623
   4 C :    1.465815
   5 H :   -0.128051
   6 H :    0.010701
   7 C :    0.555876
   8 H :   -0.104802
   9 H :   -0.051431
  10 H :   -0.974523
  11 H :    0.023927
  12 H :   -0.070212
  13 H :   -0.030049
Sum of atomic charges:   -0.0000000

LOEWDIN ATOMIC CHARGES
----------------------
   0 C :   -0.079493
   1 C :   -0.066257
   2 H :    0.019587
   3 H :    0.025531
   4 C :    0.131063
   5 H :    0.015521
   6 H :    0.026670
   7 C :    0.126640
   8 H :   -0.026774
   9 H :   -0.019244
  10 H :   -0.090911
  11 H :   -0.005804
  12 H :   -0.040220
  13 H :   -0.016309

  Mayer bond orders larger than 0.100000
B(  0-C ,  1-C ) :   1.0972 B(  0-C ,  2-H ) :   1.0526 B(  0-C ,  3-H ) :   0.8981
B(  0-C ,  4-C ) :   1.0800 B(  0-C ,  6-H ) :   0.1053 B(  0-C ,  8-H ) :   0.1355
B(  0-C ,  9-H ) :   0.2129 B(  0-C , 10-H ) :   0.3823 B(  1-C ,  5-H ) :   1.0122
B(  1-C ,  6-H ) :   0.9274 B(  1-C ,  7-C ) :   1.2237 B(  1-C , 11-H ) :   0.1767
B(  1-C , 12-H ) :   0.1306 B(  1-C , 13-H ) :   0.1523 B(  4-C ,  8-H ) :   0.5678
B(  4-C ,  9-H ) :   0.5128 B(  4-C , 10-H ) :   0.2646 B(  7-C , 10-H ) :   0.1209
B(  7-C , 11-H ) :   0.7901 B(  7-C , 12-H ) :   0.8142 B(  7-C , 13-H ) :   0.8159
B(  8-H ,  9-H ) :  -0.1010 B(  8-H , 10-H ) :   0.2350 B(  9-H , 10-H ) :   0.2625
B( 10-H , 12-H ) :   0.3801

Dispersion correction           -0.002697600
FINAL SINGLE POINT ENERGY      -158.278667397595

DIPOLE MOMENT
-------------
                                X             Y             Z
Electronic contribution:      0.30851       0.70257       0.58000
Nuclear contribution   :     -0.27446      -0.71220      -0.58629
                        -----------------------------------------
Total Dipole Moment    :      0.03405      -0.00963      -0.00628
                        -----------------------------------------
Magnitude (a.u.)       :      0.03594
Magnitude (Debye)      :      0.09134

Rotational constants in cm-1:     0.419751     0.185753     0.151088
Rotational constants in MHz : 12583.819928  5568.732483  4529.512437

                             ****ORCA TERMINATED NORMALLY****
TOTAL RUN TIME: 0 days 0 hours 0 minutes 8 seconds 318 msec
