                         Program Version 5.0.0 -  RELEASE  -
|  1> !LC-PBE RIJCOSX def2-TZVPD def2/J TightSCF
|  2> *xyz -1 1
|  3> C         -0.87096        0.24804       -2.66280
|  4> C         -0.47749        0.60819       -4.10105
|  5> H          0.20677        1.45830       -4.11875
|  6> H         -1.36844        0.92942       -4.64785
|  7> C          0.18467       -0.50664       -4.91676
|  8> O         -0.15869       -1.70109       -4.65798
|  9> O          1.05594       -0.17441       -5.74037
| 10> H         -1.54056       -0.58646       -2.67455
| 11> H         -1.35339        1.08600       -2.20455
| 12> H          0.00660       -0.00662       -2.10609
| 13> *
| 14>
| 15> %MaxCore 64000
| 16>
| 17> %pal nprocs 4
| 18> end
| 19>
| 20> %scf
| 21>   MaxIter 150
| 22> end
| 23>
| 24>
| 25>                          ****END OF INPUT****

CARTESIAN COORDINATES (ANGSTROEM)
---------------------------------
  C     -0.870960    0.248040   -2.662800
  C     -0.477490    0.608190   -4.101050
  H      0.206770    1.458300   -4.118750
  H     -1.368440    0.929420   -4.647850
  C      0.184670   -0.506640   -4.916760
  O     -0.158690   -1.701090   -4.657980
  O      1.055940   -0.174410   -5.740370
  H     -1.540560   -0.586460   -2.674550
  H     -1.353390    1.086000   -2.204550
  H      0.006600   -0.006620   -2.106090

 Total Charge           Charge          ....   -1
 Multiplicity           Mult            ....    1
 Number of Electrons    NEL             ....   40
 Basis Dimension        Dim             ....  236

ORBITAL ENERGIES
----------------

  NO   OCC          E(Eh)            E(eV)
   0   2.0000     -18.710917      -509.1499
   1   2.0000     -18.706676      -509.0345
   2   2.0000     -10.003110      -272.1985
   3   2.0000      -9.948701      -270.7179
   4   2.0000      -9.942856      -270.5589
   5   2.0000      -0.988475       -26.8978
   6   2.0000      -0.884823       -24.0773
   7   2.0000      -0.781671       -21.2703
   8   2.0000      -0.640893       -17.4396
   9   2.0000      -0.468424       -12.7465
  10   2.0000      -0.440228       -11.9792
  11   2.0000      -0.404887       -11.0175
  12   2.0000      -0.372925       -10.1478
  13   2.0000      -0.355402        -9.6710
  14   2.0000      -0.346783        -9.4364
  15   2.0000      -0.314188        -8.5495
  16   2.0000      -0.295843        -8.0503
  17   2.0000      -0.176890        -4.8134
  18   2.0000      -0.172995        -4.7074
  19   2.0000      -0.162587        -4.4242
  20   0.0000       0.187665         5.1066
  21   0.0000       0.206801         5.6273
  22   0.0000       0.214915         5.8481
  23   0.0000       0.234733         6.3874
  24   0.0000       0.250016         6.8033

MULLIKEN ATOMIC CHARGES
-----------------------
   0 C :   -1.089447
   1 C :   -0.397018
   2 H :    0.298670
   3 H :    0.266738
   4 C :    0.348094
   5 O :   -0.706392
   6 O :   -0.690952
   7 H :    0.306651
   8 H :    0.354224
   9 H :    0.309431
Sum of atomic charges:   -1.0000000

LOEWDIN ATOMIC CHARGES
----------------------
   0 C :   -0.155527
   1 C :   -0.226795
   2 H :    0.098331
   3 H :    0.105555
   4 C :   -0.787392
   5 O :   -0.117449
   6 O :   -0.097845
   7 H :    0.062085
   8 H :    0.051147
   9 H :    0.067891

  Mayer bond orders larger than 0.100000
B(  0-C ,  1-C ) :   0.5480 B(  0-C ,  7-H ) :   0.9849 B(  0-C ,  8-H ) :   0.9105
B(  0-C ,  9-H ) :   0.9586 B(  1-C ,  2-H ) :   0.9565 B(  1-C ,  3-H ) :   0.9385
B(  1-C ,  4-C ) :   0.9769 B(  4-C ,  5-O ) :   1.4701 B(  4-C ,  6-O ) :   1.4874

FINAL SINGLE POINT ENERGY      -267.157483410372

DIPOLE MOMENT
-------------
                                X             Y             Z
Electronic contribution:      2.58539      -2.84276      -4.50388
Nuclear contribution   :     -3.54611       4.15440       5.90446
                        -----------------------------------------
Total Dipole Moment    :     -0.96072       1.31164       1.40059
                        -----------------------------------------
Magnitude (a.u.)       :      2.14593
Magnitude (Debye)      :      5.45453

Rotational constants in cm-1:     0.332789     0.132085     0.101080
Rotational constants in MHz :  9976.755824  3959.803182  3030.288811

                             ****ORCA TERMINATED NORMALLY****
TOTAL RUN TIME: 0 days 0 hours 0 minutes 34 seconds 923 msec
