                         Program Version 5.0.0 -  RELEASE  -
|  1> !LC-PBE RIJCOSX def2-TZVPD def2/J TightSCF
|  2> *xyz 1 1
|  3> C          2.48645       -2.67712       -2.56345
|  4> C          3.03764       -2.36672       -3.92351
|  5> N          2.28036       -2.45441       -4.96769
|  6> N          4.32174       -2.01793       -4.01664
|  7> H          4.87994       -1.91167       -3.17382
|  8> H          4.71015       -1.67088       -4.88356
|  9> H          1.27042       -2.41265       -4.86614
| 10> H          2.58183       -2.05528       -5.84688
| 11> C          2.49799       -1.46946       -1.61030
| 12> H          1.47259       -3.05153       -2.69437
| 13> H          3.08320       -3.49064       -2.14147
| 14> H          1.91240       -0.67831       -2.02991
| 15> H          3.50450       -1.13364       -1.47227
| 16> H          2.08509       -1.75655       -0.66585
| 17> *
| 18>
| 19> %MaxCore 64000
| 20>
| 21> %pal nprocs 4
| 22> end
| 23>
| 24> %scf
| 25>   MaxIter 150
| 26> end
| 27>
| 28>
| 29>                          ****END OF INPUT****

CARTESIAN COORDINATES (ANGSTROEM)
---------------------------------
  C      2.486450   -2.677120   -2.563450
  C      3.037640   -2.366720   -3.923510
  N      2.280360   -2.454410   -4.967690
  N      4.321740   -2.017930   -4.016640
  H      4.879940   -1.911670   -3.173820
  H      4.710150   -1.670880   -4.883560
  H      1.270420   -2.412650   -4.866140
  H      2.581830   -2.055280   -5.846880
  C      2.497990   -1.469460   -1.610300
  H      1.472590   -3.051530   -2.694370
  H      3.083200   -3.490640   -2.141470
  H      1.912400   -0.678310   -2.029910
  H      3.504500   -1.133640   -1.472270
  H      2.085090   -1.756550   -0.665850

 Total Charge           Charge          ....    1
 Multiplicity           Mult            ....    1
 Number of Electrons    NEL             ....   40
 Basis Dimension        Dim             ....  266

ORBITAL ENERGIES
----------------

  NO   OCC          E(Eh)            E(eV)
   0   2.0000     -14.463772      -393.5792
   1   2.0000     -14.457888      -393.4191
   2   2.0000     -10.449605      -284.3482
   3   2.0000     -10.315508      -280.6992
   4   2.0000     -10.270638      -279.4783
   5   2.0000      -1.386778       -37.7361
   6   2.0000      -1.280502       -34.8442
   7   2.0000      -1.147544       -31.2263
   8   2.0000      -1.028913       -27.9981
   9   2.0000      -0.974367       -26.5139
  10   2.0000      -0.923825       -25.1386
  11   2.0000      -0.900986       -24.5171
  12   2.0000      -0.841344       -22.8941
  13   2.0000      -0.802520       -21.8377
  14   2.0000      -0.765338       -20.8259
  15   2.0000      -0.752141       -20.4668
  16   2.0000      -0.683009       -18.5856
  17   2.0000      -0.670806       -18.2536
  18   2.0000      -0.659285       -17.9401
  19   2.0000      -0.627005       -17.0617
  20   0.0000      -0.123395        -3.3577
  21   0.0000      -0.093987        -2.5575
  22   0.0000      -0.056448        -1.5360
  23   0.0000      -0.052447        -1.4272
  24   0.0000      -0.033543        -0.9127

MULLIKEN ATOMIC CHARGES
-----------------------
   0 C :   -0.784215
   1 C :    0.765086
   2 N :   -0.385269
   3 N :   -0.402494
   4 H :    0.270521
   5 H :    0.243633
   6 H :    0.295906
   7 H :    0.263663
   8 C :   -1.139591
   9 H :    0.373353
  10 H :    0.381581
  11 H :    0.361496
  12 H :    0.389813
  13 H :    0.366516
Sum of atomic charges:    1.0000000

LOEWDIN ATOMIC CHARGES
----------------------
   0 C :   -0.162160
   1 C :   -0.363298
   2 N :    0.223979
   3 N :    0.217024
   4 H :    0.151040
   5 H :    0.149879
   6 H :    0.161576
   7 H :    0.155364
   8 C :   -0.076871
   9 H :    0.131899
  10 H :    0.147366
  11 H :    0.091911
  12 H :    0.078065
  13 H :    0.094225

  Mayer bond orders larger than 0.100000
B(  0-C ,  1-C ) :   0.6789 B(  0-C ,  8-C ) :   0.6166 B(  0-C ,  9-H ) :   0.9003
B(  0-C , 10-H ) :   0.9263 B(  1-C ,  2-N ) :   1.2184 B(  1-C ,  3-N ) :   1.0838
B(  2-N ,  6-H ) :   0.9096 B(  2-N ,  7-H ) :   0.9690 B(  3-N ,  4-H ) :   0.9359
B(  3-N ,  5-H ) :   1.0013 B(  8-C , 11-H ) :   0.9424 B(  8-C , 12-H ) :   0.8513
B(  8-C , 13-H ) :   0.9626

FINAL SINGLE POINT ENERGY      -228.365522077870

DIPOLE MOMENT
-------------
                                X             Y             Z
Electronic contribution:      1.04590      -1.06981      -3.91072
Nuclear contribution   :     -0.84604       1.34287       2.92710
                        -----------------------------------------
Total Dipole Moment    :      0.19986       0.27307      -0.98362
                        -----------------------------------------
Magnitude (a.u.)       :      1.04020
Magnitude (Debye)      :      2.64398

Rotational constants in cm-1:     0.265816     0.126189     0.097583
Rotational constants in MHz :  7968.948902  3783.040103  2925.457702

                             ****ORCA TERMINATED NORMALLY****
TOTAL RUN TIME: 0 days 0 hours 0 minutes 46 seconds 960 msec
