                         Program Version 5.0.0 -  RELEASE  -
|  1> !LC-PBE RIJCOSX def2-TZVPD def2/J TightSCF xyzfile
|  2>
|  3> *xyzfile 0 1 B.xyz
|  4>
|  5> %MaxCore 64000
|  6>
|  7> %pal nprocs 4
|  8> end
|  9>
| 10> %scf
| 11>   MaxIter 150
| 12> end
| 13>
| 14>
| 15>                          ****END OF INPUT****

CARTESIAN COORDINATES (ANGSTROEM)
---------------------------------
  C      2.486452   -2.677121   -2.563447
  C     -0.870963    0.248043   -2.662804
  C     -0.477492    0.608191   -4.101052
  H      0.206773    1.458299   -4.118748
  H     -1.368442    0.929419   -4.647855
  C      0.184673   -0.506640   -4.916760
  C      3.037640   -2.366715   -3.923509
  N      2.280360   -2.454408   -4.967692
  N      4.321736   -2.017932   -4.016641
  H      4.879940   -1.911668   -3.173823
  H      4.710148   -1.670882   -4.883561
  H      1.270423   -2.412650   -4.866143
  H      2.581829   -2.055282   -5.846878
  O     -0.158685   -1.701088   -4.657981
  O      1.055938   -0.174410   -5.740373
  C      2.497991   -1.469464   -1.610303
  C      1.582841   -0.321986   -2.042619
  H      2.193083   -1.833912   -0.625420
  H      3.523356   -1.103982   -1.490392
  C      0.100160   -0.673551   -1.915815
  H      1.822311   -0.040361   -3.072834
  H      1.813180    0.557019   -1.433266
  H     -0.063284   -1.679120   -2.301112
  H     -0.168820   -0.691680   -0.853831
  H     -1.001048    1.181040   -2.104071
  H     -1.844645   -0.246592   -2.663281
  H      1.472592   -3.051527   -2.694366
  H      3.083201   -3.490638   -2.141472

 Total Charge           Charge          ....    0
 Multiplicity           Mult            ....    1
 Number of Electrons    NEL             ....   94
 Basis Dimension        Dim             ....  594

ORBITAL ENERGIES
----------------

  NO   OCC          E(Eh)            E(eV)
   0   2.0000     -18.887039      -513.9424
   1   2.0000     -18.880245      -513.7576
   2   2.0000     -14.297629      -389.0583
   3   2.0000     -14.260775      -388.0554
   4   2.0000     -10.274924      -279.5949
   5   2.0000     -10.171179      -276.7718
   6   2.0000     -10.161962      -276.5210
   7   2.0000     -10.143861      -276.0285
   8   2.0000     -10.112315      -275.1701
   9   2.0000     -10.093895      -274.6688
  10   2.0000     -10.089838      -274.5584
  11   2.0000     -10.077851      -274.2323
  12   2.0000      -1.212042       -32.9813
  13   2.0000      -1.168598       -31.7992
  14   2.0000      -1.103113       -30.0172
  15   2.0000      -1.063901       -28.9502
  16   2.0000      -1.013878       -27.5890
  17   2.0000      -0.957286       -26.0491
  18   2.0000      -0.907636       -24.6980
  19   2.0000      -0.845641       -23.0111
  20   2.0000      -0.821838       -22.3633
  21   2.0000      -0.777389       -21.1538
  22   2.0000      -0.758361       -20.6361
  23   2.0000      -0.732756       -19.9393
  24   2.0000      -0.711444       -19.3594
  25   2.0000      -0.670977       -18.2582
  26   2.0000      -0.651004       -17.7147
  27   2.0000      -0.626416       -17.0457
  28   2.0000      -0.605303       -16.4711
  29   2.0000      -0.599573       -16.3152
  30   2.0000      -0.592635       -16.1264
  31   2.0000      -0.566223       -15.4077
  32   2.0000      -0.552971       -15.0471
  33   2.0000      -0.549393       -14.9497
  34   2.0000      -0.534372       -14.5410
  35   2.0000      -0.518451       -14.1078
  36   2.0000      -0.508962       -13.8496
  37   2.0000      -0.491238       -13.3673
  38   2.0000      -0.483437       -13.1550
  39   2.0000      -0.468001       -12.7350
  40   2.0000      -0.453200       -12.3322
  41   2.0000      -0.441588       -12.0162
  42   2.0000      -0.433925       -11.8077
  43   2.0000      -0.422951       -11.5091
  44   2.0000      -0.356107        -9.6902
  45   2.0000      -0.344219        -9.3667
  46   2.0000      -0.334950        -9.1144
  47   0.0000       0.033030         0.8988
  48   0.0000       0.043802         1.1919
  49   0.0000       0.065163         1.7732
  50   0.0000       0.074687         2.0323
  51   0.0000       0.081064         2.2059

MULLIKEN ATOMIC CHARGES
-----------------------
   0 C :   -0.855730
   1 C :   -0.742557
   2 C :   -0.720059
   3 H :    0.372047
   4 H :    0.373952
   5 C :    0.535544
   6 C :    0.631812
   7 N :   -0.338722
   8 N :   -0.479462
   9 H :    0.239818
  10 H :    0.227497
  11 H :    0.279830
  12 H :    0.257211
  13 O :   -0.806606
  14 O :   -0.725531
  15 C :   -0.644348
  16 C :   -0.548063
  17 H :    0.371341
  18 H :    0.386779
  19 C :   -0.764378
  20 H :    0.316489
  21 H :    0.356020
  22 H :    0.361931
  23 H :    0.407942
  24 H :    0.366579
  25 H :    0.377465
  26 H :    0.376951
  27 H :    0.386249
Sum of atomic charges:   -0.0000000

LOEWDIN ATOMIC CHARGES
----------------------
   0 C :   -0.118418
   1 C :   -0.214450
   2 C :   -0.145625
   3 H :    0.117648
   4 H :    0.125738
   5 C :   -0.709704
   6 C :   -0.367976
   7 N :    0.228933
   8 N :    0.183467
   9 H :    0.132415
  10 H :    0.137609
  11 H :    0.051217
  12 H :    0.141268
  13 O :   -0.072766
  14 O :   -0.042363
  15 C :   -0.205139
  16 C :   -0.209192
  17 H :    0.126480
  18 H :    0.110739
  19 C :   -0.231024
  20 H :    0.115585
  21 H :    0.127220
  22 H :    0.097966
  23 H :    0.121607
  24 H :    0.114609
  25 H :    0.118013
  26 H :    0.128602
  27 H :    0.137540

  Mayer bond orders larger than 0.100000
B(  0-C ,  6-C ) :   0.7178 B(  0-C ,  8-N ) :   0.1254 B(  0-C , 15-C ) :   0.7258
B(  0-C , 16-C ) :  -0.1037 B(  0-C , 26-H ) :   0.9060 B(  0-C , 27-H ) :   0.9643
B(  1-C ,  2-C ) :   0.6403 B(  1-C , 19-C ) :   0.9281 B(  1-C , 24-H ) :   0.9318
B(  1-C , 25-H ) :   0.9152 B(  2-C ,  3-H ) :   1.0009 B(  2-C ,  4-H ) :   0.8776
B(  2-C ,  5-C ) :   0.8786 B(  5-C , 13-O ) :   1.1936 B(  5-C , 14-O ) :   1.3499
B(  6-C ,  7-N ) :   1.3675 B(  6-C ,  8-N ) :   0.8648 B(  7-N , 11-H ) :   0.6974
B(  7-N , 12-H ) :   0.9474 B(  7-N , 13-O ) :  -0.1285 B(  8-N ,  9-H ) :   0.9814
B(  8-N , 10-H ) :   0.9956 B( 11-H , 13-O ) :   0.2346 B( 15-C , 16-C ) :   0.8481
B( 15-C , 17-H ) :   0.9129 B( 15-C , 18-H ) :   0.8336 B( 16-C , 19-C ) :   0.4288
B( 16-C , 20-H ) :   0.8836 B( 16-C , 21-H ) :   0.9492 B( 16-C , 22-H ) :  -0.1110
B( 19-C , 22-H ) :   0.9593 B( 19-C , 23-H ) :   0.8529

FINAL SINGLE POINT ENERGY      -572.884701547303

DIPOLE MOMENT
-------------
                                X             Y             Z
Electronic contribution:      1.73909      -2.90021      -8.74102
Nuclear contribution   :      1.39386       1.90489      10.36520
                        -----------------------------------------
Total Dipole Moment    :      3.13295      -0.99531       1.62419
                        -----------------------------------------
Magnitude (a.u.)       :      3.66661
Magnitude (Debye)      :      9.31977

Rotational constants in cm-1:     0.041165     0.025922     0.019001
Rotational constants in MHz :  1234.086888   777.109255   569.639629

                             ****ORCA TERMINATED NORMALLY****
TOTAL RUN TIME: 0 days 0 hours 5 minutes 26 seconds 66 msec
