                         Program Version 5.0.0 -  RELEASE  -
|  1> !LC-PBE RIJCOSX def2-TZVPD def2/J TightSCF
|  2> *xyz 0 1
|  3> C         -0.87096        0.24804       -2.66280
|  4> C         -0.47749        0.60819       -4.10105
|  5> H          0.20677        1.45830       -4.11875
|  6> H         -1.36844        0.92942       -4.64785
|  7> C          0.18467       -0.50664       -4.91676
|  8> F         -0.15869       -1.70109       -4.65798
|  9> O          1.05594       -0.17441       -5.74037
| 10> H         -1.54056       -0.58646       -2.67455
| 11> H         -1.35339        1.08600       -2.20455
| 12> H          0.00660       -0.00662       -2.10609
| 13> *
| 14>
| 15> %MaxCore 64000
| 16>
| 17> %pal nprocs 4
| 18> end
| 19>
| 20> %scf
| 21>   MaxIter 150
| 22> end
| 23>
| 24>
| 25>                          ****END OF INPUT****

CARTESIAN COORDINATES (ANGSTROEM)
---------------------------------
  C     -0.870960    0.248040   -2.662800
  C     -0.477490    0.608190   -4.101050
  H      0.206770    1.458300   -4.118750
  H     -1.368440    0.929420   -4.647850
  C      0.184670   -0.506640   -4.916760
  F     -0.158690   -1.701090   -4.657980
  O      1.055940   -0.174410   -5.740370
  H     -1.540560   -0.586460   -2.674550
  H     -1.353390    1.086000   -2.204550
  H      0.006600   -0.006620   -2.106090

 Total Charge           Charge          ....    0
 Multiplicity           Mult            ....    1
 Number of Electrons    NEL             ....   40
 Basis Dimension        Dim             ....  236

ORBITAL ENERGIES
----------------

  NO   OCC          E(Eh)            E(eV)
   0   2.0000     -24.558229      -668.2634
   1   2.0000     -18.986817      -516.6576
   2   2.0000     -10.302463      -280.3443
   3   2.0000     -10.150625      -276.2125
   4   2.0000     -10.122194      -275.4389
   5   2.0000      -1.469679       -39.9920
   6   2.0000      -1.207009       -32.8444
   7   2.0000      -0.983086       -26.7511
   8   2.0000      -0.850927       -23.1549
   9   2.0000      -0.801310       -21.8048
  10   2.0000      -0.703986       -19.1564
  11   2.0000      -0.695809       -18.9339
  12   2.0000      -0.646756       -17.5991
  13   2.0000      -0.613344       -16.6899
  14   2.0000      -0.576168       -15.6783
  15   2.0000      -0.543828       -14.7983
  16   2.0000      -0.526187       -14.3183
  17   2.0000      -0.512965       -13.9585
  18   2.0000      -0.484403       -13.1813
  19   2.0000      -0.430807       -11.7228
  20   0.0000       0.056388         1.5344
  21   0.0000       0.069305         1.8859
  22   0.0000       0.081552         2.2192
  23   0.0000       0.087437         2.3793
  24   0.0000       0.103333         2.8118

MULLIKEN ATOMIC CHARGES
-----------------------
   0 C :   -1.202661
   1 C :   -0.400101
   2 H :    0.327538
   3 H :    0.338636
   4 C :    0.481722
   5 F :   -0.166528
   6 O :   -0.467830
   7 H :    0.364309
   8 H :    0.356639
   9 H :    0.368277
Sum of atomic charges:   -0.0000000

LOEWDIN ATOMIC CHARGES
----------------------
   0 C :   -0.116546
   1 C :   -0.169274
   2 H :    0.126643
   3 H :    0.130608
   4 C :   -0.496906
   5 F :    0.203585
   6 O :    0.087804
   7 H :    0.075774
   8 H :    0.076885
   9 H :    0.081427

  Mayer bond orders larger than 0.100000
B(  0-C ,  1-C ) :   0.5707 B(  0-C ,  7-H ) :   0.9222 B(  0-C ,  8-H ) :   0.9372
B(  0-C ,  9-H ) :   0.9204 B(  1-C ,  2-H ) :   0.9243 B(  1-C ,  3-H ) :   0.8985
B(  1-C ,  4-C ) :   0.9367 B(  4-C ,  5-F ) :   1.0399 B(  4-C ,  6-O ) :   1.7511

FINAL SINGLE POINT ENERGY      -291.699843235994

DIPOLE MOMENT
-------------
                                X             Y             Z
Electronic contribution:      2.57731      -5.33502      -5.26105
Nuclear contribution   :     -3.42837       5.66737       6.17046
                        -----------------------------------------
Total Dipole Moment    :     -0.85106       0.33235       0.90941
                        -----------------------------------------
Magnitude (a.u.)       :      1.28910
Magnitude (Debye)      :      3.27663

Rotational constants in cm-1:     0.304660     0.130969     0.097716
Rotational constants in MHz :  9133.464515  3926.366384  2929.457090

                             ****ORCA TERMINATED NORMALLY****
TOTAL RUN TIME: 0 days 0 hours 0 minutes 33 seconds 987 msec
