                         Program Version 5.0.0 -  RELEASE  -
|  1> !LC-PBE RIJCOSX def2-TZVPD def2/J TightSCF
|  2> *xyz 0 1
|  3> C          2.48645       -2.67712       -2.56345
|  4> C          3.03764       -2.36672       -3.92351
|  5> C          2.28036       -2.45441       -4.96769
|  6> N          4.32174       -2.01793       -4.01664
|  7> H          4.87994       -1.91167       -3.17382
|  8> H          4.71015       -1.67088       -4.88356
|  9> H          1.27042       -2.41265       -4.86614
| 10> H          2.58183       -2.05528       -5.84688
| 11> C          2.49799       -1.46946       -1.61030
| 12> H          1.47259       -3.05153       -2.69437
| 13> H          3.08320       -3.49064       -2.14147
| 14> H          1.91240       -0.67831       -2.02991
| 15> H          3.50450       -1.13364       -1.47227
| 16> H          2.08509       -1.75655       -0.66585
| 17> *
| 18>
| 19> %MaxCore 64000
| 20>
| 21> %pal nprocs 4
| 22> end
| 23>
| 24> %scf
| 25>   MaxIter 150
| 26> end
| 27>
| 28>
| 29>                          ****END OF INPUT****

CARTESIAN COORDINATES (ANGSTROEM)
---------------------------------
  C      2.486450   -2.677120   -2.563450
  C      3.037640   -2.366720   -3.923510
  C      2.280360   -2.454410   -4.967690
  N      4.321740   -2.017930   -4.016640
  H      4.879940   -1.911670   -3.173820
  H      4.710150   -1.670880   -4.883560
  H      1.270420   -2.412650   -4.866140
  H      2.581830   -2.055280   -5.846880
  C      2.497990   -1.469460   -1.610300
  H      1.472590   -3.051530   -2.694370
  H      3.083200   -3.490640   -2.141470
  H      1.912400   -0.678310   -2.029910
  H      3.504500   -1.133640   -1.472270
  H      2.085090   -1.756550   -0.665850

 Total Charge           Charge          ....    0
 Multiplicity           Mult            ....    1
 Number of Electrons    NEL             ....   40
 Basis Dimension        Dim             ....  266

ORBITAL ENERGIES
----------------

  NO   OCC          E(Eh)            E(eV)
   0   2.0000     -14.212734      -386.7482
   1   2.0000     -10.140397      -275.9342
   2   2.0000     -10.114823      -275.2383
   3   2.0000     -10.101801      -274.8840
   4   2.0000     -10.042280      -273.2643
   5   2.0000      -1.100634       -29.9498
   6   2.0000      -0.956071       -26.0160
   7   2.0000      -0.896853       -24.4046
   8   2.0000      -0.800336       -21.7782
   9   2.0000      -0.719381       -19.5754
  10   2.0000      -0.671430       -18.2705
  11   2.0000      -0.625426       -17.0187
  12   2.0000      -0.578564       -15.7435
  13   2.0000      -0.573857       -15.6155
  14   2.0000      -0.524913       -14.2836
  15   2.0000      -0.520652       -14.1677
  16   2.0000      -0.484728       -13.1901
  17   2.0000      -0.466709       -12.6998
  18   2.0000      -0.456680       -12.4269
  19   2.0000      -0.317610        -8.6426
  20   0.0000       0.065332         1.7778
  21   0.0000       0.088587         2.4106
  22   0.0000       0.092237         2.5099
  23   0.0000       0.098317         2.6754
  24   0.0000       0.124973         3.4007

MULLIKEN ATOMIC CHARGES
-----------------------
   0 C :   -0.797499
   1 C :    0.657783
   2 C :   -1.094033
   3 N :   -0.486378
   4 H :    0.213698
   5 H :    0.198783
   6 H :    0.302471
   7 H :    0.332612
   8 C :   -1.065194
   9 H :    0.352204
  10 H :    0.363328
  11 H :    0.322404
  12 H :    0.346349
  13 H :    0.353471
Sum of atomic charges:    0.0000000

LOEWDIN ATOMIC CHARGES
----------------------
   0 C :   -0.214672
   1 C :   -0.507539
   2 C :   -0.009962
   3 N :    0.090835
   4 H :    0.109824
   5 H :    0.115735
   6 H :    0.038202
   7 H :    0.034122
   8 C :   -0.112882
   9 H :    0.116555
  10 H :    0.123303
  11 H :    0.081045
  12 H :    0.063844
  13 H :    0.071589

  Mayer bond orders larger than 0.100000
B(  0-C ,  1-C ) :   0.6613 B(  0-C ,  2-C ) :   0.1098 B(  0-C ,  3-N ) :   0.1195
B(  0-C ,  8-C ) :   0.6012 B(  0-C ,  9-H ) :   0.9085 B(  0-C , 10-H ) :   0.9311
B(  1-C ,  2-C ) :   1.3862 B(  1-C ,  3-N ) :   0.7823 B(  1-C ,  7-H ) :  -0.1369
B(  1-C ,  8-C ) :  -0.1125 B(  2-C ,  3-N ) :   0.1176 B(  2-C ,  6-H ) :   0.9546
B(  2-C ,  7-H ) :   1.0443 B(  3-N ,  4-H ) :   0.9993 B(  3-N ,  5-H ) :   1.0174
B(  8-C , 11-H ) :   0.9912 B(  8-C , 12-H ) :   0.8966 B(  8-C , 13-H ) :   0.9664

FINAL SINGLE POINT ENERGY      -211.910660603090

DIPOLE MOMENT
-------------
                                X             Y             Z
Electronic contribution:      1.50824      -0.87701      -2.11708
Nuclear contribution   :     -0.99743       1.27863       2.57190
                        -----------------------------------------
Total Dipole Moment    :      0.51080       0.40162       0.45482
                        -----------------------------------------
Magnitude (a.u.)       :      0.79314
Magnitude (Debye)      :      2.01600

Rotational constants in cm-1:     0.274050     0.130114     0.100964
Rotational constants in MHz :  8215.815505  3900.722919  3026.834930

                             ****ORCA TERMINATED NORMALLY****
TOTAL RUN TIME: 0 days 0 hours 0 minutes 58 seconds 555 msec
