                         Program Version 5.0.0 -  RELEASE  -
|  1> !LC-PBE RIJCOSX def2-TZVPD def2/J TightSCF
|  2> *xyz 0 1
|  3> C         -0.87096        0.24804       -2.66280
|  4> C         -0.47749        0.60819       -4.10105
|  5> H          0.20677        1.45830       -4.11875
|  6> H         -1.36844        0.92942       -4.64785
|  7> C          0.18467       -0.50664       -4.91676
|  8> O         -0.15869       -1.70109       -4.65798
|  9> F          1.05594       -0.17441       -5.74037
| 10> H         -1.54056       -0.58646       -2.67455
| 11> H         -1.35339        1.08600       -2.20455
| 12> H          0.00660       -0.00662       -2.10609
| 13> *
| 14>
| 15> %MaxCore 64000
| 16>
| 17> %pal nprocs 4
| 18> end
| 19>
| 20> %scf
| 21>   MaxIter 150
| 22> end
| 23>
| 24>
| 25>                          ****END OF INPUT****

CARTESIAN COORDINATES (ANGSTROEM)
---------------------------------
  C     -0.870960    0.248040   -2.662800
  C     -0.477490    0.608190   -4.101050
  H      0.206770    1.458300   -4.118750
  H     -1.368440    0.929420   -4.647850
  C      0.184670   -0.506640   -4.916760
  O     -0.158690   -1.701090   -4.657980
  F      1.055940   -0.174410   -5.740370
  H     -1.540560   -0.586460   -2.674550
  H     -1.353390    1.086000   -2.204550
  H      0.006600   -0.006620   -2.106090

 Total Charge           Charge          ....    0
 Multiplicity           Mult            ....    1
 Number of Electrons    NEL             ....   40
 Basis Dimension        Dim             ....  236

ORBITAL ENERGIES
----------------

  NO   OCC          E(Eh)            E(eV)
   0   2.0000     -24.568056      -668.5308
   1   2.0000     -18.983178      -516.5585
   2   2.0000     -10.305031      -280.4142
   3   2.0000     -10.151917      -276.2477
   4   2.0000     -10.115935      -275.2686
   5   2.0000      -1.488572       -40.5061
   6   2.0000      -1.192109       -32.4389
   7   2.0000      -0.978774       -26.6338
   8   2.0000      -0.860768       -23.4227
   9   2.0000      -0.800268       -21.7764
  10   2.0000      -0.712748       -19.3949
  11   2.0000      -0.695326       -18.9208
  12   2.0000      -0.659827       -17.9548
  13   2.0000      -0.612497       -16.6669
  14   2.0000      -0.575590       -15.6626
  15   2.0000      -0.532714       -14.4959
  16   2.0000      -0.510746       -13.8981
  17   2.0000      -0.508857       -13.8467
  18   2.0000      -0.480482       -13.0746
  19   2.0000      -0.429201       -11.6792
  20   0.0000       0.056943         1.5495
  21   0.0000       0.066621         1.8128
  22   0.0000       0.082238         2.2378
  23   0.0000       0.088173         2.3993
  24   0.0000       0.103577         2.8185

MULLIKEN ATOMIC CHARGES
-----------------------
   0 C :   -1.181040
   1 C :   -0.470313
   2 H :    0.361592
   3 H :    0.337297
   4 C :    0.527272
   5 O :   -0.483580
   6 F :   -0.160449
   7 H :    0.350305
   8 H :    0.368863
   9 H :    0.350052
Sum of atomic charges:   -0.0000000

LOEWDIN ATOMIC CHARGES
----------------------
   0 C :   -0.111097
   1 C :   -0.175711
   2 H :    0.118956
   3 H :    0.130645
   4 C :   -0.498096
   5 O :    0.066978
   6 F :    0.230457
   7 H :    0.078854
   8 H :    0.076413
   9 H :    0.082601

  Mayer bond orders larger than 0.100000
B(  0-C ,  1-C ) :   0.6385 B(  0-C ,  7-H ) :   0.9471 B(  0-C ,  8-H ) :   0.9121
B(  0-C ,  9-H ) :   0.9202 B(  1-C ,  2-H ) :   0.8961 B(  1-C ,  3-H ) :   0.8978
B(  1-C ,  4-C ) :   0.9447 B(  4-C ,  5-O ) :   1.7229 B(  4-C ,  6-F ) :   1.0463

FINAL SINGLE POINT ENERGY      -291.692633235164

DIPOLE MOMENT
-------------
                                X             Y             Z
Electronic contribution:      4.63676      -2.78294      -7.10703
Nuclear contribution   :     -4.75269       4.00281       7.35060
                        -----------------------------------------
Total Dipole Moment    :     -0.11593       1.21987       0.24357
                        -----------------------------------------
Magnitude (a.u.)       :      1.24934
Magnitude (Debye)      :      3.17557

Rotational constants in cm-1:     0.323805     0.124913     0.096140
Rotational constants in MHz :  9707.430323  3744.789513  2882.191141

                             ****ORCA TERMINATED NORMALLY****
TOTAL RUN TIME: 0 days 0 hours 0 minutes 31 seconds 982 msec
