                         Program Version 5.0.0 -  RELEASE  -
|  1> !LC-PBE RIJCOSX def2-TZVPD def2/J TightSCF
|  2> *xyz 0 1
|  3> C          2.48645       -2.67712       -2.56345
|  4> C          3.03764       -2.36672       -3.92351
|  5> N          2.28036       -2.45441       -4.96769
|  6> C          4.32174       -2.01793       -4.01664
|  7> H          4.87994       -1.91167       -3.17382
|  8> H          4.71015       -1.67088       -4.88356
|  9> H          1.27042       -2.41265       -4.86614
| 10> H          2.58183       -2.05528       -5.84688
| 11> C          2.49799       -1.46946       -1.61030
| 12> H          1.47259       -3.05153       -2.69437
| 13> H          3.08320       -3.49064       -2.14147
| 14> H          1.91240       -0.67831       -2.02991
| 15> H          3.50450       -1.13364       -1.47227
| 16> H          2.08509       -1.75655       -0.66585
| 17> *
| 18>
| 19> %MaxCore 64000
| 20>
| 21> %pal nprocs 4
| 22> end
| 23>
| 24> %scf
| 25>   MaxIter 150
| 26> end
| 27>
| 28>
| 29>                          ****END OF INPUT****

CARTESIAN COORDINATES (ANGSTROEM)
---------------------------------
  C      2.486450   -2.677120   -2.563450
  C      3.037640   -2.366720   -3.923510
  N      2.280360   -2.454410   -4.967690
  C      4.321740   -2.017930   -4.016640
  H      4.879940   -1.911670   -3.173820
  H      4.710150   -1.670880   -4.883560
  H      1.270420   -2.412650   -4.866140
  H      2.581830   -2.055280   -5.846880
  C      2.497990   -1.469460   -1.610300
  H      1.472590   -3.051530   -2.694370
  H      3.083200   -3.490640   -2.141470
  H      1.912400   -0.678310   -2.029910
  H      3.504500   -1.133640   -1.472270
  H      2.085090   -1.756550   -0.665850

 Total Charge           Charge          ....    0
 Multiplicity           Mult            ....    1
 Number of Electrons    NEL             ....   40
 Basis Dimension        Dim             ....  266

ORBITAL ENERGIES
----------------

  NO   OCC          E(Eh)            E(eV)
   0   2.0000     -14.216764      -386.8578
   1   2.0000     -10.140995      -275.9505
   2   2.0000     -10.115337      -275.2523
   3   2.0000     -10.097795      -274.7750
   4   2.0000     -10.042957      -273.2827
   5   2.0000      -1.115599       -30.3570
   6   2.0000      -0.958527       -26.0829
   7   2.0000      -0.879642       -23.9363
   8   2.0000      -0.806239       -21.9389
   9   2.0000      -0.722500       -19.6602
  10   2.0000      -0.668623       -18.1942
  11   2.0000      -0.630072       -17.1451
  12   2.0000      -0.590088       -16.0571
  13   2.0000      -0.547399       -14.8955
  14   2.0000      -0.534890       -14.5551
  15   2.0000      -0.513936       -13.9849
  16   2.0000      -0.484031       -13.1711
  17   2.0000      -0.469100       -12.7649
  18   2.0000      -0.464919       -12.6511
  19   2.0000      -0.306956        -8.3527
  20   0.0000       0.066085         1.7983
  21   0.0000       0.087833         2.3901
  22   0.0000       0.091150         2.4803
  23   0.0000       0.097624         2.6565
  24   0.0000       0.124100         3.3769

MULLIKEN ATOMIC CHARGES
-----------------------
   0 C :   -0.810099
   1 C :    0.773571
   2 N :   -0.475450
   3 C :   -1.243103
   4 H :    0.315976
   5 H :    0.306329
   6 H :    0.248782
   7 H :    0.221252
   8 C :   -1.066930
   9 H :    0.365221
  10 H :    0.339782
  11 H :    0.322780
  12 H :    0.360987
  13 H :    0.340902
Sum of atomic charges:   -0.0000000

LOEWDIN ATOMIC CHARGES
----------------------
   0 C :   -0.214883
   1 C :   -0.513813
   2 N :    0.090582
   3 C :    0.000023
   4 H :    0.030349
   5 H :    0.026541
   6 H :    0.117376
   7 H :    0.120834
   8 C :   -0.112295
   9 H :    0.110260
  10 H :    0.125814
  11 H :    0.079170
  12 H :    0.069486
  13 H :    0.070555

  Mayer bond orders larger than 0.100000
B(  0-C ,  1-C ) :   0.5196 B(  0-C ,  3-C ) :   0.1152 B(  0-C ,  8-C ) :   0.5842
B(  0-C ,  9-H ) :   0.9805 B(  0-C , 10-H ) :   0.9651 B(  1-C ,  2-N ) :   0.9308
B(  1-C ,  3-C ) :   1.1489 B(  1-C ,  5-H ) :  -0.1654 B(  1-C ,  9-H ) :  -0.1063
B(  2-N ,  3-C ) :   0.1164 B(  2-N ,  6-H ) :   0.9656 B(  2-N ,  7-H ) :   0.9793
B(  3-C ,  4-H ) :   0.9285 B(  3-C ,  5-H ) :   1.0782 B(  8-C , 11-H ) :   0.9595
B(  8-C , 12-H ) :   0.9238 B(  8-C , 13-H ) :   0.9512

FINAL SINGLE POINT ENERGY      -211.910607220083

DIPOLE MOMENT
-------------
                                X             Y             Z
Electronic contribution:     -0.26130      -1.18469      -2.95000
Nuclear contribution   :     -0.52463       1.37972       2.79217
                        -----------------------------------------
Total Dipole Moment    :     -0.78593       0.19503      -0.15782
                        -----------------------------------------
Magnitude (a.u.)       :      0.82500
Magnitude (Debye)      :      2.09699

Rotational constants in cm-1:     0.281086     0.127387     0.100311
Rotational constants in MHz :  8426.743103  3818.969834  3007.238026

                             ****ORCA TERMINATED NORMALLY****
TOTAL RUN TIME: 0 days 0 hours 0 minutes 44 seconds 523 msec
