                         Program Version 5.0.0 -  RELEASE  -
|  1> !LC-PBE RIJCOSX def2-TZVPD def2/J TightSCF xyzfile
|  2>
|  3> *xyzfile 0 1 D1.xyz
|  4>
|  5> %MaxCore 64000
|  6>
|  7> %pal nprocs 4
|  8> end
|  9>
| 10> %scf
| 11>   MaxIter 150
| 12> end
| 13>
| 14>
| 15>                          ****END OF INPUT****

CARTESIAN COORDINATES (ANGSTROEM)
---------------------------------
  C      2.486452   -2.677121   -2.563447
  C     -0.870963    0.248043   -2.662804
  C     -0.477492    0.608191   -4.101052
  H      0.206773    1.458299   -4.118748
  H     -1.368442    0.929419   -4.647855
  C      0.184673   -0.506640   -4.916760
  C      3.037640   -2.366715   -3.923509
  C      2.280360   -2.454408   -4.967692
  N      4.321736   -2.017932   -4.016641
  H      4.879940   -1.911668   -3.173823
  H      4.710148   -1.670882   -4.883561
  H      1.270423   -2.412650   -4.866143
  H      2.581829   -2.055282   -5.846878
  F     -0.158685   -1.701088   -4.657981
  O      1.055938   -0.174410   -5.740373
  C      2.497991   -1.469464   -1.610303
  C      1.582841   -0.321986   -2.042619
  H      2.193083   -1.833912   -0.625420
  H      3.523356   -1.103982   -1.490392
  C      0.100160   -0.673551   -1.915815
  H      1.822311   -0.040361   -3.072834
  H      1.813180    0.557019   -1.433266
  H     -0.063284   -1.679120   -2.301112
  H     -0.168820   -0.691680   -0.853831
  H     -1.001048    1.181040   -2.104071
  H     -1.844645   -0.246592   -2.663281
  H      1.472592   -3.051527   -2.694366
  H      3.083201   -3.490638   -2.141472

 Total Charge           Charge          ....    0
 Multiplicity           Mult            ....    1
 Number of Electrons    NEL             ....   94
 Basis Dimension        Dim             ....  594

ORBITAL ENERGIES
----------------

  NO   OCC          E(Eh)            E(eV)
   0   2.0000     -24.558923      -668.2823
   1   2.0000     -18.983462      -516.5663
   2   2.0000     -14.200215      -386.4075
   3   2.0000     -10.300924      -280.3024
   4   2.0000     -10.146105      -276.0896
   5   2.0000     -10.130459      -275.6638
   6   2.0000     -10.124616      -275.5048
   7   2.0000     -10.117726      -275.3173
   8   2.0000     -10.115183      -275.2481
   9   2.0000     -10.113135      -275.1924
  10   2.0000     -10.108704      -275.0718
  11   2.0000     -10.021013      -272.6856
  12   2.0000      -1.476684       -40.1826
  13   2.0000      -1.205859       -32.8131
  14   2.0000      -1.088810       -29.6280
  15   2.0000      -1.010884       -27.5076
  16   2.0000      -0.971572       -26.4378
  17   2.0000      -0.916735       -24.9456
  18   2.0000      -0.893148       -24.3038
  19   2.0000      -0.843710       -22.9585
  20   2.0000      -0.817239       -22.2382
  21   2.0000      -0.780044       -21.2261
  22   2.0000      -0.739064       -20.1110
  23   2.0000      -0.730102       -19.8671
  24   2.0000      -0.705077       -19.1861
  25   2.0000      -0.688229       -18.7277
  26   2.0000      -0.656250       -17.8575
  27   2.0000      -0.643270       -17.5043
  28   2.0000      -0.629696       -17.1349
  29   2.0000      -0.618232       -16.8230
  30   2.0000      -0.602835       -16.4040
  31   2.0000      -0.584109       -15.8944
  32   2.0000      -0.573725       -15.6119
  33   2.0000      -0.552031       -15.0215
  34   2.0000      -0.542502       -14.7622
  35   2.0000      -0.525236       -14.2924
  36   2.0000      -0.511804       -13.9269
  37   2.0000      -0.509230       -13.8569
  38   2.0000      -0.489480       -13.3194
  39   2.0000      -0.483090       -13.1456
  40   2.0000      -0.471874       -12.8403
  41   2.0000      -0.464672       -12.6444
  42   2.0000      -0.447382       -12.1739
  43   2.0000      -0.441353       -12.0098
  44   2.0000      -0.435889       -11.8611
  45   2.0000      -0.422152       -11.4873
  46   2.0000      -0.301711        -8.2100
  47   0.0000       0.058328         1.5872
  48   0.0000       0.065869         1.7924
  49   0.0000       0.072114         1.9623
  50   0.0000       0.074637         2.0310
  51   0.0000       0.079548         2.1646

MULLIKEN ATOMIC CHARGES
-----------------------
   0 C :   -0.928534
   1 C :   -0.736725
   2 C :   -0.623360
   3 H :    0.399965
   4 H :    0.396141
   5 C :    0.438265
   6 C :    0.639807
   7 C :   -1.412845
   8 N :   -0.526563
   9 H :    0.196283
  10 H :    0.189202
  11 H :    0.665763
  12 H :    0.368913
  13 F :   -0.225752
  14 O :   -0.514144
  15 C :   -0.681416
  16 C :   -0.544957
  17 H :    0.357595
  18 H :    0.426620
  19 C :   -0.786047
  20 H :    0.366438
  21 H :    0.347148
  22 H :    0.331864
  23 H :    0.421139
  24 H :    0.366647
  25 H :    0.384531
  26 H :    0.282295
  27 H :    0.401728
Sum of atomic charges:   -0.0000000

LOEWDIN ATOMIC CHARGES
----------------------
   0 C :   -0.156787
   1 C :   -0.210434
   2 C :   -0.112703
   3 H :    0.133730
   4 H :    0.134789
   5 C :   -0.490510
   6 C :   -0.480527
   7 C :   -0.004179
   8 N :    0.097065
   9 H :    0.107238
  10 H :    0.116682
  11 H :    0.005752
  12 H :    0.049138
  13 F :    0.173042
  14 O :    0.096957
  15 C :   -0.211529
  16 C :   -0.210533
  17 H :    0.119767
  18 H :    0.111229
  19 C :   -0.225583
  20 H :    0.115371
  21 H :    0.126090
  22 H :    0.102976
  23 H :    0.127214
  24 H :    0.122430
  25 H :    0.119278
  26 H :    0.115517
  27 H :    0.128521

  Mayer bond orders larger than 0.100000
B(  0-C ,  6-C ) :   0.6551 B(  0-C ,  8-N ) :   0.2036 B(  0-C , 15-C ) :   0.7651
B(  0-C , 26-H ) :   0.9508 B(  0-C , 27-H ) :   0.9437 B(  1-C ,  2-C ) :   0.6488
B(  1-C , 19-C ) :   0.8186 B(  1-C , 24-H ) :   0.9279 B(  1-C , 25-H ) :   0.9499
B(  2-C ,  3-H ) :   0.9534 B(  2-C ,  4-H ) :   0.8694 B(  2-C ,  5-C ) :   0.8064
B(  5-C , 13-F ) :   0.9878 B(  5-C , 14-O ) :   1.6760 B(  6-C ,  7-C ) :   1.3064
B(  6-C ,  8-N ) :   0.5993 B(  6-C , 11-H ) :  -0.1792 B(  6-C , 12-H ) :  -0.1750
B(  6-C , 15-C ) :  -0.1043 B(  7-C , 11-H ) :   0.6556 B(  7-C , 12-H ) :   1.0986
B(  8-N ,  9-H ) :   1.0319 B(  8-N , 10-H ) :   1.0169 B( 11-H , 13-F ) :  -0.1232
B( 15-C , 16-C ) :   0.8725 B( 15-C , 17-H ) :   0.9227 B( 15-C , 18-H ) :   0.8213
B( 15-C , 19-C ) :   0.1046 B( 16-C , 19-C ) :   0.4007 B( 16-C , 20-H ) :   0.8798
B( 16-C , 21-H ) :   0.9597 B( 16-C , 22-H ) :  -0.1301 B( 19-C , 22-H ) :   1.0315
B( 19-C , 23-H ) :   0.8321

FINAL SINGLE POINT ENERGY      -580.768894243516

DIPOLE MOMENT
-------------
                                X             Y             Z
Electronic contribution:     -3.74102      -1.61425     -10.19502
Nuclear contribution   :      3.32973       2.37270      11.37738
                        -----------------------------------------
Total Dipole Moment    :     -0.41129       0.75845       1.18236
                        -----------------------------------------
Magnitude (a.u.)       :      1.46369
Magnitude (Debye)      :      3.72040

Rotational constants in cm-1:     0.040902     0.025807     0.019036
Rotational constants in MHz :  1226.202138   773.670450   570.681201

                             ****ORCA TERMINATED NORMALLY****
TOTAL RUN TIME: 0 days 0 hours 5 minutes 36 seconds 17 msec
