                         Program Version 5.0.0 -  RELEASE  -
|  1> !LC-PBE RIJCOSX def2-TZVPD def2/J TightSCF xyzfile
|  2>
|  3> *xyzfile 0 1 D2.xyz
|  4>
|  5> %MaxCore 64000
|  6>
|  7> %pal nprocs 4
|  8> end
|  9>
| 10> %scf
| 11>   MaxIter 150
| 12> end
| 13>
| 14>
| 15>                          ****END OF INPUT****

CARTESIAN COORDINATES (ANGSTROEM)
---------------------------------
  C      2.486452   -2.677121   -2.563447
  C     -0.870963    0.248043   -2.662804
  C     -0.477492    0.608191   -4.101052
  H      0.206773    1.458299   -4.118748
  H     -1.368442    0.929419   -4.647855
  C      0.184673   -0.506640   -4.916760
  C      3.037640   -2.366715   -3.923509
  N      2.280360   -2.454408   -4.967692
  C      4.321736   -2.017932   -4.016641
  H      4.879940   -1.911668   -3.173823
  H      4.710148   -1.670882   -4.883561
  H      1.270423   -2.412650   -4.866143
  H      2.581829   -2.055282   -5.846878
  F     -0.158685   -1.701088   -4.657981
  O      1.055938   -0.174410   -5.740373
  C      2.497991   -1.469464   -1.610303
  C      1.582841   -0.321986   -2.042619
  H      2.193083   -1.833912   -0.625420
  H      3.523356   -1.103982   -1.490392
  C      0.100160   -0.673551   -1.915815
  H      1.822311   -0.040361   -3.072834
  H      1.813180    0.557019   -1.433266
  H     -0.063284   -1.679120   -2.301112
  H     -0.168820   -0.691680   -0.853831
  H     -1.001048    1.181040   -2.104071
  H     -1.844645   -0.246592   -2.663281
  H      1.472592   -3.051527   -2.694366
  H      3.083201   -3.490638   -2.141472

 Total Charge           Charge          ....    0
 Multiplicity           Mult            ....    1
 Number of Electrons    NEL             ....   94
 Basis Dimension        Dim             ....  594

ORBITAL ENERGIES
----------------

  NO   OCC          E(Eh)            E(eV)
   0   2.0000     -24.587389      -669.0569
   1   2.0000     -19.003514      -517.1119
   2   2.0000     -14.189457      -386.1147
   3   2.0000     -10.319984      -280.8210
   4   2.0000     -10.157588      -276.4020
   5   2.0000     -10.137989      -275.8687
   6   2.0000     -10.129219      -275.6301
   7   2.0000     -10.123057      -275.4624
   8   2.0000     -10.115589      -275.2592
   9   2.0000     -10.112715      -275.1810
  10   2.0000     -10.109714      -275.0993
  11   2.0000     -10.029837      -272.9257
  12   2.0000      -1.503704       -40.9179
  13   2.0000      -1.225823       -33.3563
  14   2.0000      -1.098869       -29.9018
  15   2.0000      -1.018848       -27.7243
  16   2.0000      -0.974372       -26.5140
  17   2.0000      -0.928305       -25.2605
  18   2.0000      -0.877690       -23.8832
  19   2.0000      -0.855401       -23.2766
  20   2.0000      -0.831080       -22.6148
  21   2.0000      -0.790325       -21.5058
  22   2.0000      -0.752909       -20.4877
  23   2.0000      -0.743354       -20.2277
  24   2.0000      -0.724333       -19.7101
  25   2.0000      -0.690717       -18.7954
  26   2.0000      -0.661358       -17.9965
  27   2.0000      -0.646306       -17.5869
  28   2.0000      -0.631651       -17.1881
  29   2.0000      -0.625416       -17.0184
  30   2.0000      -0.615859       -16.7584
  31   2.0000      -0.588946       -16.0260
  32   2.0000      -0.570563       -15.5258
  33   2.0000      -0.560992       -15.2654
  34   2.0000      -0.548106       -14.9147
  35   2.0000      -0.532905       -14.5011
  36   2.0000      -0.523070       -14.2334
  37   2.0000      -0.512435       -13.9441
  38   2.0000      -0.499658       -13.5964
  39   2.0000      -0.487518       -13.2660
  40   2.0000      -0.476806       -12.9746
  41   2.0000      -0.470215       -12.7952
  42   2.0000      -0.457742       -12.4558
  43   2.0000      -0.449540       -12.2326
  44   2.0000      -0.440431       -11.9847
  45   2.0000      -0.434669       -11.8279
  46   2.0000      -0.291031        -7.9194
  47   0.0000       0.048080         1.3083
  48   0.0000       0.055868         1.5203
  49   0.0000       0.070167         1.9094
  50   0.0000       0.073238         1.9929
  51   0.0000       0.077268         2.1026

MULLIKEN ATOMIC CHARGES
-----------------------
   0 C :   -0.837104
   1 C :   -0.747645
   2 C :   -0.610747
   3 H :    0.396508
   4 H :    0.400573
   5 C :    0.477237
   6 C :    0.554242
   7 N :   -0.558410
   8 C :   -1.238156
   9 H :    0.321048
  10 H :    0.317560
  11 H :    0.424818
  12 H :    0.217910
  13 F :   -0.273704
  14 O :   -0.515360
  15 C :   -0.696542
  16 C :   -0.603916
  17 H :    0.369982
  18 H :    0.428956
  19 C :   -0.736610
  20 H :    0.357053
  21 H :    0.338936
  22 H :    0.324319
  23 H :    0.422562
  24 H :    0.372006
  25 H :    0.388960
  26 H :    0.355732
  27 H :    0.349788
Sum of atomic charges:    0.0000000

LOEWDIN ATOMIC CHARGES
----------------------
   0 C :   -0.156261
   1 C :   -0.210013
   2 C :   -0.111955
   3 H :    0.135837
   4 H :    0.136271
   5 C :   -0.484842
   6 C :   -0.493751
   7 N :    0.108545
   8 C :    0.005349
   9 H :    0.028016
  10 H :    0.027942
  11 H :    0.061751
  12 H :    0.121722
  13 F :    0.183916
  14 O :    0.101451
  15 C :   -0.208149
  16 C :   -0.210077
  17 H :    0.120071
  18 H :    0.116897
  19 C :   -0.227834
  20 H :    0.114144
  21 H :    0.127589
  22 H :    0.100146
  23 H :    0.128229
  24 H :    0.123987
  25 H :    0.119544
  26 H :    0.109839
  27 H :    0.131637

  Mayer bond orders larger than 0.100000
B(  0-C ,  6-C ) :   0.5105 B(  0-C , 15-C ) :   0.7807 B(  0-C , 26-H ) :   0.9733
B(  0-C , 27-H ) :   0.9689 B(  1-C ,  2-C ) :   0.6513 B(  1-C , 19-C ) :   0.7894
B(  1-C , 24-H ) :   0.9192 B(  1-C , 25-H ) :   0.9500 B(  2-C ,  3-H ) :   0.9492
B(  2-C ,  4-H ) :   0.8679 B(  2-C ,  5-C ) :   0.8121 B(  5-C , 13-F ) :   0.8654
B(  5-C , 14-O ) :   1.7086 B(  6-C ,  7-N ) :   0.8664 B(  6-C ,  8-C ) :   1.2856
B(  6-C , 10-H ) :  -0.1239 B(  7-N ,  8-C ) :   0.1787 B(  7-N , 11-H ) :   0.6794
B(  7-N , 12-H ) :   0.9410 B(  8-C ,  9-H ) :   0.9758 B(  8-C , 10-H ) :   1.0213
B( 15-C , 16-C ) :   0.9048 B( 15-C , 17-H ) :   0.8952 B( 15-C , 18-H ) :   0.8519
B( 16-C , 19-C ) :   0.3724 B( 16-C , 20-H ) :   0.9164 B( 16-C , 21-H ) :   0.9521
B( 16-C , 22-H ) :  -0.1341 B( 19-C , 22-H ) :   1.0532 B( 19-C , 23-H ) :   0.8269

FINAL SINGLE POINT ENERGY      -580.779659448977

DIPOLE MOMENT
-------------
                                X             Y             Z
Electronic contribution:     -5.37112      -1.76406     -10.82104
Nuclear contribution   :      3.65024       2.44123      11.52670
                        -----------------------------------------
Total Dipole Moment    :     -1.72088       0.67717       0.70567
                        -----------------------------------------
Magnitude (a.u.)       :      1.97938
Magnitude (Debye)      :      5.03119

Rotational constants in cm-1:     0.040600     0.026409     0.019262
Rotational constants in MHz :  1217.142957   791.712481   577.449390

                             ****ORCA TERMINATED NORMALLY****
TOTAL RUN TIME: 0 days 0 hours 5 minutes 58 seconds 824 msec
