                         Program Version 5.0.0 -  RELEASE  -
|  1> !LC-PBE RIJCOSX def2-TZVPD def2/J TightSCF xyzfile
|  2>
|  3> *xyzfile 0 1 D3.xyz
|  4>
|  5> %MaxCore 64000
|  6>
|  7> %pal nprocs 4
|  8> end
|  9>
| 10> %scf
| 11>   MaxIter 150
| 12> end
| 13>
| 14>
| 15>                          ****END OF INPUT****

CARTESIAN COORDINATES (ANGSTROEM)
---------------------------------
  C      2.486452   -2.677121   -2.563447
  C     -0.870963    0.248043   -2.662804
  C     -0.477492    0.608191   -4.101052
  H      0.206773    1.458299   -4.118748
  H     -1.368442    0.929419   -4.647855
  C      0.184673   -0.506640   -4.916760
  C      3.037640   -2.366715   -3.923509
  C      2.280360   -2.454408   -4.967692
  N      4.321736   -2.017932   -4.016641
  H      4.879940   -1.911668   -3.173823
  H      4.710148   -1.670882   -4.883561
  H      1.270423   -2.412650   -4.866143
  H      2.581829   -2.055282   -5.846878
  O     -0.158685   -1.701088   -4.657981
  F      1.055938   -0.174410   -5.740373
  C      2.497991   -1.469464   -1.610303
  C      1.582841   -0.321986   -2.042619
  H      2.193083   -1.833912   -0.625420
  H      3.523356   -1.103982   -1.490392
  C      0.100160   -0.673551   -1.915815
  H      1.822311   -0.040361   -3.072834
  H      1.813180    0.557019   -1.433266
  H     -0.063284   -1.679120   -2.301112
  H     -0.168820   -0.691680   -0.853831
  H     -1.001048    1.181040   -2.104071
  H     -1.844645   -0.246592   -2.663281
  H      1.472592   -3.051527   -2.694366
  H      3.083201   -3.490638   -2.141472

 Total Charge           Charge          ....    0
 Multiplicity           Mult            ....    1
 Number of Electrons    NEL             ....   94
 Basis Dimension        Dim             ....  594

ORBITAL ENERGIES
----------------

  NO   OCC          E(Eh)            E(eV)
   0   2.0000     -24.566898      -668.4993
   1   2.0000     -18.982271      -516.5338
   2   2.0000     -14.199079      -386.3766
   3   2.0000     -10.307058      -280.4693
   4   2.0000     -10.149009      -276.1686
   5   2.0000     -10.127294      -275.5777
   6   2.0000     -10.121838      -275.4292
   7   2.0000     -10.111875      -275.1581
   8   2.0000     -10.111195      -275.1396
   9   2.0000     -10.108416      -275.0640
  10   2.0000     -10.103151      -274.9207
  11   2.0000     -10.013020      -272.4681
  12   2.0000      -1.488297       -40.4986
  13   2.0000      -1.201345       -32.6903
  14   2.0000      -1.087187       -29.5839
  15   2.0000      -1.005023       -27.3481
  16   2.0000      -0.968891       -26.3649
  17   2.0000      -0.914919       -24.8962
  18   2.0000      -0.890592       -24.2343
  19   2.0000      -0.846010       -23.0211
  20   2.0000      -0.815111       -22.1803
  21   2.0000      -0.775498       -21.1024
  22   2.0000      -0.734894       -19.9975
  23   2.0000      -0.721210       -19.6251
  24   2.0000      -0.705130       -19.1876
  25   2.0000      -0.682949       -18.5840
  26   2.0000      -0.670347       -18.2411
  27   2.0000      -0.654400       -17.8071
  28   2.0000      -0.627383       -17.0720
  29   2.0000      -0.616845       -16.7852
  30   2.0000      -0.598321       -16.2811
  31   2.0000      -0.581867       -15.8334
  32   2.0000      -0.576231       -15.6800
  33   2.0000      -0.541497       -14.7349
  34   2.0000      -0.536359       -14.5951
  35   2.0000      -0.533460       -14.5162
  36   2.0000      -0.512514       -13.9462
  37   2.0000      -0.500717       -13.6252
  38   2.0000      -0.488948       -13.3049
  39   2.0000      -0.488042       -13.2803
  40   2.0000      -0.466103       -12.6833
  41   2.0000      -0.459719       -12.5096
  42   2.0000      -0.442876       -12.0513
  43   2.0000      -0.439449       -11.9580
  44   2.0000      -0.435105       -11.8398
  45   2.0000      -0.397286       -10.8107
  46   2.0000      -0.300331        -8.1724
  47   0.0000       0.057024         1.5517
  48   0.0000       0.062197         1.6925
  49   0.0000       0.072114         1.9623
  50   0.0000       0.076059         2.0697
  51   0.0000       0.080573         2.1925

MULLIKEN ATOMIC CHARGES
-----------------------
   0 C :   -0.919377
   1 C :   -0.753425
   2 C :   -0.690439
   3 H :    0.451533
   4 H :    0.387667
   5 C :    0.477910
   6 C :    0.649484
   7 C :   -1.597598
   8 N :   -0.527033
   9 H :    0.196116
  10 H :    0.184149
  11 H :    0.849193
  12 H :    0.348367
  13 O :   -0.522039
  14 F :   -0.215143
  15 C :   -0.684530
  16 C :   -0.489645
  17 H :    0.356100
  18 H :    0.417930
  19 C :   -0.821873
  20 H :    0.298757
  21 H :    0.348443
  22 H :    0.357696
  23 H :    0.426008
  24 H :    0.376647
  25 H :    0.392938
  26 H :    0.295476
  27 H :    0.406690
Sum of atomic charges:   -0.0000000

LOEWDIN ATOMIC CHARGES
----------------------
   0 C :   -0.153592
   1 C :   -0.202790
   2 C :   -0.116635
   3 H :    0.126831
   4 H :    0.135332
   5 C :   -0.475774
   6 C :   -0.482731
   7 C :   -0.007418
   8 N :    0.091635
   9 H :    0.106313
  10 H :    0.113744
  11 H :   -0.016421
  12 H :    0.047944
  13 O :    0.052361
  14 F :    0.241034
  15 C :   -0.211046
  16 C :   -0.212333
  17 H :    0.120278
  18 H :    0.110021
  19 C :   -0.225141
  20 H :    0.112136
  21 H :    0.124573
  22 H :    0.102874
  23 H :    0.126743
  24 H :    0.122309
  25 H :    0.122451
  26 H :    0.119049
  27 H :    0.128253

  Mayer bond orders larger than 0.100000
B(  0-C ,  6-C ) :   0.6569 B(  0-C ,  8-N ) :   0.1982 B(  0-C , 15-C ) :   0.7538
B(  0-C , 26-H ) :   0.9373 B(  0-C , 27-H ) :   0.9410 B(  1-C ,  2-C ) :   0.7297
B(  1-C , 19-C ) :   0.8890 B(  1-C , 24-H ) :   0.9290 B(  1-C , 25-H ) :   0.8993
B(  2-C ,  3-H ) :   0.8817 B(  2-C ,  4-H ) :   0.8688 B(  2-C ,  5-C ) :   0.8512
B(  5-C , 13-O ) :   1.7704 B(  5-C , 14-F ) :   0.9325 B(  6-C ,  7-C ) :   1.2366
B(  6-C ,  8-N ) :   0.6056 B(  6-C , 11-H ) :  -0.1547 B(  6-C , 12-H ) :  -0.2259
B(  7-C , 11-H ) :   0.5507 B(  7-C , 12-H ) :   1.2029 B(  8-N ,  9-H ) :   1.0348
B(  8-N , 10-H ) :   1.0225 B( 11-H , 13-O ) :  -0.3062 B( 15-C , 16-C ) :   0.8908
B( 15-C , 17-H ) :   0.9156 B( 15-C , 18-H ) :   0.8259 B( 16-C , 19-C ) :   0.4062
B( 16-C , 20-H ) :   0.9116 B( 16-C , 21-H ) :   0.9596 B( 16-C , 22-H ) :  -0.1158
B( 19-C , 22-H ) :   1.0117 B( 19-C , 23-H ) :   0.8220

FINAL SINGLE POINT ENERGY      -580.763181871032

DIPOLE MOMENT
-------------
                                X             Y             Z
Electronic contribution:     -1.78152       0.95647     -12.08209
Nuclear contribution   :      1.88979       0.56282      12.66056
                        -----------------------------------------
Total Dipole Moment    :      0.10826       1.51928       0.57847
                        -----------------------------------------
Magnitude (a.u.)       :      1.62929
Magnitude (Debye)      :      4.14132

Rotational constants in cm-1:     0.040271     0.025954     0.018866
Rotational constants in MHz :  1207.302496   778.083475   565.600538

                             ****ORCA TERMINATED NORMALLY****
TOTAL RUN TIME: 0 days 0 hours 5 minutes 34 seconds 659 msec
