                         Program Version 5.0.0 -  RELEASE  -
|  1> !LC-PBE RIJCOSX def2-TZVPD def2/J TightSCF xyzfile
|  2>
|  3> *xyzfile 0 1 D4.xyz
|  4>
|  5> %MaxCore 64000
|  6>
|  7> %pal nprocs 4
|  8> end
|  9>
| 10> %scf
| 11>   MaxIter 150
| 12> end
| 13>
| 14>
| 15>                          ****END OF INPUT****

CARTESIAN COORDINATES (ANGSTROEM)
---------------------------------
  C      2.486452   -2.677121   -2.563447
  C     -0.870963    0.248043   -2.662804
  C     -0.477492    0.608191   -4.101052
  H      0.206773    1.458299   -4.118748
  H     -1.368442    0.929419   -4.647855
  C      0.184673   -0.506640   -4.916760
  C      3.037640   -2.366715   -3.923509
  N      2.280360   -2.454408   -4.967692
  C      4.321736   -2.017932   -4.016641
  H      4.879940   -1.911668   -3.173823
  H      4.710148   -1.670882   -4.883561
  H      1.270423   -2.412650   -4.866143
  H      2.581829   -2.055282   -5.846878
  O     -0.158685   -1.701088   -4.657981
  F      1.055938   -0.174410   -5.740373
  C      2.497991   -1.469464   -1.610303
  C      1.582841   -0.321986   -2.042619
  H      2.193083   -1.833912   -0.625420
  H      3.523356   -1.103982   -1.490392
  C      0.100160   -0.673551   -1.915815
  H      1.822311   -0.040361   -3.072834
  H      1.813180    0.557019   -1.433266
  H     -0.063284   -1.679120   -2.301112
  H     -0.168820   -0.691680   -0.853831
  H     -1.001048    1.181040   -2.104071
  H     -1.844645   -0.246592   -2.663281
  H      1.472592   -3.051527   -2.694366
  H      3.083201   -3.490638   -2.141472

 Total Charge           Charge          ....    0
 Multiplicity           Mult            ....    1
 Number of Electrons    NEL             ....   94
 Basis Dimension        Dim             ....  594

ORBITAL ENERGIES
----------------

  NO   OCC          E(Eh)            E(eV)
   0   2.0000     -24.588847      -669.0965
   1   2.0000     -19.008980      -517.2606
   2   2.0000     -14.180351      -385.8670
   3   2.0000     -10.330511      -281.1075
   4   2.0000     -10.161983      -276.5216
   5   2.0000     -10.135733      -275.8073
   6   2.0000     -10.126173      -275.5472
   7   2.0000     -10.114183      -275.2209
   8   2.0000     -10.113926      -275.2139
   9   2.0000     -10.109127      -275.0833
  10   2.0000     -10.103498      -274.9301
  11   2.0000     -10.027375      -272.8587
  12   2.0000      -1.510195       -41.0945
  13   2.0000      -1.227380       -33.3987
  14   2.0000      -1.092866       -29.7384
  15   2.0000      -1.014216       -27.5982
  16   2.0000      -0.971977       -26.4488
  17   2.0000      -0.926513       -25.2117
  18   2.0000      -0.879799       -23.9405
  19   2.0000      -0.850614       -23.1464
  20   2.0000      -0.828205       -22.5366
  21   2.0000      -0.785338       -21.3701
  22   2.0000      -0.745334       -20.2816
  23   2.0000      -0.736477       -20.0405
  24   2.0000      -0.713046       -19.4030
  25   2.0000      -0.702211       -19.1081
  26   2.0000      -0.678444       -18.4614
  27   2.0000      -0.646147       -17.5826
  28   2.0000      -0.631746       -17.1907
  29   2.0000      -0.624269       -16.9872
  30   2.0000      -0.617608       -16.8060
  31   2.0000      -0.589199       -16.0329
  32   2.0000      -0.566738       -15.4217
  33   2.0000      -0.551905       -15.0181
  34   2.0000      -0.544928       -14.8282
  35   2.0000      -0.532406       -14.4875
  36   2.0000      -0.516515       -14.0551
  37   2.0000      -0.508416       -13.8347
  38   2.0000      -0.494887       -13.4665
  39   2.0000      -0.490731       -13.3535
  40   2.0000      -0.470584       -12.8052
  41   2.0000      -0.466929       -12.7058
  42   2.0000      -0.453499       -12.3403
  43   2.0000      -0.448254       -12.1976
  44   2.0000      -0.441812       -12.0223
  45   2.0000      -0.426673       -11.6104
  46   2.0000      -0.288379        -7.8472
  47   0.0000       0.040756         1.1090
  48   0.0000       0.053906         1.4669
  49   0.0000       0.070068         1.9067
  50   0.0000       0.074447         2.0258
  51   0.0000       0.078362         2.1323

MULLIKEN ATOMIC CHARGES
-----------------------
   0 C :   -0.813230
   1 C :   -0.765424
   2 C :   -0.681433
   3 H :    0.454453
   4 H :    0.389468
   5 C :    0.556162
   6 C :    0.513261
   7 N :   -0.566258
   8 C :   -1.230786
   9 H :    0.321235
  10 H :    0.317412
  11 H :    0.440177
  12 H :    0.200474
  13 O :   -0.585999
  14 F :   -0.223242
  15 C :   -0.715595
  16 C :   -0.546277
  17 H :    0.367505
  18 H :    0.426386
  19 C :   -0.763368
  20 H :    0.284431
  21 H :    0.339489
  22 H :    0.350964
  23 H :    0.428422
  24 H :    0.381839
  25 H :    0.396624
  26 H :    0.366494
  27 H :    0.356817
Sum of atomic charges:    0.0000000

LOEWDIN ATOMIC CHARGES
----------------------
   0 C :   -0.153695
   1 C :   -0.201882
   2 C :   -0.114363
   3 H :    0.129588
   4 H :    0.137482
   5 C :   -0.464610
   6 C :   -0.495850
   7 N :    0.103785
   8 C :   -0.002007
   9 H :    0.026475
  10 H :    0.024285
  11 H :    0.036344
  12 H :    0.120691
  13 O :    0.060858
  14 F :    0.246121
  15 C :   -0.207808
  16 C :   -0.211631
  17 H :    0.120518
  18 H :    0.115697
  19 C :   -0.226922
  20 H :    0.110860
  21 H :    0.126113
  22 H :    0.100478
  23 H :    0.127893
  24 H :    0.124066
  25 H :    0.122922
  26 H :    0.113215
  27 H :    0.131378

  Mayer bond orders larger than 0.100000
B(  0-C ,  6-C ) :   0.5209 B(  0-C , 15-C ) :   0.7706 B(  0-C , 26-H ) :   0.9662
B(  0-C , 27-H ) :   0.9625 B(  1-C ,  2-C ) :   0.7291 B(  1-C , 19-C ) :   0.8628
B(  1-C , 24-H ) :   0.9188 B(  1-C , 25-H ) :   0.9013 B(  2-C ,  3-H ) :   0.8745
B(  2-C ,  4-H ) :   0.8693 B(  2-C ,  5-C ) :   0.8637 B(  5-C , 13-O ) :   1.5828
B(  5-C , 14-F ) :   0.9510 B(  6-C ,  7-N ) :   0.8638 B(  6-C ,  8-C ) :   1.3161
B(  6-C , 10-H ) :  -0.1180 B(  7-N ,  8-C ) :   0.1761 B(  7-N , 11-H ) :   0.6535
B(  7-N , 12-H ) :   0.9615 B(  8-C ,  9-H ) :   0.9807 B(  8-C , 10-H ) :   1.0223
B( 15-C , 16-C ) :   0.9244 B( 15-C , 17-H ) :   0.8906 B( 15-C , 18-H ) :   0.8525
B( 16-C , 19-C ) :   0.3834 B( 16-C , 20-H ) :   0.9459 B( 16-C , 21-H ) :   0.9480
B( 16-C , 22-H ) :  -0.1158 B( 19-C , 22-H ) :   1.0287 B( 19-C , 23-H ) :   0.8142

FINAL SINGLE POINT ENERGY      -580.781239369795

DIPOLE MOMENT
-------------
                                X             Y             Z
Electronic contribution:     -3.45549       0.84977     -12.70872
Nuclear contribution   :      2.21030       0.63135      12.80988
                        -----------------------------------------
Total Dipole Moment    :     -1.24519       1.48112       0.10116
                        -----------------------------------------
Magnitude (a.u.)       :      1.93764
Magnitude (Debye)      :      4.92510

Rotational constants in cm-1:     0.039980     0.026547     0.019089
Rotational constants in MHz :  1198.568620   795.867393   572.288555

                             ****ORCA TERMINATED NORMALLY****
TOTAL RUN TIME: 0 days 0 hours 5 minutes 29 seconds 958 msec
