                         Program Version 5.0.0 -  RELEASE  -
|  1> !B3LYP D3BJ RIJCOSX def2-SVPD def2/J TightSCF
|  2> *xyz -1 1
|  3> C          3.34350        3.35457       -3.59200
|  4> C          2.95263        1.86308       -3.57485
|  5> C          4.12921        0.89839       -3.41895
|  6> H          3.73369       -0.10060       -3.23763
|  7> H          4.71910        0.86256       -4.33901
|  8> C          5.01734        1.31521       -2.22130
|  9> H          2.27894        1.73525       -2.72550
| 10> H          2.37747        1.62579       -4.47587
| 11> O          4.73706        0.85411       -1.12283
| 12> O          5.92815        2.16811       -2.49136
| 13> H          4.00801        3.53975       -4.40994
| 14> H          3.83025        3.60631       -2.67298
| 15> H          2.46347        3.95263       -3.70497
| 16> *
| 17> %MaxCore 64000
| 18>
| 19> %pal nprocs 4
| 20> end
| 21>
| 22> %scf
| 23>   MaxIter 150
| 24> end
| 25>
| 26>
| 27>                          ****END OF INPUT****

CARTESIAN COORDINATES (ANGSTROEM)
---------------------------------
  C      3.343500    3.354570   -3.592000
  C      2.952630    1.863080   -3.574850
  C      4.129210    0.898390   -3.418950
  H      3.733690   -0.100600   -3.237630
  H      4.719100    0.862560   -4.339010
  C      5.017340    1.315210   -2.221300
  H      2.278940    1.735250   -2.725500
  H      2.377470    1.625790   -4.475870
  O      4.737060    0.854110   -1.122830
  O      5.928150    2.168110   -2.491360
  H      4.008010    3.539750   -4.409940
  H      3.830250    3.606310   -2.672980
  H      2.463470    3.952630   -3.704970

 Total Charge           Charge          ....   -1
 Multiplicity           Mult            ....    1
 Number of Electrons    NEL             ....   48
 Basis Dimension        Dim             ....  182

ORBITAL ENERGIES
----------------

  NO   OCC          E(Eh)            E(eV)
   0   2.0000     -18.887650      -513.9591
   1   2.0000     -18.876189      -513.6472
   2   2.0000     -10.072095      -274.0756
   3   2.0000     -10.036166      -273.0980
   4   2.0000     -10.021511      -272.6992
   5   2.0000     -10.008148      -272.3356
   6   2.0000      -0.821203       -22.3461
   7   2.0000      -0.724854       -19.7243
   8   2.0000      -0.626279       -17.0419
   9   2.0000      -0.530716       -14.4415
  10   2.0000      -0.435873       -11.8607
  11   2.0000      -0.327251        -8.9050
  12   2.0000      -0.296412        -8.0658
  13   2.0000      -0.286899        -7.8069
  14   2.0000      -0.250610        -6.8194
  15   2.0000      -0.234408        -6.3786
  16   2.0000      -0.212697        -5.7878
  17   2.0000      -0.203835        -5.5466
  18   2.0000      -0.200197        -5.4476
  19   2.0000      -0.176137        -4.7929
  20   2.0000      -0.169827        -4.6212
  21   2.0000      -0.055891        -1.5209
  22   2.0000      -0.045769        -1.2454
  23   2.0000      -0.034115        -0.9283
  24   0.0000       0.146427         3.9845
  25   0.0000       0.171762         4.6739
  26   0.0000       0.185955         5.0601
  27   0.0000       0.198684         5.4065
  28   0.0000       0.223460         6.0807

MULLIKEN ATOMIC CHARGES
-----------------------
   0 C :    0.915456
   1 C :   -0.276072
   2 C :    0.356074
   3 H :   -0.110335
   4 H :   -0.104427
   5 C :    0.350432
   6 H :   -0.100001
   7 H :   -0.285716
   8 O :   -0.610278
   9 O :   -0.703721
  10 H :   -0.117218
  11 H :   -0.069246
  12 H :   -0.244947
Sum of atomic charges:   -1.0000000

LOEWDIN ATOMIC CHARGES
----------------------
   0 C :    0.119015
   1 C :   -0.077295
   2 C :    0.004244
   3 H :   -0.005825
   4 H :    0.000769
   5 C :   -0.306838
   6 H :    0.008046
   7 H :   -0.006558
   8 O :   -0.297432
   9 O :   -0.338019
  10 H :   -0.025846
  11 H :   -0.028617
  12 H :   -0.045643

  Mayer bond orders larger than 0.100000
B(  0-C ,  1-C ) :   1.2827 B(  0-C ,  6-H ) :   0.1071 B(  0-C ,  7-H ) :   0.1091
B(  0-C , 10-H ) :   0.7396 B(  0-C , 11-H ) :   0.7584 B(  0-C , 12-H ) :   0.7152
B(  1-C ,  2-C ) :   1.2059 B(  1-C ,  3-H ) :   0.1683 B(  1-C ,  4-H ) :   0.1620
B(  1-C ,  6-H ) :   0.8714 B(  1-C ,  7-H ) :   0.9317 B(  1-C , 10-H ) :   0.2268
B(  1-C , 11-H ) :   0.2503 B(  1-C , 12-H ) :   0.2433 B(  2-C ,  3-H ) :   0.8136
B(  2-C ,  4-H ) :   0.8604 B(  2-C ,  5-C ) :   0.9823 B(  2-C ,  6-H ) :   0.1357
B(  3-H ,  5-C ) :   0.1566 B(  4-H ,  5-C ) :   0.1094 B(  5-C ,  8-O ) :   1.5171
B(  5-C ,  9-O ) :   1.4658

Dispersion correction           -0.016641382
FINAL SINGLE POINT ENERGY      -306.787725952741

DIPOLE MOMENT
-------------
                                X             Y             Z
Electronic contribution:      4.93437      -2.55036       4.46712
Nuclear contribution   :     -6.63819       2.74067      -6.05656
                        -----------------------------------------
Total Dipole Moment    :     -1.70382       0.19031      -1.58944
                        -----------------------------------------
Magnitude (a.u.)       :      2.33785
Magnitude (Debye)      :      5.94233

Rotational constants in cm-1:     0.190880     0.089683     0.076466
Rotational constants in MHz :  5722.446013  2688.617255  2292.390699

                             ****ORCA TERMINATED NORMALLY****
TOTAL RUN TIME: 0 days 0 hours 0 minutes 18 seconds 717 msec
