                         Program Version 5.0.0 -  RELEASE  -
|  1> !B3LYP D3BJ RIJCOSX def2-SVPD def2/J TightSCF
|  2> *xyz 1 1
|  3> C          3.34350        3.35457       -3.59200
|  4> C          2.95263        1.86308       -3.57485
|  5> C          4.12921        0.89839       -3.41895
|  6> C          4.25587        3.70385       -4.72605
|  7> N          3.73403        4.29378       -5.80077
|  8> N          5.51504        3.40725       -4.63718
|  9> H          6.14919        3.60120       -5.39905
| 10> H          5.81358        2.89950       -3.80879
| 11> H          2.74138        4.51311       -5.82470
| 12> H          4.28755        4.52126       -6.61434
| 13> H          2.27894        1.73525       -2.72550
| 14> H          2.37747        1.62579       -4.47587
| 15> H          3.86125        3.59725       -2.66298
| 16> H          2.44649        3.97346       -3.65656
| 17> H          4.79753        1.01430       -4.24649
| 18> H          3.76482       -0.10731       -3.39293
| 19> H          4.64840        1.11330       -2.50837
| 20> *
| 21> %MaxCore 64000
| 22>
| 23> %pal nprocs 4
| 24> end
| 25>
| 26> %scf
| 27>   MaxIter 150
| 28> end
| 29>
| 30>
| 31>                          ****END OF INPUT****

CARTESIAN COORDINATES (ANGSTROEM)
---------------------------------
  C      3.343500    3.354570   -3.592000
  C      2.952630    1.863080   -3.574850
  C      4.129210    0.898390   -3.418950
  C      4.255870    3.703850   -4.726050
  N      3.734030    4.293780   -5.800770
  N      5.515040    3.407250   -4.637180
  H      6.149190    3.601200   -5.399050
  H      5.813580    2.899500   -3.808790
  H      2.741380    4.513110   -5.824700
  H      4.287550    4.521260   -6.614340
  H      2.278940    1.735250   -2.725500
  H      2.377470    1.625790   -4.475870
  H      3.861250    3.597250   -2.662980
  H      2.446490    3.973460   -3.656560
  H      4.797530    1.014300   -4.246490
  H      3.764820   -0.107310   -3.392930
  H      4.648400    1.113300   -2.508370

 Total Charge           Charge          ....    1
 Multiplicity           Mult            ....    1
 Number of Electrons    NEL             ....   48
 Basis Dimension        Dim             ....  208

ORBITAL ENERGIES
----------------

  NO   OCC          E(Eh)            E(eV)
   0   2.0000     -14.575286      -396.6137
   1   2.0000     -14.571468      -396.5098
   2   2.0000     -10.500505      -285.7333
   3   2.0000     -10.376651      -282.3630
   4   2.0000     -10.345483      -281.5149
   5   2.0000     -10.315740      -280.7056
   6   2.0000      -1.193244       -32.4698
   7   2.0000      -1.099007       -29.9055
   8   2.0000      -0.966349       -26.2957
   9   2.0000      -0.884325       -24.0637
  10   2.0000      -0.828044       -22.5322
  11   2.0000      -0.787113       -21.4184
  12   2.0000      -0.772265       -21.0144
  13   2.0000      -0.729113       -19.8402
  14   2.0000      -0.701962       -19.1014
  15   2.0000      -0.651759       -17.7353
  16   2.0000      -0.621008       -16.8985
  17   2.0000      -0.608644       -16.5620
  18   2.0000      -0.574797       -15.6410
  19   2.0000      -0.560959       -15.2645
  20   2.0000      -0.510835       -13.9005
  21   2.0000      -0.503619       -13.7042
  22   2.0000      -0.499813       -13.6006
  23   2.0000      -0.485713       -13.2169
  24   0.0000      -0.208737        -5.6800
  25   0.0000      -0.157573        -4.2878
  26   0.0000      -0.116397        -3.1673
  27   0.0000      -0.112196        -3.0530
  28   0.0000      -0.089360        -2.4316

MULLIKEN ATOMIC CHARGES
-----------------------
   0 C :    0.227413
   1 C :   -0.099862
   2 C :    0.976398
   3 C :    0.727205
   4 N :    0.091792
   5 N :    0.204661
   6 H :   -0.175332
   7 H :    0.049579
   8 H :    0.005177
   9 H :   -0.159177
  10 H :   -0.103597
  11 H :   -0.151267
  12 H :   -0.017307
  13 H :   -0.133812
  14 H :   -0.135730
  15 H :   -0.237933
  16 H :   -0.068209
Sum of atomic charges:    1.0000000

LOEWDIN ATOMIC CHARGES
----------------------
   0 C :    0.051091
   1 C :   -0.026199
   2 C :    0.143640
   3 C :   -0.042919
   4 N :    0.287749
   5 N :    0.295003
   6 H :    0.054215
   7 H :    0.043364
   8 H :    0.049285
   9 H :    0.040848
  10 H :    0.037212
  11 H :    0.031039
  12 H :    0.044628
  13 H :    0.036147
  14 H :   -0.036847
  15 H :   -0.000091
  16 H :   -0.008163

  Mayer bond orders larger than 0.100000
B(  0-C ,  1-C ) :   1.1787 B(  0-C ,  3-C ) :   1.0607 B(  0-C ,  4-N ) :   0.1121
B(  0-C ,  5-N ) :   0.1257 B(  0-C , 10-H ) :   0.1315 B(  0-C , 11-H ) :   0.1078
B(  0-C , 12-H ) :   0.8045 B(  0-C , 13-H ) :   0.8680 B(  1-C ,  2-C ) :   1.2897
B(  1-C , 10-H ) :   0.8581 B(  1-C , 11-H ) :   0.9466 B(  1-C , 12-H ) :   0.1347
B(  1-C , 13-H ) :   0.1188 B(  1-C , 14-H ) :   0.2222 B(  1-C , 15-H ) :   0.2338
B(  1-C , 16-H ) :   0.2295 B(  2-C , 10-H ) :   0.1070 B(  2-C , 14-H ) :   0.7596
B(  2-C , 15-H ) :   0.7630 B(  2-C , 16-H ) :   0.7379 B(  3-C ,  4-N ) :   1.0468
B(  3-C ,  5-N ) :   1.1674 B(  3-C ,  6-H ) :  -0.1954 B(  3-C ,  8-H ) :  -0.1034
B(  3-C ,  9-H ) :  -0.1748 B(  3-C , 13-H ) :   0.1130 B(  4-N ,  5-N ) :   0.1663
B(  4-N ,  8-H ) :   1.1173 B(  4-N ,  9-H ) :   1.3043 B(  5-N ,  6-H ) :   1.3517
B(  5-N ,  7-H ) :   1.0279 B(  6-H ,  7-H ) :  -0.1996 B(  8-H ,  9-H ) :  -0.1858

Dispersion correction           -0.022746518
FINAL SINGLE POINT ENERGY      -268.016790440459

DIPOLE MOMENT
-------------
                                X             Y             Z
Electronic contribution:      1.42394       4.41988      -2.93434
Nuclear contribution   :     -0.87169      -3.40560       1.97790
                        -----------------------------------------
Total Dipole Moment    :      0.55225       1.01428      -0.95644
                        -----------------------------------------
Magnitude (a.u.)       :      1.49951
Magnitude (Debye)      :      3.81144

Rotational constants in cm-1:     0.188632     0.081113     0.066356
Rotational constants in MHz :  5655.057814  2431.708101  1989.304146

                             ****ORCA TERMINATED NORMALLY****
TOTAL RUN TIME: 0 days 0 hours 0 minutes 21 seconds 13 msec
