                         Program Version 5.0.0 -  RELEASE  -
|  1> !B3LYP D3BJ RIJCOSX def2-SVPD def2/J TightSCF xyzfile
|  2>
|  3> *xyzfile 0 1 B.xyz
|  4>
|  5> %MaxCore 64000
|  6>
|  7> %pal nprocs 4
|  8> end
|  9>
| 10> %scf
| 11>   MaxIter 150
| 12> end
| 13>
| 14>
| 15>                          ****END OF INPUT****

CARTESIAN COORDINATES (ANGSTROEM)
---------------------------------
  C      3.343500    3.354571   -3.591998
  C      2.952633    1.863077   -3.574849
  C      4.129209    0.898394   -3.418950
  H      3.733687   -0.100605   -3.237633
  H      4.719095    0.862556   -4.339005
  C      5.017344    1.315212   -2.221305
  C      4.255868    3.703851   -4.726054
  N      3.734032    4.293783   -5.800770
  N      5.515039    3.407255   -4.637185
  H      6.149187    3.601203   -5.399053
  H      5.813584    2.899504   -3.808785
  H      2.741380    4.513109   -5.824701
  H      4.287548    4.521260   -6.614341
  H      2.278938    1.735250   -2.725496
  H      2.377466    1.625787   -4.475869
  O      4.737055    0.854112   -1.122825
  O      5.928146    2.168108   -2.491365
  H      3.861246    3.597252   -2.662979
  H      2.446493    3.973461   -3.656556

 Total Charge           Charge          ....    0
 Multiplicity           Mult            ....    1
 Number of Electrons    NEL             ....   70
 Basis Dimension        Dim             ....  266

ORBITAL ENERGIES
----------------

  NO   OCC          E(Eh)            E(eV)
   0   2.0000     -19.051644      -518.4216
   1   2.0000     -19.039906      -518.1022
   2   2.0000     -14.430753      -392.6808
   3   2.0000     -14.390353      -391.5814
   4   2.0000     -10.345512      -281.5157
   5   2.0000     -10.234407      -278.4924
   6   2.0000     -10.227941      -278.3164
   7   2.0000     -10.203966      -277.6640
   8   2.0000     -10.163036      -276.5503
   9   2.0000      -1.038199       -28.2508
  10   2.0000      -0.985101       -26.8060
  11   2.0000      -0.943492       -25.6737
  12   2.0000      -0.896452       -24.3937
  13   2.0000      -0.817829       -22.2542
  14   2.0000      -0.733436       -19.9578
  15   2.0000      -0.675707       -18.3869
  16   2.0000      -0.631390       -17.1810
  17   2.0000      -0.622693       -16.9443
  18   2.0000      -0.585923       -15.9438
  19   2.0000      -0.547215       -14.8905
  20   2.0000      -0.502549       -13.6750
  21   2.0000      -0.484206       -13.1759
  22   2.0000      -0.464304       -12.6343
  23   2.0000      -0.447528       -12.1779
  24   2.0000      -0.425887       -11.5890
  25   2.0000      -0.399678       -10.8758
  26   2.0000      -0.381447       -10.3797
  27   2.0000      -0.373604       -10.1663
  28   2.0000      -0.369809       -10.0630
  29   2.0000      -0.342237        -9.3127
  30   2.0000      -0.333031        -9.0622
  31   2.0000      -0.331311        -9.0154
  32   2.0000      -0.223539        -6.0828
  33   2.0000      -0.217174        -5.9096
  34   2.0000      -0.195542        -5.3210
  35   0.0000      -0.057627        -1.5681
  36   0.0000      -0.035139        -0.9562
  37   0.0000       0.003091         0.0841
  38   0.0000       0.023924         0.6510
  39   0.0000       0.035436         0.9643

MULLIKEN ATOMIC CHARGES
-----------------------
   0 C :    0.272984
   1 C :    0.146860
   2 C :    0.416194
   3 H :   -0.265993
   4 H :    0.010104
   5 C :    0.458328
   6 C :    0.638825
   7 N :    0.113314
   8 N :    0.549725
   9 H :   -0.225615
  10 H :   -0.282752
  11 H :   -0.065870
  12 H :   -0.208703
  13 H :   -0.031942
  14 H :   -0.254194
  15 O :   -0.554786
  16 O :   -0.635024
  17 H :    0.154865
  18 H :   -0.236318
Sum of atomic charges:    0.0000000

LOEWDIN ATOMIC CHARGES
----------------------
   0 C :    0.056238
   1 C :    0.005593
   2 C :    0.036635
   3 H :    0.018953
   4 H :    0.003911
   5 C :   -0.228911
   6 C :   -0.042835
   7 N :    0.250510
   8 N :    0.313030
   9 H :    0.037168
  10 H :   -0.135463
  11 H :    0.027512
  12 H :    0.020807
  13 H :    0.033772
  14 H :    0.014810
  15 O :   -0.215164
  16 O :   -0.257393
  17 H :    0.040197
  18 H :    0.020630

  Mayer bond orders larger than 0.100000
B(  0-C ,  1-C ) :   1.1924 B(  0-C ,  6-C ) :   1.0702 B(  0-C , 13-H ) :   0.1362
B(  0-C , 14-H ) :   0.1488 B(  0-C , 17-H ) :   0.6928 B(  0-C , 18-H ) :   0.8425
B(  1-C ,  2-C ) :   1.2532 B(  1-C ,  3-H ) :   0.2048 B(  1-C ,  4-H ) :   0.1854
B(  1-C , 13-H ) :   0.8137 B(  1-C , 14-H ) :   0.8821 B(  1-C , 17-H ) :   0.1513
B(  1-C , 18-H ) :   0.1766 B(  2-C ,  3-H ) :   0.7442 B(  2-C ,  4-H ) :   0.8009
B(  2-C ,  5-C ) :   0.9704 B(  2-C , 13-H ) :   0.1580 B(  3-H ,  5-C ) :   0.1814
B(  5-C , 15-O ) :   1.5983 B(  5-C , 16-O ) :   1.2427 B(  6-C ,  7-N ) :   0.9912
B(  6-C ,  8-N ) :   1.1830 B(  6-C ,  9-H ) :  -0.2201 B(  6-C , 11-H ) :  -0.1355
B(  6-C , 12-H ) :  -0.1642 B(  6-C , 17-H ) :   0.1313 B(  6-C , 18-H ) :   0.1182
B(  7-N ,  8-N ) :   0.1586 B(  7-N , 11-H ) :   1.1922 B(  7-N , 12-H ) :   1.3158
B(  8-N ,  9-H ) :   1.2874 B(  8-N , 10-H ) :   1.0682 B(  9-H , 10-H ) :  -0.2471
B( 10-H , 16-O ) :   0.2716 B( 11-H , 12-H ) :  -0.1869 B( 15-O , 16-O ) :   0.1472

Dispersion correction           -0.031225525
FINAL SINGLE POINT ENERGY      -455.987829844901

DIPOLE MOMENT
-------------
                                X             Y             Z
Electronic contribution:      3.89220       0.02374       2.58590
Nuclear contribution   :     -5.42217       2.65262      -7.07590
                        -----------------------------------------
Total Dipole Moment    :     -1.52997       2.67636      -4.49000
                        -----------------------------------------
Magnitude (a.u.)       :      5.44645
Magnitude (Debye)      :     13.84379

Rotational constants in cm-1:     0.107541     0.035862     0.030371
Rotational constants in MHz :  3223.996852  1075.120464   910.508313

                             ****ORCA TERMINATED NORMALLY****
TOTAL RUN TIME: 0 days 0 hours 0 minutes 50 seconds 472 msec
