                         Program Version 5.0.0 -  RELEASE  -
|  1> !B3LYP D3BJ RIJCOSX def2-SVPD def2/J TightSCF
|  2> *xyz 0 1
|  3> C          3.34350        3.35457       -3.59200
|  4> C          2.95263        1.86308       -3.57485
|  5> C          4.12921        0.89839       -3.41895
|  6> H          3.73369       -0.10060       -3.23763
|  7> H          4.71910        0.86256       -4.33901
|  8> C          5.01734        1.31521       -2.22130
|  9> H          2.27894        1.73525       -2.72550
| 10> H          2.37747        1.62579       -4.47587
| 11> F          4.73706        0.85411       -1.12283
| 12> O          5.92815        2.16811       -2.49136
| 13> H          4.00801        3.53975       -4.40994
| 14> H          3.83025        3.60631       -2.67298
| 15> H          2.46347        3.95263       -3.70497
| 16> *
| 17> %MaxCore 64000
| 18>
| 19> %pal nprocs 4
| 20> end
| 21>
| 22> %scf
| 23>   MaxIter 150
| 24> end
| 25>
| 26>
| 27>                          ****END OF INPUT****

CARTESIAN COORDINATES (ANGSTROEM)
---------------------------------
  C      3.343500    3.354570   -3.592000
  C      2.952630    1.863080   -3.574850
  C      4.129210    0.898390   -3.418950
  H      3.733690   -0.100600   -3.237630
  H      4.719100    0.862560   -4.339010
  C      5.017340    1.315210   -2.221300
  H      2.278940    1.735250   -2.725500
  H      2.377470    1.625790   -4.475870
  F      4.737060    0.854110   -1.122830
  O      5.928150    2.168110   -2.491360
  H      4.008010    3.539750   -4.409940
  H      3.830250    3.606310   -2.672980
  H      2.463470    3.952630   -3.704970

 Total Charge           Charge          ....    0
 Multiplicity           Mult            ....    1
 Number of Electrons    NEL             ....   48
 Basis Dimension        Dim             ....  182

ORBITAL ENERGIES
----------------

  NO   OCC          E(Eh)            E(eV)
   0   2.0000     -24.783892      -674.4040
   1   2.0000     -19.146413      -521.0004
   2   2.0000     -10.369444      -282.1669
   3   2.0000     -10.213357      -277.9196
   4   2.0000     -10.201624      -277.6003
   5   2.0000     -10.171851      -276.7901
   6   2.0000      -1.333803       -36.2946
   7   2.0000      -1.014448       -27.6045
   8   2.0000      -0.806350       -21.9419
   9   2.0000      -0.721171       -19.6241
  10   2.0000      -0.673427       -18.3249
  11   2.0000      -0.611400       -16.6370
  12   2.0000      -0.568987       -15.4829
  13   2.0000      -0.549975       -14.9656
  14   2.0000      -0.502439       -13.6721
  15   2.0000      -0.469833       -12.7848
  16   2.0000      -0.455705       -12.4004
  17   2.0000      -0.417227       -11.3533
  18   2.0000      -0.398496       -10.8436
  19   2.0000      -0.368129       -10.0173
  20   2.0000      -0.363504        -9.8915
  21   2.0000      -0.352329        -9.5874
  22   2.0000      -0.341058        -9.2807
  23   2.0000      -0.288471        -7.8497
  24   0.0000      -0.038292        -1.0420
  25   0.0000       0.012074         0.3285
  26   0.0000       0.042627         1.1599
  27   0.0000       0.048011         1.3064
  28   0.0000       0.054636         1.4867

MULLIKEN ATOMIC CHARGES
-----------------------
   0 C :    0.933727
   1 C :   -0.238702
   2 C :    0.319781
   3 H :   -0.080875
   4 H :   -0.077029
   5 C :    0.738523
   6 H :   -0.105673
   7 H :   -0.242923
   8 F :   -0.338475
   9 O :   -0.499550
  10 H :   -0.107032
  11 H :   -0.084230
  12 H :   -0.217543
Sum of atomic charges:    0.0000000

LOEWDIN ATOMIC CHARGES
----------------------
   0 C :    0.139356
   1 C :   -0.054369
   2 C :    0.050766
   3 H :    0.017596
   4 H :    0.034583
   5 C :   -0.015125
   6 H :    0.017815
   7 H :    0.021730
   8 F :   -0.003446
   9 O :   -0.147164
  10 H :   -0.012159
  11 H :   -0.028296
  12 H :   -0.021286

  Mayer bond orders larger than 0.100000
B(  0-C ,  1-C ) :   1.3023 B(  0-C ,  7-H ) :   0.1010 B(  0-C , 10-H ) :   0.7467
B(  0-C , 11-H ) :   0.7653 B(  0-C , 12-H ) :   0.7261 B(  1-C ,  2-C ) :   1.2014
B(  1-C ,  3-H ) :   0.1621 B(  1-C ,  4-H ) :   0.1588 B(  1-C ,  6-H ) :   0.8705
B(  1-C ,  7-H ) :   0.9332 B(  1-C , 10-H ) :   0.2166 B(  1-C , 11-H ) :   0.2330
B(  1-C , 12-H ) :   0.2308 B(  2-C ,  3-H ) :   0.8208 B(  2-C ,  4-H ) :   0.8652
B(  2-C ,  5-C ) :   1.0221 B(  2-C ,  6-H ) :   0.1183 B(  5-C ,  8-F ) :   0.7424
B(  5-C ,  9-O ) :   1.7796 B(  8-F ,  9-O ) :   0.1215

Dispersion correction           -0.015971263
FINAL SINGLE POINT ENERGY      -331.307175464805

DIPOLE MOMENT
-------------
                                X             Y             Z
Electronic contribution:      6.06942      -4.36371       7.57243
Nuclear contribution   :     -7.06456       3.75953      -7.86734
                        -----------------------------------------
Total Dipole Moment    :     -0.99514      -0.60418      -0.29491
                        -----------------------------------------
Magnitude (a.u.)       :      1.20096
Magnitude (Debye)      :      3.05259

Rotational constants in cm-1:     0.185871     0.085512     0.073500
Rotational constants in MHz :  5572.269993  2563.593529  2203.466497

                             ****ORCA TERMINATED NORMALLY****
TOTAL RUN TIME: 0 days 0 hours 0 minutes 16 seconds 847 msec
