                         Program Version 5.0.0 -  RELEASE  -
|  1> !B3LYP D3BJ RIJCOSX def2-SVPD def2/J TightSCF
|  2> *xyz 0 1
|  3> C          3.34350        3.35457       -3.59200
|  4> C          2.95263        1.86308       -3.57485
|  5> C          4.12921        0.89839       -3.41895
|  6> C          4.25587        3.70385       -4.72605
|  7> C          3.73403        4.29378       -5.80077
|  8> N          5.51504        3.40725       -4.63718
|  9> H          6.14919        3.60120       -5.39905
| 10> H          5.81358        2.89950       -3.80879
| 11> H          2.74138        4.51311       -5.82470
| 12> H          4.28755        4.52126       -6.61434
| 13> H          2.27894        1.73525       -2.72550
| 14> H          2.37747        1.62579       -4.47587
| 15> H          3.86125        3.59725       -2.66298
| 16> H          2.44649        3.97346       -3.65656
| 17> H          4.79753        1.01430       -4.24649
| 18> H          3.76482       -0.10731       -3.39293
| 19> H          4.64840        1.11330       -2.50837
| 20> *
| 21> %MaxCore 64000
| 22>
| 23> %pal nprocs 4
| 24> end
| 25>
| 26> %scf
| 27>   MaxIter 150
| 28> end
| 29>
| 30>
| 31>                          ****END OF INPUT****

CARTESIAN COORDINATES (ANGSTROEM)
---------------------------------
  C      3.343500    3.354570   -3.592000
  C      2.952630    1.863080   -3.574850
  C      4.129210    0.898390   -3.418950
  C      4.255870    3.703850   -4.726050
  C      3.734030    4.293780   -5.800770
  N      5.515040    3.407250   -4.637180
  H      6.149190    3.601200   -5.399050
  H      5.813580    2.899500   -3.808790
  H      2.741380    4.513110   -5.824700
  H      4.287550    4.521260   -6.614340
  H      2.278940    1.735250   -2.725500
  H      2.377470    1.625790   -4.475870
  H      3.861250    3.597250   -2.662980
  H      2.446490    3.973460   -3.656560
  H      4.797530    1.014300   -4.246490
  H      3.764820   -0.107310   -3.392930
  H      4.648400    1.113300   -2.508370

 Total Charge           Charge          ....    0
 Multiplicity           Mult            ....    1
 Number of Electrons    NEL             ....   48
 Basis Dimension        Dim             ....  208

ORBITAL ENERGIES
----------------

  NO   OCC          E(Eh)            E(eV)
   0   2.0000     -14.333465      -390.0334
   1   2.0000     -10.200672      -277.5744
   2   2.0000     -10.180199      -277.0173
   3   2.0000     -10.180101      -277.0146
   4   2.0000     -10.169150      -276.7167
   5   2.0000     -10.114709      -275.2352
   6   2.0000      -0.929391       -25.2900
   7   2.0000      -0.785385       -21.3714
   8   2.0000      -0.728569       -19.8254
   9   2.0000      -0.673389       -18.3238
  10   2.0000      -0.603351       -16.4180
  11   2.0000      -0.563355       -15.3297
  12   2.0000      -0.527967       -14.3667
  13   2.0000      -0.483921       -13.1681
  14   2.0000      -0.449980       -12.2446
  15   2.0000      -0.434114       -11.8128
  16   2.0000      -0.411410       -11.1950
  17   2.0000      -0.392296       -10.6749
  18   2.0000      -0.374150       -10.1811
  19   2.0000      -0.361691        -9.8421
  20   2.0000      -0.341412        -9.2903
  21   2.0000      -0.326897        -8.8953
  22   2.0000      -0.324228        -8.8227
  23   2.0000      -0.186673        -5.0796
  24   0.0000       0.014450         0.3932
  25   0.0000       0.036958         1.0057
  26   0.0000       0.045676         1.2429
  27   0.0000       0.048872         1.3299
  28   0.0000       0.066622         1.8129

MULLIKEN ATOMIC CHARGES
-----------------------
   0 C :    0.450892
   1 C :   -0.123511
   2 C :    0.961295
   3 C :   -0.095066
   4 C :    0.607533
   5 N :    0.351657
   6 H :   -0.240237
   7 H :   -0.110402
   8 H :   -0.230324
   9 H :   -0.594878
  10 H :   -0.135057
  11 H :   -0.191367
  12 H :   -0.123883
  13 H :   -0.061085
  14 H :   -0.120773
  15 H :   -0.265322
  16 H :   -0.079472
Sum of atomic charges:   -0.0000000

LOEWDIN ATOMIC CHARGES
----------------------
   0 C :    0.010216
   1 C :   -0.050165
   2 C :    0.122623
   3 C :   -0.262660
   4 C :    0.186141
   5 N :    0.180741
   6 H :    0.015032
   7 H :   -0.003976
   8 H :   -0.089278
   9 H :   -0.095955
  10 H :    0.012157
  11 H :    0.020825
  12 H :    0.017475
  13 H :    0.020013
  14 H :   -0.039178
  15 H :   -0.022562
  16 H :   -0.021449

  Mayer bond orders larger than 0.100000
B(  0-C ,  1-C ) :   1.1469 B(  0-C ,  3-C ) :   1.1298 B(  0-C ,  4-C ) :   0.1716
B(  0-C ,  5-N ) :   0.1308 B(  0-C , 10-H ) :   0.1166 B(  0-C , 11-H ) :   0.1345
B(  0-C , 12-H ) :   0.6855 B(  0-C , 13-H ) :   0.8199 B(  1-C ,  2-C ) :   1.2710
B(  1-C , 10-H ) :   0.8495 B(  1-C , 11-H ) :   0.9549 B(  1-C , 12-H ) :   0.1552
B(  1-C , 13-H ) :   0.1310 B(  1-C , 14-H ) :   0.2290 B(  1-C , 15-H ) :   0.2443
B(  1-C , 16-H ) :   0.2394 B(  2-C , 10-H ) :   0.1069 B(  2-C , 14-H ) :   0.7830
B(  2-C , 15-H ) :   0.7336 B(  2-C , 16-H ) :   0.7300 B(  3-C ,  4-C ) :   1.5777
B(  3-C ,  5-N ) :   1.1969 B(  3-C ,  6-H ) :  -0.1099 B(  3-C ,  9-H ) :   0.1812
B(  3-C , 12-H ) :   0.1959 B(  3-C , 13-H ) :   0.1743 B(  4-C ,  5-N ) :   0.2983
B(  4-C ,  8-H ) :   0.9245 B(  4-C ,  9-H ) :   0.5711 B(  5-N ,  6-H ) :   1.3002
B(  5-N ,  7-H ) :   1.0004 B(  6-H ,  7-H ) :  -0.1747

Dispersion correction           -0.023523990
FINAL SINGLE POINT ENERGY      -251.557706870857

DIPOLE MOMENT
-------------
                                X             Y             Z
Electronic contribution:      1.44420       2.66098      -1.22294
Nuclear contribution   :     -0.93682      -3.08083       1.62582
                        -----------------------------------------
Total Dipole Moment    :      0.50738      -0.41984       0.40288
                        -----------------------------------------
Magnitude (a.u.)       :      0.77202
Magnitude (Debye)      :      1.96232

Rotational constants in cm-1:     0.191400     0.084268     0.068511
Rotational constants in MHz :  5738.038424  2526.291061  2053.912421

                             ****ORCA TERMINATED NORMALLY****
TOTAL RUN TIME: 0 days 0 hours 0 minutes 22 seconds 836 msec
