                         Program Version 5.0.0 -  RELEASE  -
|  1> !B3LYP D3BJ RIJCOSX def2-SVPD def2/J TightSCF
|  2> *xyz 0 1
|  3> C          3.34350        3.35457       -3.59200
|  4> C          2.95263        1.86308       -3.57485
|  5> C          4.12921        0.89839       -3.41895
|  6> H          3.73369       -0.10060       -3.23763
|  7> H          4.71910        0.86256       -4.33901
|  8> C          5.01734        1.31521       -2.22130
|  9> H          2.27894        1.73525       -2.72550
| 10> H          2.37747        1.62579       -4.47587
| 11> O          4.73706        0.85411       -1.12283
| 12> F          5.92815        2.16811       -2.49136
| 13> H          4.00801        3.53975       -4.40994
| 14> H          3.83025        3.60631       -2.67298
| 15> H          2.46347        3.95263       -3.70497
| 16> *
| 17> %MaxCore 64000
| 18>
| 19> %pal nprocs 4
| 20> end
| 21>
| 22> %scf
| 23>   MaxIter 150
| 24> end
| 25>
| 26>
| 27>                          ****END OF INPUT****

CARTESIAN COORDINATES (ANGSTROEM)
---------------------------------
  C      3.343500    3.354570   -3.592000
  C      2.952630    1.863080   -3.574850
  C      4.129210    0.898390   -3.418950
  H      3.733690   -0.100600   -3.237630
  H      4.719100    0.862560   -4.339010
  C      5.017340    1.315210   -2.221300
  H      2.278940    1.735250   -2.725500
  H      2.377470    1.625790   -4.475870
  O      4.737060    0.854110   -1.122830
  F      5.928150    2.168110   -2.491360
  H      4.008010    3.539750   -4.409940
  H      3.830250    3.606310   -2.672980
  H      2.463470    3.952630   -3.704970

 Total Charge           Charge          ....    0
 Multiplicity           Mult            ....    1
 Number of Electrons    NEL             ....   48
 Basis Dimension        Dim             ....  182

ORBITAL ENERGIES
----------------

  NO   OCC          E(Eh)            E(eV)
   0   2.0000     -24.762238      -673.8147
   1   2.0000     -19.156240      -521.2678
   2   2.0000     -10.365318      -282.0547
   3   2.0000     -10.212778      -277.9038
   4   2.0000     -10.202040      -277.6116
   5   2.0000     -10.180614      -277.0286
   6   2.0000      -1.292536       -35.1717
   7   2.0000      -1.047721       -28.5099
   8   2.0000      -0.808318       -21.9955
   9   2.0000      -0.720364       -19.6021
  10   2.0000      -0.657059       -17.8795
  11   2.0000      -0.609560       -16.5870
  12   2.0000      -0.547364       -14.8945
  13   2.0000      -0.529678       -14.4133
  14   2.0000      -0.508474       -13.8363
  15   2.0000      -0.465749       -12.6737
  16   2.0000      -0.455968       -12.4075
  17   2.0000      -0.421121       -11.4593
  18   2.0000      -0.412624       -11.2281
  19   2.0000      -0.388065       -10.5598
  20   2.0000      -0.362745        -9.8708
  21   2.0000      -0.355991        -9.6870
  22   2.0000      -0.349854        -9.5200
  23   2.0000      -0.300264        -8.1706
  24   0.0000      -0.032391        -0.8814
  25   0.0000       0.014087         0.3833
  26   0.0000       0.041706         1.1349
  27   0.0000       0.045521         1.2387
  28   0.0000       0.058431         1.5900

MULLIKEN ATOMIC CHARGES
-----------------------
   0 C :    0.916122
   1 C :   -0.206575
   2 C :    0.306306
   3 H :   -0.078116
   4 H :   -0.073379
   5 C :    0.733554
   6 H :   -0.086630
   7 H :   -0.246287
   8 O :   -0.430926
   9 F :   -0.397155
  10 H :   -0.119147
  11 H :   -0.108942
  12 H :   -0.208824
Sum of atomic charges:    0.0000000

LOEWDIN ATOMIC CHARGES
----------------------
   0 C :    0.137753
   1 C :   -0.052024
   2 C :    0.051865
   3 H :    0.028205
   4 H :    0.024882
   5 C :   -0.018407
   6 H :    0.024022
   7 H :    0.021401
   8 O :   -0.108346
   9 F :   -0.048134
  10 H :   -0.016181
  11 H :   -0.025908
  12 H :   -0.019128

  Mayer bond orders larger than 0.100000
B(  0-C ,  1-C ) :   1.3085 B(  0-C ,  6-H ) :   0.1016 B(  0-C ,  7-H ) :   0.1036
B(  0-C , 10-H ) :   0.7408 B(  0-C , 11-H ) :   0.7657 B(  0-C , 12-H ) :   0.7340
B(  1-C ,  2-C ) :   1.2162 B(  1-C ,  3-H ) :   0.1561 B(  1-C ,  4-H ) :   0.1571
B(  1-C ,  6-H ) :   0.8766 B(  1-C ,  7-H ) :   0.9324 B(  1-C , 10-H ) :   0.2116
B(  1-C , 11-H ) :   0.2294 B(  1-C , 12-H ) :   0.2287 B(  2-C ,  3-H ) :   0.8238
B(  2-C ,  4-H ) :   0.8653 B(  2-C ,  5-C ) :   1.0049 B(  2-C ,  6-H ) :   0.1234
B(  3-H ,  5-C ) :   0.1328 B(  5-C ,  8-O ) :   1.8404 B(  5-C ,  9-F ) :   0.6680
B(  8-O ,  9-F ) :   0.1285

Dispersion correction           -0.015885269
FINAL SINGLE POINT ENERGY      -331.323857832137

DIPOLE MOMENT
-------------
                                X             Y             Z
Electronic contribution:      8.05294      -2.13042       5.23283
Nuclear contribution   :     -8.40998       2.27527      -6.32148
                        -----------------------------------------
Total Dipole Moment    :     -0.35704       0.14485      -1.08865
                        -----------------------------------------
Magnitude (a.u.)       :      1.15482
Magnitude (Debye)      :      2.93533

Rotational constants in cm-1:     0.181105     0.088112     0.073966
Rotational constants in MHz :  5429.384816  2641.525058  2217.445966

                             ****ORCA TERMINATED NORMALLY****
TOTAL RUN TIME: 0 days 0 hours 0 minutes 17 seconds 627 msec
