                         Program Version 5.0.0 -  RELEASE  -
|  1> !B3LYP D3BJ RIJCOSX def2-SVPD def2/J TightSCF
|  2> *xyz 0 1
|  3> C          3.34350        3.35457       -3.59200
|  4> C          2.95263        1.86308       -3.57485
|  5> C          4.12921        0.89839       -3.41895
|  6> C          4.25587        3.70385       -4.72605
|  7> N          3.73403        4.29378       -5.80077
|  8> C          5.51504        3.40725       -4.63718
|  9> H          6.14919        3.60120       -5.39905
| 10> H          5.81358        2.89950       -3.80879
| 11> H          2.74138        4.51311       -5.82470
| 12> H          4.28755        4.52126       -6.61434
| 13> H          2.27894        1.73525       -2.72550
| 14> H          2.37747        1.62579       -4.47587
| 15> H          3.86125        3.59725       -2.66298
| 16> H          2.44649        3.97346       -3.65656
| 17> H          4.79753        1.01430       -4.24649
| 18> H          3.76482       -0.10731       -3.39293
| 19> H          4.64840        1.11330       -2.50837
| 20> *
| 21> %MaxCore 64000
| 22>
| 23> %pal nprocs 4
| 24> end
| 25>
| 26> %scf
| 27>   MaxIter 150
| 28> end
| 29>
| 30>
| 31>                          ****END OF INPUT****

CARTESIAN COORDINATES (ANGSTROEM)
---------------------------------
  C      3.343500    3.354570   -3.592000
  C      2.952630    1.863080   -3.574850
  C      4.129210    0.898390   -3.418950
  C      4.255870    3.703850   -4.726050
  N      3.734030    4.293780   -5.800770
  C      5.515040    3.407250   -4.637180
  H      6.149190    3.601200   -5.399050
  H      5.813580    2.899500   -3.808790
  H      2.741380    4.513110   -5.824700
  H      4.287550    4.521260   -6.614340
  H      2.278940    1.735250   -2.725500
  H      2.377470    1.625790   -4.475870
  H      3.861250    3.597250   -2.662980
  H      2.446490    3.973460   -3.656560
  H      4.797530    1.014300   -4.246490
  H      3.764820   -0.107310   -3.392930
  H      4.648400    1.113300   -2.508370

 Total Charge           Charge          ....    0
 Multiplicity           Mult            ....    1
 Number of Electrons    NEL             ....   48
 Basis Dimension        Dim             ....  208

ORBITAL ENERGIES
----------------

  NO   OCC          E(Eh)            E(eV)
   0   2.0000     -14.330243      -389.9457
   1   2.0000     -10.198004      -277.5018
   2   2.0000     -10.179646      -277.0022
   3   2.0000     -10.178116      -276.9606
   4   2.0000     -10.157402      -276.3970
   5   2.0000     -10.113494      -275.2022
   6   2.0000      -0.914273       -24.8786
   7   2.0000      -0.786220       -21.3941
   8   2.0000      -0.724760       -19.7217
   9   2.0000      -0.679562       -18.4918
  10   2.0000      -0.592599       -16.1254
  11   2.0000      -0.561157       -15.2699
  12   2.0000      -0.519032       -14.1236
  13   2.0000      -0.478730       -13.0269
  14   2.0000      -0.451354       -12.2820
  15   2.0000      -0.433873       -11.8063
  16   2.0000      -0.394712       -10.7407
  17   2.0000      -0.393978       -10.7207
  18   2.0000      -0.375357       -10.2140
  19   2.0000      -0.359078        -9.7710
  20   2.0000      -0.335734        -9.1358
  21   2.0000      -0.323808        -8.8113
  22   2.0000      -0.319192        -8.6857
  23   2.0000      -0.191808        -5.2194
  24   0.0000       0.014921         0.4060
  25   0.0000       0.037386         1.0173
  26   0.0000       0.045190         1.2297
  27   0.0000       0.051507         1.4016
  28   0.0000       0.067517         1.8372

MULLIKEN ATOMIC CHARGES
-----------------------
   0 C :    0.434061
   1 C :   -0.108961
   2 C :    0.918127
   3 C :    0.072343
   4 N :    0.179043
   5 C :    0.578603
   6 H :   -0.726242
   7 H :    0.000721
   8 H :   -0.140484
   9 H :   -0.215832
  10 H :   -0.142056
  11 H :   -0.187191
  12 H :    0.011305
  13 H :   -0.228018
  14 H :   -0.073879
  15 H :   -0.308883
  16 H :   -0.062658
Sum of atomic charges:    0.0000000

LOEWDIN ATOMIC CHARGES
----------------------
   0 C :    0.010530
   1 C :   -0.051625
   2 C :    0.125403
   3 C :   -0.248066
   4 N :    0.176752
   5 C :    0.172843
   6 H :   -0.081563
   7 H :   -0.079926
   8 H :   -0.006132
   9 H :   -0.000096
  10 H :    0.011799
  11 H :    0.016945
  12 H :    0.024428
  13 H :    0.009410
  14 H :   -0.038825
  15 H :   -0.024742
  16 H :   -0.017135

  Mayer bond orders larger than 0.100000
B(  0-C ,  1-C ) :   1.1609 B(  0-C ,  3-C ) :   1.0056 B(  0-C ,  4-N ) :   0.1341
B(  0-C ,  5-C ) :   0.2265 B(  0-C , 10-H ) :   0.1401 B(  0-C , 11-H ) :   0.1234
B(  0-C , 12-H ) :   0.7604 B(  0-C , 13-H ) :   0.7820 B(  1-C ,  2-C ) :   1.2870
B(  1-C , 10-H ) :   0.8154 B(  1-C , 11-H ) :   0.9306 B(  1-C , 12-H ) :   0.1536
B(  1-C , 13-H ) :   0.1427 B(  1-C , 14-H ) :   0.2273 B(  1-C , 15-H ) :   0.2509
B(  1-C , 16-H ) :   0.2335 B(  2-C , 10-H ) :   0.1149 B(  2-C , 14-H ) :   0.7770
B(  2-C , 15-H ) :   0.7598 B(  2-C , 16-H ) :   0.7351 B(  3-C ,  4-N ) :   1.1288
B(  3-C ,  5-C ) :   1.7695 B(  3-C ,  6-H ) :   0.2279 B(  3-C ,  7-H ) :   0.2436
B(  3-C ,  9-H ) :  -0.1079 B(  3-C , 12-H ) :   0.1122 B(  3-C , 13-H ) :   0.1552
B(  4-N ,  5-C ) :   0.2676 B(  4-N ,  8-H ) :   1.1314 B(  4-N ,  9-H ) :   1.2833
B(  5-C ,  6-H ) :   0.6520 B(  5-C ,  7-H ) :   0.6467 B(  6-H ,  7-H ) :  -0.1857
B(  8-H ,  9-H ) :  -0.1680

Dispersion correction           -0.023639763
FINAL SINGLE POINT ENERGY      -251.557199429808

DIPOLE MOMENT
-------------
                                X             Y             Z
Electronic contribution:     -0.06924       3.47634      -2.23818
Nuclear contribution   :     -0.51555      -3.29052       1.90104
                        -----------------------------------------
Total Dipole Moment    :     -0.58479       0.18582      -0.33714
                        -----------------------------------------
Magnitude (a.u.)       :      0.70012
Magnitude (Debye)      :      1.77957

Rotational constants in cm-1:     0.197086     0.081749     0.067746
Rotational constants in MHz :  5908.486274  2450.769911  2030.963952

                             ****ORCA TERMINATED NORMALLY****
TOTAL RUN TIME: 0 days 0 hours 0 minutes 22 seconds 675 msec
