                         Program Version 5.0.0 -  RELEASE  -
|  1> !B3LYP D3BJ RIJCOSX def2-SVPD def2/J TightSCF xyzfile
|  2>
|  3> *xyzfile 0 1 D1.xyz
|  4>
|  5> %MaxCore 64000
|  6>
|  7> %pal nprocs 4
|  8> end
|  9>
| 10> %scf
| 11>   MaxIter 150
| 12> end
| 13>
| 14>
| 15>                          ****END OF INPUT****

CARTESIAN COORDINATES (ANGSTROEM)
---------------------------------
  C      3.343500    3.354571   -3.591998
  C      2.952633    1.863077   -3.574849
  C      4.129209    0.898394   -3.418950
  H      3.733687   -0.100605   -3.237633
  H      4.719095    0.862556   -4.339005
  C      5.017344    1.315212   -2.221305
  C      4.255868    3.703851   -4.726054
  C      3.734032    4.293783   -5.800770
  N      5.515039    3.407255   -4.637185
  H      6.149187    3.601203   -5.399053
  H      5.813584    2.899504   -3.808785
  H      2.741380    4.513109   -5.824701
  H      4.287548    4.521260   -6.614341
  H      2.278938    1.735250   -2.725496
  H      2.377466    1.625787   -4.475869
  F      4.737055    0.854112   -1.122825
  O      5.928146    2.168108   -2.491365
  H      3.861246    3.597252   -2.662979
  H      2.446493    3.973461   -3.656556

 Total Charge           Charge          ....    0
 Multiplicity           Mult            ....    1
 Number of Electrons    NEL             ....   70
 Basis Dimension        Dim             ....  266

ORBITAL ENERGIES
----------------

  NO   OCC          E(Eh)            E(eV)
   0   2.0000     -24.806102      -675.0083
   1   2.0000     -19.174150      -521.7551
   2   2.0000     -14.296632      -389.0311
   3   2.0000     -10.397433      -282.9285
   4   2.0000     -10.224470      -278.2220
   5   2.0000     -10.207026      -277.7473
   6   2.0000     -10.191697      -277.3302
   7   2.0000     -10.184907      -277.1454
   8   2.0000     -10.105219      -274.9770
   9   2.0000      -1.355100       -36.8741
  10   2.0000      -1.052231       -28.6327
  11   2.0000      -0.908324       -24.7168
  12   2.0000      -0.817495       -22.2452
  13   2.0000      -0.745816       -20.2947
  14   2.0000      -0.708400       -19.2765
  15   2.0000      -0.677694       -18.4410
  16   2.0000      -0.629125       -17.1194
  17   2.0000      -0.589817       -16.0497
  18   2.0000      -0.578444       -15.7403
  19   2.0000      -0.549690       -14.9578
  20   2.0000      -0.545933       -14.8556
  21   2.0000      -0.506207       -13.7746
  22   2.0000      -0.484978       -13.1969
  23   2.0000      -0.460613       -12.5339
  24   2.0000      -0.445933       -12.1345
  25   2.0000      -0.434002       -11.8098
  26   2.0000      -0.396311       -10.7842
  27   2.0000      -0.387658       -10.5487
  28   2.0000      -0.377973       -10.2852
  29   2.0000      -0.375293       -10.2123
  30   2.0000      -0.361001        -9.8233
  31   2.0000      -0.331245        -9.0136
  32   2.0000      -0.324296        -8.8246
  33   2.0000      -0.309171        -8.4130
  34   2.0000      -0.173898        -4.7320
  35   0.0000      -0.063213        -1.7201
  36   0.0000       0.005974         0.1626
  37   0.0000       0.034118         0.9284
  38   0.0000       0.039873         1.0850
  39   0.0000       0.045051         1.2259

MULLIKEN ATOMIC CHARGES
-----------------------
   0 C :    0.604784
   1 C :    0.139295
   2 C :    0.338135
   3 H :   -0.244817
   4 H :    0.072378
   5 C :    0.815186
   6 C :   -0.101341
   7 C :    0.478587
   8 N :    0.784365
   9 H :   -0.278129
  10 H :   -0.528753
  11 H :   -0.239127
  12 H :   -0.523470
  13 H :   -0.044458
  14 H :   -0.241768
  15 F :   -0.354980
  16 O :   -0.504166
  17 H :   -0.042263
  18 H :   -0.129459
Sum of atomic charges:    0.0000000

LOEWDIN ATOMIC CHARGES
----------------------
   0 C :    0.026493
   1 C :    0.006425
   2 C :    0.069239
   3 H :    0.020730
   4 H :    0.032137
   5 C :    0.046908
   6 C :   -0.247230
   7 C :    0.177322
   8 N :    0.206835
   9 H :    0.014374
  10 H :   -0.144898
  11 H :   -0.096144
  12 H :   -0.097529
  13 H :    0.020083
  14 H :    0.030881
  15 F :    0.017319
  16 O :   -0.121211
  17 H :    0.014537
  18 H :    0.023730

  Mayer bond orders larger than 0.100000
B(  0-C ,  1-C ) :   1.1223 B(  0-C ,  6-C ) :   1.1219 B(  0-C ,  8-N ) :   0.1144
B(  0-C , 13-H ) :   0.1230 B(  0-C , 14-H ) :   0.1624 B(  0-C , 17-H ) :   0.5782
B(  0-C , 18-H ) :   0.7835 B(  1-C ,  2-C ) :   1.2558 B(  1-C ,  3-H ) :   0.2173
B(  1-C ,  4-H ) :   0.1799 B(  1-C , 13-H ) :   0.8019 B(  1-C , 14-H ) :   0.9130
B(  1-C , 17-H ) :   0.1835 B(  1-C , 18-H ) :   0.1678 B(  2-C ,  3-H ) :   0.7610
B(  2-C ,  4-H ) :   0.8211 B(  2-C ,  5-C ) :   1.0564 B(  2-C , 13-H ) :   0.1371
B(  3-H ,  5-C ) :   0.1116 B(  5-C , 15-F ) :   0.7305 B(  5-C , 16-O ) :   1.5957
B(  6-C ,  7-C ) :   1.4981 B(  6-C ,  8-N ) :   1.1746 B(  6-C ,  9-H ) :  -0.1026
B(  6-C , 12-H ) :   0.1833 B(  6-C , 17-H ) :   0.2296 B(  6-C , 18-H ) :   0.1753
B(  7-C ,  8-N ) :   0.2158 B(  7-C , 11-H ) :   0.9362 B(  7-C , 12-H ) :   0.5794
B(  8-N ,  9-H ) :   1.1964 B(  8-N , 10-H ) :   0.8757 B(  8-N , 16-O ) :  -0.1026
B(  9-H , 10-H ) :  -0.2179 B( 10-H , 16-O ) :   0.2066 B( 15-F , 16-O ) :   0.1158

Dispersion correction           -0.031301689
FINAL SINGLE POINT ENERGY      -463.885597145153

DIPOLE MOMENT
-------------
                                X             Y             Z
Electronic contribution:      5.53595      -5.94460      10.53477
Nuclear contribution   :     -5.86483       4.68058     -10.07545
                        -----------------------------------------
Total Dipole Moment    :     -0.32889      -1.26402       0.45932
                        -----------------------------------------
Magnitude (a.u.)       :      1.38452
Magnitude (Debye)      :      3.51916

Rotational constants in cm-1:     0.107256     0.035474     0.030113
Rotational constants in MHz :  3215.453922  1063.481574   902.777619

                             ****ORCA TERMINATED NORMALLY****
TOTAL RUN TIME: 0 days 0 hours 0 minutes 59 seconds 573 msec
