                         Program Version 5.0.0 -  RELEASE  -
|  1> !B3LYP D3BJ RIJCOSX def2-SVPD def2/J TightSCF xyzfile
|  2>
|  3> *xyzfile 0 1 D3.xyz
|  4>
|  5> %MaxCore 64000
|  6>
|  7> %pal nprocs 4
|  8> end
|  9>
| 10> %scf
| 11>   MaxIter 150
| 12> end
| 13>
| 14>
| 15>                          ****END OF INPUT****

CARTESIAN COORDINATES (ANGSTROEM)
---------------------------------
  C      3.343500    3.354571   -3.591998
  C      2.952633    1.863077   -3.574849
  C      4.129209    0.898394   -3.418950
  H      3.733687   -0.100605   -3.237633
  H      4.719095    0.862556   -4.339005
  C      5.017344    1.315212   -2.221305
  C      4.255868    3.703851   -4.726054
  C      3.734032    4.293783   -5.800770
  N      5.515039    3.407255   -4.637185
  H      6.149187    3.601203   -5.399053
  H      5.813584    2.899504   -3.808785
  H      2.741380    4.513109   -5.824701
  H      4.287548    4.521260   -6.614341
  H      2.278938    1.735250   -2.725496
  H      2.377466    1.625787   -4.475869
  O      4.737055    0.854112   -1.122825
  F      5.928146    2.168108   -2.491365
  H      3.861246    3.597252   -2.662979
  H      2.446493    3.973461   -3.656556

 Total Charge           Charge          ....    0
 Multiplicity           Mult            ....    1
 Number of Electrons    NEL             ....   70
 Basis Dimension        Dim             ....  266

ORBITAL ENERGIES
----------------

  NO   OCC          E(Eh)            E(eV)
   0   2.0000     -24.794087      -674.6814
   1   2.0000     -19.173134      -521.7275
   2   2.0000     -14.323912      -389.7735
   3   2.0000     -10.382736      -282.5286
   4   2.0000     -10.220513      -278.1143
   5   2.0000     -10.205892      -277.7165
   6   2.0000     -10.205392      -277.7028
   7   2.0000     -10.193787      -277.3870
   8   2.0000     -10.118853      -275.3480
   9   2.0000      -1.329741       -36.1841
  10   2.0000      -1.064437       -28.9648
  11   2.0000      -0.930574       -25.3222
  12   2.0000      -0.817637       -22.2490
  13   2.0000      -0.751764       -20.4565
  14   2.0000      -0.716106       -19.4862
  15   2.0000      -0.678239       -18.4558
  16   2.0000      -0.637978       -17.3603
  17   2.0000      -0.588148       -16.0043
  18   2.0000      -0.574639       -15.6367
  19   2.0000      -0.554206       -15.0807
  20   2.0000      -0.527664       -14.3585
  21   2.0000      -0.508380       -13.8337
  22   2.0000      -0.485994       -13.2246
  23   2.0000      -0.470775       -12.8104
  24   2.0000      -0.450476       -12.2581
  25   2.0000      -0.429682       -11.6922
  26   2.0000      -0.405186       -11.0257
  27   2.0000      -0.399073       -10.8593
  28   2.0000      -0.388109       -10.5610
  29   2.0000      -0.381695       -10.3865
  30   2.0000      -0.363858        -9.9011
  31   2.0000      -0.339413        -9.2359
  32   2.0000      -0.336714        -9.1624
  33   2.0000      -0.313836        -8.5399
  34   2.0000      -0.189933        -5.1683
  35   0.0000      -0.048713        -1.3256
  36   0.0000       0.010005         0.2722
  37   0.0000       0.029085         0.7914
  38   0.0000       0.038574         1.0496
  39   0.0000       0.040281         1.0961

MULLIKEN ATOMIC CHARGES
-----------------------
   0 C :    0.554640
   1 C :    0.168063
   2 C :    0.338513
   3 H :   -0.252330
   4 H :    0.086378
   5 C :    0.730587
   6 C :   -0.051831
   7 C :    0.482849
   8 N :    0.764230
   9 H :   -0.271034
  10 H :   -0.456045
  11 H :   -0.228297
  12 H :   -0.528994
  13 H :   -0.029664
  14 H :   -0.241936
  15 O :   -0.397100
  16 F :   -0.473981
  17 H :   -0.066142
  18 H :   -0.127906
Sum of atomic charges:    0.0000000

LOEWDIN ATOMIC CHARGES
----------------------
   0 C :    0.026555
   1 C :    0.008154
   2 C :    0.064657
   3 H :    0.029738
   4 H :    0.021314
   5 C :    0.009600
   6 C :   -0.248001
   7 C :    0.185676
   8 N :    0.205299
   9 H :    0.018309
  10 H :   -0.100118
  11 H :   -0.090099
  12 H :   -0.094101
  13 H :    0.026277
  14 H :    0.029750
  15 O :   -0.087829
  16 F :   -0.047965
  17 H :    0.017134
  18 H :    0.025652

  Mayer bond orders larger than 0.100000
B(  0-C ,  1-C ) :   1.1389 B(  0-C ,  6-C ) :   1.1268 B(  0-C ,  8-N ) :   0.1197
B(  0-C , 13-H ) :   0.1214 B(  0-C , 14-H ) :   0.1700 B(  0-C , 17-H ) :   0.5875
B(  0-C , 18-H ) :   0.7888 B(  1-C ,  2-C ) :   1.2600 B(  1-C ,  3-H ) :   0.2053
B(  1-C ,  4-H ) :   0.1756 B(  1-C , 13-H ) :   0.8111 B(  1-C , 14-H ) :   0.8986
B(  1-C , 17-H ) :   0.1849 B(  1-C , 18-H ) :   0.1626 B(  2-C ,  3-H ) :   0.7667
B(  2-C ,  4-H ) :   0.8101 B(  2-C ,  5-C ) :   1.0459 B(  2-C , 13-H ) :   0.1393
B(  2-C , 16-F ) :   0.1425 B(  3-H ,  5-C ) :   0.1539 B(  5-C , 15-O ) :   1.8538
B(  5-C , 16-F ) :   0.5679 B(  6-C ,  7-C ) :   1.4869 B(  6-C ,  8-N ) :   1.1561
B(  6-C ,  9-H ) :  -0.1161 B(  6-C , 12-H ) :   0.1781 B(  6-C , 17-H ) :   0.2064
B(  6-C , 18-H ) :   0.1850 B(  7-C ,  8-N ) :   0.2240 B(  7-C , 11-H ) :   0.9480
B(  7-C , 12-H ) :   0.5727 B(  8-N ,  9-H ) :   1.2169 B(  8-N , 10-H ) :   0.8953
B(  9-H , 10-H ) :  -0.2147 B( 10-H , 16-F ) :   0.1173 B( 15-O , 16-F ) :   0.1330

Dispersion correction           -0.030993779
FINAL SINGLE POINT ENERGY      -463.891354262317

DIPOLE MOMENT
-------------
                                X             Y             Z
Electronic contribution:      7.45110      -3.57700       8.02920
Nuclear contribution   :     -7.21688       3.18902      -8.52197
                        -----------------------------------------
Total Dipole Moment    :      0.23422      -0.38798      -0.49278
                        -----------------------------------------
Magnitude (a.u.)       :      0.66949
Magnitude (Debye)      :      1.70171

Rotational constants in cm-1:     0.103917     0.036987     0.030872
Rotational constants in MHz :  3115.342573  1108.839114   925.506342

                             ****ORCA TERMINATED NORMALLY****
TOTAL RUN TIME: 0 days 0 hours 0 minutes 50 seconds 242 msec
