                         Program Version 5.0.0 -  RELEASE  -
|  1> !B3LYP D3BJ RIJCOSX def2-SVPD def2/J TightSCF xyzfile
|  2>
|  3> *xyzfile 0 1 D4.xyz
|  4>
|  5> %MaxCore 64000
|  6>
|  7> %pal nprocs 4
|  8> end
|  9>
| 10> %scf
| 11>   MaxIter 150
| 12> end
| 13>
| 14>
| 15>                          ****END OF INPUT****

CARTESIAN COORDINATES (ANGSTROEM)
---------------------------------
  C      3.343500    3.354571   -3.591998
  C      2.952633    1.863077   -3.574849
  C      4.129209    0.898394   -3.418950
  H      3.733687   -0.100605   -3.237633
  H      4.719095    0.862556   -4.339005
  C      5.017344    1.315212   -2.221305
  C      4.255868    3.703851   -4.726054
  N      3.734032    4.293783   -5.800770
  C      5.515039    3.407255   -4.637185
  H      6.149187    3.601203   -5.399053
  H      5.813584    2.899504   -3.808785
  H      2.741380    4.513109   -5.824701
  H      4.287548    4.521260   -6.614341
  H      2.278938    1.735250   -2.725496
  H      2.377466    1.625787   -4.475869
  O      4.737055    0.854112   -1.122825
  F      5.928146    2.168108   -2.491365
  H      3.861246    3.597252   -2.662979
  H      2.446493    3.973461   -3.656556

 Total Charge           Charge          ....    0
 Multiplicity           Mult            ....    1
 Number of Electrons    NEL             ....   70
 Basis Dimension        Dim             ....  266

ORBITAL ENERGIES
----------------

  NO   OCC          E(Eh)            E(eV)
   0   2.0000     -24.765301      -673.8981
   1   2.0000     -19.157832      -521.3111
   2   2.0000     -14.334557      -390.0631
   3   2.0000     -10.366820      -282.0955
   4   2.0000     -10.208964      -277.8000
   5   2.0000     -10.203357      -277.6475
   6   2.0000     -10.202648      -277.6282
   7   2.0000     -10.193669      -277.3838
   8   2.0000     -10.106000      -274.9982
   9   2.0000      -1.303052       -35.4578
  10   2.0000      -1.049411       -28.5559
  11   2.0000      -0.919312       -25.0158
  12   2.0000      -0.814087       -22.1524
  13   2.0000      -0.749316       -20.3899
  14   2.0000      -0.705572       -19.1996
  15   2.0000      -0.674816       -18.3627
  16   2.0000      -0.618600       -16.8330
  17   2.0000      -0.584544       -15.9062
  18   2.0000      -0.548794       -14.9334
  19   2.0000      -0.537336       -14.6217
  20   2.0000      -0.526020       -14.3137
  21   2.0000      -0.506179       -13.7738
  22   2.0000      -0.482846       -13.1389
  23   2.0000      -0.464525       -12.6404
  24   2.0000      -0.448842       -12.2136
  25   2.0000      -0.423947       -11.5362
  26   2.0000      -0.400851       -10.9077
  27   2.0000      -0.387271       -10.5382
  28   2.0000      -0.378781       -10.3072
  29   2.0000      -0.369687       -10.0597
  30   2.0000      -0.355713        -9.6795
  31   2.0000      -0.335453        -9.1281
  32   2.0000      -0.331553        -9.0220
  33   2.0000      -0.300669        -8.1816
  34   2.0000      -0.195463        -5.3188
  35   0.0000      -0.034073        -0.9272
  36   0.0000       0.009441         0.2569
  37   0.0000       0.030384         0.8268
  38   0.0000       0.032950         0.8966
  39   0.0000       0.043730         1.1900

MULLIKEN ATOMIC CHARGES
-----------------------
   0 C :    0.450491
   1 C :    0.185519
   2 C :    0.294223
   3 H :   -0.303921
   4 H :    0.163672
   5 C :    0.742400
   6 C :    0.163739
   7 N :    0.164795
   8 C :    1.005524
   9 H :   -0.792515
  10 H :   -0.253069
  11 H :   -0.163490
  12 H :   -0.232944
  13 H :   -0.052480
  14 H :   -0.240406
  15 O :   -0.418340
  16 F :   -0.497826
  17 H :    0.116815
  18 H :   -0.332187
Sum of atomic charges:    0.0000000

LOEWDIN ATOMIC CHARGES
----------------------
   0 C :    0.026906
   1 C :    0.005408
   2 C :    0.065814
   3 H :    0.027917
   4 H :    0.020771
   5 C :    0.011045
   6 C :   -0.231433
   7 N :    0.175726
   8 C :    0.203577
   9 H :   -0.074318
  10 H :   -0.154531
  11 H :   -0.007059
  12 H :    0.000938
  13 H :    0.025710
  14 H :    0.025918
  15 O :   -0.098237
  16 F :   -0.062515
  17 H :    0.023226
  18 H :    0.015137

  Mayer bond orders larger than 0.100000
B(  0-C ,  1-C ) :   1.1502 B(  0-C ,  6-C ) :   1.0610 B(  0-C ,  7-N ) :   0.1347
B(  0-C ,  8-C ) :   0.2036 B(  0-C , 13-H ) :   0.1254 B(  0-C , 14-H ) :   0.1423
B(  0-C , 17-H ) :   0.7060 B(  0-C , 18-H ) :   0.8038 B(  1-C ,  2-C ) :   1.2537
B(  1-C ,  3-H ) :   0.2031 B(  1-C ,  4-H ) :   0.1606 B(  1-C , 13-H ) :   0.7788
B(  1-C , 14-H ) :   0.8776 B(  1-C , 17-H ) :   0.1704 B(  1-C , 18-H ) :   0.1876
B(  2-C ,  3-H ) :   0.8021 B(  2-C ,  4-H ) :   0.7872 B(  2-C ,  5-C ) :   1.0300
B(  2-C , 10-H ) :   0.1055 B(  2-C , 13-H ) :   0.1527 B(  2-C , 16-F ) :   0.1706
B(  3-H ,  5-C ) :   0.1579 B(  3-H , 10-H ) :  -0.1126 B(  5-C , 15-O ) :   1.8463
B(  5-C , 16-F ) :   0.5940 B(  6-C ,  7-N ) :   1.0351 B(  6-C ,  8-C ) :   1.8124
B(  6-C ,  9-H ) :   0.3005 B(  6-C , 10-H ) :   0.3257 B(  6-C , 12-H ) :  -0.1312
B(  6-C , 17-H ) :   0.1314 B(  6-C , 18-H ) :   0.1387 B(  7-N ,  8-C ) :   0.3063
B(  7-N , 11-H ) :   1.1659 B(  7-N , 12-H ) :   1.3276 B(  8-C ,  9-H ) :   0.5961
B(  8-C , 10-H ) :   0.4007 B(  9-H , 10-H ) :  -0.3109 B( 11-H , 12-H ) :  -0.1642
B( 15-O , 16-F ) :   0.1497

Dispersion correction           -0.031207379
FINAL SINGLE POINT ENERGY      -463.878018754478

DIPOLE MOMENT
-------------
                                X             Y             Z
Electronic contribution:      6.18753      -2.81275       7.08406
Nuclear contribution   :     -6.99695       3.07955      -8.37829
                        -----------------------------------------
Total Dipole Moment    :     -0.80943       0.26680      -1.29423
                        -----------------------------------------
Magnitude (a.u.)       :      1.54964
Magnitude (Debye)      :      3.93888

Rotational constants in cm-1:     0.106302     0.035771     0.030198
Rotational constants in MHz :  3186.860872  1072.397550   905.318354

                             ****ORCA TERMINATED NORMALLY****
TOTAL RUN TIME: 0 days 0 hours 0 minutes 50 seconds 263 msec
