                         Program Version 5.0.0 -  RELEASE  -
|  1> !BLYP D3BJ RIJCOSX def2-TZVPD def2/J TightSCF
|  2> *xyz -1 1
|  3> C          0.13297        2.38587       -4.02462
|  4> C         -1.36646        2.47911       -4.31393
|  5> C         -2.35773        2.30686       -3.13675
|  6> H         -1.63680        1.72709       -5.06399
|  7> H         -1.58235        3.44561       -4.76869
|  8> O         -3.44376        2.84652       -3.25274
|  9> O         -1.97092        1.58304       -2.15123
| 10> H          0.68084        2.52514       -4.93310
| 11> H          0.35823        1.42282       -3.61633
| 12> H          0.40851        3.14443       -3.32208
| 13> *
| 14> %MaxCore 64000
| 15>
| 16> %pal nprocs 4
| 17> end
| 18>
| 19> %scf
| 20>   MaxIter 150
| 21> end
| 22>
| 23>
| 24>                          ****END OF INPUT****

CARTESIAN COORDINATES (ANGSTROEM)
---------------------------------
  C      0.132970    2.385870   -4.024620
  C     -1.366460    2.479110   -4.313930
  C     -2.357730    2.306860   -3.136750
  H     -1.636800    1.727090   -5.063990
  H     -1.582350    3.445610   -4.768690
  O     -3.443760    2.846520   -3.252740
  O     -1.970920    1.583040   -2.151230
  H      0.680840    2.525140   -4.933100
  H      0.358230    1.422820   -3.616330
  H      0.408510    3.144430   -3.322080

 Total Charge           Charge          ....   -1
 Multiplicity           Mult            ....    1
 Number of Electrons    NEL             ....   40
 Basis Dimension        Dim             ....  236

ORBITAL ENERGIES
----------------

  NO   OCC          E(Eh)            E(eV)
   0   2.0000     -18.517188      -503.8783
   1   2.0000     -18.508823      -503.6507
   2   2.0000      -9.783293      -266.2169
   3   2.0000      -9.737080      -264.9594
   4   2.0000      -9.729393      -264.7503
   5   2.0000      -0.733925       -19.9711
   6   2.0000      -0.640141       -17.4191
   7   2.0000      -0.523688       -14.2503
   8   2.0000      -0.403249       -10.9730
   9   2.0000      -0.257345        -7.0027
  10   2.0000      -0.240705        -6.5499
  11   2.0000      -0.206327        -5.6144
  12   2.0000      -0.176680        -4.8077
  13   2.0000      -0.166302        -4.5253
  14   2.0000      -0.156699        -4.2640
  15   2.0000      -0.130192        -3.5427
  16   2.0000      -0.116021        -3.1571
  17   2.0000      -0.010231        -0.2784
  18   2.0000       0.002660         0.0724
  19   2.0000       0.018275         0.4973
  20   0.0000       0.119621         3.2551
  21   0.0000       0.145971         3.9721
  22   0.0000       0.162505         4.4220
  23   0.0000       0.169559         4.6139
  24   0.0000       0.191838         5.2202

MULLIKEN ATOMIC CHARGES
-----------------------
   0 C :   -1.058515
   1 C :   -0.139949
   2 C :    0.357918
   3 H :    0.168871
   4 H :    0.217767
   5 O :   -0.665161
   6 O :   -0.736781
   7 H :    0.336845
   8 H :    0.250854
   9 H :    0.268150
Sum of atomic charges:   -1.0000000

LOEWDIN ATOMIC CHARGES
----------------------
   0 C :   -0.137100
   1 C :   -0.207204
   2 C :   -0.788468
   3 H :    0.088675
   4 H :    0.077898
   5 O :   -0.056544
   6 O :   -0.112342
   7 H :    0.035339
   8 H :    0.047414
   9 H :    0.052331

  Mayer bond orders larger than 0.100000
B(  0-C ,  1-C ) :   0.5272 B(  0-C ,  7-H ) :   0.9308 B(  0-C ,  8-H ) :   1.0220
B(  0-C ,  9-H ) :   0.9829 B(  1-C ,  2-C ) :   0.9415 B(  1-C ,  3-H ) :   0.9623
B(  1-C ,  4-H ) :   1.0048 B(  2-C ,  5-O ) :   1.4537 B(  2-C ,  6-O ) :   1.3931

Dispersion correction           -0.013388866
FINAL SINGLE POINT ENERGY      -267.884224549282

DIPOLE MOMENT
-------------
                                X             Y             Z
Electronic contribution:     -5.33782      -0.38532       3.27687
Nuclear contribution   :      6.75610       0.63068      -4.53972
                        -----------------------------------------
Total Dipole Moment    :      1.41827       0.24536      -1.26285
                        -----------------------------------------
Magnitude (a.u.)       :      1.91481
Magnitude (Debye)      :      4.86705

Rotational constants in cm-1:     0.335096     0.130241     0.099025
Rotational constants in MHz : 10045.924902  3904.536250  2968.708333

                             ****ORCA TERMINATED NORMALLY****
TOTAL RUN TIME: 0 days 0 hours 0 minutes 12 seconds 262 msec
