                         Program Version 5.0.0 -  RELEASE  -
|  1> !BLYP D3BJ RIJCOSX def2-TZVPD def2/J TightSCF
|  2> *xyz 1 1
|  3> C          0.64866        1.00359       -3.64560
|  4> N          0.28128        0.67645       -2.24018
|  5> C          0.13297        2.38587       -4.02462
|  6> H          0.39079       -0.31925       -2.02649
|  7> H         -0.69269        0.99010       -2.13812
|  8> H          0.85421        1.21221       -1.57528
|  9> H          0.19099        0.23965       -4.27575
| 10> H          1.73157        0.93173       -3.75075
| 11> H          0.40589        2.60338       -5.03610
| 12> H          0.56342        3.11797       -3.37374
| 13> H         -0.93265        2.40724       -3.93025
| 14> *
| 15> %MaxCore 64000
| 16>
| 17> %pal nprocs 4
| 18> end
| 19>
| 20> %scf
| 21>   MaxIter 150
| 22> end
| 23>
| 24>
| 25>                          ****END OF INPUT****

CARTESIAN COORDINATES (ANGSTROEM)
---------------------------------
  C      0.648660    1.003590   -3.645600
  N      0.281280    0.676450   -2.240180
  C      0.132970    2.385870   -4.024620
  H      0.390790   -0.319250   -2.026490
  H     -0.692690    0.990100   -2.138120
  H      0.854210    1.212210   -1.575280
  H      0.190990    0.239650   -4.275750
  H      1.731570    0.931730   -3.750750
  H      0.405890    2.603380   -5.036100
  H      0.563420    3.117970   -3.373740
  H     -0.932650    2.407240   -3.930250

 Total Charge           Charge          ....    1
 Multiplicity           Mult            ....    1
 Number of Electrons    NEL             ....   26
 Basis Dimension        Dim             ....  183

ORBITAL ENERGIES
----------------

  NO   OCC          E(Eh)            E(eV)
   0   2.0000     -14.338308      -390.1652
   1   2.0000     -10.157859      -276.4094
   2   2.0000     -10.082256      -274.3521
   3   2.0000      -1.130160       -30.7532
   4   2.0000      -0.890601       -24.2345
   5   2.0000      -0.780181       -21.2298
   6   2.0000      -0.744588       -20.2613
   7   2.0000      -0.737371       -20.0649
   8   2.0000      -0.643705       -17.5161
   9   2.0000      -0.592534       -16.1237
  10   2.0000      -0.538846       -14.6627
  11   2.0000      -0.526272       -14.3206
  12   2.0000      -0.509551       -13.8656
  13   0.0000      -0.225116        -6.1257
  14   0.0000      -0.166564        -4.5324
  15   0.0000      -0.163666        -4.4536
  16   0.0000      -0.154435        -4.2024
  17   0.0000      -0.122067        -3.3216

MULLIKEN ATOMIC CHARGES
-----------------------
   0 C :   -0.274258
   1 N :   -0.210984
   2 C :   -1.168203
   3 H :    0.316639
   4 H :    0.296655
   5 H :    0.313581
   6 H :    0.301882
   7 H :    0.318317
   8 H :    0.329172
   9 H :    0.372948
  10 H :    0.404252
Sum of atomic charges:    1.0000000

LOEWDIN ATOMIC CHARGES
----------------------
   0 C :   -0.196626
   1 N :    0.191076
   2 C :   -0.044691
   3 H :    0.177400
   4 H :    0.171948
   5 H :    0.178955
   6 H :    0.133497
   7 H :    0.134009
   8 H :    0.091986
   9 H :    0.081675
  10 H :    0.080771

  Mayer bond orders larger than 0.100000
B(  0-C ,  1-N ) :   0.9224 B(  0-C ,  2-C ) :   0.5757 B(  0-C ,  6-H ) :   0.9246
B(  0-C ,  7-H ) :   0.9203 B(  1-N ,  3-H ) :   0.8820 B(  1-N ,  4-H ) :   0.8869
B(  1-N ,  5-H ) :   0.8862 B(  2-C ,  8-H ) :   0.9726 B(  2-C ,  9-H ) :   0.9231
B(  2-C , 10-H ) :   0.8762

Dispersion correction           -0.012521348
FINAL SINGLE POINT ENERGY      -135.519456772657

DIPOLE MOMENT
-------------
                                X             Y             Z
Electronic contribution:      0.17226      -1.28428       1.29308
Nuclear contribution   :     -0.22655       0.48066      -0.09136
                        -----------------------------------------
Total Dipole Moment    :     -0.05429      -0.80362       1.20173
                        -----------------------------------------
Magnitude (a.u.)       :      1.44669
Magnitude (Debye)      :      3.67719

Rotational constants in cm-1:     0.998155     0.284845     0.251232
Rotational constants in MHz : 29923.943568  8539.431565  7531.732866

                             ****ORCA TERMINATED NORMALLY****
TOTAL RUN TIME: 0 days 0 hours 0 minutes 9 seconds 730 msec
