                         Program Version 5.0.0 -  RELEASE  -
|  1> !BLYP D3BJ RIJCOSX def2-TZVPD def2/J TightSCF xyzfile
|  2>
|  3> *xyzfile 0 1 B.xyz
|  4>
|  5> %MaxCore 64000
|  6>
|  7> %pal nprocs 4
|  8> end
|  9>
| 10> %scf
| 11>   MaxIter 150
| 12> end
| 13>
| 14>
| 15>                          ****END OF INPUT****

CARTESIAN COORDINATES (ANGSTROEM)
---------------------------------
  C      0.648656    1.003595   -3.645601
  N      0.281280    0.676454   -2.240179
  C      0.132968    2.385869   -4.024618
  C     -1.366462    2.479106   -4.313932
  C     -2.357732    2.306858   -3.136753
  H     -1.636802    1.727095   -5.063993
  H     -1.582347    3.445605   -4.768687
  H      0.390790   -0.319253   -2.026495
  H     -0.692686    0.990104   -2.138123
  H      0.854206    1.212214   -1.575279
  O     -3.443763    2.846518   -3.252744
  O     -1.970922    1.583042   -2.151229
  H      0.190993    0.239655   -4.275752
  H      1.731572    0.931729   -3.750751
  H      0.414839    3.102847   -3.245165
  H      0.683167    2.687560   -4.919721

 Total Charge           Charge          ....    0
 Multiplicity           Mult            ....    1
 Number of Electrons    NEL             ....   56
 Basis Dimension        Dim             ....  346

ORBITAL ENERGIES
----------------

  NO   OCC          E(Eh)            E(eV)
   0   2.0000     -18.702905      -508.9319
   1   2.0000     -18.681315      -508.3444
   2   2.0000     -14.113682      -384.0528
   3   2.0000      -9.991041      -271.8700
   4   2.0000      -9.960297      -271.0335
   5   2.0000      -9.932125      -270.2669
   6   2.0000      -9.894704      -269.2486
   7   2.0000      -0.932172       -25.3657
   8   2.0000      -0.907568       -24.6962
   9   2.0000      -0.830096       -22.5881
  10   2.0000      -0.733208       -19.9516
  11   2.0000      -0.644565       -17.5395
  12   2.0000      -0.572852       -15.5881
  13   2.0000      -0.545023       -14.8308
  14   2.0000      -0.537383       -14.6229
  15   2.0000      -0.470468       -12.8021
  16   2.0000      -0.427121       -11.6226
  17   2.0000      -0.425307       -11.5732
  18   2.0000      -0.387834       -10.5535
  19   2.0000      -0.371031       -10.0963
  20   2.0000      -0.340593        -9.2680
  21   2.0000      -0.336471        -9.1558
  22   2.0000      -0.328160        -8.9297
  23   2.0000      -0.308246        -8.3878
  24   2.0000      -0.289703        -7.8832
  25   2.0000      -0.193102        -5.2546
  26   2.0000      -0.187159        -5.0928
  27   2.0000      -0.155531        -4.2322
  28   0.0000      -0.061810        -1.6819
  29   0.0000      -0.021875        -0.5952
  30   0.0000      -0.018523        -0.5040
  31   0.0000       0.005832         0.1587
  32   0.0000       0.018232         0.4961

MULLIKEN ATOMIC CHARGES
-----------------------
   0 C :   -0.526577
   1 N :   -0.166873
   2 C :   -0.266336
   3 C :   -0.480964
   4 C :    0.478376
   5 H :    0.216355
   6 H :    0.202370
   7 H :    0.276315
   8 H :    0.331374
   9 H :    0.290353
  10 O :   -0.608409
  11 O :   -0.773015
  12 H :    0.295290
  13 H :    0.278681
  14 H :    0.222279
  15 H :    0.230781
Sum of atomic charges:   -0.0000000

LOEWDIN ATOMIC CHARGES
----------------------
   0 C :   -0.166317
   1 N :    0.149810
   2 C :   -0.186088
   3 C :   -0.115561
   4 C :   -0.680498
   5 H :    0.113894
   6 H :    0.107156
   7 H :    0.156097
   8 H :   -0.009738
   9 H :    0.160489
  10 O :    0.039200
  11 O :   -0.039607
  12 H :    0.127543
  13 H :    0.115038
  14 H :    0.118990
  15 H :    0.109594

  Mayer bond orders larger than 0.100000
B(  0-C ,  1-N ) :   0.9531 B(  0-C ,  2-C ) :   0.7622 B(  0-C , 12-H ) :   0.9156
B(  0-C , 13-H ) :   0.9503 B(  1-N ,  7-H ) :   0.9033 B(  1-N ,  8-H ) :   0.7665
B(  1-N ,  9-H ) :   0.8884 B(  2-C ,  3-C ) :   0.7557 B(  2-C , 14-H ) :   0.9736
B(  2-C , 15-H ) :   1.0054 B(  3-C ,  4-C ) :   0.9784 B(  3-C ,  5-H ) :   0.9491
B(  3-C ,  6-H ) :   1.0216 B(  4-C , 10-O ) :   1.5153 B(  4-C , 11-O ) :   1.2287
B(  8-H , 11-O ) :   0.1498

Dispersion correction           -0.027863059
FINAL SINGLE POINT ENERGY      -363.087251049608

DIPOLE MOMENT
-------------
                                X             Y             Z
Electronic contribution:     -5.94244       0.98070       2.55589
Nuclear contribution   :      9.92875      -2.62114      -2.63866
                        -----------------------------------------
Total Dipole Moment    :      3.98632      -1.64044      -0.08277
                        -----------------------------------------
Magnitude (a.u.)       :      4.31145
Magnitude (Debye)      :     10.95884

Rotational constants in cm-1:     0.159108     0.062474     0.047603
Rotational constants in MHz :  4769.938632  1872.932224  1427.103830

                             ****ORCA TERMINATED NORMALLY****
TOTAL RUN TIME: 0 days 0 hours 0 minutes 22 seconds 639 msec
