                         Program Version 5.0.0 -  RELEASE  -
|  1> !BLYP D3BJ RIJCOSX def2-TZVPD def2/J TightSCF
|  2> *xyz 0 1
|  3> C          0.13297        2.38587       -4.02462
|  4> C         -1.36646        2.47911       -4.31393
|  5> C         -2.35773        2.30686       -3.13675
|  6> H         -1.63680        1.72709       -5.06399
|  7> H         -1.58235        3.44561       -4.76869
|  8> F         -3.44376        2.84652       -3.25274
|  9> O         -1.97092        1.58304       -2.15123
| 10> H          0.68084        2.52514       -4.93310
| 11> H          0.35823        1.42282       -3.61633
| 12> H          0.40851        3.14443       -3.32208
| 13> *
| 14> %MaxCore 64000
| 15>
| 16> %pal nprocs 4
| 17> end
| 18>
| 19> %scf
| 20>   MaxIter 150
| 21> end
| 22>
| 23>
| 24>                          ****END OF INPUT****

CARTESIAN COORDINATES (ANGSTROEM)
---------------------------------
  C      0.132970    2.385870   -4.024620
  C     -1.366460    2.479110   -4.313930
  C     -2.357730    2.306860   -3.136750
  H     -1.636800    1.727090   -5.063990
  H     -1.582350    3.445610   -4.768690
  F     -3.443760    2.846520   -3.252740
  O     -1.970920    1.583040   -2.151230
  H      0.680840    2.525140   -4.933100
  H      0.358230    1.422820   -3.616330
  H      0.408510    3.144430   -3.322080

 Total Charge           Charge          ....    0
 Multiplicity           Mult            ....    1
 Number of Electrons    NEL             ....   40
 Basis Dimension        Dim             ....  236

ORBITAL ENERGIES
----------------

  NO   OCC          E(Eh)            E(eV)
   0   2.0000     -24.367575      -663.0754
   1   2.0000     -18.773729      -510.8591
   2   2.0000     -10.078832      -274.2590
   3   2.0000      -9.936434      -270.3841
   4   2.0000      -9.904272      -269.5089
   5   2.0000      -1.237119       -33.6637
   6   2.0000      -0.922900       -25.1134
   7   2.0000      -0.717081       -19.5128
   8   2.0000      -0.626791       -17.0559
   9   2.0000      -0.578021       -15.7288
  10   2.0000      -0.500424       -13.6172
  11   2.0000      -0.481478       -13.1017
  12   2.0000      -0.446007       -12.1365
  13   2.0000      -0.414515       -11.2795
  14   2.0000      -0.377779       -10.2799
  15   2.0000      -0.345002        -9.3880
  16   2.0000      -0.328082        -8.9276
  17   2.0000      -0.323260        -8.7964
  18   2.0000      -0.298998        -8.1361
  19   2.0000      -0.235453        -6.4070
  20   0.0000      -0.064216        -1.7474
  21   0.0000      -0.015728        -0.4280
  22   0.0000       0.010663         0.2902
  23   0.0000       0.024915         0.6780
  24   0.0000       0.032773         0.8918

MULLIKEN ATOMIC CHARGES
-----------------------
   0 C :   -1.077224
   1 C :   -0.196017
   2 C :    0.535376
   3 H :    0.244831
   4 H :    0.271947
   5 F :   -0.191060
   6 O :   -0.505848
   7 H :    0.331371
   8 H :    0.285718
   9 H :    0.300905
Sum of atomic charges:   -0.0000000

LOEWDIN ATOMIC CHARGES
----------------------
   0 C :   -0.085090
   1 C :   -0.155700
   2 C :   -0.515222
   3 H :    0.117391
   4 H :    0.102587
   5 F :    0.263442
   6 O :    0.071038
   7 H :    0.064780
   8 H :    0.066845
   9 H :    0.069929

  Mayer bond orders larger than 0.100000
B(  0-C ,  1-C ) :   0.6337 B(  0-C ,  7-H ) :   0.9330 B(  0-C ,  8-H ) :   0.9896
B(  0-C ,  9-H ) :   0.9555 B(  1-C ,  2-C ) :   0.9259 B(  1-C ,  3-H ) :   0.9249
B(  1-C ,  4-H ) :   0.9519 B(  2-C ,  5-F ) :   1.0344 B(  2-C ,  6-O ) :   1.7019

Dispersion correction           -0.012715676
FINAL SINGLE POINT ENERGY      -292.443306835518

DIPOLE MOMENT
-------------
                                X             Y             Z
Electronic contribution:     -8.38626       0.45806       3.61252
Nuclear contribution   :      8.54799       0.05434      -4.66633
                        -----------------------------------------
Total Dipole Moment    :      0.16173       0.51240      -1.05381
                        -----------------------------------------
Magnitude (a.u.)       :      1.18289
Magnitude (Debye)      :      3.00666

Rotational constants in cm-1:     0.325803     0.123345     0.094275
Rotational constants in MHz :  9767.324172  3697.779805  2826.305733

                             ****ORCA TERMINATED NORMALLY****
TOTAL RUN TIME: 0 days 0 hours 0 minutes 12 seconds 231 msec
