                         Program Version 5.0.0 -  RELEASE  -
|  1> !BLYP D3BJ RIJCOSX def2-TZVPD def2/J TightSCF
|  2> *xyz 0 1
|  3> C          0.64866        1.00359       -3.64560
|  4> C          0.28128        0.67645       -2.24018
|  5> C          0.13297        2.38587       -4.02462
|  6> H          0.39079       -0.31925       -2.02649
|  7> H         -0.69269        0.99010       -2.13812
|  8> H          0.85421        1.21221       -1.57528
|  9> H          0.19099        0.23965       -4.27575
| 10> H          1.73157        0.93173       -3.75075
| 11> H          0.40589        2.60338       -5.03610
| 12> H          0.56342        3.11797       -3.37374
| 13> H         -0.93265        2.40724       -3.93025
| 14> *
| 15> %MaxCore 64000
| 16>
| 17> %pal nprocs 4
| 18> end
| 19>
| 20> %scf
| 21>   MaxIter 150
| 22> end
| 23>
| 24>
| 25>                          ****END OF INPUT****

CARTESIAN COORDINATES (ANGSTROEM)
---------------------------------
  C      0.648660    1.003590   -3.645600
  C      0.281280    0.676450   -2.240180
  C      0.132970    2.385870   -4.024620
  H      0.390790   -0.319250   -2.026490
  H     -0.692690    0.990100   -2.138120
  H      0.854210    1.212210   -1.575280
  H      0.190990    0.239650   -4.275750
  H      1.731570    0.931730   -3.750750
  H      0.405890    2.603380   -5.036100
  H      0.563420    3.117970   -3.373740
  H     -0.932650    2.407240   -3.930250

 Total Charge           Charge          ....    0
 Multiplicity           Mult            ....    1
 Number of Electrons    NEL             ....   26
 Basis Dimension        Dim             ....  183

ORBITAL ENERGIES
----------------

  NO   OCC          E(Eh)            E(eV)
   0   2.0000      -9.889810      -269.1154
   1   2.0000      -9.882041      -268.9040
   2   2.0000      -9.863798      -268.4076
   3   2.0000      -0.712257       -19.3815
   4   2.0000      -0.615571       -16.7505
   5   2.0000      -0.520434       -14.1617
   6   2.0000      -0.414658       -11.2834
   7   2.0000      -0.397329       -10.8119
   8   2.0000      -0.353471        -9.6184
   9   2.0000      -0.338829        -9.2200
  10   2.0000      -0.293743        -7.9932
  11   2.0000      -0.290332        -7.9003
  12   2.0000      -0.283717        -7.7203
  13   0.0000      -0.002289        -0.0623
  14   0.0000       0.022743         0.6189
  15   0.0000       0.025838         0.7031
  16   0.0000       0.042470         1.1557
  17   0.0000       0.063833         1.7370

MULLIKEN ATOMIC CHARGES
-----------------------
   0 C :    0.048807
   1 C :   -1.334159
   2 C :   -1.154986
   3 H :    0.352164
   4 H :    0.337988
   5 H :    0.371342
   6 H :    0.221406
   7 H :    0.226666
   8 H :    0.302616
   9 H :    0.309326
  10 H :    0.318830
Sum of atomic charges:   -0.0000000

LOEWDIN ATOMIC CHARGES
----------------------
   0 C :   -0.311597
   1 C :   -0.117737
   2 C :   -0.108684
   3 H :    0.048897
   4 H :    0.050111
   5 H :    0.053603
   6 H :    0.100011
   7 H :    0.099852
   8 H :    0.058025
   9 H :    0.064733
  10 H :    0.062785

  Mayer bond orders larger than 0.100000
B(  0-C ,  1-C ) :   0.5257 B(  0-C ,  2-C ) :   0.5802 B(  0-C ,  6-H ) :   0.9843
B(  0-C ,  7-H ) :   0.9631 B(  1-C ,  2-C ) :   0.1136 B(  1-C ,  3-H ) :   0.9222
B(  1-C ,  4-H ) :   0.9533 B(  1-C ,  5-H ) :   0.9273 B(  2-C ,  8-H ) :   0.9697
B(  2-C ,  9-H ) :   0.9748 B(  2-C , 10-H ) :   0.9624

Dispersion correction           -0.012604265
FINAL SINGLE POINT ENERGY      -119.096878581755

DIPOLE MOMENT
-------------
                                X             Y             Z
Electronic contribution:      0.26116      -0.28334      -0.24518
Nuclear contribution   :     -0.24754       0.26111       0.24628
                        -----------------------------------------
Total Dipole Moment    :      0.01362      -0.02223       0.00110
                        -----------------------------------------
Magnitude (a.u.)       :      0.02609
Magnitude (Debye)      :      0.06633

Rotational constants in cm-1:     1.006509     0.299509     0.263145
Rotational constants in MHz : 30174.379724  8979.049324  7888.875355

                             ****ORCA TERMINATED NORMALLY****
TOTAL RUN TIME: 0 days 0 hours 0 minutes 9 seconds 519 msec
