                         Program Version 5.0.0 -  RELEASE  -
|  1> !BLYP D3BJ RIJCOSX def2-TZVPD def2/J TightSCF
|  2> *xyz 0 1
|  3> C          0.13297        2.38587       -4.02462
|  4> C         -1.36646        2.47911       -4.31393
|  5> C         -2.35773        2.30686       -3.13675
|  6> H         -1.63680        1.72709       -5.06399
|  7> H         -1.58235        3.44561       -4.76869
|  8> O         -3.44376        2.84652       -3.25274
|  9> F         -1.97092        1.58304       -2.15123
| 10> H          0.68084        2.52514       -4.93310
| 11> H          0.35823        1.42282       -3.61633
| 12> H          0.40851        3.14443       -3.32208
| 13> *
| 14> %MaxCore 64000
| 15>
| 16> %pal nprocs 4
| 17> end
| 18>
| 19> %scf
| 20>   MaxIter 150
| 21> end
| 22>
| 23>
| 24>                          ****END OF INPUT****

CARTESIAN COORDINATES (ANGSTROEM)
---------------------------------
  C      0.132970    2.385870   -4.024620
  C     -1.366460    2.479110   -4.313930
  C     -2.357730    2.306860   -3.136750
  H     -1.636800    1.727090   -5.063990
  H     -1.582350    3.445610   -4.768690
  O     -3.443760    2.846520   -3.252740
  F     -1.970920    1.583040   -2.151230
  H      0.680840    2.525140   -4.933100
  H      0.358230    1.422820   -3.616330
  H      0.408510    3.144430   -3.322080

 Total Charge           Charge          ....    0
 Multiplicity           Mult            ....    1
 Number of Electrons    NEL             ....   40
 Basis Dimension        Dim             ....  236

ORBITAL ENERGIES
----------------

  NO   OCC          E(Eh)            E(eV)
   0   2.0000     -24.344822      -662.4563
   1   2.0000     -18.782096      -511.0868
   2   2.0000     -10.073352      -274.1098
   3   2.0000      -9.935028      -270.3459
   4   2.0000      -9.908844      -269.6334
   5   2.0000      -1.190528       -32.3959
   6   2.0000      -0.961236       -26.1566
   7   2.0000      -0.719304       -19.5732
   8   2.0000      -0.609994       -16.5988
   9   2.0000      -0.570239       -15.5170
  10   2.0000      -0.476908       -12.9773
  11   2.0000      -0.471241       -12.8231
  12   2.0000      -0.434947       -11.8355
  13   2.0000      -0.413519       -11.2524
  14   2.0000      -0.380529       -10.3547
  15   2.0000      -0.354332        -9.6419
  16   2.0000      -0.341707        -9.2983
  17   2.0000      -0.328360        -8.9351
  18   2.0000      -0.311147        -8.4667
  19   2.0000      -0.247354        -6.7308
  20   0.0000      -0.059494        -1.6189
  21   0.0000      -0.018273        -0.4972
  22   0.0000       0.013848         0.3768
  23   0.0000       0.022398         0.6095
  24   0.0000       0.033373         0.9081

MULLIKEN ATOMIC CHARGES
-----------------------
   0 C :   -1.119121
   1 C :   -0.122991
   2 C :    0.463617
   3 H :    0.248209
   4 H :    0.248171
   5 O :   -0.440746
   6 F :   -0.224463
   7 H :    0.319926
   8 H :    0.302973
   9 H :    0.324425
Sum of atomic charges:    0.0000000

LOEWDIN ATOMIC CHARGES
----------------------
   0 C :   -0.092355
   1 C :   -0.147784
   2 C :   -0.506066
   3 H :    0.118293
   4 H :    0.111100
   5 O :    0.126075
   6 F :    0.195127
   7 H :    0.064566
   8 H :    0.063210
   9 H :    0.067834

  Mayer bond orders larger than 0.100000
B(  0-C ,  1-C ) :   0.5668 B(  0-C ,  7-H ) :   0.9635 B(  0-C ,  8-H ) :   0.9721
B(  0-C ,  9-H ) :   0.9496 B(  1-C ,  2-C ) :   0.9169 B(  1-C ,  3-H ) :   0.9164
B(  1-C ,  4-H ) :   0.9696 B(  2-C ,  5-O ) :   1.7651 B(  2-C ,  6-F ) :   1.0082

Dispersion correction           -0.012608481
FINAL SINGLE POINT ENERGY      -292.459894422949

DIPOLE MOMENT
-------------
                                X             Y             Z
Electronic contribution:     -5.93071      -1.62491       5.41107
Nuclear contribution   :      6.94213       1.43193      -5.86732
                        -----------------------------------------
Total Dipole Moment    :      1.01142      -0.19299      -0.45625
                        -----------------------------------------
Magnitude (a.u.)       :      1.12622
Magnitude (Debye)      :      2.86263

Rotational constants in cm-1:     0.306336     0.129048     0.095707
Rotational constants in MHz :  9183.725605  3868.769583  2869.236577

                             ****ORCA TERMINATED NORMALLY****
TOTAL RUN TIME: 0 days 0 hours 0 minutes 13 seconds 395 msec
