                         Program Version 5.0.0 -  RELEASE  -
|  1> !BLYP D3BJ RIJCOSX def2-TZVPD def2/J TightSCF xyzfile
|  2>
|  3> *xyzfile 0 1 D1.xyz
|  4>
|  5> %MaxCore 64000
|  6>
|  7> %pal nprocs 4
|  8> end
|  9>
| 10> %scf
| 11>   MaxIter 150
| 12> end
| 13>
| 14>
| 15>                          ****END OF INPUT****

CARTESIAN COORDINATES (ANGSTROEM)
---------------------------------
  C      0.648656    1.003595   -3.645601
  C      0.281280    0.676454   -2.240179
  C      0.132968    2.385869   -4.024618
  C     -1.366462    2.479106   -4.313932
  C     -2.357732    2.306858   -3.136753
  H     -1.636802    1.727095   -5.063993
  H     -1.582347    3.445605   -4.768687
  H      0.390790   -0.319253   -2.026495
  H     -0.692686    0.990104   -2.138123
  H      0.854206    1.212214   -1.575279
  F     -3.443763    2.846518   -3.252744
  O     -1.970922    1.583042   -2.151229
  H      0.190993    0.239655   -4.275752
  H      1.731572    0.931729   -3.750751
  H      0.414839    3.102847   -3.245165
  H      0.683167    2.687560   -4.919721

 Total Charge           Charge          ....    0
 Multiplicity           Mult            ....    1
 Number of Electrons    NEL             ....   56
 Basis Dimension        Dim             ....  346

ORBITAL ENERGIES
----------------

  NO   OCC          E(Eh)            E(eV)
   0   2.0000     -24.377593      -663.3480
   1   2.0000     -18.782067      -511.0860
   2   2.0000     -10.092916      -274.6422
   3   2.0000      -9.941272      -270.5158
   4   2.0000      -9.911594      -269.7082
   5   2.0000      -9.884065      -268.9591
   6   2.0000      -9.815152      -267.0839
   7   2.0000      -1.247020       -33.9331
   8   2.0000      -0.945782       -25.7360
   9   2.0000      -0.734661       -19.9911
  10   2.0000      -0.679871       -18.5002
  11   2.0000      -0.618751       -16.8371
  12   2.0000      -0.588116       -16.0034
  13   2.0000      -0.518708       -14.1148
  14   2.0000      -0.507627       -13.8132
  15   2.0000      -0.491361       -13.3706
  16   2.0000      -0.465893       -12.6776
  17   2.0000      -0.425728       -11.5846
  18   2.0000      -0.397199       -10.8083
  19   2.0000      -0.384631       -10.4663
  20   2.0000      -0.357934        -9.7399
  21   2.0000      -0.335519        -9.1299
  22   2.0000      -0.330037        -8.9808
  23   2.0000      -0.311956        -8.4887
  24   2.0000      -0.294542        -8.0149
  25   2.0000      -0.277598        -7.5538
  26   2.0000      -0.267526        -7.2798
  27   2.0000      -0.201487        -5.4827
  28   0.0000      -0.077976        -2.1218
  29   0.0000      -0.016426        -0.4470
  30   0.0000       0.006678         0.1817
  31   0.0000       0.013994         0.3808
  32   0.0000       0.021306         0.5798

MULLIKEN ATOMIC CHARGES
-----------------------
   0 C :   -0.169381
   1 C :   -1.421975
   2 C :   -0.310050
   3 C :   -0.498526
   4 C :    0.583633
   5 H :    0.267624
   6 H :    0.255247
   7 H :    0.370461
   8 H :    0.471625
   9 H :    0.388184
  10 F :   -0.233467
  11 O :   -0.528443
  12 H :    0.243144
  13 H :    0.178024
  14 H :    0.206980
  15 H :    0.196920
Sum of atomic charges:   -0.0000000

LOEWDIN ATOMIC CHARGES
----------------------
   0 C :   -0.245301
   1 C :   -0.114433
   2 C :   -0.195272
   3 C :   -0.085960
   4 C :   -0.448055
   5 H :    0.126704
   6 H :    0.108935
   7 H :    0.053787
   8 H :   -0.055677
   9 H :    0.059493
  10 F :    0.279004
  11 O :    0.081811
  12 H :    0.107553
  13 H :    0.101305
  14 H :    0.119990
  15 H :    0.106116

  Mayer bond orders larger than 0.100000
B(  0-C ,  1-C ) :   0.5546 B(  0-C ,  2-C ) :   0.8005 B(  0-C ,  8-H ) :  -0.1054
B(  0-C , 12-H ) :   0.9640 B(  0-C , 13-H ) :   1.0050 B(  1-C ,  7-H ) :   1.0055
B(  1-C ,  8-H ) :   0.9411 B(  1-C ,  9-H ) :   1.0245 B(  1-C , 11-O ) :   0.1117
B(  2-C ,  3-C ) :   0.8242 B(  2-C , 14-H ) :   0.9771 B(  2-C , 15-H ) :   1.0123
B(  3-C ,  4-C ) :   0.9136 B(  3-C ,  5-H ) :   0.9385 B(  3-C ,  6-H ) :   0.9740
B(  4-C , 10-F ) :   0.9977 B(  4-C , 11-O ) :   1.6998 B(  8-H , 11-O ) :  -0.3086

Dispersion correction           -0.027272721
FINAL SINGLE POINT ENERGY      -370.998208562357

DIPOLE MOMENT
-------------
                                X             Y             Z
Electronic contribution:    -13.00943       4.56325       1.46115
Nuclear contribution   :     12.79331      -3.91961      -2.45895
                        -----------------------------------------
Total Dipole Moment    :     -0.21612       0.64364      -0.99780
                        -----------------------------------------
Magnitude (a.u.)       :      1.20689
Magnitude (Debye)      :      3.06766

Rotational constants in cm-1:     0.162888     0.059977     0.046450
Rotational constants in MHz :  4883.250030  1798.063289  1392.548669

                             ****ORCA TERMINATED NORMALLY****
TOTAL RUN TIME: 0 days 0 hours 0 minutes 21 seconds 591 msec
