                         Program Version 5.0.0 -  RELEASE  -
|  1> !BLYP D3BJ RIJCOSX def2-TZVPD def2/J TightSCF xyzfile
|  2>
|  3> *xyzfile 0 1 D2.xyz
|  4>
|  5> %MaxCore 64000
|  6>
|  7> %pal nprocs 4
|  8> end
|  9>
| 10> %scf
| 11>   MaxIter 150
| 12> end
| 13>
| 14>
| 15>                          ****END OF INPUT****

CARTESIAN COORDINATES (ANGSTROEM)
---------------------------------
  C      0.648656    1.003595   -3.645601
  C      0.281280    0.676454   -2.240179
  C      0.132968    2.385869   -4.024618
  C     -1.366462    2.479106   -4.313932
  C     -2.357732    2.306858   -3.136753
  H     -1.636802    1.727095   -5.063993
  H     -1.582347    3.445605   -4.768687
  H      0.390790   -0.319253   -2.026495
  H     -0.692686    0.990104   -2.138123
  H      0.854206    1.212214   -1.575279
  O     -3.443763    2.846518   -3.252744
  F     -1.970922    1.583042   -2.151229
  H      0.190993    0.239655   -4.275752
  H      1.731572    0.931729   -3.750751
  H      0.414839    3.102847   -3.245165
  H      0.683167    2.687560   -4.919721

 Total Charge           Charge          ....    0
 Multiplicity           Mult            ....    1
 Number of Electrons    NEL             ....   56
 Basis Dimension        Dim             ....  346

ORBITAL ENERGIES
----------------

  NO   OCC          E(Eh)            E(eV)
   0   2.0000     -24.355376      -662.7435
   1   2.0000     -18.788914      -511.2723
   2   2.0000     -10.080660      -274.3087
   3   2.0000      -9.937571      -270.4151
   4   2.0000      -9.914899      -269.7981
   5   2.0000      -9.896969      -269.3102
   6   2.0000      -9.845514      -267.9100
   7   2.0000      -1.211732       -32.9729
   8   2.0000      -0.968597       -26.3569
   9   2.0000      -0.741988       -20.1905
  10   2.0000      -0.686625       -18.6840
  11   2.0000      -0.609565       -16.5871
  12   2.0000      -0.604899       -16.4602
  13   2.0000      -0.520770       -14.1709
  14   2.0000      -0.495893       -13.4939
  15   2.0000      -0.486656       -13.2426
  16   2.0000      -0.447461       -12.1760
  17   2.0000      -0.416145       -11.3239
  18   2.0000      -0.398860       -10.8535
  19   2.0000      -0.397085       -10.8052
  20   2.0000      -0.370453       -10.0805
  21   2.0000      -0.343626        -9.3505
  22   2.0000      -0.335526        -9.1301
  23   2.0000      -0.320675        -8.7260
  24   2.0000      -0.293445        -7.9851
  25   2.0000      -0.288413        -7.8481
  26   2.0000      -0.277579        -7.5533
  27   2.0000      -0.244537        -6.6542
  28   0.0000      -0.067089        -1.8256
  29   0.0000      -0.015349        -0.4177
  30   0.0000       0.008073         0.2197
  31   0.0000       0.010959         0.2982
  32   0.0000       0.014722         0.4006

MULLIKEN ATOMIC CHARGES
-----------------------
   0 C :   -0.143656
   1 C :   -1.517935
   2 C :   -0.333959
   3 C :   -0.413483
   4 C :    0.512422
   5 H :    0.261022
   6 H :    0.226721
   7 H :    0.385220
   8 H :    0.527144
   9 H :    0.405872
  10 O :   -0.474668
  11 F :   -0.303063
  12 H :    0.253150
  13 H :    0.192462
  14 H :    0.221097
  15 H :    0.201657
Sum of atomic charges:   -0.0000000

LOEWDIN ATOMIC CHARGES
----------------------
   0 C :   -0.245762
   1 C :   -0.097673
   2 C :   -0.202823
   3 C :   -0.084678
   4 C :   -0.468196
   5 H :    0.126734
   6 H :    0.116885
   7 H :    0.057205
   8 H :   -0.017457
   9 H :    0.062450
  10 O :    0.140625
  11 F :    0.175558
  12 H :    0.108689
  13 H :    0.103920
  14 H :    0.118121
  15 H :    0.106401

  Mayer bond orders larger than 0.100000
B(  0-C ,  1-C ) :   0.5305 B(  0-C ,  2-C ) :   0.7442 B(  0-C ,  8-H ) :  -0.1016
B(  0-C , 12-H ) :   0.9718 B(  0-C , 13-H ) :   1.0013 B(  1-C ,  2-C ) :   0.1261
B(  1-C ,  7-H ) :   0.9412 B(  1-C ,  8-H ) :   0.8542 B(  1-C ,  9-H ) :   0.9511
B(  1-C , 11-F ) :   0.1543 B(  2-C ,  3-C ) :   0.7653 B(  2-C , 14-H ) :   0.9900
B(  2-C , 15-H ) :   1.0217 B(  3-C ,  4-C ) :   0.8997 B(  3-C ,  5-H ) :   0.9267
B(  3-C ,  6-H ) :   1.0121 B(  4-C , 10-O ) :   1.7217 B(  4-C , 11-F ) :   0.9873
B(  8-H , 11-F ) :  -0.2417

Dispersion correction           -0.026856557
FINAL SINGLE POINT ENERGY      -371.015849208700

DIPOLE MOMENT
-------------
                                X             Y             Z
Electronic contribution:    -10.30906       2.33883       3.32119
Nuclear contribution   :     11.08738      -2.45618      -3.73478
                        -----------------------------------------
Total Dipole Moment    :      0.77833      -0.11735      -0.41359
                        -----------------------------------------
Magnitude (a.u.)       :      0.88917
Magnitude (Debye)      :      2.26009

Rotational constants in cm-1:     0.156244     0.063730     0.048063
Rotational constants in MHz :  4684.071402  1910.571278  1440.877811

                             ****ORCA TERMINATED NORMALLY****
TOTAL RUN TIME: 0 days 0 hours 0 minutes 22 seconds 492 msec
