                         Program Version 5.0.0 -  RELEASE  -
|  1> !TPSS D3BJ RIJCOSX def2-SVPD def2/J TightSCF
|  2> *xyz -1 1
|  3> C          1.44442        5.26658       -0.97546
|  4> O          1.56525        4.23349       -1.86489
|  5> C         -1.07389        4.84473       -0.97990
|  6> C          0.14812        5.21087       -0.13809
|  7> H          1.47425        6.26464       -1.47692
|  8> H          2.28962        5.30327       -0.26445
|  9> H          0.26183        4.45094        0.64071
| 10> H         -0.00252        6.17103        0.37148
| 11> H         -1.20745        5.57445       -1.75098
| 12> H         -1.94291        4.82190       -0.35605
| 13> H         -0.92683        3.88150       -1.42201
| 14> *
| 15> %MaxCore 64000
| 16>
| 17> %pal nprocs 4
| 18> end
| 19>
| 20> %scf
| 21>   MaxIter 150
| 22> end
| 23>
| 24>
| 25>                          ****END OF INPUT****

CARTESIAN COORDINATES (ANGSTROEM)
---------------------------------
  C      1.444420    5.266580   -0.975460
  O      1.565250    4.233490   -1.864890
  C     -1.073890    4.844730   -0.979900
  C      0.148120    5.210870   -0.138090
  H      1.474250    6.264640   -1.476920
  H      2.289620    5.303270   -0.264450
  H      0.261830    4.450940    0.640710
  H     -0.002520    6.171030    0.371480
  H     -1.207450    5.574450   -1.750980
  H     -1.942910    4.821900   -0.356050
  H     -0.926830    3.881500   -1.422010

 Total Charge           Charge          ....   -1
 Multiplicity           Mult            ....    1
 Number of Electrons    NEL             ....   34
 Basis Dimension        Dim             ....  139

ORBITAL ENERGIES
----------------

  NO   OCC          E(Eh)            E(eV)
   0   2.0000     -18.577340      -505.5151
   1   2.0000      -9.818064      -267.1631
   2   2.0000      -9.815847      -267.1028
   3   2.0000      -9.809404      -266.9275
   4   2.0000      -0.612620       -16.6702
   5   2.0000      -0.517430       -14.0800
   6   2.0000      -0.410349       -11.1662
   7   2.0000      -0.311796        -8.4844
   8   2.0000      -0.233667        -6.3584
   9   2.0000      -0.222376        -6.0512
  10   2.0000      -0.173988        -4.7345
  11   2.0000      -0.151253        -4.1158
  12   2.0000      -0.123208        -3.3526
  13   2.0000      -0.113897        -3.0993
  14   2.0000      -0.073495        -1.9999
  15   2.0000       0.062162         1.6915
  16   2.0000       0.066390         1.8066
  17   0.0000       0.157774         4.2932
  18   0.0000       0.182229         4.9587
  19   0.0000       0.198856         5.4111
  20   0.0000       0.219892         5.9836
  21   0.0000       0.240943         6.5564

MULLIKEN ATOMIC CHARGES
-----------------------
   0 C :    0.448946
   1 O :   -0.888874
   2 C :    0.543152
   3 C :   -0.587167
   4 H :   -0.114247
   5 H :   -0.181075
   6 H :   -0.026192
   7 H :   -0.050166
   8 H :   -0.055412
   9 H :   -0.092689
  10 H :    0.003724
Sum of atomic charges:   -1.0000000

LOEWDIN ATOMIC CHARGES
----------------------
   0 C :   -0.206387
   1 O :   -0.533452
   2 C :    0.088575
   3 C :   -0.105683
   4 H :   -0.037844
   5 H :   -0.044561
   6 H :   -0.009649
   7 H :   -0.020206
   8 H :   -0.035219
   9 H :   -0.055784
  10 H :   -0.039789

  Mayer bond orders larger than 0.100000
B(  0-C ,  1-O ) :   1.1144 B(  0-C ,  3-C ) :   1.0430 B(  0-C ,  4-H ) :   0.9516
B(  0-C ,  5-H ) :   0.9659 B(  0-C ,  6-H ) :   0.1012 B(  0-C ,  7-H ) :   0.1049
B(  1-O ,  3-C ) :   0.1751 B(  2-C ,  3-C ) :   1.2636 B(  2-C ,  8-H ) :   0.8476
B(  2-C ,  9-H ) :   0.8184 B(  2-C , 10-H ) :   0.8311 B(  3-C ,  4-H ) :   0.1580
B(  3-C ,  5-H ) :   0.1545 B(  3-C ,  6-H ) :   0.9764 B(  3-C ,  7-H ) :   1.0240
B(  3-C ,  8-H ) :   0.2034 B(  3-C ,  9-H ) :   0.1991 B(  3-C , 10-H ) :   0.2017
B(  4-H ,  5-H ) :   0.1026

Dispersion correction           -0.008109134
FINAL SINGLE POINT ENERGY      -193.647567536897

DIPOLE MOMENT
-------------
                                X             Y             Z
Electronic contribution:      2.11108      -1.41910      -1.55049
Nuclear contribution   :     -3.50495       2.13585       2.58010
                        -----------------------------------------
Total Dipole Moment    :     -1.39387       0.71676       1.02961
                        -----------------------------------------
Magnitude (a.u.)       :      1.87529
Magnitude (Debye)      :      4.76660

Rotational constants in cm-1:     0.478988     0.188199     0.150738
Rotational constants in MHz : 14359.706344  5642.078771  4519.011003

                             ****ORCA TERMINATED NORMALLY****
TOTAL RUN TIME: 0 days 0 hours 0 minutes 6 seconds 688 msec
