                         Program Version 5.0.0 -  RELEASE  -
|  1> !TPSS D3BJ RIJCOSX def2-SVPD def2/J TightSCF
|  2> *xyz 1 1
|  3> C         -0.70169        4.07250       -4.00392
|  4> N          0.68053        4.61482       -4.04800
|  5> H          0.69993        5.58489       -4.38827
|  6> H          1.27804        4.05598       -4.66824
|  7> H          1.08573        4.53358       -3.10652
|  8> C         -1.70347        5.09320       -3.47740
|  9> H         -0.99590        3.74039       -5.00065
| 10> H         -0.64358        3.20191       -3.35153
| 11> C         -1.31400        5.78600       -2.16927
| 12> H         -1.87706        5.85010       -4.25115
| 13> H         -2.65326        4.56448       -3.35480
| 14> H         -0.38448        6.29945       -2.30062
| 15> H         -1.21111        5.05451       -1.39516
| 16> H         -2.07413        6.48833       -1.89758
| 17> *
| 18> %MaxCore 64000
| 19>
| 20> %pal nprocs 4
| 21> end
| 22>
| 23> %scf
| 24>   MaxIter 150
| 25> end
| 26>
| 27>
| 28>                          ****END OF INPUT****

CARTESIAN COORDINATES (ANGSTROEM)
---------------------------------
  C     -0.701690    4.072500   -4.003920
  N      0.680530    4.614820   -4.048000
  H      0.699930    5.584890   -4.388270
  H      1.278040    4.055980   -4.668240
  H      1.085730    4.533580   -3.106520
  C     -1.703470    5.093200   -3.477400
  H     -0.995900    3.740390   -5.000650
  H     -0.643580    3.201910   -3.351530
  C     -1.314000    5.786000   -2.169270
  H     -1.877060    5.850100   -4.251150
  H     -2.653260    4.564480   -3.354800
  H     -0.384480    6.299450   -2.300620
  H     -1.211110    5.054510   -1.395160
  H     -2.074130    6.488330   -1.897580

 Total Charge           Charge          ....    1
 Multiplicity           Mult            ....    1
 Number of Electrons    NEL             ....   34
 Basis Dimension        Dim             ....  160

ORBITAL ENERGIES
----------------

  NO   OCC          E(Eh)            E(eV)
   0   2.0000     -14.447916      -393.1478
   1   2.0000     -10.248079      -278.8644
   2   2.0000     -10.180459      -277.0244
   3   2.0000     -10.152394      -276.2607
   4   2.0000      -1.143017       -31.1031
   5   2.0000      -0.911033       -24.7905
   6   2.0000      -0.828536       -22.5456
   7   2.0000      -0.761000       -20.7079
   8   2.0000      -0.744443       -20.2573
   9   2.0000      -0.724683       -19.7196
  10   2.0000      -0.645016       -17.5518
  11   2.0000      -0.596483       -16.2311
  12   2.0000      -0.569014       -15.4836
  13   2.0000      -0.548555       -14.9269
  14   2.0000      -0.492641       -13.4054
  15   2.0000      -0.489699       -13.3254
  16   2.0000      -0.477372       -12.9899
  17   0.0000      -0.203840        -5.5468
  18   0.0000      -0.149132        -4.0581
  19   0.0000      -0.146735        -3.9929
  20   0.0000      -0.130715        -3.5569
  21   0.0000      -0.103463        -2.8154

MULLIKEN ATOMIC CHARGES
-----------------------
   0 C :    0.539238
   1 N :   -0.722388
   2 H :    0.397410
   3 H :    0.296933
   4 H :    0.423344
   5 C :   -0.402331
   6 H :   -0.051519
   7 H :   -0.019235
   8 C :    0.679815
   9 H :   -0.011703
  10 H :   -0.016553
  11 H :   -0.062241
  12 H :    0.007882
  13 H :   -0.058652
Sum of atomic charges:    1.0000000

LOEWDIN ATOMIC CHARGES
----------------------
   0 C :    0.093444
   1 N :    0.334829
   2 H :    0.104371
   3 H :    0.103251
   4 H :    0.100557
   5 C :   -0.036597
   6 H :    0.050065
   7 H :    0.050179
   8 C :    0.157175
   9 H :    0.032939
  10 H :    0.043187
  11 H :   -0.031136
  12 H :   -0.005472
  13 H :    0.003209

  Mayer bond orders larger than 0.100000
B(  0-C ,  1-N ) :   0.8024 B(  0-C ,  5-C ) :   1.1964 B(  0-C ,  6-H ) :   0.9229
B(  0-C ,  7-H ) :   0.8488 B(  0-C ,  9-H ) :   0.1028 B(  0-C , 10-H ) :   0.1330
B(  1-N ,  2-H ) :   0.7022 B(  1-N ,  3-H ) :   0.8352 B(  1-N ,  4-H ) :   0.7187
B(  1-N ,  7-H ) :   0.1163 B(  5-C ,  7-H ) :   0.1127 B(  5-C ,  8-C ) :   1.3150
B(  5-C ,  9-H ) :   0.9388 B(  5-C , 10-H ) :   0.9335 B(  5-C , 11-H ) :   0.1742
B(  5-C , 12-H ) :   0.1802 B(  5-C , 13-H ) :   0.2032 B(  8-C , 11-H ) :   0.8409
B(  8-C , 12-H ) :   0.8136 B(  8-C , 13-H ) :   0.8096

Dispersion correction           -0.011509511
FINAL SINGLE POINT ENERGY      -174.771849312434

DIPOLE MOMENT
-------------
                                X             Y             Z
Electronic contribution:      1.52273      -0.90460      -1.45059
Nuclear contribution   :      0.19992       0.44181       0.60618
                        -----------------------------------------
Total Dipole Moment    :      1.72265      -0.46278      -0.84441
                        -----------------------------------------
Magnitude (a.u.)       :      1.97350
Magnitude (Debye)      :      5.01624

Rotational constants in cm-1:     0.427003     0.166237     0.135950
Rotational constants in MHz : 12801.234133  4983.663157  4075.681698

                             ****ORCA TERMINATED NORMALLY****
TOTAL RUN TIME: 0 days 0 hours 0 minutes 7 seconds 221 msec
