                         Program Version 5.0.0 -  RELEASE  -
|  1> !TPSS D3BJ RIJCOSX def2-SVPD def2/J TightSCF
|  2> *xyz 0 1
|  3> C          1.44442        5.26658       -0.97546
|  4> F          1.56525        4.23349       -1.86489
|  5> C         -1.07389        4.84473       -0.97990
|  6> C          0.14812        5.21087       -0.13809
|  7> H          1.47425        6.26464       -1.47692
|  8> H          2.28962        5.30327       -0.26445
|  9> H          0.26183        4.45094        0.64071
| 10> H         -0.00252        6.17103        0.37148
| 11> H         -1.20745        5.57445       -1.75098
| 12> H         -1.94291        4.82190       -0.35605
| 13> H         -0.92683        3.88150       -1.42201
| 14> *
| 15> %MaxCore 64000
| 16>
| 17> %pal nprocs 4
| 18> end
| 19>
| 20> %scf
| 21>   MaxIter 150
| 22> end
| 23>
| 24>
| 25>                          ****END OF INPUT****

CARTESIAN COORDINATES (ANGSTROEM)
---------------------------------
  C      1.444420    5.266580   -0.975460
  F      1.565250    4.233490   -1.864890
  C     -1.073890    4.844730   -0.979900
  C      0.148120    5.210870   -0.138090
  H      1.474250    6.264640   -1.476920
  H      2.289620    5.303270   -0.264450
  H      0.261830    4.450940    0.640710
  H     -0.002520    6.171030    0.371480
  H     -1.207450    5.574450   -1.750980
  H     -1.942910    4.821900   -0.356050
  H     -0.926830    3.881500   -1.422010

 Total Charge           Charge          ....    0
 Multiplicity           Mult            ....    1
 Number of Electrons    NEL             ....   34
 Basis Dimension        Dim             ....  139

ORBITAL ENERGIES
----------------

  NO   OCC          E(Eh)            E(eV)
   0   2.0000     -24.417645      -664.4379
   1   2.0000     -10.078130      -274.2399
   2   2.0000     -10.007546      -272.3192
   3   2.0000      -9.988862      -271.8107
   4   2.0000      -1.108506       -30.1640
   5   2.0000      -0.724309       -19.7095
   6   2.0000      -0.631881       -17.1943
   7   2.0000      -0.542871       -14.7723
   8   2.0000      -0.461499       -12.5580
   9   2.0000      -0.446020       -12.1368
  10   2.0000      -0.426251       -11.5989
  11   2.0000      -0.393243       -10.7007
  12   2.0000      -0.353427        -9.6172
  13   2.0000      -0.332368        -9.0442
  14   2.0000      -0.320946        -8.7334
  15   2.0000      -0.286525        -7.7967
  16   2.0000      -0.284221        -7.7340
  17   0.0000       0.010017         0.2726
  18   0.0000       0.035510         0.9663
  19   0.0000       0.046643         1.2692
  20   0.0000       0.057063         1.5528
  21   0.0000       0.076102         2.0708

MULLIKEN ATOMIC CHARGES
-----------------------
   0 C :    0.712438
   1 F :   -0.453842
   2 C :    0.557565
   3 C :   -0.536862
   4 H :   -0.013648
   5 H :   -0.078011
   6 H :   -0.032611
   7 H :   -0.044469
   8 H :   -0.045284
   9 H :   -0.068699
  10 H :    0.003423
Sum of atomic charges:   -0.0000000

LOEWDIN ATOMIC CHARGES
----------------------
   0 C :    0.104021
   1 F :   -0.202102
   2 C :    0.128697
   3 C :   -0.055998
   4 H :    0.030542
   5 H :    0.021691
   6 H :    0.014716
   7 H :    0.022035
   8 H :   -0.018833
   9 H :   -0.023178
  10 H :   -0.021592

  Mayer bond orders larger than 0.100000
B(  0-C ,  1-F ) :   0.7099 B(  0-C ,  3-C ) :   1.1853 B(  0-C ,  4-H ) :   0.8975
B(  0-C ,  5-H ) :   0.9222 B(  2-C ,  3-C ) :   1.3136 B(  2-C ,  8-H ) :   0.8388
B(  2-C ,  9-H ) :   0.8344 B(  2-C , 10-H ) :   0.8343 B(  3-C ,  4-H ) :   0.1206
B(  3-C ,  5-H ) :   0.1148 B(  3-C ,  6-H ) :   0.9523 B(  3-C ,  7-H ) :   0.9711
B(  3-C ,  8-H ) :   0.1786 B(  3-C ,  9-H ) :   0.1844 B(  3-C , 10-H ) :   0.1689

Dispersion correction           -0.007640699
FINAL SINGLE POINT ENERGY      -218.257368731379

DIPOLE MOMENT
-------------
                                X             Y             Z
Electronic contribution:      4.60477      -2.46181      -3.16122
Nuclear contribution   :     -4.76356       2.92420       3.62609
                        -----------------------------------------
Total Dipole Moment    :     -0.15879       0.46239       0.46487
                        -----------------------------------------
Magnitude (a.u.)       :      0.67463
Magnitude (Debye)      :      1.71476

Rotational constants in cm-1:     0.464485     0.177633     0.142630
Rotational constants in MHz : 13924.923489  5325.290206  4275.938589

                             ****ORCA TERMINATED NORMALLY****
TOTAL RUN TIME: 0 days 0 hours 0 minutes 5 seconds 581 msec
