                         Program Version 5.0.0 -  RELEASE  -
|  1> !TPSS D3BJ RIJCOSX def2-SVPD def2/J TightSCF
|  2> *xyz 0 1
|  3> C         -0.70169        4.07250       -4.00392
|  4> C          0.68053        4.61482       -4.04800
|  5> H          0.69993        5.58489       -4.38827
|  6> H          1.27804        4.05598       -4.66824
|  7> H          1.08573        4.53358       -3.10652
|  8> C         -1.70347        5.09320       -3.47740
|  9> H         -0.99590        3.74039       -5.00065
| 10> H         -0.64358        3.20191       -3.35153
| 11> C         -1.31400        5.78600       -2.16927
| 12> H         -1.87706        5.85010       -4.25115
| 13> H         -2.65326        4.56448       -3.35480
| 14> H         -0.38448        6.29945       -2.30062
| 15> H         -1.21111        5.05451       -1.39516
| 16> H         -2.07413        6.48833       -1.89758
| 17> *
| 18> %MaxCore 64000
| 19>
| 20> %pal nprocs 4
| 21> end
| 22>
| 23> %scf
| 24>   MaxIter 150
| 25> end
| 26>
| 27>
| 28>                          ****END OF INPUT****

CARTESIAN COORDINATES (ANGSTROEM)
---------------------------------
  C     -0.701690    4.072500   -4.003920
  C      0.680530    4.614820   -4.048000
  H      0.699930    5.584890   -4.388270
  H      1.278040    4.055980   -4.668240
  H      1.085730    4.533580   -3.106520
  C     -1.703470    5.093200   -3.477400
  H     -0.995900    3.740390   -5.000650
  H     -0.643580    3.201910   -3.351530
  C     -1.314000    5.786000   -2.169270
  H     -1.877060    5.850100   -4.251150
  H     -2.653260    4.564480   -3.354800
  H     -0.384480    6.299450   -2.300620
  H     -1.211110    5.054510   -1.395160
  H     -2.074130    6.488330   -1.897580

 Total Charge           Charge          ....    0
 Multiplicity           Mult            ....    1
 Number of Electrons    NEL             ....   34
 Basis Dimension        Dim             ....  160

ORBITAL ENERGIES
----------------

  NO   OCC          E(Eh)            E(eV)
   0   2.0000      -9.990344      -271.8511
   1   2.0000      -9.985697      -271.7246
   2   2.0000      -9.982444      -271.6361
   3   2.0000      -9.963460      -271.1195
   4   2.0000      -0.737525       -20.0691
   5   2.0000      -0.667531       -18.1644
   6   2.0000      -0.590587       -16.0707
   7   2.0000      -0.512576       -13.9479
   8   2.0000      -0.426277       -11.5996
   9   2.0000      -0.418851       -11.3975
  10   2.0000      -0.385654       -10.4942
  11   2.0000      -0.349568        -9.5122
  12   2.0000      -0.345351        -9.3975
  13   2.0000      -0.327384        -8.9086
  14   2.0000      -0.287776        -7.8308
  15   2.0000      -0.285485        -7.7684
  16   2.0000      -0.283049        -7.7022
  17   0.0000       0.014766         0.4018
  18   0.0000       0.041659         1.1336
  19   0.0000       0.044161         1.2017
  20   0.0000       0.053818         1.4644
  21   0.0000       0.082336         2.2405

MULLIKEN ATOMIC CHARGES
-----------------------
   0 C :   -0.298262
   1 C :    0.900512
   2 H :   -0.162113
   3 H :   -0.382845
   4 H :   -0.003129
   5 C :   -0.375056
   6 H :   -0.079451
   7 H :   -0.024720
   8 C :    0.595321
   9 H :    0.027513
  10 H :   -0.092966
  11 H :   -0.011990
  12 H :   -0.017875
  13 H :   -0.074939
Sum of atomic charges:   -0.0000000

LOEWDIN ATOMIC CHARGES
----------------------
   0 C :   -0.072651
   1 C :    0.122477
   2 H :   -0.030339
   3 H :   -0.038998
   4 H :   -0.032259
   5 C :   -0.073874
   6 H :    0.017553
   7 H :    0.018976
   8 C :    0.133649
   9 H :    0.018060
  10 H :    0.010196
  11 H :   -0.030452
  12 H :   -0.018599
  13 H :   -0.023739

  Mayer bond orders larger than 0.100000
B(  0-C ,  1-C ) :   1.2942 B(  0-C ,  2-H ) :   0.2317 B(  0-C ,  3-H ) :   0.2404
B(  0-C ,  4-H ) :   0.2566 B(  0-C ,  5-C ) :   1.1944 B(  0-C ,  6-H ) :   0.9313
B(  0-C ,  7-H ) :   0.8694 B(  0-C ,  9-H ) :   0.1216 B(  0-C , 10-H ) :   0.1430
B(  1-C ,  2-H ) :   0.7571 B(  1-C ,  3-H ) :   0.7452 B(  1-C ,  4-H ) :   0.7049
B(  1-C ,  7-H ) :   0.1372 B(  5-C ,  7-H ) :   0.1272 B(  5-C ,  8-C ) :   1.3238
B(  5-C ,  9-H ) :   0.8969 B(  5-C , 10-H ) :   0.9486 B(  5-C , 11-H ) :   0.1849
B(  5-C , 12-H ) :   0.1817 B(  5-C , 13-H ) :   0.2134 B(  8-C , 11-H ) :   0.8523
B(  8-C , 12-H ) :   0.8180 B(  8-C , 13-H ) :   0.7801

Dispersion correction           -0.011553354
FINAL SINGLE POINT ENERGY      -158.369589325320

DIPOLE MOMENT
-------------
                                X             Y             Z
Electronic contribution:     -0.62508      -0.37099      -0.42805
Nuclear contribution   :      0.63648       0.35464       0.41252
                        -----------------------------------------
Total Dipole Moment    :      0.01139      -0.01635      -0.01554
                        -----------------------------------------
Magnitude (a.u.)       :      0.02527
Magnitude (Debye)      :      0.06423

Rotational constants in cm-1:     0.435124     0.173315     0.141457
Rotational constants in MHz : 13044.691962  5195.845291  4240.763698

                             ****ORCA TERMINATED NORMALLY****
TOTAL RUN TIME: 0 days 0 hours 0 minutes 7 seconds 329 msec
