                         Program Version 5.0.0 -  RELEASE  -
|  1> !TPSS D3BJ RIJCOSX def2-TZVPD def2/J TightSCF
|  2> *xyz -1 1
|  3> C         -2.79070       -0.78527        5.70281
|  4> C         -2.45380        0.05510        6.94145
|  5> C         -2.07842        1.48042        6.56410
|  6> H         -1.62558       -0.38216        7.49891
|  7> H         -3.32527        0.08775        7.59917
|  8> O         -0.90125        1.85816        6.82810
|  9> O         -2.93658        2.17731        5.96415
| 10> H         -1.94052       -0.82114        5.05412
| 11> H         -3.61590       -0.34261        5.18514
| 12> H         -3.05063       -1.77815        6.00536
| 13> *
| 14> %MaxCore 64000
| 15>
| 16> %pal nprocs 4
| 17> end
| 18>
| 19> %scf
| 20>   MaxIter 150
| 21> end
| 22>
| 23>
| 24>                          ****END OF INPUT****

CARTESIAN COORDINATES (ANGSTROEM)
---------------------------------
  C     -2.790700   -0.785270    5.702810
  C     -2.453800    0.055100    6.941450
  C     -2.078420    1.480420    6.564100
  H     -1.625580   -0.382160    7.498910
  H     -3.325270    0.087750    7.599170
  O     -0.901250    1.858160    6.828100
  O     -2.936580    2.177310    5.964150
  H     -1.940520   -0.821140    5.054120
  H     -3.615900   -0.342610    5.185140
  H     -3.050630   -1.778150    6.005360

 Total Charge           Charge          ....   -1
 Multiplicity           Mult            ....    1
 Number of Electrons    NEL             ....   40
 Basis Dimension        Dim             ....  236

ORBITAL ENERGIES
----------------

  NO   OCC          E(Eh)            E(eV)
   0   2.0000     -18.619679      -506.6672
   1   2.0000     -18.618269      -506.6289
   2   2.0000      -9.856860      -268.2188
   3   2.0000      -9.822304      -267.2785
   4   2.0000      -9.809832      -266.9391
   5   2.0000      -0.747067       -20.3287
   6   2.0000      -0.658237       -17.9115
   7   2.0000      -0.549213       -14.9448
   8   2.0000      -0.424524       -11.5519
   9   2.0000      -0.275577        -7.4988
  10   2.0000      -0.250837        -6.8256
  11   2.0000      -0.215664        -5.8685
  12   2.0000      -0.186628        -5.0784
  13   2.0000      -0.172852        -4.7035
  14   2.0000      -0.163311        -4.4439
  15   2.0000      -0.132781        -3.6132
  16   2.0000      -0.119970        -3.2646
  17   2.0000      -0.010751        -0.2926
  18   2.0000       0.000497         0.0135
  19   2.0000       0.017755         0.4831
  20   0.0000       0.125342         3.4107
  21   0.0000       0.151111         4.1119
  22   0.0000       0.163197         4.4408
  23   0.0000       0.173002         4.7076
  24   0.0000       0.197223         5.3667

MULLIKEN ATOMIC CHARGES
-----------------------
   0 C :   -0.930510
   1 C :   -0.045330
   2 C :    0.592072
   3 H :    0.147834
   4 H :    0.151195
   5 O :   -0.817866
   6 O :   -0.819184
   7 H :    0.256971
   8 H :    0.253136
   9 H :    0.211682
Sum of atomic charges:   -1.0000000

LOEWDIN ATOMIC CHARGES
----------------------
   0 C :   -0.123936
   1 C :   -0.208997
   2 C :   -0.771491
   3 H :    0.081570
   4 H :    0.087914
   5 O :   -0.112319
   6 O :   -0.099561
   7 H :    0.057763
   8 H :    0.051827
   9 H :    0.037230

  Mayer bond orders larger than 0.100000
B(  0-C ,  1-C ) :   0.7676 B(  0-C ,  2-C ) :   0.1751 B(  0-C ,  6-O ) :   0.1040
B(  0-C ,  7-H ) :   0.9493 B(  0-C ,  8-H ) :   0.9765 B(  0-C ,  9-H ) :   0.9500
B(  1-C ,  2-C ) :   1.0065 B(  1-C ,  3-H ) :   0.9910 B(  1-C ,  4-H ) :   0.9178
B(  2-C ,  5-O ) :   1.2019 B(  2-C ,  6-O ) :   1.2052

Dispersion correction           -0.008068427
FINAL SINGLE POINT ENERGY      -267.990003800795

DIPOLE MOMENT
-------------
                                X             Y             Z
Electronic contribution:      1.65762       5.63712       0.66019
Nuclear contribution   :     -2.24498      -7.51881      -0.57245
                        -----------------------------------------
Total Dipole Moment    :     -0.58737      -1.88168       0.08774
                        -----------------------------------------
Magnitude (a.u.)       :      1.97318
Magnitude (Debye)      :      5.01542

Rotational constants in cm-1:     0.305589     0.135336     0.107479
Rotational constants in MHz :  9161.317320  4057.276612  3222.126231

                             ****ORCA TERMINATED NORMALLY****
TOTAL RUN TIME: 0 days 0 hours 0 minutes 18 seconds 676 msec
