                         Program Version 5.0.0 -  RELEASE  -
|  1> !TPSS D3BJ RIJCOSX def2-TZVPD def2/J TightSCF
|  2> *xyz 1 1
|  3> C         -0.69912        3.48945        3.75516
|  4> H         -0.96672        4.34901        3.14049
|  5> N         -1.08067        3.79296        5.15686
|  6> C          0.77696        3.13839        3.61741
|  7> H         -1.33146        2.65651        3.44632
|  8> H         -0.87449        4.76274        5.42734
|  9> H         -0.68079        3.13476        5.83900
| 10> H         -2.05755        3.53169        5.34620
| 11> H          0.99957        2.92898        2.59199
| 12> H          0.99576        2.27685        4.21303
| 13> H          1.37223        3.96279        3.95046
| 14> *
| 15> %MaxCore 64000
| 16>
| 17> %pal nprocs 4
| 18> end
| 19>
| 20> %scf
| 21>   MaxIter 150
| 22> end
| 23>
| 24>
| 25>                          ****END OF INPUT****

CARTESIAN COORDINATES (ANGSTROEM)
---------------------------------
  C     -0.699120    3.489450    3.755160
  H     -0.966720    4.349010    3.140490
  N     -1.080670    3.792960    5.156860
  C      0.776960    3.138390    3.617410
  H     -1.331460    2.656510    3.446320
  H     -0.874490    4.762740    5.427340
  H     -0.680790    3.134760    5.839000
  H     -2.057550    3.531690    5.346200
  H      0.999570    2.928980    2.591990
  H      0.995760    2.276850    4.213030
  H      1.372230    3.962790    3.950460

 Total Charge           Charge          ....    1
 Multiplicity           Mult            ....    1
 Number of Electrons    NEL             ....   26
 Basis Dimension        Dim             ....  183

ORBITAL ENERGIES
----------------

  NO   OCC          E(Eh)            E(eV)
   0   2.0000     -14.435499      -392.8099
   1   2.0000     -10.239372      -278.6275
   2   2.0000     -10.160566      -276.4831
   3   2.0000      -1.157181       -31.4885
   4   2.0000      -0.913032       -24.8449
   5   2.0000      -0.797584       -21.7034
   6   2.0000      -0.770015       -20.9532
   7   2.0000      -0.722330       -19.6556
   8   2.0000      -0.657985       -17.9047
   9   2.0000      -0.604310       -16.4441
  10   2.0000      -0.544450       -14.8152
  11   2.0000      -0.531073       -14.4512
  12   2.0000      -0.516261       -14.0482
  13   0.0000      -0.215452        -5.8627
  14   0.0000      -0.157649        -4.2899
  15   0.0000      -0.155018        -4.2183
  16   0.0000      -0.143542        -3.9060
  17   0.0000      -0.115209        -3.1350

MULLIKEN ATOMIC CHARGES
-----------------------
   0 C :   -0.170824
   1 H :    0.221341
   2 N :   -0.254935
   3 C :   -0.822321
   4 H :    0.225408
   5 H :    0.323805
   6 H :    0.325182
   7 H :    0.324922
   8 H :    0.224193
   9 H :    0.311867
  10 H :    0.291363
Sum of atomic charges:    1.0000000

LOEWDIN ATOMIC CHARGES
----------------------
   0 C :   -0.191856
   1 H :    0.134534
   2 N :    0.179909
   3 C :   -0.045307
   4 H :    0.132042
   5 H :    0.184347
   6 H :    0.177256
   7 H :    0.178817
   8 H :    0.090116
   9 H :    0.079685
  10 H :    0.080457

  Mayer bond orders larger than 0.100000
B(  0-C ,  1-H ) :   0.9357 B(  0-C ,  2-N ) :   0.9711 B(  0-C ,  3-C ) :   0.9522
B(  0-C ,  4-H ) :   0.9019 B(  2-N ,  5-H ) :   0.8718 B(  2-N ,  6-H ) :   0.8719
B(  2-N ,  7-H ) :   0.8724 B(  3-C ,  8-H ) :   0.9828 B(  3-C ,  9-H ) :   0.8998
B(  3-C , 10-H ) :   0.9378

Dispersion correction           -0.007415619
FINAL SINGLE POINT ENERGY      -135.609587714033

DIPOLE MOMENT
-------------
                                X             Y             Z
Electronic contribution:     -1.30393       0.56769       1.07060
Nuclear contribution   :      0.33986      -0.24565       0.10678
                        -----------------------------------------
Total Dipole Moment    :     -0.96407       0.32204       1.17738
                        -----------------------------------------
Magnitude (a.u.)       :      1.55543
Magnitude (Debye)      :      3.95359

Rotational constants in cm-1:     1.016237     0.277523     0.247812
Rotational constants in MHz : 30466.024354  8319.937961  7429.230177

                             ****ORCA TERMINATED NORMALLY****
TOTAL RUN TIME: 0 days 0 hours 0 minutes 12 seconds 484 msec
