                         Program Version 5.0.0 -  RELEASE  -
|  1> !TPSS D3BJ RIJCOSX def2-TZVPD def2/J TightSCF xyzfile
|  2>
|  3> *xyzfile 0 1 B.xyz
|  4>
|  5> %MaxCore 64000
|  6>
|  7> %pal nprocs 4
|  8> end
|  9>
| 10> %scf
| 11>   MaxIter 150
| 12> end
| 13>
| 14>
| 15>                          ****END OF INPUT****

CARTESIAN COORDINATES (ANGSTROEM)
---------------------------------
  C     -0.699123    3.489451    3.755163
  H     -0.966716    4.349013    3.140491
  N     -1.080669    3.792957    5.156857
  C      0.776956    3.138391    3.617408
  H     -1.331455    2.656510    3.446323
  H      1.371398    3.888342    4.149744
  H      1.046926    3.232057    2.561331
  C      1.118917    1.731170    4.115155
  H      2.200573    1.654226    4.254882
  C      0.659466    0.635182    3.153306
  H      0.677024    1.576674    5.103150
  H      1.312288    0.638870    2.274207
  H     -0.339563    0.868049    2.772876
  C      0.639957   -0.771175    3.755619
  C     -0.341821   -0.965537    4.915046
  H      1.648266   -1.028665    4.097015
  H      0.398568   -1.482386    2.958453
  H     -0.279892   -2.005646    5.252547
  C     -1.789164   -0.639231    4.557496
  H     -0.032380   -0.352918    5.765118
  H     -2.107151   -1.270102    3.719619
  H     -1.856352    0.391636    4.197604
  C     -2.790700   -0.785275    5.702812
  H     -2.867308   -1.835651    6.001675
  H     -3.774554   -0.486577    5.334807
  C     -2.453797    0.055101    6.941445
  C     -2.078419    1.480421    6.564098
  H     -1.625584   -0.382163    7.498914
  H     -3.325274    0.087746    7.599175
  H     -0.874488    4.762737    5.427344
  H     -0.680793    3.134762    5.839000
  H     -2.057550    3.531691    5.346197
  O     -0.901252    1.858156    6.828104
  O     -2.936582    2.177309    5.964151

 Total Charge           Charge          ....    0
 Multiplicity           Mult            ....    1
 Number of Electrons    NEL             ....  104
 Basis Dimension        Dim             ....  676

ORBITAL ENERGIES
----------------

  NO   OCC          E(Eh)            E(eV)
   0   2.0000     -18.819308      -512.0994
   1   2.0000     -18.817703      -512.0557
   2   2.0000     -14.179440      -385.8422
   3   2.0000     -10.053818      -273.5783
   4   2.0000     -10.048740      -273.4401
   5   2.0000     -10.008073      -272.3335
   6   2.0000      -9.984257      -271.6855
   7   2.0000      -9.981001      -271.5968
   8   2.0000      -9.974557      -271.4215
   9   2.0000      -9.965253      -271.1683
  10   2.0000      -9.965067      -271.1633
  11   2.0000      -9.964128      -271.1377
  12   2.0000      -9.957541      -270.9585
  13   2.0000      -0.958380       -26.0789
  14   2.0000      -0.919030       -25.0081
  15   2.0000      -0.862894       -23.4806
  16   2.0000      -0.764056       -20.7910
  17   2.0000      -0.736499       -20.0412
  18   2.0000      -0.709530       -19.3073
  19   2.0000      -0.666082       -18.1250
  20   2.0000      -0.635080       -17.2814
  21   2.0000      -0.598525       -16.2867
  22   2.0000      -0.562830       -15.3154
  23   2.0000      -0.547170       -14.8893
  24   2.0000      -0.529857       -14.4181
  25   2.0000      -0.504521       -13.7287
  26   2.0000      -0.498053       -13.5527
  27   2.0000      -0.458814       -12.4850
  28   2.0000      -0.437536       -11.9060
  29   2.0000      -0.431708       -11.7474
  30   2.0000      -0.428435       -11.6583
  31   2.0000      -0.404300       -11.0016
  32   2.0000      -0.399179       -10.8622
  33   2.0000      -0.390995       -10.6395
  34   2.0000      -0.378308       -10.2943
  35   2.0000      -0.370609       -10.0848
  36   2.0000      -0.358190        -9.7468
  37   2.0000      -0.354192        -9.6380
  38   2.0000      -0.347768        -9.4633
  39   2.0000      -0.337695        -9.1891
  40   2.0000      -0.325149        -8.8477
  41   2.0000      -0.319789        -8.7019
  42   2.0000      -0.312091        -8.4924
  43   2.0000      -0.299600        -8.1525
  44   2.0000      -0.291607        -7.9350
  45   2.0000      -0.285421        -7.7667
  46   2.0000      -0.272858        -7.4248
  47   2.0000      -0.267793        -7.2870
  48   2.0000      -0.262304        -7.1377
  49   2.0000      -0.211451        -5.7539
  50   2.0000      -0.195187        -5.3113
  51   2.0000      -0.189175        -5.1477
  52   0.0000      -0.028048        -0.7632
  53   0.0000      -0.001329        -0.0362
  54   0.0000       0.004515         0.1228
  55   0.0000       0.008540         0.2324
  56   0.0000       0.016785         0.4568

MULLIKEN ATOMIC CHARGES
-----------------------
   0 C :   -0.297356
   1 H :    0.126703
   2 N :   -0.189526
   3 C :   -0.152707
   4 H :    0.239013
   5 H :    0.122124
   6 H :    0.115760
   7 C :   -0.310622
   8 H :    0.125179
   9 C :   -0.480883
  10 H :    0.383882
  11 H :    0.144368
  12 H :    0.367470
  13 C :   -0.355775
  14 C :   -0.350362
  15 H :    0.127429
  16 H :    0.179796
  17 H :    0.058365
  18 C :   -0.258692
  19 H :    0.330452
  20 H :    0.072079
  21 H :    0.109178
  22 C :   -0.358057
  23 H :    0.049899
  24 H :    0.240866
  25 C :   -0.401245
  26 C :    1.083180
  27 H :    0.252720
  28 H :    0.130177
  29 H :    0.278307
  30 H :    0.255175
  31 H :    0.300713
  32 O :   -0.955382
  33 O :   -0.982227
Sum of atomic charges:   -0.0000000

LOEWDIN ATOMIC CHARGES
----------------------
   0 C :   -0.156081
   1 H :    0.119098
   2 N :    0.145652
   3 C :   -0.179235
   4 H :    0.113858
   5 H :    0.109633
   6 H :    0.112416
   7 C :   -0.190799
   8 H :    0.114997
   9 C :   -0.208418
  10 H :    0.088583
  11 H :    0.109413
  12 H :    0.093191
  13 C :   -0.199111
  14 C :   -0.199826
  15 H :    0.106832
  16 H :    0.105268
  17 H :    0.113009
  18 C :   -0.202325
  19 H :    0.094285
  20 H :    0.113957
  21 H :    0.088390
  22 C :   -0.190549
  23 H :    0.104957
  24 H :    0.106193
  25 C :   -0.117668
  26 C :   -0.654265
  27 H :    0.105479
  28 H :    0.112221
  29 H :    0.164493
  30 H :    0.066514
  31 H :    0.093827
  32 O :   -0.052493
  33 O :   -0.031496

  Mayer bond orders larger than 0.100000
B(  0-C ,  1-H ) :   0.8306 B(  0-C ,  2-N ) :   0.9742 B(  0-C ,  3-C ) :   1.0883
B(  0-C ,  4-H ) :   0.9766 B(  0-C ,  9-C ) :   0.1116 B(  2-N , 29-H ) :   0.8883
B(  2-N , 30-H ) :   0.8080 B(  2-N , 31-H ) :   0.7713 B(  3-C ,  5-H ) :   0.8600
B(  3-C ,  6-H ) :   0.8832 B(  3-C ,  7-C ) :   1.0850 B(  3-C ,  9-C ) :   0.2090
B(  7-C ,  8-H ) :   0.8193 B(  7-C ,  9-C ) :   0.5815 B(  7-C , 10-H ) :   1.0085
B(  7-C , 13-C ) :   0.2597 B(  7-C , 14-C ) :   0.1248 B(  7-C , 19-H ) :   0.1057
B(  8-H , 10-H ) :   0.1184 B(  9-C , 11-H ) :   0.9136 B(  9-C , 12-H ) :   0.8058
B(  9-C , 13-C ) :   1.2438 B(  9-C , 18-C ) :   0.2057 B( 13-C , 14-C ) :   1.0475
B( 13-C , 15-H ) :   0.9061 B( 13-C , 16-H ) :   0.8694 B( 13-C , 18-C ) :   0.1364
B( 14-C , 17-H ) :   0.8991 B( 14-C , 18-C ) :   0.7108 B( 14-C , 19-H ) :   0.8581
B( 14-C , 22-C ) :   0.1553 B( 14-C , 25-C ) :   0.1610 B( 18-C , 20-H ) :   0.7804
B( 18-C , 21-H ) :   1.2148 B( 18-C , 22-C ) :   1.0572 B( 18-C , 26-C ) :   0.1810
B( 20-H , 21-H ) :   0.1715 B( 21-H , 22-C ) :   0.2433 B( 22-C , 23-H ) :   0.9222
B( 22-C , 24-H ) :   0.8092 B( 22-C , 25-C ) :   0.9176 B( 22-C , 26-C ) :   0.1190
B( 23-H , 25-C ) :   0.1043 B( 25-C , 26-C ) :   1.1552 B( 25-C , 27-H ) :   0.9006
B( 25-C , 28-H ) :   0.8812 B( 26-C , 32-O ) :   0.9560 B( 26-C , 33-O ) :   0.7761
B( 30-H , 32-O ) :   0.1736 B( 31-H , 33-O ) :   0.1806 B( 32-O , 33-O ) :   0.1708

Dispersion correction           -0.047789239
FINAL SINGLE POINT ENERGY      -599.295169090955

DIPOLE MOMENT
-------------
                                X             Y             Z
Electronic contribution:     -4.67235       4.81660       6.72565
Nuclear contribution   :      5.60885      -3.40606      -8.06960
                        -----------------------------------------
Total Dipole Moment    :      0.93650       1.41054      -1.34394
                        -----------------------------------------
Magnitude (a.u.)       :      2.16168
Magnitude (Debye)      :      5.49454

Rotational constants in cm-1:     0.028465     0.023505     0.015110
Rotational constants in MHz :   853.363165   704.655786   452.976312

                             ****ORCA TERMINATED NORMALLY****
TOTAL RUN TIME: 0 days 0 hours 2 minutes 37 seconds 375 msec
