                         Program Version 5.0.0 -  RELEASE  -
|  1> !TPSS D3BJ RIJCOSX def2-TZVPD def2/J TightSCF
|  2> *xyz 0 1
|  3> C         -2.79070       -0.78527        5.70281
|  4> C         -2.45380        0.05510        6.94145
|  5> C         -2.07842        1.48042        6.56410
|  6> H         -1.62558       -0.38216        7.49891
|  7> H         -3.32527        0.08775        7.59917
|  8> F         -0.90125        1.85816        6.82810
|  9> O         -2.93658        2.17731        5.96415
| 10> H         -1.94052       -0.82114        5.05412
| 11> H         -3.61590       -0.34261        5.18514
| 12> H         -3.05063       -1.77815        6.00536
| 13> *
| 14> %MaxCore 64000
| 15>
| 16> %pal nprocs 4
| 17> end
| 18>
| 19> %scf
| 20>   MaxIter 150
| 21> end
| 22>
| 23>
| 24>                          ****END OF INPUT****

CARTESIAN COORDINATES (ANGSTROEM)
---------------------------------
  C     -2.790700   -0.785270    5.702810
  C     -2.453800    0.055100    6.941450
  C     -2.078420    1.480420    6.564100
  H     -1.625580   -0.382160    7.498910
  H     -3.325270    0.087750    7.599170
  F     -0.901250    1.858160    6.828100
  O     -2.936580    2.177310    5.964150
  H     -1.940520   -0.821140    5.054120
  H     -3.615900   -0.342610    5.185140
  H     -3.050630   -1.778150    6.005360

 Total Charge           Charge          ....    0
 Multiplicity           Mult            ....    1
 Number of Electrons    NEL             ....   40
 Basis Dimension        Dim             ....  236

ORBITAL ENERGIES
----------------

  NO   OCC          E(Eh)            E(eV)
   0   2.0000     -24.475172      -666.0033
   1   2.0000     -18.887845      -513.9644
   2   2.0000     -10.151126      -276.2262
   3   2.0000     -10.017675      -272.5948
   4   2.0000      -9.992466      -271.9088
   5   2.0000      -1.232772       -33.5454
   6   2.0000      -0.962403       -26.1883
   7   2.0000      -0.745462       -20.2851
   8   2.0000      -0.635572       -17.2948
   9   2.0000      -0.582354       -15.8466
  10   2.0000      -0.491253       -13.3677
  11   2.0000      -0.477026       -12.9805
  12   2.0000      -0.458041       -12.4639
  13   2.0000      -0.423158       -11.5147
  14   2.0000      -0.390778       -10.6336
  15   2.0000      -0.359708        -9.7881
  16   2.0000      -0.341533        -9.2936
  17   2.0000      -0.335729        -9.1356
  18   2.0000      -0.308894        -8.4054
  19   2.0000      -0.248906        -6.7731
  20   0.0000      -0.064021        -1.7421
  21   0.0000      -0.007193        -0.1957
  22   0.0000       0.019538         0.5316
  23   0.0000       0.029799         0.8109
  24   0.0000       0.038725         1.0538

MULLIKEN ATOMIC CHARGES
-----------------------
   0 C :   -0.904500
   1 C :    0.015640
   2 C :    0.542452
   3 H :    0.171628
   4 H :    0.153909
   5 F :   -0.201668
   6 O :   -0.533728
   7 H :    0.280737
   8 H :    0.272687
   9 H :    0.202842
Sum of atomic charges:   -0.0000000

LOEWDIN ATOMIC CHARGES
----------------------
   0 C :   -0.077812
   1 C :   -0.151551
   2 C :   -0.492870
   3 H :    0.103793
   4 H :    0.117966
   5 F :    0.205335
   6 O :    0.086854
   7 H :    0.071649
   8 H :    0.070552
   9 H :    0.066083

  Mayer bond orders larger than 0.100000
B(  0-C ,  1-C ) :   0.8549 B(  0-C ,  2-C ) :   0.1722 B(  0-C ,  7-H ) :   0.9146
B(  0-C ,  8-H ) :   0.9627 B(  0-C ,  9-H ) :   0.9690 B(  1-C ,  2-C ) :   0.9742
B(  1-C ,  3-H ) :   0.9503 B(  1-C ,  4-H ) :   0.9091 B(  2-C ,  5-F ) :   0.9791
B(  2-C ,  6-O ) :   1.6145

Dispersion correction           -0.007649999
FINAL SINGLE POINT ENERGY      -292.560981987430

DIPOLE MOMENT
-------------
                                X             Y             Z
Electronic contribution:      3.96012       7.45275       1.46920
Nuclear contribution   :     -3.69486      -8.49563      -1.04945
                        -----------------------------------------
Total Dipole Moment    :      0.26526      -1.04289       0.41975
                        -----------------------------------------
Magnitude (a.u.)       :      1.15506
Magnitude (Debye)      :      2.93593

Rotational constants in cm-1:     0.293725     0.129218     0.102393
Rotational constants in MHz :  8805.653529  3873.869810  3069.666716

                             ****ORCA TERMINATED NORMALLY****
TOTAL RUN TIME: 0 days 0 hours 0 minutes 16 seconds 565 msec
