                         Program Version 5.0.0 -  RELEASE  -
|  1> !TPSS D3BJ RIJCOSX def2-TZVPD def2/J TightSCF
|  2> *xyz 0 1
|  3> C         -0.69912        3.48945        3.75516
|  4> H         -0.96672        4.34901        3.14049
|  5> C         -1.08067        3.79296        5.15686
|  6> C          0.77696        3.13839        3.61741
|  7> H         -1.33146        2.65651        3.44632
|  8> H         -0.87449        4.76274        5.42734
|  9> H         -0.68079        3.13476        5.83900
| 10> H         -2.05755        3.53169        5.34620
| 11> H          0.99957        2.92898        2.59199
| 12> H          0.99576        2.27685        4.21303
| 13> H          1.37223        3.96279        3.95046
| 14> *
| 15> %MaxCore 64000
| 16>
| 17> %pal nprocs 4
| 18> end
| 19>
| 20> %scf
| 21>   MaxIter 150
| 22> end
| 23>
| 24>
| 25>                          ****END OF INPUT****

CARTESIAN COORDINATES (ANGSTROEM)
---------------------------------
  C     -0.699120    3.489450    3.755160
  H     -0.966720    4.349010    3.140490
  C     -1.080670    3.792960    5.156860
  C      0.776960    3.138390    3.617410
  H     -1.331460    2.656510    3.446320
  H     -0.874490    4.762740    5.427340
  H     -0.680790    3.134760    5.839000
  H     -2.057550    3.531690    5.346200
  H      0.999570    2.928980    2.591990
  H      0.995760    2.276850    4.213030
  H      1.372230    3.962790    3.950460

 Total Charge           Charge          ....    0
 Multiplicity           Mult            ....    1
 Number of Electrons    NEL             ....   26
 Basis Dimension        Dim             ....  183

ORBITAL ENERGIES
----------------

  NO   OCC          E(Eh)            E(eV)
   0   2.0000      -9.971250      -271.3315
   1   2.0000      -9.962941      -271.1054
   2   2.0000      -9.944471      -270.6028
   3   2.0000      -0.733484       -19.9591
   4   2.0000      -0.639793       -17.4097
   5   2.0000      -0.541261       -14.7285
   6   2.0000      -0.429686       -11.6923
   7   2.0000      -0.397435       -10.8148
   8   2.0000      -0.360998        -9.8232
   9   2.0000      -0.356751        -9.7077
  10   2.0000      -0.303105        -8.2479
  11   2.0000      -0.294171        -8.0048
  12   2.0000      -0.288117        -7.8401
  13   0.0000       0.004011         0.1091
  14   0.0000       0.029299         0.7973
  15   0.0000       0.032440         0.8827
  16   0.0000       0.048974         1.3326
  17   0.0000       0.073124         1.9898

MULLIKEN ATOMIC CHARGES
-----------------------
   0 C :    0.151604
   1 H :    0.146962
   2 C :   -1.094125
   3 C :   -0.877866
   4 H :    0.143213
   5 H :    0.257773
   6 H :    0.291459
   7 H :    0.266243
   8 H :    0.209489
   9 H :    0.255929
  10 H :    0.249320
Sum of atomic charges:   -0.0000000

LOEWDIN ATOMIC CHARGES
----------------------
   0 C :   -0.305148
   1 H :    0.100399
   2 C :   -0.125840
   3 C :   -0.107386
   4 H :    0.099223
   5 H :    0.055132
   6 H :    0.050948
   7 H :    0.048776
   8 H :    0.056974
   9 H :    0.063044
  10 H :    0.063878

  Mayer bond orders larger than 0.100000
B(  0-C ,  1-H ) :   0.9501 B(  0-C ,  2-C ) :   0.8478 B(  0-C ,  3-C ) :   0.8134
B(  0-C ,  4-H ) :   0.9552 B(  2-C ,  3-C ) :   0.1851 B(  2-C ,  5-H ) :   0.9543
B(  2-C ,  6-H ) :   0.9620 B(  2-C ,  7-H ) :   0.9603 B(  3-C ,  8-H ) :   0.9954
B(  3-C ,  9-H ) :   0.9575 B(  3-C , 10-H ) :   0.9652

Dispersion correction           -0.007440263
FINAL SINGLE POINT ENERGY      -119.193372223086

DIPOLE MOMENT
-------------
                                X             Y             Z
Electronic contribution:     -0.14005       0.12416      -0.39910
Nuclear contribution   :      0.10024      -0.14218       0.41628
                        -----------------------------------------
Total Dipole Moment    :     -0.03981      -0.01803       0.01718
                        -----------------------------------------
Magnitude (a.u.)       :      0.04695
Magnitude (Debye)      :      0.11934

Rotational constants in cm-1:     1.024179     0.291605     0.259489
Rotational constants in MHz : 30704.103454  8742.106283  7779.285909

                             ****ORCA TERMINATED NORMALLY****
TOTAL RUN TIME: 0 days 0 hours 0 minutes 12 seconds 397 msec
