                         Program Version 5.0.0 -  RELEASE  -
|  1> !TPSS D3BJ RIJCOSX def2-TZVPD def2/J TightSCF
|  2> *xyz 0 1
|  3> C         -2.79070       -0.78527        5.70281
|  4> C         -2.45380        0.05510        6.94145
|  5> C         -2.07842        1.48042        6.56410
|  6> H         -1.62558       -0.38216        7.49891
|  7> H         -3.32527        0.08775        7.59917
|  8> O         -0.90125        1.85816        6.82810
|  9> F         -2.93658        2.17731        5.96415
| 10> H         -1.94052       -0.82114        5.05412
| 11> H         -3.61590       -0.34261        5.18514
| 12> H         -3.05063       -1.77815        6.00536
| 13> *
| 14> %MaxCore 64000
| 15>
| 16> %pal nprocs 4
| 17> end
| 18>
| 19> %scf
| 20>   MaxIter 150
| 21> end
| 22>
| 23>
| 24>                          ****END OF INPUT****

CARTESIAN COORDINATES (ANGSTROEM)
---------------------------------
  C     -2.790700   -0.785270    5.702810
  C     -2.453800    0.055100    6.941450
  C     -2.078420    1.480420    6.564100
  H     -1.625580   -0.382160    7.498910
  H     -3.325270    0.087750    7.599170
  O     -0.901250    1.858160    6.828100
  F     -2.936580    2.177310    5.964150
  H     -1.940520   -0.821140    5.054120
  H     -3.615900   -0.342610    5.185140
  H     -3.050630   -1.778150    6.005360

 Total Charge           Charge          ....    0
 Multiplicity           Mult            ....    1
 Number of Electrons    NEL             ....   40
 Basis Dimension        Dim             ....  236

ORBITAL ENERGIES
----------------

  NO   OCC          E(Eh)            E(eV)
   0   2.0000     -24.478175      -666.0850
   1   2.0000     -18.886061      -513.9159
   2   2.0000     -10.151038      -276.2238
   3   2.0000     -10.017361      -272.5862
   4   2.0000      -9.996203      -272.0105
   5   2.0000      -1.237900       -33.6850
   6   2.0000      -0.957648       -26.0589
   7   2.0000      -0.748407       -20.3652
   8   2.0000      -0.633652       -17.2425
   9   2.0000      -0.588801       -16.0221
  10   2.0000      -0.495124       -13.4730
  11   2.0000      -0.482341       -13.1252
  12   2.0000      -0.453529       -12.3412
  13   2.0000      -0.423285       -11.5182
  14   2.0000      -0.392846       -10.6899
  15   2.0000      -0.361715        -9.8428
  16   2.0000      -0.344304        -9.3690
  17   2.0000      -0.338407        -9.2085
  18   2.0000      -0.310252        -8.4424
  19   2.0000      -0.242807        -6.6071
  20   0.0000      -0.061891        -1.6842
  21   0.0000      -0.008996        -0.2448
  22   0.0000       0.019613         0.5337
  23   0.0000       0.028937         0.7874
  24   0.0000       0.039117         1.0644

MULLIKEN ATOMIC CHARGES
-----------------------
   0 C :   -0.927295
   1 C :    0.058367
   2 C :    0.535198
   3 H :    0.140349
   4 H :    0.181128
   5 O :   -0.532185
   6 F :   -0.216760
   7 H :    0.283667
   8 H :    0.277119
   9 H :    0.200412
Sum of atomic charges:   -0.0000000

LOEWDIN ATOMIC CHARGES
----------------------
   0 C :   -0.080747
   1 C :   -0.148630
   2 C :   -0.497782
   3 H :    0.113616
   4 H :    0.113624
   5 O :    0.078682
   6 F :    0.215174
   7 H :    0.073278
   8 H :    0.066450
   9 H :    0.066334

  Mayer bond orders larger than 0.100000
B(  0-C ,  1-C ) :   0.8015 B(  0-C ,  2-C ) :   0.1747 B(  0-C ,  7-H ) :   0.9443
B(  0-C ,  8-H ) :   0.9379 B(  0-C ,  9-H ) :   0.9784 B(  1-C ,  2-C ) :   0.9743
B(  1-C ,  3-H ) :   0.9785 B(  1-C ,  4-H ) :   0.8994 B(  2-C ,  5-O ) :   1.6075
B(  2-C ,  6-F ) :   0.9623

Dispersion correction           -0.007609410
FINAL SINGLE POINT ENERGY      -292.558639997280

DIPOLE MOMENT
-------------
                                X             Y             Z
Electronic contribution:      0.59964       7.95606       0.04834
Nuclear contribution   :     -1.47571      -8.84360      -0.10748
                        -----------------------------------------
Total Dipole Moment    :     -0.87607      -0.88754      -0.05914
                        -----------------------------------------
Magnitude (a.u.)       :      1.24849
Magnitude (Debye)      :      3.17342

Rotational constants in cm-1:     0.283081     0.133379     0.103386
Rotational constants in MHz :  8486.545774  3998.599544  3099.448040

                             ****ORCA TERMINATED NORMALLY****
TOTAL RUN TIME: 0 days 0 hours 0 minutes 16 seconds 22 msec
