                         Program Version 5.0.0 -  RELEASE  -
|  1> !TPSS D3BJ RIJCOSX def2-TZVPD def2/J TightSCF xyzfile
|  2>
|  3> *xyzfile 0 1 D1.xyz
|  4>
|  5> %MaxCore 64000
|  6>
|  7> %pal nprocs 4
|  8> end
|  9>
| 10> %scf
| 11>   MaxIter 150
| 12> end
| 13>
| 14>
| 15>                          ****END OF INPUT****

CARTESIAN COORDINATES (ANGSTROEM)
---------------------------------
  C     -0.699123    3.489451    3.755163
  H     -0.966716    4.349013    3.140491
  C     -1.080669    3.792957    5.156857
  C      0.776956    3.138391    3.617408
  H     -1.331455    2.656510    3.446323
  H      1.371398    3.888342    4.149744
  H      1.046926    3.232057    2.561331
  C      1.118917    1.731170    4.115155
  H      2.200573    1.654226    4.254882
  C      0.659466    0.635182    3.153306
  H      0.677024    1.576674    5.103150
  H      1.312288    0.638870    2.274207
  H     -0.339563    0.868049    2.772876
  C      0.639957   -0.771175    3.755619
  C     -0.341821   -0.965537    4.915046
  H      1.648266   -1.028665    4.097015
  H      0.398568   -1.482386    2.958453
  H     -0.279892   -2.005646    5.252547
  C     -1.789164   -0.639231    4.557496
  H     -0.032380   -0.352918    5.765118
  H     -2.107151   -1.270102    3.719619
  H     -1.856352    0.391636    4.197604
  C     -2.790700   -0.785275    5.702812
  H     -2.867308   -1.835651    6.001675
  H     -3.774554   -0.486577    5.334807
  C     -2.453797    0.055101    6.941445
  C     -2.078419    1.480421    6.564098
  H     -1.625584   -0.382163    7.498914
  H     -3.325274    0.087746    7.599175
  H     -0.874488    4.762737    5.427344
  H     -0.680793    3.134762    5.839000
  H     -2.057550    3.531691    5.346197
  F     -0.901252    1.858156    6.828104
  O     -2.936582    2.177309    5.964151

 Total Charge           Charge          ....    0
 Multiplicity           Mult            ....    1
 Number of Electrons    NEL             ....  104
 Basis Dimension        Dim             ....  676

ORBITAL ENERGIES
----------------

  NO   OCC          E(Eh)            E(eV)
   0   2.0000     -24.484507      -666.2573
   1   2.0000     -18.893898      -514.1291
   2   2.0000     -10.161068      -276.4967
   3   2.0000     -10.019212      -272.6366
   4   2.0000     -10.002519      -272.1824
   5   2.0000      -9.987950      -271.7859
   6   2.0000      -9.985099      -271.7084
   7   2.0000      -9.979994      -271.5695
   8   2.0000      -9.973110      -271.3821
   9   2.0000      -9.970490      -271.3108
  10   2.0000      -9.963258      -271.1140
  11   2.0000      -9.953437      -270.8468
  12   2.0000      -9.901066      -269.4217
  13   2.0000      -1.248679       -33.9783
  14   2.0000      -0.975847       -26.5541
  15   2.0000      -0.772417       -21.0185
  16   2.0000      -0.749036       -20.3823
  17   2.0000      -0.720566       -19.6076
  18   2.0000      -0.693348       -18.8670
  19   2.0000      -0.653886       -17.7931
  20   2.0000      -0.630201       -17.1486
  21   2.0000      -0.602774       -16.4023
  22   2.0000      -0.576188       -15.6789
  23   2.0000      -0.557372       -15.1669
  24   2.0000      -0.520617       -14.1667
  25   2.0000      -0.507513       -13.8101
  26   2.0000      -0.502307       -13.6685
  27   2.0000      -0.484326       -13.1792
  28   2.0000      -0.472005       -12.8439
  29   2.0000      -0.436134       -11.8678
  30   2.0000      -0.432824       -11.7777
  31   2.0000      -0.418082       -11.3766
  32   2.0000      -0.413681       -11.2568
  33   2.0000      -0.395809       -10.7705
  34   2.0000      -0.385192       -10.4816
  35   2.0000      -0.371081       -10.0976
  36   2.0000      -0.366581        -9.9752
  37   2.0000      -0.360555        -9.8112
  38   2.0000      -0.349577        -9.5125
  39   2.0000      -0.340046        -9.2531
  40   2.0000      -0.329666        -8.9707
  41   2.0000      -0.320957        -8.7337
  42   2.0000      -0.314466        -8.5571
  43   2.0000      -0.309649        -8.4260
  44   2.0000      -0.301113        -8.1937
  45   2.0000      -0.292526        -7.9600
  46   2.0000      -0.286919        -7.8075
  47   2.0000      -0.278146        -7.5688
  48   2.0000      -0.273441        -7.4407
  49   2.0000      -0.264639        -7.2012
  50   2.0000      -0.259216        -7.0536
  51   2.0000      -0.226456        -6.1622
  52   0.0000      -0.074621        -2.0305
  53   0.0000      -0.008300        -0.2259
  54   0.0000       0.004664         0.1269
  55   0.0000       0.007425         0.2020
  56   0.0000       0.013624         0.3707

MULLIKEN ATOMIC CHARGES
-----------------------
   0 C :    0.123648
   1 H :    0.056877
   2 C :   -2.132360
   3 C :   -0.122726
   4 H :    0.233110
   5 H :    0.126606
   6 H :    0.051721
   7 C :   -0.336345
   8 H :    0.118996
   9 C :   -0.427205
  10 H :    0.289082
  11 H :    0.162989
  12 H :    0.314708
  13 C :   -0.363801
  14 C :   -0.333598
  15 H :    0.128531
  16 H :    0.172509
  17 H :    0.056447
  18 C :   -0.320288
  19 H :    0.320971
  20 H :    0.082933
  21 H :    0.169702
  22 C :   -0.281997
  23 H :    0.058656
  24 H :    0.254137
  25 C :   -0.427343
  26 C :    0.881087
  27 H :    0.287169
  28 H :    0.101252
  29 H :    0.279423
  30 H :    0.696167
  31 H :    0.686383
  32 F :   -0.267003
  33 O :   -0.640438
Sum of atomic charges:    0.0000000

LOEWDIN ATOMIC CHARGES
----------------------
   0 C :   -0.230599
   1 H :    0.106117
   2 C :   -0.114038
   3 C :   -0.201065
   4 H :    0.093590
   5 H :    0.108779
   6 H :    0.102903
   7 C :   -0.195021
   8 H :    0.110747
   9 C :   -0.208093
  10 H :    0.085621
  11 H :    0.110914
  12 H :    0.094402
  13 C :   -0.199782
  14 C :   -0.202534
  15 H :    0.107221
  16 H :    0.105958
  17 H :    0.113358
  18 C :   -0.197605
  19 H :    0.090824
  20 H :    0.120034
  21 H :    0.094365
  22 C :   -0.179678
  23 H :    0.112208
  24 H :    0.112575
  25 C :   -0.092617
  26 C :   -0.452867
  27 H :    0.110460
  28 H :    0.123806
  29 H :    0.066630
  30 H :    0.019838
  31 H :    0.019334
  32 F :    0.174654
  33 O :    0.089562

  Mayer bond orders larger than 0.100000
B(  0-C ,  1-H ) :   0.8505 B(  0-C ,  2-C ) :   0.3064 B(  0-C ,  3-C ) :   0.9223
B(  0-C ,  4-H ) :   1.0247 B(  0-C ,  9-C ) :   0.1212 B(  2-C ,  3-C ) :   0.1997
B(  2-C , 29-H ) :   0.7414 B(  2-C , 30-H ) :   0.7329 B(  2-C , 31-H ) :   0.6806
B(  2-C , 32-F ) :   0.1045 B(  2-C , 33-O ) :   0.1155 B(  3-C ,  5-H ) :   0.8690
B(  3-C ,  6-H ) :   0.8961 B(  3-C ,  7-C ) :   1.1314 B(  3-C ,  9-C ) :   0.2298
B(  7-C ,  8-H ) :   0.8176 B(  7-C ,  9-C ) :   0.6371 B(  7-C , 10-H ) :   1.0586
B(  7-C , 13-C ) :   0.2441 B(  7-C , 14-C ) :   0.1381 B(  9-C , 11-H ) :   0.8745
B(  9-C , 12-H ) :   0.8662 B(  9-C , 13-C ) :   1.1841 B(  9-C , 18-C ) :   0.1704
B( 10-H , 13-C ) :  -0.1012 B( 13-C , 14-C ) :   1.0999 B( 13-C , 15-H ) :   0.9176
B( 13-C , 16-H ) :   0.8690 B( 13-C , 18-C ) :   0.1414 B( 14-C , 17-H ) :   0.9227
B( 14-C , 18-C ) :   0.6606 B( 14-C , 19-H ) :   0.8470 B( 14-C , 22-C ) :   0.1190
B( 14-C , 25-C ) :   0.1646 B( 18-C , 20-H ) :   0.7466 B( 18-C , 21-H ) :   1.2269
B( 18-C , 22-C ) :   1.0612 B( 18-C , 26-C ) :   0.1713 B( 20-H , 21-H ) :   0.1701
B( 21-H , 22-C ) :   0.2131 B( 22-C , 23-H ) :   0.9234 B( 22-C , 24-H ) :   0.8120
B( 22-C , 25-C ) :   0.9352 B( 22-C , 26-C ) :   0.1345 B( 25-C , 26-C ) :   1.1024
B( 25-C , 27-H ) :   0.8646 B( 25-C , 28-H ) :   0.8935 B( 26-C , 32-F ) :   0.7967
B( 26-C , 33-O ) :   1.3802 B( 29-H , 30-H ) :   0.1443 B( 29-H , 31-H ) :   0.1177
B( 30-H , 32-F ) :  -0.2277 B( 31-H , 33-O ) :  -0.1667 B( 32-F , 33-O ) :   0.1229

Dispersion correction           -0.046840589
FINAL SINGLE POINT ENERGY      -607.194797777002

DIPOLE MOMENT
-------------
                                X             Y             Z
Electronic contribution:     -5.47776       2.52765      10.82196
Nuclear contribution   :      5.54676      -3.70047     -10.28793
                        -----------------------------------------
Total Dipole Moment    :      0.06900      -1.17282       0.53404
                        -----------------------------------------
Magnitude (a.u.)       :      1.29053
Magnitude (Debye)      :      3.28026

Rotational constants in cm-1:     0.028503     0.023389     0.015214
Rotational constants in MHz :   854.502405   701.197575   456.108322

                             ****ORCA TERMINATED NORMALLY****
TOTAL RUN TIME: 0 days 0 hours 2 minutes 30 seconds 161 msec
