                         Program Version 5.0.0 -  RELEASE  -
|  1> !TPSS D3BJ RIJCOSX def2-TZVPD def2/J TightSCF xyzfile
|  2>
|  3> *xyzfile 0 1 D2.xyz
|  4>
|  5> %MaxCore 64000
|  6>
|  7> %pal nprocs 4
|  8> end
|  9>
| 10> %scf
| 11>   MaxIter 150
| 12> end
| 13>
| 14>
| 15>                          ****END OF INPUT****

CARTESIAN COORDINATES (ANGSTROEM)
---------------------------------
  C     -0.699123    3.489451    3.755163
  H     -0.966716    4.349013    3.140491
  C     -1.080669    3.792957    5.156857
  C      0.776956    3.138391    3.617408
  H     -1.331455    2.656510    3.446323
  H      1.371398    3.888342    4.149744
  H      1.046926    3.232057    2.561331
  C      1.118917    1.731170    4.115155
  H      2.200573    1.654226    4.254882
  C      0.659466    0.635182    3.153306
  H      0.677024    1.576674    5.103150
  H      1.312288    0.638870    2.274207
  H     -0.339563    0.868049    2.772876
  C      0.639957   -0.771175    3.755619
  C     -0.341821   -0.965537    4.915046
  H      1.648266   -1.028665    4.097015
  H      0.398568   -1.482386    2.958453
  H     -0.279892   -2.005646    5.252547
  C     -1.789164   -0.639231    4.557496
  H     -0.032380   -0.352918    5.765118
  H     -2.107151   -1.270102    3.719619
  H     -1.856352    0.391636    4.197604
  C     -2.790700   -0.785275    5.702812
  H     -2.867308   -1.835651    6.001675
  H     -3.774554   -0.486577    5.334807
  C     -2.453797    0.055101    6.941445
  C     -2.078419    1.480421    6.564098
  H     -1.625584   -0.382163    7.498914
  H     -3.325274    0.087746    7.599175
  H     -0.874488    4.762737    5.427344
  H     -0.680793    3.134762    5.839000
  H     -2.057550    3.531691    5.346197
  O     -0.901252    1.858156    6.828104
  F     -2.936582    2.177309    5.964151

 Total Charge           Charge          ....    0
 Multiplicity           Mult            ....    1
 Number of Electrons    NEL             ....  104
 Basis Dimension        Dim             ....  676

ORBITAL ENERGIES
----------------

  NO   OCC          E(Eh)            E(eV)
   0   2.0000     -24.487661      -666.3431
   1   2.0000     -18.894048      -514.1332
   2   2.0000     -10.162573      -276.5377
   3   2.0000     -10.019568      -272.6463
   4   2.0000     -10.005396      -272.2607
   5   2.0000      -9.989970      -271.8409
   6   2.0000      -9.979905      -271.5670
   7   2.0000      -9.976161      -271.4651
   8   2.0000      -9.969205      -271.2759
   9   2.0000      -9.962774      -271.1009
  10   2.0000      -9.960117      -271.0286
  11   2.0000      -9.953265      -270.8421
  12   2.0000      -9.899938      -269.3910
  13   2.0000      -1.252056       -34.0702
  14   2.0000      -0.975476       -26.5441
  15   2.0000      -0.773561       -21.0497
  16   2.0000      -0.746221       -20.3057
  17   2.0000      -0.718808       -19.5598
  18   2.0000      -0.691855       -18.8263
  19   2.0000      -0.650991       -17.7144
  20   2.0000      -0.627336       -17.0707
  21   2.0000      -0.604734       -16.4557
  22   2.0000      -0.572816       -15.5871
  23   2.0000      -0.558722       -15.2036
  24   2.0000      -0.517724       -14.0880
  25   2.0000      -0.508031       -13.8242
  26   2.0000      -0.502036       -13.6611
  27   2.0000      -0.487801       -13.2737
  28   2.0000      -0.467202       -12.7132
  29   2.0000      -0.438632       -11.9358
  30   2.0000      -0.434140       -11.8136
  31   2.0000      -0.416598       -11.3362
  32   2.0000      -0.409409       -11.1406
  33   2.0000      -0.391122       -10.6430
  34   2.0000      -0.381814       -10.3897
  35   2.0000      -0.370926       -10.0934
  36   2.0000      -0.367694       -10.0055
  37   2.0000      -0.361626        -9.8403
  38   2.0000      -0.347675        -9.4607
  39   2.0000      -0.336441        -9.1550
  40   2.0000      -0.331375        -9.0172
  41   2.0000      -0.329406        -8.9636
  42   2.0000      -0.313878        -8.5410
  43   2.0000      -0.306453        -8.3390
  44   2.0000      -0.300590        -8.1795
  45   2.0000      -0.290817        -7.9135
  46   2.0000      -0.285544        -7.7701
  47   2.0000      -0.276217        -7.5163
  48   2.0000      -0.269305        -7.3282
  49   2.0000      -0.261576        -7.1179
  50   2.0000      -0.257621        -7.0102
  51   2.0000      -0.217773        -5.9259
  52   0.0000      -0.074126        -2.0171
  53   0.0000      -0.011083        -0.3016
  54   0.0000       0.006142         0.1671
  55   0.0000       0.007187         0.1956
  56   0.0000       0.013861         0.3772

MULLIKEN ATOMIC CHARGES
-----------------------
   0 C :    0.077929
   1 H :    0.049483
   2 C :   -2.091095
   3 C :   -0.154834
   4 H :    0.250517
   5 H :    0.127226
   6 H :    0.051503
   7 C :   -0.383629
   8 H :    0.107853
   9 C :   -0.429130
  10 H :    0.373035
  11 H :    0.158798
  12 H :    0.307686
  13 C :   -0.346307
  14 C :   -0.371239
  15 H :    0.125727
  16 H :    0.167743
  17 H :    0.057561
  18 C :   -0.203304
  19 H :    0.356821
  20 H :    0.088848
  21 H :    0.099540
  22 C :   -0.341287
  23 H :    0.063747
  24 H :    0.256921
  25 C :   -0.397596
  26 C :    0.854149
  27 H :    0.254142
  28 H :    0.144753
  29 H :    0.263417
  30 H :    0.811844
  31 H :    0.568179
  32 O :   -0.628093
  33 F :   -0.270911
Sum of atomic charges:    0.0000000

LOEWDIN ATOMIC CHARGES
----------------------
   0 C :   -0.233973
   1 H :    0.103549
   2 C :   -0.113840
   3 C :   -0.198481
   4 H :    0.090728
   5 H :    0.109779
   6 H :    0.102165
   7 C :   -0.191571
   8 H :    0.110982
   9 C :   -0.208793
  10 H :    0.087217
  11 H :    0.109972
  12 H :    0.092721
  13 C :   -0.199515
  14 C :   -0.199851
  15 H :    0.107633
  16 H :    0.104706
  17 H :    0.113181
  18 C :   -0.198408
  19 H :    0.093699
  20 H :    0.119268
  21 H :    0.093296
  22 C :   -0.184687
  23 H :    0.112334
  24 H :    0.108698
  25 C :   -0.087903
  26 C :   -0.450815
  27 H :    0.119580
  28 H :    0.120148
  29 H :    0.067030
  30 H :    0.000132
  31 H :    0.033651
  32 O :    0.063418
  33 F :    0.203947

  Mayer bond orders larger than 0.100000
B(  0-C ,  1-H ) :   0.8727 B(  0-C ,  2-C ) :   0.2937 B(  0-C ,  3-C ) :   0.9605
B(  0-C ,  4-H ) :   1.0084 B(  0-C ,  9-C ) :   0.1200 B(  2-C ,  3-C ) :   0.2381
B(  2-C , 29-H ) :   0.7489 B(  2-C , 30-H ) :   0.6975 B(  2-C , 31-H ) :   0.7641
B(  2-C , 32-O ) :   0.2066 B(  3-C ,  5-H ) :   0.8567 B(  3-C ,  6-H ) :   0.9022
B(  3-C ,  7-C ) :   1.1558 B(  3-C ,  9-C ) :   0.2379 B(  7-C ,  8-H ) :   0.8024
B(  7-C ,  9-C ) :   0.5965 B(  7-C , 10-H ) :   1.0267 B(  7-C , 13-C ) :   0.2426
B(  7-C , 14-C ) :   0.1470 B(  9-C , 11-H ) :   0.8813 B(  9-C , 12-H ) :   0.8677
B(  9-C , 13-C ) :   1.1877 B(  9-C , 18-C ) :   0.1742 B( 10-H , 13-C ) :  -0.1023
B( 13-C , 14-C ) :   1.0814 B( 13-C , 15-H ) :   0.9103 B( 13-C , 16-H ) :   0.8739
B( 13-C , 18-C ) :   0.1449 B( 14-C , 17-H ) :   0.9196 B( 14-C , 18-C ) :   0.6786
B( 14-C , 19-H ) :   0.8349 B( 14-C , 22-C ) :   0.1329 B( 14-C , 25-C ) :   0.1863
B( 18-C , 20-H ) :   0.7791 B( 18-C , 21-H ) :   1.2151 B( 18-C , 22-C ) :   1.0047
B( 18-C , 26-C ) :   0.1621 B( 20-H , 21-H ) :   0.1369 B( 21-H , 22-C ) :   0.2240
B( 22-C , 23-H ) :   0.9106 B( 22-C , 24-H ) :   0.8473 B( 22-C , 25-C ) :   0.8910
B( 22-C , 26-C ) :   0.1179 B( 25-C , 26-C ) :   1.1390 B( 25-C , 27-H ) :   0.8922
B( 25-C , 28-H ) :   0.8947 B( 26-C , 32-O ) :   1.4991 B( 26-C , 33-F ) :   0.6817
B( 29-H , 30-H ) :   0.1457 B( 29-H , 31-H ) :   0.1129 B( 30-H , 32-O ) :  -0.3231
B( 32-O , 33-F ) :   0.1358

Dispersion correction           -0.046961951
FINAL SINGLE POINT ENERGY      -607.193300833412

DIPOLE MOMENT
-------------
                                X             Y             Z
Electronic contribution:     -8.91549       3.05432       9.45534
Nuclear contribution   :      8.07181      -4.09641      -9.21610
                        -----------------------------------------
Total Dipole Moment    :     -0.84369      -1.04209       0.23924
                        -----------------------------------------
Magnitude (a.u.)       :      1.36199
Magnitude (Debye)      :      3.46189

Rotational constants in cm-1:     0.028400     0.023377     0.015073
Rotational constants in MHz :   851.414727   700.831775   451.871218

                             ****ORCA TERMINATED NORMALLY****
TOTAL RUN TIME: 0 days 0 hours 2 minutes 19 seconds 625 msec
