                         Program Version 5.0.0 -  RELEASE  -
|  1> !wB97X-D3 RIJCOSX def2-SVPD def2/J TightSCF CPCM(Water)
|  2> *xyz -1 1
|  3> C          0.96805        1.63064       -3.71575
|  4> C         -0.50835        1.72268       -4.12430
|  5> S         -1.32861        0.14674       -4.43578
|  6> H         -0.59151        2.29496       -5.04722
|  7> H         -1.11411        2.23561       -3.37436
|  8> O         -2.57135        0.47573       -5.06834
|  9> O         -1.51496       -0.40051       -3.06342
| 10> O         -0.37793       -0.62756       -5.20114
| 11> H          1.51840        1.12197       -4.47946
| 12> H          1.05062        1.08971       -2.79625
| 13> H          1.36450        2.61606       -3.58668
| 14> *
| 15> %MaxCore 64000
| 16>
| 17> %pal nprocs 18
| 18> end
| 19>
| 20> %scf
| 21>   MaxIter 150
| 22> end
| 23>
| 24>
| 25>                          ****END OF INPUT****

CARTESIAN COORDINATES (ANGSTROEM)
---------------------------------
  C      0.968050    1.630640   -3.715750
  C     -0.508350    1.722680   -4.124300
  S     -1.328610    0.146740   -4.435780
  H     -0.591510    2.294960   -5.047220
  H     -1.114110    2.235610   -3.374360
  O     -2.571350    0.475730   -5.068340
  O     -1.514960   -0.400510   -3.063420
  O     -0.377930   -0.627560   -5.201140
  H      1.518400    1.121970   -4.479460
  H      1.050620    1.089710   -2.796250
  H      1.364500    2.616060   -3.586680

 Total Charge           Charge          ....   -1
 Multiplicity           Mult            ....    1
 Number of Electrons    NEL             ....   58
 Basis Dimension        Dim             ....  176

ORBITAL ENERGIES
----------------

  NO   OCC          E(Eh)            E(eV)
   0   2.0000     -89.152249     -2425.9560
   1   2.0000     -19.212222      -522.7911
   2   2.0000     -19.208285      -522.6840
   3   2.0000     -19.195793      -522.3441
   4   2.0000     -10.295961      -280.1673
   5   2.0000     -10.274540      -279.5844
   6   2.0000      -8.226758      -223.8615
   7   2.0000      -6.186567      -168.3450
   8   2.0000      -6.186540      -168.3443
   9   2.0000      -6.184918      -168.3002
  10   2.0000      -1.232406       -33.5355
  11   2.0000      -1.094606       -29.7857
  12   2.0000      -1.065403       -28.9911
  13   2.0000      -0.881858       -23.9966
  14   2.0000      -0.758415       -20.6375
  15   2.0000      -0.652569       -17.7573
  16   2.0000      -0.590217       -16.0606
  17   2.0000      -0.568602       -15.4724
  18   2.0000      -0.555985       -15.1291
  19   2.0000      -0.538269       -14.6470
  20   2.0000      -0.502025       -13.6608
  21   2.0000      -0.466850       -12.7036
  22   2.0000      -0.450102       -12.2479
  23   2.0000      -0.438164       -11.9230
  24   2.0000      -0.436308       -11.8725
  25   2.0000      -0.396563       -10.7910
  26   2.0000      -0.382780       -10.4160
  27   2.0000      -0.366955        -9.9854
  28   2.0000      -0.347697        -9.4613
  29   0.0000       0.080599         2.1932
  30   0.0000       0.101429         2.7600
  31   0.0000       0.102102         2.7783
  32   0.0000       0.103314         2.8113
  33   0.0000       0.143724         3.9109

MULLIKEN ATOMIC CHARGES
-----------------------
   0 C :    0.667834
   1 C :   -0.372995
   2 S :    1.303792
   3 H :    0.004350
   4 H :   -0.000639
   5 O :   -0.798391
   6 O :   -0.872322
   7 O :   -0.821384
   8 H :   -0.038921
   9 H :   -0.040245
  10 H :   -0.031080
Sum of atomic charges:   -1.0000000

LOEWDIN ATOMIC CHARGES
----------------------
   0 C :    0.119342
   1 C :   -0.121379
   2 S :    0.849784
   3 H :    0.012363
   4 H :    0.016894
   5 O :   -0.595124
   6 O :   -0.639334
   7 O :   -0.599701
   8 H :   -0.019844
   9 H :   -0.013141
  10 H :   -0.009859

  Mayer bond orders larger than 0.100000
B(  0-C ,  1-C ) :   1.2802 B(  0-C ,  8-H ) :   0.8395 B(  0-C ,  9-H ) :   0.8337
B(  0-C , 10-H ) :   0.7872 B(  1-C ,  2-S ) :   0.9434 B(  1-C ,  3-H ) :   0.9991
B(  1-C ,  4-H ) :   0.9877 B(  1-C ,  8-H ) :   0.1811 B(  1-C ,  9-H ) :   0.1714
B(  1-C , 10-H ) :   0.1850 B(  2-S ,  5-O ) :   1.3629 B(  2-S ,  6-O ) :   1.2544
B(  2-S ,  7-O ) :   1.3093

Dispersion correction           -0.002915926
FINAL SINGLE POINT ENERGY      -702.795161550952

DIPOLE MOMENT
-------------
                                X             Y             Z
Electronic contribution:     -5.12265      -4.55169      -1.87029
Nuclear contribution   :      6.64523       6.80157       2.07300
                        -----------------------------------------
Total Dipole Moment    :      1.52258       2.24988       0.20271
                        -----------------------------------------
Magnitude (a.u.)       :      2.72421
Magnitude (Debye)      :      6.92438

Rotational constants in cm-1:     0.163070     0.082807     0.081541
Rotational constants in MHz :  4888.719902  2482.497026  2444.541148

                             ****ORCA TERMINATED NORMALLY****
TOTAL RUN TIME: 0 days 0 hours 0 minutes 10 seconds 337 msec
