                         Program Version 5.0.0 -  RELEASE  -
|  1> !wB97X-D3 RIJCOSX def2-SVPD def2/J TightSCF CPCM(Water)
|  2> *xyz 1 1
|  3> C          1.36401        0.46874       -2.81376
|  4> N          0.42884        0.32140       -1.65531
|  5> C          0.96805        1.63064       -3.71575
|  6> H          0.74858       -0.40054       -1.00134
|  7> H         -0.46105        0.02333       -2.07773
|  8> H          0.31026        1.20137       -1.13495
|  9> H          1.29485       -0.46874       -3.36468
| 10> H          2.37622        0.59740       -2.43149
| 11> H          1.65923        1.70213       -4.52942
| 12> H          0.98421        2.54058       -3.15304
| 13> H         -0.01744        1.46536       -4.09838
| 14> *
| 15> %MaxCore 64000
| 16>
| 17> %pal nprocs 18
| 18> end
| 19>
| 20> %scf
| 21>   MaxIter 150
| 22> end
| 23>
| 24>
| 25>                          ****END OF INPUT****

CARTESIAN COORDINATES (ANGSTROEM)
---------------------------------
  C      1.364010    0.468740   -2.813760
  N      0.428840    0.321400   -1.655310
  C      0.968050    1.630640   -3.715750
  H      0.748580   -0.400540   -1.001340
  H     -0.461050    0.023330   -2.077730
  H      0.310260    1.201370   -1.134950
  H      1.294850   -0.468740   -3.364680
  H      2.376220    0.597400   -2.431490
  H      1.659230    1.702130   -4.529420
  H      0.984210    2.540580   -3.153040
  H     -0.017440    1.465360   -4.098380

 Total Charge           Charge          ....    1
 Multiplicity           Mult            ....    1
 Number of Electrons    NEL             ....   26
 Basis Dimension        Dim             ....  124

ORBITAL ENERGIES
----------------

  NO   OCC          E(Eh)            E(eV)
   0   2.0000     -14.556104      -396.0917
   1   2.0000     -10.352188      -281.6974
   2   2.0000     -10.289723      -279.9976
   3   2.0000      -1.107824       -30.1454
   4   2.0000      -0.885389       -24.0927
   5   2.0000      -0.757484       -20.6122
   6   2.0000      -0.690951       -18.8017
   7   2.0000      -0.676505       -18.4086
   8   2.0000      -0.595382       -16.2012
   9   2.0000      -0.555265       -15.1095
  10   2.0000      -0.501689       -13.6517
  11   2.0000      -0.480888       -13.0856
  12   2.0000      -0.465059       -12.6549
  13   0.0000       0.085193         2.3182
  14   0.0000       0.119390         3.2488
  15   0.0000       0.127931         3.4812
  16   0.0000       0.148581         4.0431
  17   0.0000       0.165754         4.5104

MULLIKEN ATOMIC CHARGES
-----------------------
   0 C :    0.094138
   1 N :   -0.908806
   2 C :    0.438062
   3 H :    0.401382
   4 H :    0.491808
   5 H :    0.456447
   6 H :   -0.010088
   7 H :   -0.053791
   8 H :    0.025996
   9 H :    0.026290
  10 H :    0.038562
Sum of atomic charges:    1.0000000

LOEWDIN ATOMIC CHARGES
----------------------
   0 C :    0.054390
   1 N :    0.352178
   2 C :    0.150534
   3 H :    0.115748
   4 H :    0.115310
   5 H :    0.118608
   6 H :    0.050643
   7 H :    0.048460
   8 H :    0.001292
   9 H :   -0.003802
  10 H :   -0.003359

  Mayer bond orders larger than 0.100000
B(  0-C ,  1-N ) :   0.7612 B(  0-C ,  2-C ) :   1.2938 B(  0-C ,  6-H ) :   0.9461
B(  0-C ,  7-H ) :   1.0002 B(  0-C ,  8-H ) :   0.1734 B(  0-C ,  9-H ) :   0.1306
B(  0-C , 10-H ) :   0.1352 B(  1-N ,  3-H ) :   0.7318 B(  1-N ,  4-H ) :   0.6133
B(  1-N ,  5-H ) :   0.6639 B(  1-N ,  6-H ) :   0.1130 B(  2-C ,  8-H ) :   0.8294
B(  2-C ,  9-H ) :   0.8669 B(  2-C , 10-H ) :   0.8573

Dispersion correction           -0.001498295
FINAL SINGLE POINT ENERGY      -135.521169995879

DIPOLE MOMENT
-------------
                                X             Y             Z
Electronic contribution:     -0.51012      -1.11276       1.91302
Nuclear contribution   :     -0.20470       0.31427      -0.31587
                        -----------------------------------------
Total Dipole Moment    :     -0.71481      -0.79850       1.59716
                        -----------------------------------------
Magnitude (a.u.)       :      1.92340
Magnitude (Debye)      :      4.88889

Rotational constants in cm-1:     1.011480     0.279280     0.248378
Rotational constants in MHz : 30323.408050  8372.602834  7446.185305

                             ****ORCA TERMINATED NORMALLY****
TOTAL RUN TIME: 0 days 0 hours 0 minutes 6 seconds 232 msec
