                         Program Version 5.0.0 -  RELEASE  -
|  1> !wB97X-D3 RIJCOSX def2-SVPD def2/J TightSCF CPCM(Water) xyzfile
|  2>
|  3> *xyzfile 0 1 B.xyz
|  4>
|  5> %MaxCore 64000
|  6>
|  7> %pal nprocs 18
|  8> end
|  9>
| 10> %scf
| 11>   MaxIter 150
| 12> end
| 13>
| 14>
| 15>                          ****END OF INPUT****

CARTESIAN COORDINATES (ANGSTROEM)
---------------------------------
  C      1.364014    0.468742   -2.813764
  N      0.428844    0.321402   -1.655312
  C      0.968045    1.630639   -3.715749
  C     -0.508347    1.722679   -4.124300
  S     -1.328608    0.146737   -4.435781
  H     -0.591511    2.294958   -5.047219
  H     -1.114114    2.235610   -3.374362
  H      0.748578   -0.400542   -1.001345
  H     -0.461053    0.023332   -2.077731
  H      0.310258    1.201375   -1.134948
  O     -2.571347    0.475733   -5.068341
  O     -1.514963   -0.400512   -3.063420
  H      1.294847   -0.468742   -3.364684
  H      2.376216    0.597400   -2.431495
  H      1.578688    1.520652   -4.612733
  H      1.266653    2.575988   -3.250448
  O     -0.377928   -0.627558   -5.201141

 Total Charge           Charge          ....    0
 Multiplicity           Mult            ....    1
 Number of Electrons    NEL             ....   74
 Basis Dimension        Dim             ....  248

ORBITAL ENERGIES
----------------

  NO   OCC          E(Eh)            E(eV)
   0   2.0000     -89.172248     -2426.5002
   1   2.0000     -19.225140      -523.1427
   2   2.0000     -19.222890      -523.0814
   3   2.0000     -19.221196      -523.0353
   4   2.0000     -14.518452      -395.0672
   5   2.0000     -10.343554      -281.4624
   6   2.0000     -10.311455      -280.5890
   7   2.0000     -10.308242      -280.5015
   8   2.0000      -8.246137      -224.3888
   9   2.0000      -6.206299      -168.8820
  10   2.0000      -6.205638      -168.8640
  11   2.0000      -6.204354      -168.8290
  12   2.0000      -1.251190       -34.0466
  13   2.0000      -1.109842       -30.2003
  14   2.0000      -1.102721       -30.0066
  15   2.0000      -1.078273       -29.3413
  16   2.0000      -0.915849       -24.9215
  17   2.0000      -0.830063       -22.5872
  18   2.0000      -0.742265       -20.1980
  19   2.0000      -0.698194       -18.9988
  20   2.0000      -0.664733       -18.0883
  21   2.0000      -0.652401       -17.7527
  22   2.0000      -0.609697       -16.5907
  23   2.0000      -0.589805       -16.0494
  24   2.0000      -0.573659       -15.6101
  25   2.0000      -0.563584       -15.3359
  26   2.0000      -0.553673       -15.0662
  27   2.0000      -0.527897       -14.3648
  28   2.0000      -0.476442       -12.9646
  29   2.0000      -0.474828       -12.9207
  30   2.0000      -0.461589       -12.5605
  31   2.0000      -0.455380       -12.3915
  32   2.0000      -0.447824       -12.1859
  33   2.0000      -0.408856       -11.1255
  34   2.0000      -0.402123       -10.9423
  35   2.0000      -0.383939       -10.4475
  36   2.0000      -0.368031       -10.0146
  37   0.0000       0.077659         2.1132
  38   0.0000       0.093011         2.5310
  39   0.0000       0.096210         2.6180
  40   0.0000       0.098860         2.6901
  41   0.0000       0.128203         3.4886

MULLIKEN ATOMIC CHARGES
-----------------------
   0 C :    0.529402
   1 N :   -0.417771
   2 C :    0.103385
   3 C :    0.087705
   4 S :    1.359979
   5 H :   -0.141156
   6 H :    0.189379
   7 H :    0.367567
   8 H :   -0.022085
   9 H :    0.483496
  10 O :   -0.828810
  11 O :   -0.905930
  12 H :    0.084375
  13 H :   -0.193271
  14 H :    0.124215
  15 H :   -0.008839
  16 O :   -0.811641
Sum of atomic charges:    0.0000000

LOEWDIN ATOMIC CHARGES
----------------------
   0 C :    0.104889
   1 N :    0.351840
   2 C :   -0.005465
   3 C :   -0.049370
   4 S :    0.925504
   5 H :    0.022372
   6 H :    0.029002
   7 H :    0.115103
   8 H :   -0.108941
   9 H :    0.119316
  10 O :   -0.562363
  11 O :   -0.536072
  12 H :    0.028851
  13 H :    0.049138
  14 H :    0.039771
  15 H :    0.041120
  16 O :   -0.564695

  Mayer bond orders larger than 0.100000
B(  0-C ,  1-N ) :   0.8372 B(  0-C ,  2-C ) :   1.2080 B(  0-C , 12-H ) :   0.8223
B(  0-C , 13-H ) :   0.9593 B(  0-C , 14-H ) :   0.1473 B(  0-C , 15-H ) :   0.1316
B(  1-N ,  7-H ) :   0.7633 B(  1-N ,  8-H ) :   1.2436 B(  1-N ,  9-H ) :   0.6824
B(  1-N , 12-H ) :   0.1255 B(  2-C ,  3-C ) :   1.2811 B(  2-C ,  5-H ) :   0.1558
B(  2-C ,  6-H ) :   0.1030 B(  2-C , 12-H ) :   0.1071 B(  2-C , 14-H ) :   0.8143
B(  2-C , 15-H ) :   0.8458 B(  3-C ,  4-S ) :   0.9190 B(  3-C ,  5-H ) :   0.9165
B(  3-C ,  6-H ) :   0.8749 B(  3-C , 11-O ) :   0.1209 B(  3-C , 14-H ) :   0.1222
B(  4-S , 10-O ) :   1.4304 B(  4-S , 11-O ) :   1.1221 B(  4-S , 16-O ) :   1.3165
B(  8-H , 11-O ) :   0.1982

Dispersion correction           -0.006686850
FINAL SINGLE POINT ENERGY      -797.850009338972

DIPOLE MOMENT
-------------
                                X             Y             Z
Electronic contribution:     -6.06620      -3.54006      -3.26999
Nuclear contribution   :      9.95459       5.57517       7.68169
                        -----------------------------------------
Total Dipole Moment    :      3.88839       2.03512       4.41170
                        -----------------------------------------
Magnitude (a.u.)       :      6.22289
Magnitude (Debye)      :     15.81734

Rotational constants in cm-1:     0.102119     0.045768     0.041299
Rotational constants in MHz :  3061.441288  1372.093000  1238.124534

                             ****ORCA TERMINATED NORMALLY****
TOTAL RUN TIME: 0 days 0 hours 0 minutes 20 seconds 336 msec
