                         Program Version 5.0.0 -  RELEASE  -
|  1> !wB97X-D3 RIJCOSX def2-SVPD def2/J TightSCF CPCM(Water)
|  2> *xyz 0 1
|  3> C          0.96805        1.63064       -3.71575
|  4> C         -0.50835        1.72268       -4.12430
|  5> S         -1.32861        0.14674       -4.43578
|  6> H         -0.59151        2.29496       -5.04722
|  7> H         -1.11411        2.23561       -3.37436
|  8> F         -2.57135        0.47573       -5.06834
|  9> O         -1.51496       -0.40051       -3.06342
| 10> O         -0.37793       -0.62756       -5.20114
| 11> H          1.51840        1.12197       -4.47946
| 12> H          1.05062        1.08971       -2.79625
| 13> H          1.36450        2.61606       -3.58668
| 14> *
| 15> %MaxCore 64000
| 16>
| 17> %pal nprocs 18
| 18> end
| 19>
| 20> %scf
| 21>   MaxIter 150
| 22> end
| 23>
| 24>
| 25>                          ****END OF INPUT****

CARTESIAN COORDINATES (ANGSTROEM)
---------------------------------
  C      0.968050    1.630640   -3.715750
  C     -0.508350    1.722680   -4.124300
  S     -1.328610    0.146740   -4.435780
  H     -0.591510    2.294960   -5.047220
  H     -1.114110    2.235610   -3.374360
  F     -2.571350    0.475730   -5.068340
  O     -1.514960   -0.400510   -3.063420
  O     -0.377930   -0.627560   -5.201140
  H      1.518400    1.121970   -4.479460
  H      1.050620    1.089710   -2.796250
  H      1.364500    2.616060   -3.586680

 Total Charge           Charge          ....    0
 Multiplicity           Mult            ....    1
 Number of Electrons    NEL             ....   58
 Basis Dimension        Dim             ....  176

ORBITAL ENERGIES
----------------

  NO   OCC          E(Eh)            E(eV)
   0   2.0000     -89.240916     -2428.3688
   1   2.0000     -24.923267      -678.1966
   2   2.0000     -19.269562      -524.3514
   3   2.0000     -19.255986      -523.9820
   4   2.0000     -10.337114      -281.2872
   5   2.0000     -10.293496      -280.1003
   6   2.0000      -8.315437      -226.2745
   7   2.0000      -6.279063      -170.8620
   8   2.0000      -6.273077      -170.6991
   9   2.0000      -6.270969      -170.6417
  10   2.0000      -1.499559       -40.8051
  11   2.0000      -1.231946       -33.5230
  12   2.0000      -1.126383       -30.6504
  13   2.0000      -0.920710       -25.0538
  14   2.0000      -0.845663       -23.0117
  15   2.0000      -0.776979       -21.1427
  16   2.0000      -0.699425       -19.0323
  17   2.0000      -0.690929       -18.8011
  18   2.0000      -0.665702       -18.1147
  19   2.0000      -0.588486       -16.0135
  20   2.0000      -0.583663       -15.8823
  21   2.0000      -0.553187       -15.0530
  22   2.0000      -0.523491       -14.2449
  23   2.0000      -0.495416       -13.4809
  24   2.0000      -0.486775       -13.2458
  25   2.0000      -0.470027       -12.7901
  26   2.0000      -0.440527       -11.9874
  27   2.0000      -0.420336       -11.4379
  28   2.0000      -0.413846       -11.2613
  29   0.0000       0.067904         1.8478
  30   0.0000       0.097660         2.6575
  31   0.0000       0.098355         2.6764
  32   0.0000       0.099948         2.7197
  33   0.0000       0.122338         3.3290

MULLIKEN ATOMIC CHARGES
-----------------------
   0 C :    0.617142
   1 C :   -0.470376
   2 S :    1.559686
   3 H :    0.088524
   4 H :    0.077605
   5 F :   -0.393674
   6 O :   -0.756059
   7 O :   -0.703826
   8 H :   -0.006957
   9 H :   -0.014334
  10 H :    0.002269
Sum of atomic charges:    0.0000000

LOEWDIN ATOMIC CHARGES
----------------------
   0 C :    0.147329
   1 C :   -0.080880
   2 S :    1.137695
   3 H :    0.029594
   4 H :    0.033543
   5 F :   -0.232943
   6 O :   -0.531932
   7 O :   -0.496792
   8 H :   -0.008455
   9 H :   -0.002229
  10 H :    0.005070

  Mayer bond orders larger than 0.100000
B(  0-C ,  1-C ) :   1.3173 B(  0-C ,  8-H ) :   0.8441 B(  0-C ,  9-H ) :   0.8426
B(  0-C , 10-H ) :   0.8000 B(  1-C ,  2-S ) :   0.9789 B(  1-C ,  3-H ) :   0.9802
B(  1-C ,  4-H ) :   0.9802 B(  1-C ,  8-H ) :   0.1744 B(  1-C ,  9-H ) :   0.1646
B(  1-C , 10-H ) :   0.1758 B(  2-S ,  5-F ) :   0.7117 B(  2-S ,  6-O ) :   1.4370
B(  2-S ,  7-O ) :   1.4932

Dispersion correction           -0.002913711
FINAL SINGLE POINT ENERGY      -727.184882267273

DIPOLE MOMENT
-------------
                                X             Y             Z
Electronic contribution:     -8.38262      -4.57727      -3.39126
Nuclear contribution   :      8.31000       6.74109       2.87442
                        -----------------------------------------
Total Dipole Moment    :     -0.07262       2.16382      -0.51684
                        -----------------------------------------
Magnitude (a.u.)       :      2.22587
Magnitude (Debye)      :      5.65772

Rotational constants in cm-1:     0.158705     0.080192     0.078179
Rotational constants in MHz :  4757.865601  2404.095079  2343.752507

                             ****ORCA TERMINATED NORMALLY****
TOTAL RUN TIME: 0 days 0 hours 0 minutes 11 seconds 622 msec
