                         Program Version 5.0.0 -  RELEASE  -
|  1> !wB97X-D3 RIJCOSX def2-SVPD def2/J TightSCF CPCM(Water)
|  2> *xyz 0 1
|  3> C          1.36401        0.46874       -2.81376
|  4> C          0.42884        0.32140       -1.65531
|  5> C          0.96805        1.63064       -3.71575
|  6> H          0.74858       -0.40054       -1.00134
|  7> H         -0.46105        0.02333       -2.07773
|  8> H          0.31026        1.20137       -1.13495
|  9> H          1.29485       -0.46874       -3.36468
| 10> H          2.37622        0.59740       -2.43149
| 11> H          1.65923        1.70213       -4.52942
| 12> H          0.98421        2.54058       -3.15304
| 13> H         -0.01744        1.46536       -4.09838
| 14> *
| 15> %MaxCore 64000
| 16>
| 17> %pal nprocs 18
| 18> end
| 19>
| 20> %scf
| 21>   MaxIter 150
| 22> end
| 23>
| 24>
| 25>                          ****END OF INPUT****

CARTESIAN COORDINATES (ANGSTROEM)
---------------------------------
  C      1.364010    0.468740   -2.813760
  C      0.428840    0.321400   -1.655310
  C      0.968050    1.630640   -3.715750
  H      0.748580   -0.400540   -1.001340
  H     -0.461050    0.023330   -2.077730
  H      0.310260    1.201370   -1.134950
  H      1.294850   -0.468740   -3.364680
  H      2.376220    0.597400   -2.431490
  H      1.659230    1.702130   -4.529420
  H      0.984210    2.540580   -3.153040
  H     -0.017440    1.465360   -4.098380

 Total Charge           Charge          ....    0
 Multiplicity           Mult            ....    1
 Number of Electrons    NEL             ....   26
 Basis Dimension        Dim             ....  124

ORBITAL ENERGIES
----------------

  NO   OCC          E(Eh)            E(eV)
   0   2.0000     -10.272287      -279.5232
   1   2.0000     -10.263680      -279.2889
   2   2.0000     -10.246194      -278.8131
   3   2.0000      -0.898194       -24.4411
   4   2.0000      -0.793507       -21.5924
   5   2.0000      -0.684609       -18.6292
   6   2.0000      -0.569049       -15.4846
   7   2.0000      -0.542014       -14.7489
   8   2.0000      -0.496636       -13.5142
   9   2.0000      -0.483497       -13.1566
  10   2.0000      -0.427341       -11.6285
  11   2.0000      -0.422380       -11.4935
  12   2.0000      -0.417874       -11.3709
  13   0.0000       0.102254         2.7825
  14   0.0000       0.127177         3.4607
  15   0.0000       0.135040         3.6746
  16   0.0000       0.167944         4.5700
  17   0.0000       0.184725         5.0266

MULLIKEN ATOMIC CHARGES
-----------------------
   0 C :   -0.666710
   1 C :    0.843249
   2 C :    0.543675
   3 H :   -0.180056
   4 H :   -0.107401
   5 H :   -0.167857
   6 H :   -0.043670
   7 H :   -0.116034
   8 H :   -0.061822
   9 H :   -0.017047
  10 H :   -0.026329
Sum of atomic charges:   -0.0000000

LOEWDIN ATOMIC CHARGES
----------------------
   0 C :   -0.123114
   1 C :    0.111410
   2 C :    0.109619
   3 H :   -0.032895
   4 H :   -0.028374
   5 H :   -0.028052
   6 H :    0.022099
   7 H :    0.019249
   8 H :   -0.020387
   9 H :   -0.015309
  10 H :   -0.014247

  Mayer bond orders larger than 0.100000
B(  0-C ,  1-C ) :   1.2556 B(  0-C ,  2-C ) :   1.2407 B(  0-C ,  3-H ) :   0.1839
B(  0-C ,  4-H ) :   0.2503 B(  0-C ,  5-H ) :   0.1845 B(  0-C ,  6-H ) :   0.9474
B(  0-C ,  7-H ) :   1.0063 B(  0-C ,  8-H ) :   0.1656 B(  0-C ,  9-H ) :   0.1517
B(  0-C , 10-H ) :   0.1749 B(  1-C ,  3-H ) :   0.7780 B(  1-C ,  4-H ) :   0.7439
B(  1-C ,  5-H ) :   0.7854 B(  1-C ,  6-H ) :   0.1075 B(  2-C ,  8-H ) :   0.8553
B(  2-C ,  9-H ) :   0.8516 B(  2-C , 10-H ) :   0.8485

Dispersion correction           -0.001445409
FINAL SINGLE POINT ENERGY      -119.014268836746

DIPOLE MOMENT
-------------
                                X             Y             Z
Electronic contribution:      0.36070      -0.19192      -0.01419
Nuclear contribution   :     -0.35842       0.15752       0.02695
                        -----------------------------------------
Total Dipole Moment    :      0.00228      -0.03440       0.01276
                        -----------------------------------------
Magnitude (a.u.)       :      0.03676
Magnitude (Debye)      :      0.09343

Rotational constants in cm-1:     1.019891     0.293671     0.260247
Rotational constants in MHz : 30575.551403  8804.039097  7802.009261

                             ****ORCA TERMINATED NORMALLY****
TOTAL RUN TIME: 0 days 0 hours 0 minutes 6 seconds 135 msec
