                         Program Version 5.0.0 -  RELEASE  -
|  1> !wB97X-D3 RIJCOSX def2-SVPD def2/J TightSCF CPCM(Water)
|  2> *xyz 0 1
|  3> C          0.96805        1.63064       -3.71575
|  4> C         -0.50835        1.72268       -4.12430
|  5> S         -1.32861        0.14674       -4.43578
|  6> H         -0.59151        2.29496       -5.04722
|  7> H         -1.11411        2.23561       -3.37436
|  8> O         -2.57135        0.47573       -5.06834
|  9> F         -1.51496       -0.40051       -3.06342
| 10> O         -0.37793       -0.62756       -5.20114
| 11> H          1.51840        1.12197       -4.47946
| 12> H          1.05062        1.08971       -2.79625
| 13> H          1.36450        2.61606       -3.58668
| 14> *
| 15> %MaxCore 64000
| 16>
| 17> %pal nprocs 18
| 18> end
| 19>
| 20> %scf
| 21>   MaxIter 150
| 22> end
| 23>
| 24>
| 25>                          ****END OF INPUT****

CARTESIAN COORDINATES (ANGSTROEM)
---------------------------------
  C      0.968050    1.630640   -3.715750
  C     -0.508350    1.722680   -4.124300
  S     -1.328610    0.146740   -4.435780
  H     -0.591510    2.294960   -5.047220
  H     -1.114110    2.235610   -3.374360
  O     -2.571350    0.475730   -5.068340
  F     -1.514960   -0.400510   -3.063420
  O     -0.377930   -0.627560   -5.201140
  H      1.518400    1.121970   -4.479460
  H      1.050620    1.089710   -2.796250
  H      1.364500    2.616060   -3.586680

 Total Charge           Charge          ....    0
 Multiplicity           Mult            ....    1
 Number of Electrons    NEL             ....   58
 Basis Dimension        Dim             ....  176

ORBITAL ENERGIES
----------------

  NO   OCC          E(Eh)            E(eV)
   0   2.0000     -89.237131     -2428.2658
   1   2.0000     -24.896756      -677.4752
   2   2.0000     -19.272557      -524.4329
   3   2.0000     -19.268880      -524.3329
   4   2.0000     -10.336052      -281.2583
   5   2.0000     -10.290604      -280.0216
   6   2.0000      -8.311633      -226.1710
   7   2.0000      -6.275114      -170.7545
   8   2.0000      -6.269483      -170.6013
   9   2.0000      -6.267338      -170.5429
  10   2.0000      -1.454066       -39.5672
  11   2.0000      -1.245702       -33.8973
  12   2.0000      -1.151249       -31.3271
  13   2.0000      -0.920356       -25.0442
  14   2.0000      -0.825654       -22.4672
  15   2.0000      -0.769649       -20.9432
  16   2.0000      -0.677966       -18.4484
  17   2.0000      -0.668750       -18.1976
  18   2.0000      -0.659025       -17.9330
  19   2.0000      -0.591184       -16.0869
  20   2.0000      -0.570100       -15.5132
  21   2.0000      -0.567224       -15.4349
  22   2.0000      -0.525742       -14.3062
  23   2.0000      -0.509363       -13.8605
  24   2.0000      -0.486990       -13.2517
  25   2.0000      -0.465279       -12.6609
  26   2.0000      -0.449728       -12.2377
  27   2.0000      -0.431689       -11.7468
  28   2.0000      -0.428484       -11.6596
  29   0.0000       0.068287         1.8582
  30   0.0000       0.097516         2.6535
  31   0.0000       0.098155         2.6709
  32   0.0000       0.100822         2.7435
  33   0.0000       0.126049         3.4300

MULLIKEN ATOMIC CHARGES
-----------------------
   0 C :    0.631146
   1 C :   -0.470031
   2 S :    1.532566
   3 H :    0.082690
   4 H :    0.071809
   5 O :   -0.690739
   6 F :   -0.420728
   7 O :   -0.718522
   8 H :   -0.006728
   9 H :   -0.011162
  10 H :   -0.000300
Sum of atomic charges:   -0.0000000

LOEWDIN ATOMIC CHARGES
----------------------
   0 C :    0.137712
   1 C :   -0.074350
   2 S :    1.127947
   3 H :    0.037221
   4 H :    0.034063
   5 O :   -0.489782
   6 F :   -0.266745
   7 O :   -0.495033
   8 H :   -0.010584
   9 H :   -0.002326
  10 H :    0.001878

  Mayer bond orders larger than 0.100000
B(  0-C ,  1-C ) :   1.2999 B(  0-C ,  8-H ) :   0.8476 B(  0-C ,  9-H ) :   0.8354
B(  0-C , 10-H ) :   0.7912 B(  1-C ,  2-S ) :   0.9987 B(  1-C ,  3-H ) :   0.9944
B(  1-C ,  4-H ) :   0.9830 B(  1-C ,  8-H ) :   0.1778 B(  1-C ,  9-H ) :   0.1693
B(  1-C , 10-H ) :   0.1776 B(  2-S ,  5-O ) :   1.5375 B(  2-S ,  6-F ) :   0.6356
B(  2-S ,  7-O ) :   1.5000

Dispersion correction           -0.002883582
FINAL SINGLE POINT ENERGY      -727.207190360271

DIPOLE MOMENT
-------------
                                X             Y             Z
Electronic contribution:     -6.39046      -6.28298       0.48910
Nuclear contribution   :      7.20921       7.65416       0.78523
                        -----------------------------------------
Total Dipole Moment    :      0.81875       1.37118       1.27434
                        -----------------------------------------
Magnitude (a.u.)       :      2.04314
Magnitude (Debye)      :      5.19325

Rotational constants in cm-1:     0.153780     0.081282     0.079816
Rotational constants in MHz :  4610.199589  2436.778679  2392.820729

                             ****ORCA TERMINATED NORMALLY****
TOTAL RUN TIME: 0 days 0 hours 0 minutes 12 seconds 20 msec
