                         Program Version 5.0.0 -  RELEASE  -
|  1> !wB97X-D3 RIJCOSX def2-SVPD def2/J TightSCF CPCM(Water)
|  2> *xyz 0 1
|  3> C          0.96805        1.63064       -3.71575
|  4> C         -0.50835        1.72268       -4.12430
|  5> S         -1.32861        0.14674       -4.43578
|  6> H         -0.59151        2.29496       -5.04722
|  7> H         -1.11411        2.23561       -3.37436
|  8> O         -2.57135        0.47573       -5.06834
|  9> O         -1.51496       -0.40051       -3.06342
| 10> F         -0.37793       -0.62756       -5.20114
| 11> H          1.51840        1.12197       -4.47946
| 12> H          1.05062        1.08971       -2.79625
| 13> H          1.36450        2.61606       -3.58668
| 14> *
| 15> %MaxCore 64000
| 16>
| 17> %pal nprocs 18
| 18> end
| 19>
| 20> %scf
| 21>   MaxIter 150
| 22> end
| 23>
| 24>
| 25>                          ****END OF INPUT****

CARTESIAN COORDINATES (ANGSTROEM)
---------------------------------
  C      0.968050    1.630640   -3.715750
  C     -0.508350    1.722680   -4.124300
  S     -1.328610    0.146740   -4.435780
  H     -0.591510    2.294960   -5.047220
  H     -1.114110    2.235610   -3.374360
  O     -2.571350    0.475730   -5.068340
  O     -1.514960   -0.400510   -3.063420
  F     -0.377930   -0.627560   -5.201140
  H      1.518400    1.121970   -4.479460
  H      1.050620    1.089710   -2.796250
  H      1.364500    2.616060   -3.586680

 Total Charge           Charge          ....    0
 Multiplicity           Mult            ....    1
 Number of Electrons    NEL             ....   58
 Basis Dimension        Dim             ....  176

ORBITAL ENERGIES
----------------

  NO   OCC          E(Eh)            E(eV)
   0   2.0000     -89.240333     -2428.3529
   1   2.0000     -24.917905      -678.0507
   2   2.0000     -19.273500      -524.4586
   3   2.0000     -19.256162      -523.9868
   4   2.0000     -10.337448      -281.2963
   5   2.0000     -10.292163      -280.0640
   6   2.0000      -8.314886      -226.2595
   7   2.0000      -6.278578      -170.8488
   8   2.0000      -6.272557      -170.6850
   9   2.0000      -6.270377      -170.6256
  10   2.0000      -1.489540       -40.5324
  11   2.0000      -1.238053       -33.6891
  12   2.0000      -1.129592       -30.7378
  13   2.0000      -0.922701       -25.1080
  14   2.0000      -0.837860       -22.7993
  15   2.0000      -0.777256       -21.1502
  16   2.0000      -0.698865       -19.0171
  17   2.0000      -0.691676       -18.8215
  18   2.0000      -0.657638       -17.8952
  19   2.0000      -0.587298       -15.9812
  20   2.0000      -0.575067       -15.6484
  21   2.0000      -0.558931       -15.2093
  22   2.0000      -0.531227       -14.4554
  23   2.0000      -0.506112       -13.7720
  24   2.0000      -0.483531       -13.1575
  25   2.0000      -0.469943       -12.7878
  26   2.0000      -0.440498       -11.9866
  27   2.0000      -0.421573       -11.4716
  28   2.0000      -0.417281       -11.3548
  29   0.0000       0.066653         1.8137
  30   0.0000       0.096918         2.6373
  31   0.0000       0.098068         2.6686
  32   0.0000       0.100175         2.7259
  33   0.0000       0.128406         3.4941

MULLIKEN ATOMIC CHARGES
-----------------------
   0 C :    0.608423
   1 C :   -0.453943
   2 S :    1.531566
   3 H :    0.072046
   4 H :    0.075393
   5 O :   -0.678407
   6 O :   -0.757123
   7 F :   -0.398977
   8 H :    0.007336
   9 H :   -0.007256
  10 H :    0.000942
Sum of atomic charges:    0.0000000

LOEWDIN ATOMIC CHARGES
----------------------
   0 C :    0.138105
   1 C :   -0.073989
   2 S :    1.132331
   3 H :    0.029765
   4 H :    0.041946
   5 O :   -0.489014
   6 O :   -0.530853
   7 F :   -0.240209
   8 H :   -0.006061
   9 H :   -0.004525
  10 H :    0.002503

  Mayer bond orders larger than 0.100000
B(  0-C ,  1-C ) :   1.2911 B(  0-C ,  8-H ) :   0.8420 B(  0-C ,  9-H ) :   0.8502
B(  0-C , 10-H ) :   0.7912 B(  1-C ,  2-S ) :   1.0012 B(  1-C ,  3-H ) :   1.0014
B(  1-C ,  4-H ) :   0.9869 B(  1-C ,  8-H ) :   0.1689 B(  1-C ,  9-H ) :   0.1655
B(  1-C , 10-H ) :   0.1818 B(  2-S ,  5-O ) :   1.5403 B(  2-S ,  6-O ) :   1.4500
B(  2-S ,  7-F ) :   0.6895

Dispersion correction           -0.002897389
FINAL SINGLE POINT ENERGY      -727.189684561658

DIPOLE MOMENT
-------------
                                X             Y             Z
Electronic contribution:     -4.20229      -6.68249      -3.64294
Nuclear contribution   :      6.02439       7.89075       3.01280
                        -----------------------------------------
Total Dipole Moment    :      1.82211       1.20826      -0.63013
                        -----------------------------------------
Magnitude (a.u.)       :      2.27531
Magnitude (Debye)      :      5.78338

Rotational constants in cm-1:     0.153652     0.082400     0.079295
Rotational constants in MHz :  4606.361242  2470.285703  2377.214112

                             ****ORCA TERMINATED NORMALLY****
TOTAL RUN TIME: 0 days 0 hours 0 minutes 10 seconds 882 msec
