                         Program Version 5.0.0 -  RELEASE  -
|  1> !wB97X-D3 RIJCOSX def2-SVPD def2/J TightSCF CPCM(Water) xyzfile
|  2>
|  3> *xyzfile 0 1 D3.xyz
|  4>
|  5> %MaxCore 64000
|  6>
|  7> %pal nprocs 18
|  8> end
|  9>
| 10> %scf
| 11>   MaxIter 150
| 12> end
| 13>
| 14>
| 15>                          ****END OF INPUT****

CARTESIAN COORDINATES (ANGSTROEM)
---------------------------------
  C      1.364014    0.468742   -2.813764
  C      0.428844    0.321402   -1.655312
  C      0.968045    1.630639   -3.715749
  C     -0.508347    1.722679   -4.124300
  S     -1.328608    0.146737   -4.435781
  H     -0.591511    2.294958   -5.047219
  H     -1.114114    2.235610   -3.374362
  H      0.748578   -0.400542   -1.001345
  H     -0.461053    0.023332   -2.077731
  H      0.310258    1.201375   -1.134948
  O     -2.571347    0.475733   -5.068341
  O     -1.514963   -0.400512   -3.063420
  H      1.294847   -0.468742   -3.364684
  H      2.376216    0.597400   -2.431495
  H      1.578688    1.520652   -4.612733
  H      1.266653    2.575988   -3.250448
  F     -0.377928   -0.627558   -5.201141

 Total Charge           Charge          ....    0
 Multiplicity           Mult            ....    1
 Number of Electrons    NEL             ....   74
 Basis Dimension        Dim             ....  248

ORBITAL ENERGIES
----------------

  NO   OCC          E(Eh)            E(eV)
   0   2.0000     -89.244336     -2428.4618
   1   2.0000     -24.920021      -678.1083
   2   2.0000     -19.274692      -524.4910
   3   2.0000     -19.256599      -523.9987
   4   2.0000     -10.337619      -281.3009
   5   2.0000     -10.298918      -280.2478
   6   2.0000     -10.277273      -279.6588
   7   2.0000     -10.219332      -278.0822
   8   2.0000      -8.318253      -226.3512
   9   2.0000      -6.281958      -170.9408
  10   2.0000      -6.276134      -170.7823
  11   2.0000      -6.273678      -170.7155
  12   2.0000      -1.491589       -40.5882
  13   2.0000      -1.241555       -33.7844
  14   2.0000      -1.138623       -30.9835
  15   2.0000      -0.938493       -25.5377
  16   2.0000      -0.879588       -23.9348
  17   2.0000      -0.826891       -22.5008
  18   2.0000      -0.781378       -21.2624
  19   2.0000      -0.715733       -19.4761
  20   2.0000      -0.696089       -18.9415
  21   2.0000      -0.688285       -18.7292
  22   2.0000      -0.647060       -17.6074
  23   2.0000      -0.600578       -16.3425
  24   2.0000      -0.589291       -16.0354
  25   2.0000      -0.570013       -15.5108
  26   2.0000      -0.562447       -15.3050
  27   2.0000      -0.521515       -14.1912
  28   2.0000      -0.508773       -13.8444
  29   2.0000      -0.489580       -13.3222
  30   2.0000      -0.486846       -13.2478
  31   2.0000      -0.465723       -12.6730
  32   2.0000      -0.438335       -11.9277
  33   2.0000      -0.432871       -11.7790
  34   2.0000      -0.416695       -11.3388
  35   2.0000      -0.411127       -11.1873
  36   2.0000      -0.367965       -10.0128
  37   0.0000       0.068789         1.8718
  38   0.0000       0.094411         2.5691
  39   0.0000       0.096373         2.6224
  40   0.0000       0.100697         2.7401
  41   0.0000       0.119843         3.2611

MULLIKEN ATOMIC CHARGES
-----------------------
   0 C :   -0.393358
   1 C :    1.966945
   2 C :    0.181051
   3 C :   -0.048360
   4 S :    1.592890
   5 H :   -0.107498
   6 H :    0.299695
   7 H :   -0.088974
   8 H :   -1.188282
   9 H :   -0.119239
  10 O :   -0.729437
  11 O :   -0.866075
  12 H :    0.073335
  13 H :   -0.274315
  14 H :    0.061127
  15 H :    0.046603
  16 F :   -0.406108
Sum of atomic charges:   -0.0000000

LOEWDIN ATOMIC CHARGES
----------------------
   0 C :   -0.053880
   1 C :    0.127936
   2 C :   -0.024524
   3 C :   -0.009006
   4 S :    1.180173
   5 H :    0.030775
   6 H :    0.048782
   7 H :   -0.024951
   8 H :   -0.184112
   9 H :   -0.018252
  10 O :   -0.478109
  11 O :   -0.478350
  12 H :    0.016382
  13 H :    0.026655
  14 H :    0.029198
  15 H :    0.042697
  16 F :   -0.231413

  Mayer bond orders larger than 0.100000
B(  0-C ,  1-C ) :   0.9749 B(  0-C ,  2-C ) :   1.1918 B(  0-C ,  7-H ) :   0.2207
B(  0-C ,  8-H ) :   0.5355 B(  0-C ,  9-H ) :   0.2732 B(  0-C , 12-H ) :   0.8323
B(  0-C , 13-H ) :   1.0091 B(  0-C , 14-H ) :   0.1348 B(  0-C , 15-H ) :   0.1545
B(  1-C ,  7-H ) :   0.4913 B(  1-C ,  8-H ) :  -0.5994 B(  1-C ,  9-H ) :   0.2644
B(  1-C , 11-O ) :  -0.1716 B(  1-C , 12-H ) :   0.1272 B(  2-C ,  3-C ) :   1.2955
B(  2-C ,  5-H ) :   0.1822 B(  2-C , 12-H ) :   0.1306 B(  2-C , 14-H ) :   0.8511
B(  2-C , 15-H ) :   0.7990 B(  3-C ,  4-S ) :   0.9866 B(  3-C ,  5-H ) :   0.9522
B(  3-C ,  6-H ) :   0.8323 B(  3-C ,  8-H ) :   0.1144 B(  3-C , 11-O ) :   0.1202
B(  3-C , 14-H ) :   0.1275 B(  4-S ,  8-H ) :  -0.1357 B(  4-S , 10-O ) :   1.5665
B(  4-S , 11-O ) :   1.3699 B(  4-S , 16-F ) :   0.6648 B(  7-H ,  8-H ) :   0.2815
B(  7-H ,  9-H ) :  -0.1821 B(  8-H ,  9-H ) :   0.5155 B(  8-H , 11-O ) :   0.3024

Dispersion correction           -0.006497316
FINAL SINGLE POINT ENERGY      -805.698230027295

DIPOLE MOMENT
-------------
                                X             Y             Z
Electronic contribution:     -8.24464      -5.63890     -10.14040
Nuclear contribution   :      9.83476       6.70164       9.41257
                        -----------------------------------------
Total Dipole Moment    :      1.59013       1.06274      -0.72783
                        -----------------------------------------
Magnitude (a.u.)       :      2.04637
Magnitude (Debye)      :      5.20147

Rotational constants in cm-1:     0.099832     0.045916     0.042219
Rotational constants in MHz :  2992.874960  1376.530174  1265.693813

                             ****ORCA TERMINATED NORMALLY****
TOTAL RUN TIME: 0 days 0 hours 0 minutes 20 seconds 205 msec
