                         Program Version 5.0.0 -  RELEASE  -
|  1> !M062X D3Zero RIJCOSX def2-SVPD def2/J TightSCF
|  2> *xyz -1 1
|  3> C         -5.57236       -5.80780       -0.81644
|  4> S         -6.90318       -4.61903       -0.52846
|  5> O         -8.11485       -5.25093       -0.95701
|  6> O         -6.53271       -3.42684       -1.31485
|  7> O         -6.86563       -4.29496        0.91412
|  8> C         -3.82708       -4.66110        0.78617
|  9> C         -4.45780       -5.94187        0.22919
| 10> H         -5.17735       -5.54257       -1.79771
| 11> H         -6.07420       -6.76889       -0.92127
| 12> H         -3.68106       -6.56224       -0.22988
| 13> H         -4.84394       -6.51273        1.07581
| 14> H         -3.43706       -4.07576       -0.02016
| 15> H         -3.03403       -4.91680        1.45744
| 16> H         -4.56975       -4.09647        1.31013
| 17> *
| 18> %MaxCore 64000
| 19>
| 20> %pal nprocs 4
| 21> end
| 22>
| 23> %scf
| 24>   MaxIter 150
| 25> end
| 26>
| 27>                          ****END OF INPUT****

CARTESIAN COORDINATES (ANGSTROEM)
---------------------------------
  C     -5.572360   -5.807800   -0.816440
  S     -6.903180   -4.619030   -0.528460
  O     -8.114850   -5.250930   -0.957010
  O     -6.532710   -3.426840   -1.314850
  O     -6.865630   -4.294960    0.914120
  C     -3.827080   -4.661100    0.786170
  C     -4.457800   -5.941870    0.229190
  H     -5.177350   -5.542570   -1.797710
  H     -6.074200   -6.768890   -0.921270
  H     -3.681060   -6.562240   -0.229880
  H     -4.843940   -6.512730    1.075810
  H     -3.437060   -4.075760   -0.020160
  H     -3.034030   -4.916800    1.457440
  H     -4.569750   -4.096470    1.310130

 Total Charge           Charge          ....   -1
 Multiplicity           Mult            ....    1
 Number of Electrons    NEL             ....   66
 Basis Dimension        Dim             ....  212

ORBITAL ENERGIES
----------------

  NO   OCC          E(Eh)            E(eV)
   0   2.0000     -89.939460     -2447.3771
   1   2.0000     -19.423819      -528.5490
   2   2.0000     -19.410917      -528.1979
   3   2.0000     -19.409598      -528.1620
   4   2.0000     -10.426044      -283.7071
   5   2.0000     -10.416213      -283.4396
   6   2.0000     -10.401431      -283.0373
   7   2.0000      -8.262594      -224.8366
   8   2.0000      -6.187882      -168.3808
   9   2.0000      -6.187751      -168.3773
  10   2.0000      -6.187435      -168.3687
  11   2.0000      -1.049301       -28.5529
  12   2.0000      -0.904737       -24.6192
  13   2.0000      -0.880361       -23.9558
  14   2.0000      -0.747262       -20.3340
  15   2.0000      -0.654635       -17.8135
  16   2.0000      -0.554174       -15.0798
  17   2.0000      -0.462045       -12.5729
  18   2.0000      -0.408340       -11.1115
  19   2.0000      -0.390087       -10.6148
  20   2.0000      -0.370244       -10.0748
  21   2.0000      -0.356897        -9.7117
  22   2.0000      -0.343376        -9.3437
  23   2.0000      -0.324910        -8.8413
  24   2.0000      -0.287717        -7.8292
  25   2.0000      -0.281148        -7.6504
  26   2.0000      -0.266804        -7.2601
  27   2.0000      -0.225885        -6.1467
  28   2.0000      -0.223877        -6.0920
  29   2.0000      -0.188006        -5.1159
  30   2.0000      -0.173809        -4.7296
  31   2.0000      -0.169242        -4.6053
  32   2.0000      -0.137278        -3.7355
  33   0.0000       0.151275         4.1164
  34   0.0000       0.171977         4.6797
  35   0.0000       0.175865         4.7855
  36   0.0000       0.183812         5.0018
  37   0.0000       0.202400         5.5076

MULLIKEN ATOMIC CHARGES
-----------------------
   0 C :    0.083407
   1 S :    1.414932
   2 O :   -0.844019
   3 O :   -0.837529
   4 O :   -0.865555
   5 C :    0.782912
   6 C :   -0.316844
   7 H :    0.007334
   8 H :   -0.040754
   9 H :   -0.122406
  10 H :   -0.038257
  11 H :   -0.040918
  12 H :   -0.041857
  13 H :   -0.140446
Sum of atomic charges:   -1.0000000

LOEWDIN ATOMIC CHARGES
----------------------
   0 C :   -0.079181
   1 S :    0.910217
   2 O :   -0.583851
   3 O :   -0.610367
   4 O :   -0.597726
   5 C :    0.123696
   6 C :   -0.091791
   7 H :    0.002217
   8 H :   -0.004658
   9 H :    0.005464
  10 H :    0.016195
  11 H :   -0.017080
  12 H :   -0.032929
  13 H :   -0.040208

  Mayer bond orders larger than 0.100000
B(  0-C ,  1-S ) :   0.8513 B(  0-C ,  6-C ) :   1.2916 B(  0-C ,  7-H ) :   0.9107
B(  0-C ,  8-H ) :   0.9039 B(  0-C ,  9-H ) :   0.1443 B(  0-C , 10-H ) :   0.1339
B(  1-S ,  2-O ) :   1.3133 B(  1-S ,  3-O ) :   1.2327 B(  1-S ,  4-O ) :   1.2262
B(  5-C ,  6-C ) :   1.2728 B(  5-C , 11-H ) :   0.7575 B(  5-C , 12-H ) :   0.7303
B(  5-C , 13-H ) :   0.8397 B(  6-C ,  7-H ) :   0.1265 B(  6-C ,  8-H ) :   0.1339
B(  6-C ,  9-H ) :   0.8789 B(  6-C , 10-H ) :   0.9141 B(  6-C , 11-H ) :   0.2178
B(  6-C , 12-H ) :   0.2173 B(  6-C , 13-H ) :   0.2253

Dispersion correction           -0.000291530
FINAL SINGLE POINT ENERGY      -741.887168879833

DIPOLE MOMENT
-------------
                                X             Y             Z
Electronic contribution:     -9.81642       3.18880      -2.57594
Nuclear contribution   :     11.75544      -4.53524       2.70749
                        -----------------------------------------
Total Dipole Moment    :      1.93902      -1.34644       0.13155
                        -----------------------------------------
Magnitude (a.u.)       :      2.36432
Magnitude (Debye)      :      6.00963

Rotational constants in cm-1:     0.134586     0.054907     0.051455
Rotational constants in MHz :  4034.798577  1646.069534  1542.570153

                             ****ORCA TERMINATED NORMALLY****
TOTAL RUN TIME: 0 days 0 hours 0 minutes 25 seconds 453 msec
