                         Program Version 5.0.0 -  RELEASE  -
|  1> !M062X D3Zero RIJCOSX def2-SVPD def2/J TightSCF
|  2> *xyz 1 1
|  3> C         -4.38262       -1.67089        1.21620
|  4> N         -5.76354       -1.91517        0.70501
|  5> C         -3.28173       -2.19127        0.29436
|  6> H         -5.84081       -2.11520       -0.30065
|  7> H         -6.40882       -1.14866        0.93612
|  8> H         -6.17478       -2.79061        1.05143
|  9> H         -4.32862       -2.13922        2.19810
| 10> H         -4.26158       -0.59740        1.35725
| 11> C         -3.47464       -3.60590       -0.25961
| 12> H         -2.35455       -2.12760        0.87143
| 13> H         -3.16661       -1.49969       -0.54504
| 14> H         -2.64612       -3.85908       -0.88759
| 15> H         -4.37934       -3.64545       -0.82956
| 16> H         -3.53324       -4.30157        0.55126
| 17> *
| 18> %MaxCore 64000
| 19>
| 20> %pal nprocs 4
| 21> end
| 22>
| 23> %scf
| 24>   MaxIter 150
| 25> end
| 26>
| 27>                          ****END OF INPUT****

CARTESIAN COORDINATES (ANGSTROEM)
---------------------------------
  C     -4.382620   -1.670890    1.216200
  N     -5.763540   -1.915170    0.705010
  C     -3.281730   -2.191270    0.294360
  H     -5.840810   -2.115200   -0.300650
  H     -6.408820   -1.148660    0.936120
  H     -6.174780   -2.790610    1.051430
  H     -4.328620   -2.139220    2.198100
  H     -4.261580   -0.597400    1.357250
  C     -3.474640   -3.605900   -0.259610
  H     -2.354550   -2.127600    0.871430
  H     -3.166610   -1.499690   -0.545040
  H     -2.646120   -3.859080   -0.887590
  H     -4.379340   -3.645450   -0.829560
  H     -3.533240   -4.301570    0.551260

 Total Charge           Charge          ....    1
 Multiplicity           Mult            ....    1
 Number of Electrons    NEL             ....   34
 Basis Dimension        Dim             ....  160

ORBITAL ENERGIES
----------------

  NO   OCC          E(Eh)            E(eV)
   0   2.0000     -15.091033      -410.6479
   1   2.0000     -10.799497      -293.8692
   2   2.0000     -10.727990      -291.9234
   3   2.0000     -10.700114      -291.1649
   4   2.0000      -1.307028       -35.5660
   5   2.0000      -1.062767       -28.9194
   6   2.0000      -0.973531       -26.4911
   7   2.0000      -0.874311       -23.7912
   8   2.0000      -0.864482       -23.5238
   9   2.0000      -0.841177       -22.8896
  10   2.0000      -0.758773       -20.6473
  11   2.0000      -0.704489       -19.1701
  12   2.0000      -0.673962       -18.3394
  13   2.0000      -0.649875       -17.6840
  14   2.0000      -0.589915       -16.0524
  15   2.0000      -0.586876       -15.9697
  16   2.0000      -0.568872       -15.4798
  17   0.0000      -0.164422        -4.4742
  18   0.0000      -0.110844        -3.0162
  19   0.0000      -0.106649        -2.9021
  20   0.0000      -0.093408        -2.5417
  21   0.0000      -0.068376        -1.8606

MULLIKEN ATOMIC CHARGES
-----------------------
   0 C :    0.625656
   1 N :   -0.935132
   2 C :   -0.470357
   3 H :    0.376793
   4 H :    0.375169
   5 H :    0.461380
   6 H :   -0.018122
   7 H :   -0.005217
   8 C :    0.725317
   9 H :   -0.001217
  10 H :   -0.027018
  11 H :   -0.030820
  12 H :   -0.092698
  13 H :    0.016264
Sum of atomic charges:    1.0000000

LOEWDIN ATOMIC CHARGES
----------------------
   0 C :    0.102526
   1 N :    0.323528
   2 C :   -0.045648
   3 H :    0.091068
   4 H :    0.110233
   5 H :    0.107067
   6 H :    0.052258
   7 H :    0.050579
   8 C :    0.149944
   9 H :    0.046564
  10 H :    0.035832
  11 H :    0.007525
  12 H :   -0.029261
  13 H :   -0.002213

  Mayer bond orders larger than 0.100000
B(  0-C ,  1-N ) :   0.6221 B(  0-C ,  2-C ) :   1.2252 B(  0-C ,  6-H ) :   0.8264
B(  0-C ,  7-H ) :   0.9075 B(  0-C ,  9-H ) :   0.1356 B(  0-C , 10-H ) :   0.1189
B(  1-N ,  3-H ) :   0.6647 B(  1-N ,  4-H ) :   0.7401 B(  1-N ,  5-H ) :   0.6918
B(  1-N ,  6-H ) :   0.1338 B(  2-C ,  6-H ) :   0.1336 B(  2-C ,  8-C ) :   1.3135
B(  2-C ,  9-H ) :   0.9460 B(  2-C , 10-H ) :   0.9504 B(  2-C , 11-H ) :   0.2121
B(  2-C , 12-H ) :   0.1778 B(  2-C , 13-H ) :   0.1928 B(  8-C , 11-H ) :   0.7926
B(  8-C , 12-H ) :   0.8425 B(  8-C , 13-H ) :   0.7895

Dispersion correction           -0.000152871
FINAL SINGLE POINT ENERGY      -174.622068942049

DIPOLE MOMENT
-------------
                                X             Y             Z
Electronic contribution:     -1.71707       1.31329       0.78629
Nuclear contribution   :     -0.18358      -0.73024      -0.44649
                        -----------------------------------------
Total Dipole Moment    :     -1.90064       0.58305       0.33980
                        -----------------------------------------
Magnitude (a.u.)       :      2.01689
Magnitude (Debye)      :      5.12653

Rotational constants in cm-1:     0.423641     0.164544     0.133152
Rotational constants in MHz : 12700.438743  4932.897948  3991.802402

                             ****ORCA TERMINATED NORMALLY****
TOTAL RUN TIME: 0 days 0 hours 0 minutes 14 seconds 871 msec
