                         Program Version 5.0.0 -  RELEASE  -
|  1> !M062X D3Zero RIJCOSX def2-SVPD def2/J TightSCF
|  2> *xyz 0 1
|  3> C         -5.57236       -5.80780       -0.81644
|  4> S         -6.90318       -4.61903       -0.52846
|  5> F         -8.11485       -5.25093       -0.95701
|  6> O         -6.53271       -3.42684       -1.31485
|  7> O         -6.86563       -4.29496        0.91412
|  8> C         -3.82708       -4.66110        0.78617
|  9> C         -4.45780       -5.94187        0.22919
| 10> H         -5.17735       -5.54257       -1.79771
| 11> H         -6.07420       -6.76889       -0.92127
| 12> H         -3.68106       -6.56224       -0.22988
| 13> H         -4.84394       -6.51273        1.07581
| 14> H         -3.43706       -4.07576       -0.02016
| 15> H         -3.03403       -4.91680        1.45744
| 16> H         -4.56975       -4.09647        1.31013
| 17> *
| 18> %MaxCore 64000
| 19>
| 20> %pal nprocs 4
| 21> end
| 22>
| 23> %scf
| 24>   MaxIter 150
| 25> end
| 26>
| 27>                          ****END OF INPUT****

CARTESIAN COORDINATES (ANGSTROEM)
---------------------------------
  C     -5.572360   -5.807800   -0.816440
  S     -6.903180   -4.619030   -0.528460
  F     -8.114850   -5.250930   -0.957010
  O     -6.532710   -3.426840   -1.314850
  O     -6.865630   -4.294960    0.914120
  C     -3.827080   -4.661100    0.786170
  C     -4.457800   -5.941870    0.229190
  H     -5.177350   -5.542570   -1.797710
  H     -6.074200   -6.768890   -0.921270
  H     -3.681060   -6.562240   -0.229880
  H     -4.843940   -6.512730    1.075810
  H     -3.437060   -4.075760   -0.020160
  H     -3.034030   -4.916800    1.457440
  H     -4.569750   -4.096470    1.310130

 Total Charge           Charge          ....    0
 Multiplicity           Mult            ....    1
 Number of Electrons    NEL             ....   66
 Basis Dimension        Dim             ....  212

ORBITAL ENERGIES
----------------

  NO   OCC          E(Eh)            E(eV)
   0   2.0000     -90.198890     -2454.4366
   1   2.0000     -25.385547      -690.7759
   2   2.0000     -19.644058      -534.5420
   3   2.0000     -19.643655      -534.5310
   4   2.0000     -10.617380      -288.9136
   5   2.0000     -10.583198      -287.9835
   6   2.0000     -10.541461      -286.8477
   7   2.0000      -8.523204      -231.9282
   8   2.0000      -6.451568      -175.5561
   9   2.0000      -6.446144      -175.4085
  10   2.0000      -6.445263      -175.3845
  11   2.0000      -1.527821       -41.5741
  12   2.0000      -1.215757       -33.0824
  13   2.0000      -1.109522       -30.1916
  14   2.0000      -0.923872       -25.1398
  15   2.0000      -0.855371       -23.2758
  16   2.0000      -0.805466       -21.9178
  17   2.0000      -0.728130       -19.8134
  18   2.0000      -0.697253       -18.9732
  19   2.0000      -0.677742       -18.4423
  20   2.0000      -0.635431       -17.2910
  21   2.0000      -0.569858       -15.5066
  22   2.0000      -0.558450       -15.1962
  23   2.0000      -0.532525       -14.4907
  24   2.0000      -0.521196       -14.1825
  25   2.0000      -0.490108       -13.3365
  26   2.0000      -0.460053       -12.5187
  27   2.0000      -0.441938       -12.0257
  28   2.0000      -0.435388       -11.8475
  29   2.0000      -0.421135       -11.4597
  30   2.0000      -0.394826       -10.7438
  31   2.0000      -0.386921       -10.5287
  32   2.0000      -0.375442       -10.2163
  33   0.0000       0.009330         0.2539
  34   0.0000       0.031732         0.8635
  35   0.0000       0.040226         1.0946
  36   0.0000       0.046899         1.2762
  37   0.0000       0.066944         1.8216

MULLIKEN ATOMIC CHARGES
-----------------------
   0 C :    0.012137
   1 S :    1.594374
   2 F :   -0.453841
   3 O :   -0.700644
   4 O :   -0.743329
   5 C :    0.772852
   6 C :   -0.328492
   7 H :    0.072448
   8 H :    0.028840
   9 H :   -0.074978
  10 H :   -0.002791
  11 H :   -0.019398
  12 H :   -0.011763
  13 H :   -0.145418
Sum of atomic charges:    0.0000000

LOEWDIN ATOMIC CHARGES
----------------------
   0 C :   -0.044175
   1 S :    1.172559
   2 F :   -0.266006
   3 O :   -0.496653
   4 O :   -0.493679
   5 C :    0.145642
   6 C :   -0.062567
   7 H :    0.023814
   8 H :    0.012128
   9 H :    0.031450
  10 H :    0.029501
  11 H :   -0.006773
  12 H :   -0.011487
  13 H :   -0.033754

  Mayer bond orders larger than 0.100000
B(  0-C ,  1-S ) :   0.9025 B(  0-C ,  6-C ) :   1.3406 B(  0-C ,  7-H ) :   0.9246
B(  0-C ,  8-H ) :   0.8706 B(  0-C ,  9-H ) :   0.1440 B(  0-C , 10-H ) :   0.1332
B(  1-S ,  2-F ) :   0.6288 B(  1-S ,  3-O ) :   1.4565 B(  1-S ,  4-O ) :   1.4275
B(  5-C ,  6-C ) :   1.2942 B(  5-C , 11-H ) :   0.7621 B(  5-C , 12-H ) :   0.7392
B(  5-C , 13-H ) :   0.8488 B(  6-C ,  7-H ) :   0.1152 B(  6-C ,  8-H ) :   0.1427
B(  6-C ,  9-H ) :   0.8761 B(  6-C , 10-H ) :   0.9124 B(  6-C , 11-H ) :   0.2105
B(  6-C , 12-H ) :   0.2091 B(  6-C , 13-H ) :   0.2111

Dispersion correction           -0.000283176
FINAL SINGLE POINT ENERGY      -766.363020157289

DIPOLE MOMENT
-------------
                                X             Y             Z
Electronic contribution:    -13.34632       2.38781      -3.88756
Nuclear contribution   :     13.81909      -4.05404       3.42760
                        -----------------------------------------
Total Dipole Moment    :      0.47277      -1.66622      -0.45996
                        -----------------------------------------
Magnitude (a.u.)       :      1.79203
Magnitude (Debye)      :      4.55498

Rotational constants in cm-1:     0.132500     0.053014     0.049575
Rotational constants in MHz :  3972.256497  1589.318970  1486.215991

                             ****ORCA TERMINATED NORMALLY****
TOTAL RUN TIME: 0 days 0 hours 0 minutes 28 seconds 608 msec
