                         Program Version 5.0.0 -  RELEASE  -
|  1> !M062X D3Zero RIJCOSX def2-SVPD def2/J TightSCF
|  2> *xyz 0 1
|  3> C         -4.38262       -1.67089        1.21620
|  4> C         -5.76354       -1.91517        0.70501
|  5> C         -3.28173       -2.19127        0.29436
|  6> H         -5.84081       -2.11520       -0.30065
|  7> H         -6.40882       -1.14866        0.93612
|  8> H         -6.17478       -2.79061        1.05143
|  9> H         -4.32862       -2.13922        2.19810
| 10> H         -4.26158       -0.59740        1.35725
| 11> C         -3.47464       -3.60590       -0.25961
| 12> H         -2.35455       -2.12760        0.87143
| 13> H         -3.16661       -1.49969       -0.54504
| 14> H         -2.64612       -3.85908       -0.88759
| 15> H         -4.37934       -3.64545       -0.82956
| 16> H         -3.53324       -4.30157        0.55126
| 17> *
| 18> %MaxCore 64000
| 19>
| 20> %pal nprocs 4
| 21> end
| 22>
| 23> %scf
| 24>   MaxIter 150
| 25> end
| 26>
| 27>                          ****END OF INPUT****

CARTESIAN COORDINATES (ANGSTROEM)
---------------------------------
  C     -4.382620   -1.670890    1.216200
  C     -5.763540   -1.915170    0.705010
  C     -3.281730   -2.191270    0.294360
  H     -5.840810   -2.115200   -0.300650
  H     -6.408820   -1.148660    0.936120
  H     -6.174780   -2.790610    1.051430
  H     -4.328620   -2.139220    2.198100
  H     -4.261580   -0.597400    1.357250
  C     -3.474640   -3.605900   -0.259610
  H     -2.354550   -2.127600    0.871430
  H     -3.166610   -1.499690   -0.545040
  H     -2.646120   -3.859080   -0.887590
  H     -4.379340   -3.645450   -0.829560
  H     -3.533240   -4.301570    0.551260

 Total Charge           Charge          ....    0
 Multiplicity           Mult            ....    1
 Number of Electrons    NEL             ....   34
 Basis Dimension        Dim             ....  160

ORBITAL ENERGIES
----------------

  NO   OCC          E(Eh)            E(eV)
   0   2.0000     -10.539688      -286.7995
   1   2.0000     -10.536174      -286.7039
   2   2.0000     -10.530400      -286.5468
   3   2.0000     -10.511083      -286.0211
   4   2.0000      -0.890953       -24.2441
   5   2.0000      -0.814222       -22.1561
   6   2.0000      -0.731998       -19.9187
   7   2.0000      -0.641293       -17.4505
   8   2.0000      -0.536199       -14.5907
   9   2.0000      -0.530827       -14.4445
  10   2.0000      -0.485070       -13.1994
  11   2.0000      -0.460285       -12.5250
  12   2.0000      -0.448240       -12.1972
  13   2.0000      -0.422119       -11.4864
  14   2.0000      -0.387204       -10.5363
  15   2.0000      -0.380036       -10.3413
  16   2.0000      -0.371579       -10.1112
  17   0.0000       0.042840         1.1657
  18   0.0000       0.067554         1.8382
  19   0.0000       0.068302         1.8586
  20   0.0000       0.085667         2.3311
  21   0.0000       0.115209         3.1350

MULLIKEN ATOMIC CHARGES
-----------------------
   0 C :   -0.228015
   1 C :    0.989300
   2 C :   -0.332542
   3 H :   -0.344507
   4 H :   -0.329399
   5 H :   -0.061157
   6 H :   -0.086874
   7 H :   -0.050225
   8 C :    0.661361
   9 H :   -0.070863
  10 H :   -0.016801
  11 H :   -0.043542
  12 H :   -0.048126
  13 H :   -0.038611
Sum of atomic charges:   -0.0000000

LOEWDIN ATOMIC CHARGES
----------------------
   0 C :   -0.067198
   1 C :    0.119582
   2 C :   -0.081887
   3 H :   -0.045438
   4 H :   -0.033526
   5 H :   -0.030895
   6 H :    0.021157
   7 H :    0.019449
   8 C :    0.126068
   9 H :    0.015271
  10 H :    0.020824
  11 H :   -0.018975
  12 H :   -0.029996
  13 H :   -0.014439

  Mayer bond orders larger than 0.100000
B(  0-C ,  1-C ) :   1.2384 B(  0-C ,  2-C ) :   1.2285 B(  0-C ,  3-H ) :   0.2734
B(  0-C ,  4-H ) :   0.1804 B(  0-C ,  5-H ) :   0.2364 B(  0-C ,  6-H ) :   0.8523
B(  0-C ,  7-H ) :   0.9031 B(  0-C ,  9-H ) :   0.1745 B(  0-C , 10-H ) :   0.1358
B(  1-C ,  3-H ) :   0.6301 B(  1-C ,  4-H ) :   0.7773 B(  1-C ,  5-H ) :   0.5900
B(  1-C ,  6-H ) :   0.1268 B(  2-C ,  6-H ) :   0.1404 B(  2-C ,  8-C ) :   1.3325
B(  2-C ,  9-H ) :   0.9050 B(  2-C , 10-H ) :   0.9012 B(  2-C , 11-H ) :   0.2144
B(  2-C , 12-H ) :   0.1924 B(  2-C , 13-H ) :   0.1900 B(  3-H ,  5-H ) :   0.3055
B(  8-C , 11-H ) :   0.7533 B(  8-C , 12-H ) :   0.8476 B(  8-C , 13-H ) :   0.8004

Dispersion correction           -0.000148142
FINAL SINGLE POINT ENERGY      -158.224021219558

DIPOLE MOMENT
-------------
                                X             Y             Z
Electronic contribution:      0.63766       0.59516       0.37796
Nuclear contribution   :     -0.64996      -0.59433      -0.37777
                        -----------------------------------------
Total Dipole Moment    :     -0.01231       0.00083       0.00019
                        -----------------------------------------
Magnitude (a.u.)       :      0.01234
Magnitude (Debye)      :      0.03135

Rotational constants in cm-1:     0.431358     0.171688     0.138554
Rotational constants in MHz : 12931.797515  5147.084397  4153.759343

                             ****ORCA TERMINATED NORMALLY****
TOTAL RUN TIME: 0 days 0 hours 0 minutes 13 seconds 755 msec
