                         Program Version 5.0.0 -  RELEASE  -
|  1> !M062X D3Zero RIJCOSX def2-SVPD def2/J TightSCF
|  2> *xyz 0 1
|  3> C         -5.57236       -5.80780       -0.81644
|  4> S         -6.90318       -4.61903       -0.52846
|  5> O         -8.11485       -5.25093       -0.95701
|  6> F         -6.53271       -3.42684       -1.31485
|  7> O         -6.86563       -4.29496        0.91412
|  8> C         -3.82708       -4.66110        0.78617
|  9> C         -4.45780       -5.94187        0.22919
| 10> H         -5.17735       -5.54257       -1.79771
| 11> H         -6.07420       -6.76889       -0.92127
| 12> H         -3.68106       -6.56224       -0.22988
| 13> H         -4.84394       -6.51273        1.07581
| 14> H         -3.43706       -4.07576       -0.02016
| 15> H         -3.03403       -4.91680        1.45744
| 16> H         -4.56975       -4.09647        1.31013
| 17> *
| 18> %MaxCore 64000
| 19>
| 20> %pal nprocs 4
| 21> end
| 22>
| 23> %scf
| 24>   MaxIter 150
| 25> end
| 26>
| 27>                          ****END OF INPUT****

CARTESIAN COORDINATES (ANGSTROEM)
---------------------------------
  C     -5.572360   -5.807800   -0.816440
  S     -6.903180   -4.619030   -0.528460
  O     -8.114850   -5.250930   -0.957010
  F     -6.532710   -3.426840   -1.314850
  O     -6.865630   -4.294960    0.914120
  C     -3.827080   -4.661100    0.786170
  C     -4.457800   -5.941870    0.229190
  H     -5.177350   -5.542570   -1.797710
  H     -6.074200   -6.768890   -0.921270
  H     -3.681060   -6.562240   -0.229880
  H     -4.843940   -6.512730    1.075810
  H     -3.437060   -4.075760   -0.020160
  H     -3.034030   -4.916800    1.457440
  H     -4.569750   -4.096470    1.310130

 Total Charge           Charge          ....    0
 Multiplicity           Mult            ....    1
 Number of Electrons    NEL             ....   66
 Basis Dimension        Dim             ....  212

ORBITAL ENERGIES
----------------

  NO   OCC          E(Eh)            E(eV)
   0   2.0000     -90.197373     -2454.3953
   1   2.0000     -25.363153      -690.1665
   2   2.0000     -19.657862      -534.9176
   3   2.0000     -19.643248      -534.5200
   4   2.0000     -10.616765      -288.8969
   5   2.0000     -10.582861      -287.9743
   6   2.0000     -10.547832      -287.0211
   7   2.0000      -8.521435      -231.8800
   8   2.0000      -6.449688      -175.5049
   9   2.0000      -6.444599      -175.3665
  10   2.0000      -6.443669      -175.3412
  11   2.0000      -1.489583       -40.5336
  12   2.0000      -1.233277       -33.5592
  13   2.0000      -1.126070       -30.6419
  14   2.0000      -0.924598       -25.1596
  15   2.0000      -0.846046       -23.0221
  16   2.0000      -0.796366       -21.6702
  17   2.0000      -0.722079       -19.6488
  18   2.0000      -0.670573       -18.2472
  19   2.0000      -0.661674       -18.0051
  20   2.0000      -0.637542       -17.3484
  21   2.0000      -0.576747       -15.6941
  22   2.0000      -0.555599       -15.1186
  23   2.0000      -0.534607       -14.5474
  24   2.0000      -0.524154       -14.2630
  25   2.0000      -0.504989       -13.7415
  26   2.0000      -0.468640       -12.7524
  27   2.0000      -0.445673       -12.1274
  28   2.0000      -0.442791       -12.0489
  29   2.0000      -0.422421       -11.4947
  30   2.0000      -0.407863       -11.0985
  31   2.0000      -0.393358       -10.7038
  32   2.0000      -0.383172       -10.4267
  33   0.0000       0.012952         0.3524
  34   0.0000       0.033781         0.9192
  35   0.0000       0.042112         1.1459
  36   0.0000       0.043977         1.1967
  37   0.0000       0.066610         1.8126

MULLIKEN ATOMIC CHARGES
-----------------------
   0 C :    0.009158
   1 S :    1.553475
   2 O :   -0.704938
   3 F :   -0.420866
   4 O :   -0.741726
   5 C :    0.774785
   6 C :   -0.303739
   7 H :    0.074767
   8 H :    0.019138
   9 H :   -0.073535
  10 H :   -0.000447
  11 H :   -0.035742
  12 H :   -0.006864
  13 H :   -0.143466
Sum of atomic charges:   -0.0000000

LOEWDIN ATOMIC CHARGES
----------------------
   0 C :   -0.037599
   1 S :    1.167658
   2 O :   -0.471630
   3 F :   -0.285353
   4 O :   -0.490273
   5 C :    0.140007
   6 C :   -0.067446
   7 H :    0.019048
   8 H :    0.024617
   9 H :    0.029597
  10 H :    0.031723
  11 H :   -0.011817
  12 H :   -0.010683
  13 H :   -0.037849

  Mayer bond orders larger than 0.100000
B(  0-C ,  1-S ) :   0.9173 B(  0-C ,  6-C ) :   1.3322 B(  0-C ,  7-H ) :   0.8970
B(  0-C ,  8-H ) :   0.9167 B(  0-C ,  9-H ) :   0.1391 B(  0-C , 10-H ) :   0.1384
B(  1-S ,  2-O ) :   1.5485 B(  1-S ,  3-F ) :   0.5766 B(  1-S ,  4-O ) :   1.4626
B(  5-C ,  6-C ) :   1.2908 B(  5-C , 11-H ) :   0.7610 B(  5-C , 12-H ) :   0.7471
B(  5-C , 13-H ) :   0.8481 B(  6-C ,  7-H ) :   0.1199 B(  6-C ,  8-H ) :   0.1234
B(  6-C ,  9-H ) :   0.8776 B(  6-C , 10-H ) :   0.9136 B(  6-C , 11-H ) :   0.2062
B(  6-C , 12-H ) :   0.2071 B(  6-C , 13-H ) :   0.2085

Dispersion correction           -0.000293398
FINAL SINGLE POINT ENERGY      -766.382130163498

DIPOLE MOMENT
-------------
                                X             Y             Z
Electronic contribution:    -10.59839       5.54486      -4.50821
Nuclear contribution   :     12.11759      -6.01574       3.81244
                        -----------------------------------------
Total Dipole Moment    :      1.51920      -0.47088      -0.69578
                        -----------------------------------------
Magnitude (a.u.)       :      1.73603
Magnitude (Debye)      :      4.41264

Rotational constants in cm-1:     0.128152     0.053825     0.050608
Rotational constants in MHz :  3841.897096  1613.621976  1517.196867

                             ****ORCA TERMINATED NORMALLY****
TOTAL RUN TIME: 0 days 0 hours 0 minutes 28 seconds 533 msec
