                         Program Version 5.0.0 -  RELEASE  -
|  1> !M062X D3Zero RIJCOSX def2-SVPD def2/J TightSCF
|  2> *xyz 0 1
|  3> C         -5.57236       -5.80780       -0.81644
|  4> S         -6.90318       -4.61903       -0.52846
|  5> O         -8.11485       -5.25093       -0.95701
|  6> O         -6.53271       -3.42684       -1.31485
|  7> F         -6.86563       -4.29496        0.91412
|  8> C         -3.82708       -4.66110        0.78617
|  9> C         -4.45780       -5.94187        0.22919
| 10> H         -5.17735       -5.54257       -1.79771
| 11> H         -6.07420       -6.76889       -0.92127
| 12> H         -3.68106       -6.56224       -0.22988
| 13> H         -4.84394       -6.51273        1.07581
| 14> H         -3.43706       -4.07576       -0.02016
| 15> H         -3.03403       -4.91680        1.45744
| 16> H         -4.56975       -4.09647        1.31013
| 17> *
| 18> %MaxCore 64000
| 19>
| 20> %pal nprocs 4
| 21> end
| 22>
| 23> %scf
| 24>   MaxIter 150
| 25> end
| 26>
| 27>                          ****END OF INPUT****

CARTESIAN COORDINATES (ANGSTROEM)
---------------------------------
  C     -5.572360   -5.807800   -0.816440
  S     -6.903180   -4.619030   -0.528460
  O     -8.114850   -5.250930   -0.957010
  O     -6.532710   -3.426840   -1.314850
  F     -6.865630   -4.294960    0.914120
  C     -3.827080   -4.661100    0.786170
  C     -4.457800   -5.941870    0.229190
  H     -5.177350   -5.542570   -1.797710
  H     -6.074200   -6.768890   -0.921270
  H     -3.681060   -6.562240   -0.229880
  H     -4.843940   -6.512730    1.075810
  H     -3.437060   -4.075760   -0.020160
  H     -3.034030   -4.916800    1.457440
  H     -4.569750   -4.096470    1.310130

 Total Charge           Charge          ....    0
 Multiplicity           Mult            ....    1
 Number of Electrons    NEL             ....   66
 Basis Dimension        Dim             ....  212

ORBITAL ENERGIES
----------------

  NO   OCC          E(Eh)            E(eV)
   0   2.0000     -90.196082     -2454.3602
   1   2.0000     -25.362147      -690.1391
   2   2.0000     -19.657016      -534.8946
   3   2.0000     -19.641872      -534.4825
   4   2.0000     -10.615633      -288.8661
   5   2.0000     -10.589486      -288.1546
   6   2.0000     -10.558399      -287.3086
   7   2.0000      -8.520187      -231.8461
   8   2.0000      -6.448503      -175.4727
   9   2.0000      -6.443365      -175.3329
  10   2.0000      -6.442336      -175.3049
  11   2.0000      -1.486895       -40.4605
  12   2.0000      -1.233205       -33.5572
  13   2.0000      -1.125492       -30.6262
  14   2.0000      -0.928919       -25.2772
  15   2.0000      -0.846485       -23.0340
  16   2.0000      -0.798039       -21.7157
  17   2.0000      -0.727807       -19.8046
  18   2.0000      -0.671881       -18.2828
  19   2.0000      -0.668882       -18.2012
  20   2.0000      -0.627205       -17.0671
  21   2.0000      -0.573187       -15.5972
  22   2.0000      -0.553596       -15.0641
  23   2.0000      -0.545741       -14.8504
  24   2.0000      -0.528558       -14.3828
  25   2.0000      -0.504818       -13.7368
  26   2.0000      -0.470610       -12.8060
  27   2.0000      -0.455307       -12.3895
  28   2.0000      -0.446305       -12.1446
  29   2.0000      -0.430317       -11.7095
  30   2.0000      -0.405323       -11.0294
  31   2.0000      -0.391941       -10.6653
  32   2.0000      -0.385559       -10.4916
  33   0.0000       0.010370         0.2822
  34   0.0000       0.036983         1.0064
  35   0.0000       0.042094         1.1454
  36   0.0000       0.043144         1.1740
  37   0.0000       0.065382         1.7791

MULLIKEN ATOMIC CHARGES
-----------------------
   0 C :    0.033936
   1 S :    1.526428
   2 O :   -0.706221
   3 O :   -0.706904
   4 F :   -0.442358
   5 C :    0.780030
   6 C :   -0.309027
   7 H :    0.072552
   8 H :    0.027469
   9 H :   -0.061232
  10 H :   -0.024062
  11 H :   -0.022438
  12 H :   -0.002402
  13 H :   -0.165770
Sum of atomic charges:    0.0000000

LOEWDIN ATOMIC CHARGES
----------------------
   0 C :   -0.032288
   1 S :    1.160240
   2 O :   -0.471957
   3 O :   -0.498129
   4 F :   -0.286684
   5 C :    0.141726
   6 C :   -0.074919
   7 H :    0.031897
   8 H :    0.019290
   9 H :    0.030900
  10 H :    0.026248
  11 H :   -0.004219
  12 H :   -0.009511
  13 H :   -0.032595

  Mayer bond orders larger than 0.100000
B(  0-C ,  1-S ) :   0.9270 B(  0-C ,  6-C ) :   1.2998 B(  0-C ,  7-H ) :   0.9093
B(  0-C ,  8-H ) :   0.9160 B(  0-C ,  9-H ) :   0.1422 B(  0-C , 10-H ) :   0.1263
B(  1-S ,  2-O ) :   1.5294 B(  1-S ,  3-O ) :   1.4685 B(  1-S ,  4-F ) :   0.5888
B(  5-C ,  6-C ) :   1.2866 B(  5-C , 11-H ) :   0.7694 B(  5-C , 12-H ) :   0.7431
B(  5-C , 13-H ) :   0.8379 B(  6-C ,  7-H ) :   0.1241 B(  6-C ,  8-H ) :   0.1283
B(  6-C ,  9-H ) :   0.8708 B(  6-C , 10-H ) :   0.9312 B(  6-C , 11-H ) :   0.2159
B(  6-C , 12-H ) :   0.2082 B(  6-C , 13-H ) :   0.2039

Dispersion correction           -0.000300341
FINAL SINGLE POINT ENERGY      -766.382043535217

DIPOLE MOMENT
-------------
                                X             Y             Z
Electronic contribution:    -11.10216       4.00935      -0.66178
Nuclear contribution   :     12.47562      -5.08213       1.41531
                        -----------------------------------------
Total Dipole Moment    :      1.37346      -1.07278       0.75353
                        -----------------------------------------
Magnitude (a.u.)       :      1.89870
Magnitude (Debye)      :      4.82611

Rotational constants in cm-1:     0.128398     0.054249     0.051014
Rotational constants in MHz :  3849.278549  1626.338413  1529.351405

                             ****ORCA TERMINATED NORMALLY****
TOTAL RUN TIME: 0 days 0 hours 0 minutes 28 seconds 718 msec
