                         Program Version 5.0.0 -  RELEASE  -
|  1> !wB97X-D3 RIJCOSX def2-SVPD def2/J TightSCF
|  2> *xyz -1 1
|  3> C         -0.25875        1.00432       -5.40983
|  4> C          0.39596       -0.37070       -5.33994
|  5> O         -0.32633       -1.39040       -5.49128
|  6> O          1.61941       -0.40073       -5.03683
|  7> H         -1.28979        0.89539       -5.67439
|  8> H          0.23798        1.59877       -6.14792
|  9> H         -0.18395        1.48386       -4.45623
| 10> *
| 11> %MaxCore 64000
| 12>
| 13> %pal nprocs 18
| 14> end
| 15>
| 16> %scf
| 17>   MaxIter 150
| 18> end
| 19>
| 20>
| 21>                          ****END OF INPUT****

CARTESIAN COORDINATES (ANGSTROEM)
---------------------------------
  C     -0.258750    1.004320   -5.409830
  C      0.395960   -0.370700   -5.339940
  O     -0.326330   -1.390400   -5.491280
  O      1.619410   -0.400730   -5.036830
  H     -1.289790    0.895390   -5.674390
  H      0.237980    1.598770   -6.147920
  H     -0.183950    1.483860   -4.456230

 Total Charge           Charge          ....   -1
 Multiplicity           Mult            ....    1
 Number of Electrons    NEL             ....   32
 Basis Dimension        Dim             ....  110

ORBITAL ENERGIES
----------------

  NO   OCC          E(Eh)            E(eV)
   0   2.0000     -18.979295      -516.4529
   1   2.0000     -18.976591      -516.3793
   2   2.0000     -10.176257      -276.9100
   3   2.0000     -10.103264      -274.9238
   4   2.0000      -0.922741       -25.1091
   5   2.0000      -0.825794       -22.4710
   6   2.0000      -0.654714       -17.8157
   7   2.0000      -0.406947       -11.0736
   8   2.0000      -0.362285        -9.8583
   9   2.0000      -0.347063        -9.4441
  10   2.0000      -0.326202        -8.8764
  11   2.0000      -0.281925        -7.6716
  12   2.0000      -0.263128        -7.1601
  13   2.0000      -0.139316        -3.7910
  14   2.0000      -0.136864        -3.7243
  15   2.0000      -0.120214        -3.2712
  16   0.0000       0.239084         6.5058
  17   0.0000       0.274176         7.4607
  18   0.0000       0.296628         8.0717
  19   0.0000       0.309566         8.4237
  20   0.0000       0.334543         9.1034

MULLIKEN ATOMIC CHARGES
-----------------------
   0 C :    0.425070
   1 C :    0.055379
   2 O :   -0.656220
   3 O :   -0.683578
   4 H :   -0.061525
   5 H :   -0.038931
   6 H :   -0.040194
Sum of atomic charges:   -1.0000000

LOEWDIN ATOMIC CHARGES
----------------------
   0 C :    0.136270
   1 C :   -0.331031
   2 O :   -0.346452
   3 O :   -0.352729
   4 H :   -0.040735
   5 H :   -0.034124
   6 H :   -0.031201

  Mayer bond orders larger than 0.100000
B(  0-C ,  1-C ) :   1.2036 B(  0-C ,  4-H ) :   0.8757 B(  0-C ,  5-H ) :   0.8209
B(  0-C ,  6-H ) :   0.8354 B(  1-C ,  2-O ) :   1.5242 B(  1-C ,  3-O ) :   1.5187
B(  1-C ,  4-H ) :   0.2297 B(  1-C ,  5-H ) :   0.1622 B(  1-C ,  6-H ) :   0.1485

Dispersion correction           -0.000907174
FINAL SINGLE POINT ENERGY      -228.304944808667

DIPOLE MOMENT
-------------
                                X             Y             Z
Electronic contribution:      1.50273      -3.18884       0.18116
Nuclear contribution   :     -2.15615       4.52621      -0.30445
                        -----------------------------------------
Total Dipole Moment    :     -0.65341       1.33736      -0.12328
                        -----------------------------------------
Magnitude (a.u.)       :      1.49355
Magnitude (Debye)      :      3.79630

Rotational constants in cm-1:     0.393591     0.332639     0.186460
Rotational constants in MHz : 11799.557437  9972.275109  5589.926304

                             ****ORCA TERMINATED NORMALLY****
TOTAL RUN TIME: 0 days 0 hours 0 minutes 8 seconds 217 msec
