                         Program Version 5.0.0 -  RELEASE  -
|  1> !wB97X-D3 RIJCOSX def2-SVPD def2/J TightSCF
|  2> *xyz 1 1
|  3> C          0.81607       -2.10149       -2.18655
|  4> N          1.10055       -2.46749       -3.59927
|  5> H          1.70061       -1.75723       -4.07838
|  6> H          0.29386       -2.35977       -4.25632
|  7> H          1.50132       -3.42848       -3.69491
|  8> H          0.40947       -1.11246       -2.14929
|  9> H          1.72290       -2.13590       -1.61965
| 10> H          0.11112       -2.79271       -1.77405
| 11> *
| 12> %MaxCore 64000
| 13>
| 14> %pal nprocs 18
| 15> end
| 16>
| 17> %scf
| 18>   MaxIter 150
| 19> end
| 20>
| 21>
| 22>                          ****END OF INPUT****

CARTESIAN COORDINATES (ANGSTROEM)
---------------------------------
  C      0.816070   -2.101490   -2.186550
  N      1.100550   -2.467490   -3.599270
  H      1.700610   -1.757230   -4.078380
  H      0.293860   -2.359770   -4.256320
  H      1.501320   -3.428480   -3.694910
  H      0.409470   -1.112460   -2.149290
  H      1.722900   -2.135900   -1.619650
  H      0.111120   -2.792710   -1.774050

 Total Charge           Charge          ....    1
 Multiplicity           Mult            ....    1
 Number of Electrons    NEL             ....   18
 Basis Dimension        Dim             ....   88

ORBITAL ENERGIES
----------------

  NO   OCC          E(Eh)            E(eV)
   0   2.0000     -14.790882      -402.4804
   1   2.0000     -10.547799      -287.0202
   2   2.0000      -1.328994       -36.1638
   3   2.0000      -1.049091       -28.5472
   4   2.0000      -0.919110       -25.0102
   5   2.0000      -0.884360       -24.0647
   6   2.0000      -0.817718       -22.2512
   7   2.0000      -0.725412       -19.7395
   8   2.0000      -0.719696       -19.5839
   9   0.0000      -0.124680        -3.3927
  10   0.0000      -0.057722        -1.5707
  11   0.0000      -0.054490        -1.4827
  12   0.0000      -0.052321        -1.4237
  13   0.0000      -0.000759        -0.0206

MULLIKEN ATOMIC CHARGES
-----------------------
   0 C :    0.789682
   1 N :   -0.980372
   2 H :    0.405584
   3 H :    0.391078
   4 H :    0.428371
   5 H :   -0.016909
   6 H :   -0.005660
   7 H :   -0.011775
Sum of atomic charges:    1.0000000

LOEWDIN ATOMIC CHARGES
----------------------
   0 C :    0.278705
   1 N :    0.281882
   2 H :    0.118544
   3 H :    0.119213
   4 H :    0.124933
   5 H :    0.025511
   6 H :    0.026079
   7 H :    0.025133

  Mayer bond orders larger than 0.100000
B(  0-C ,  1-N ) :   0.7282 B(  0-C ,  5-H ) :   0.9179 B(  0-C ,  6-H ) :   0.9121
B(  0-C ,  7-H ) :   0.9222 B(  1-N ,  2-H ) :   0.7469 B(  1-N ,  3-H ) :   0.7658
B(  1-N ,  4-H ) :   0.6973

Dispersion correction           -0.000532430
FINAL SINGLE POINT ENERGY       -96.120212217648

DIPOLE MOMENT
-------------
                                X             Y             Z
Electronic contribution:      0.21420      -0.31308      -0.97580
Nuclear contribution   :     -0.05716       0.15480       0.08012
                        -----------------------------------------
Total Dipole Moment    :      0.15704      -0.15828      -0.89568
                        -----------------------------------------
Magnitude (a.u.)       :      0.92302
Magnitude (Debye)      :      2.34612

Rotational constants in cm-1:     2.875975     0.681325     0.670600
Rotational constants in MHz : 86219.567947 20425.600745 20104.086440

                             ****ORCA TERMINATED NORMALLY****
TOTAL RUN TIME: 0 days 0 hours 0 minutes 6 seconds 202 msec
