                         Program Version 5.0.0 -  RELEASE  -
|  1> !wB97X-D3 RIJCOSX def2-SVPD def2/J TightSCF
|  2> *xyz 0 1
|  3> C         -0.25875        1.00432       -5.40983
|  4> C          0.39596       -0.37070       -5.33994
|  5> F         -0.32633       -1.39040       -5.49128
|  6> O          1.61941       -0.40073       -5.03683
|  7> H         -1.28979        0.89539       -5.67439
|  8> H          0.23798        1.59877       -6.14792
|  9> H         -0.18395        1.48386       -4.45623
| 10> *
| 11> %MaxCore 64000
| 12>
| 13> %pal nprocs 18
| 14> end
| 15>
| 16> %scf
| 17>   MaxIter 150
| 18> end
| 19>
| 20>
| 21>                          ****END OF INPUT****

CARTESIAN COORDINATES (ANGSTROEM)
---------------------------------
  C     -0.258750    1.004320   -5.409830
  C      0.395960   -0.370700   -5.339940
  F     -0.326330   -1.390400   -5.491280
  O      1.619410   -0.400730   -5.036830
  H     -1.289790    0.895390   -5.674390
  H      0.237980    1.598770   -6.147920
  H     -0.183950    1.483860   -4.456230

 Total Charge           Charge          ....    0
 Multiplicity           Mult            ....    1
 Number of Electrons    NEL             ....   32
 Basis Dimension        Dim             ....  110

ORBITAL ENERGIES
----------------

  NO   OCC          E(Eh)            E(eV)
   0   2.0000     -24.877753      -676.9581
   1   2.0000     -19.256629      -523.9995
   2   2.0000     -10.481769      -285.2234
   3   2.0000     -10.319898      -280.8187
   4   2.0000      -1.426390       -38.8140
   5   2.0000      -1.141436       -31.0600
   6   2.0000      -0.886269       -24.1166
   7   2.0000      -0.769822       -20.9479
   8   2.0000      -0.659520       -17.9465
   9   2.0000      -0.655238       -17.8299
  10   2.0000      -0.610256       -16.6059
  11   2.0000      -0.549122       -14.9424
  12   2.0000      -0.535407       -14.5692
  13   2.0000      -0.506275       -13.7764
  14   2.0000      -0.452652       -12.3173
  15   2.0000      -0.395871       -10.7722
  16   0.0000       0.047592         1.2950
  17   0.0000       0.082421         2.2428
  18   0.0000       0.123574         3.3626
  19   0.0000       0.159404         4.3376
  20   0.0000       0.161478         4.3940

MULLIKEN ATOMIC CHARGES
-----------------------
   0 C :    0.278536
   1 C :    0.436275
   2 F :   -0.353985
   3 O :   -0.491698
   4 H :    0.010622
   5 H :    0.056894
   6 H :    0.063357
Sum of atomic charges:    0.0000000

LOEWDIN ATOMIC CHARGES
----------------------
   0 C :    0.208061
   1 C :   -0.018829
   2 F :   -0.043455
   3 O :   -0.150606
   4 H :   -0.010513
   5 H :    0.006863
   6 H :    0.008479

  Mayer bond orders larger than 0.100000
B(  0-C ,  1-C ) :   1.2500 B(  0-C ,  4-H ) :   0.8959 B(  0-C ,  5-H ) :   0.8216
B(  0-C ,  6-H ) :   0.8327 B(  1-C ,  2-F ) :   0.8015 B(  1-C ,  3-O ) :   1.8220
B(  1-C ,  4-H ) :   0.1342 B(  1-C ,  5-H ) :   0.1374 B(  1-C ,  6-H ) :   0.1212

Dispersion correction           -0.000909260
FINAL SINGLE POINT ENERGY      -252.837277355524

DIPOLE MOMENT
-------------
                                X             Y             Z
Electronic contribution:      0.41911      -5.03290      -0.10196
Nuclear contribution   :     -1.44986       5.66477      -0.12483
                        -----------------------------------------
Total Dipole Moment    :     -1.03075       0.63187      -0.22678
                        -----------------------------------------
Magnitude (a.u.)       :      1.23010
Magnitude (Debye)      :      3.12665

Rotational constants in cm-1:     0.371735     0.317798     0.176902
Rotational constants in MHz : 11144.324945  9527.341239  5303.391856

                             ****ORCA TERMINATED NORMALLY****
TOTAL RUN TIME: 0 days 0 hours 0 minutes 8 seconds 242 msec
