                         Program Version 5.0.0 -  RELEASE  -
|  1> !wB97X-D3 RIJCOSX def2-SVPD def2/J TightSCF
|  2> *xyz 0 1
|  3> C          0.81607       -2.10149       -2.18655
|  4> C          1.10055       -2.46749       -3.59927
|  5> H          1.70061       -1.75723       -4.07838
|  6> H          0.29386       -2.35977       -4.25632
|  7> H          1.50132       -3.42848       -3.69491
|  8> H          0.40947       -1.11246       -2.14929
|  9> H          1.72290       -2.13590       -1.61965
| 10> H          0.11112       -2.79271       -1.77405
| 11> *
| 12> %MaxCore 64000
| 13>
| 14> %pal nprocs 18
| 15> end
| 16>
| 17> %scf
| 18>   MaxIter 150
| 19> end
| 20>
| 21>
| 22>                          ****END OF INPUT****

CARTESIAN COORDINATES (ANGSTROEM)
---------------------------------
  C      0.816070   -2.101490   -2.186550
  C      1.100550   -2.467490   -3.599270
  H      1.700610   -1.757230   -4.078380
  H      0.293860   -2.359770   -4.256320
  H      1.501320   -3.428480   -3.694910
  H      0.409470   -1.112460   -2.149290
  H      1.722900   -2.135900   -1.619650
  H      0.111120   -2.792710   -1.774050

 Total Charge           Charge          ....    0
 Multiplicity           Mult            ....    1
 Number of Electrons    NEL             ....   18
 Basis Dimension        Dim             ....   88

ORBITAL ENERGIES
----------------

  NO   OCC          E(Eh)            E(eV)
   0   2.0000     -10.267846      -279.4023
   1   2.0000     -10.258318      -279.1430
   2   2.0000      -0.876463       -23.8498
   3   2.0000      -0.729208       -19.8428
   4   2.0000      -0.554447       -15.0873
   5   2.0000      -0.535663       -14.5761
   6   2.0000      -0.471680       -12.8351
   7   2.0000      -0.446321       -12.1450
   8   2.0000      -0.425077       -11.5669
   9   0.0000       0.098661         2.6847
  10   0.0000       0.127736         3.4759
  11   0.0000       0.178874         4.8674
  12   0.0000       0.183893         5.0040
  13   0.0000       0.201095         5.4721

MULLIKEN ATOMIC CHARGES
-----------------------
   0 C :    0.218093
   1 C :    0.305721
   2 H :   -0.141510
   3 H :   -0.154387
   4 H :   -0.121552
   5 H :   -0.028338
   6 H :   -0.037014
   7 H :   -0.041014
Sum of atomic charges:    0.0000000

LOEWDIN ATOMIC CHARGES
----------------------
   0 C :    0.072189
   1 C :    0.060967
   2 H :   -0.031048
   3 H :   -0.031320
   4 H :   -0.023339
   5 H :   -0.015220
   6 H :   -0.015459
   7 H :   -0.016770

  Mayer bond orders larger than 0.100000
B(  0-C ,  1-C ) :   1.4028 B(  0-C ,  2-H ) :   0.1208 B(  0-C ,  3-H ) :   0.1107
B(  0-C ,  4-H ) :   0.1349 B(  0-C ,  5-H ) :   0.8861 B(  0-C ,  6-H ) :   0.8672
B(  0-C ,  7-H ) :   0.8815 B(  1-C ,  2-H ) :   0.8224 B(  1-C ,  3-H ) :   0.8279
B(  1-C ,  4-H ) :   0.8701 B(  1-C ,  5-H ) :   0.1363 B(  1-C ,  6-H ) :   0.1416
B(  1-C ,  7-H ) :   0.1346 B(  2-H ,  3-H ) :   0.2371

Dispersion correction           -0.000521512
FINAL SINGLE POINT ENERGY       -79.738086639757

DIPOLE MOMENT
-------------
                                X             Y             Z
Electronic contribution:      0.00477      -0.07046       0.12561
Nuclear contribution   :     -0.00793       0.09023      -0.16124
                        -----------------------------------------
Total Dipole Moment    :     -0.00316       0.01977      -0.03564
                        -----------------------------------------
Magnitude (a.u.)       :      0.04087
Magnitude (Debye)      :      0.10389

Rotational constants in cm-1:     2.876169     0.710562     0.698917
Rotational constants in MHz : 86225.370734 21302.115394 20952.991121

                             ****ORCA TERMINATED NORMALLY****
TOTAL RUN TIME: 0 days 0 hours 0 minutes 5 seconds 860 msec
