                         Program Version 5.0.0 -  RELEASE  -
|  1> !wB97X-D3 RIJCOSX def2-SVPD def2/J TightSCF
|  2> *xyz 0 1
|  3> C         -0.25875        1.00432       -5.40983
|  4> C          0.39596       -0.37070       -5.33994
|  5> O         -0.32633       -1.39040       -5.49128
|  6> F          1.61941       -0.40073       -5.03683
|  7> H         -1.28979        0.89539       -5.67439
|  8> H          0.23798        1.59877       -6.14792
|  9> H         -0.18395        1.48386       -4.45623
| 10> *
| 11> %MaxCore 64000
| 12>
| 13> %pal nprocs 18
| 14> end
| 15>
| 16> %scf
| 17>   MaxIter 150
| 18> end
| 19>
| 20>
| 21>                          ****END OF INPUT****

CARTESIAN COORDINATES (ANGSTROEM)
---------------------------------
  C     -0.258750    1.004320   -5.409830
  C      0.395960   -0.370700   -5.339940
  O     -0.326330   -1.390400   -5.491280
  F      1.619410   -0.400730   -5.036830
  H     -1.289790    0.895390   -5.674390
  H      0.237980    1.598770   -6.147920
  H     -0.183950    1.483860   -4.456230

 Total Charge           Charge          ....    0
 Multiplicity           Mult            ....    1
 Number of Electrons    NEL             ....   32
 Basis Dimension        Dim             ....  110

ORBITAL ENERGIES
----------------

  NO   OCC          E(Eh)            E(eV)
   0   2.0000     -24.875705      -676.9023
   1   2.0000     -19.258521      -524.0510
   2   2.0000     -10.481651      -285.2202
   3   2.0000     -10.319725      -280.8140
   4   2.0000      -1.424103       -38.7518
   5   2.0000      -1.143062       -31.1043
   6   2.0000      -0.887345       -24.1459
   7   2.0000      -0.767896       -20.8955
   8   2.0000      -0.658941       -17.9307
   9   2.0000      -0.653806       -17.7910
  10   2.0000      -0.609912       -16.5965
  11   2.0000      -0.547900       -14.9091
  12   2.0000      -0.535699       -14.5771
  13   2.0000      -0.506476       -13.7819
  14   2.0000      -0.456899       -12.4328
  15   2.0000      -0.396913       -10.8006
  16   0.0000       0.050841         1.3834
  17   0.0000       0.082700         2.2504
  18   0.0000       0.123451         3.3593
  19   0.0000       0.156617         4.2618
  20   0.0000       0.164007         4.4629

MULLIKEN ATOMIC CHARGES
-----------------------
   0 C :    0.288292
   1 C :    0.446374
   2 O :   -0.468896
   3 F :   -0.375065
   4 H :   -0.011139
   5 H :    0.058006
   6 H :    0.062427
Sum of atomic charges:   -0.0000000

LOEWDIN ATOMIC CHARGES
----------------------
   0 C :    0.208128
   1 C :   -0.021284
   2 O :   -0.146126
   3 F :   -0.046488
   4 H :    0.001972
   5 H :    0.000227
   6 H :    0.003572

  Mayer bond orders larger than 0.100000
B(  0-C ,  1-C ) :   1.2343 B(  0-C ,  4-H ) :   0.9093 B(  0-C ,  5-H ) :   0.8209
B(  0-C ,  6-H ) :   0.8282 B(  1-C ,  2-O ) :   1.8529 B(  1-C ,  3-F ) :   0.7637
B(  1-C ,  4-H ) :   0.1901 B(  1-C ,  5-H ) :   0.1164 B(  1-C ,  6-H ) :   0.1088

Dispersion correction           -0.000902822
FINAL SINGLE POINT ENERGY      -252.839754059506

DIPOLE MOMENT
-------------
                                X             Y             Z
Electronic contribution:      3.60487      -3.41169       0.64287
Nuclear contribution   :     -3.46039       4.64214      -0.59441
                        -----------------------------------------
Total Dipole Moment    :      0.14449       1.23046       0.04846
                        -----------------------------------------
Magnitude (a.u.)       :      1.23986
Magnitude (Debye)      :      3.15147

Rotational constants in cm-1:     0.366844     0.321935     0.177045
Rotational constants in MHz : 10997.709774  9651.373819  5307.687677

                             ****ORCA TERMINATED NORMALLY****
TOTAL RUN TIME: 0 days 0 hours 0 minutes 5 seconds 985 msec
