                         Program Version 5.0.0 -  RELEASE  -
|  1> !wB97X-D3 RIJCOSX def2-SVPD def2/J TightSCF xyzfile
|  2>
|  3> *xyzfile 0 1 D1.xyz
|  4>
|  5> %MaxCore 64000
|  6>
|  7> %pal nprocs 18
|  8> end
|  9>
| 10> %scf
| 11>   MaxIter 150
| 12> end
| 13>
| 14>
| 15>                          ****END OF INPUT****

CARTESIAN COORDINATES (ANGSTROEM)
---------------------------------
  C      0.816067   -2.101491   -2.186546
  H      1.696232   -2.368691   -1.600457
  C      1.100552   -2.467492   -3.599269
  C      0.516243   -0.613634   -2.039373
  H     -0.020066   -2.712849   -1.840844
  C     -0.868621   -0.193925   -2.546303
  C     -0.984801    1.284739   -2.928686
  H     -0.764939    1.904116   -2.051568
  H     -2.032613    1.478953   -3.178952
  C     -0.106085    1.769914   -4.089836
  H     -0.347744    2.822196   -4.262942
  H      0.949683    1.745875   -3.808781
  C     -0.258747    1.004323   -5.409829
  C      0.395958   -0.370696   -5.339939
  H      0.239150    1.569393   -6.201253
  H     -1.309360    0.888694   -5.682455
  H      1.700606   -1.757225   -4.078378
  H      0.293855   -2.359766   -4.256324
  H      1.501324   -3.428479   -3.694915
  F     -0.326329   -1.390398   -5.491279
  O      1.619412   -0.400726   -5.036827
  H     -1.607271   -0.412651   -1.768955
  H     -1.157234   -0.796164   -3.409254
  H      1.299044   -0.056805   -2.558982
  H      0.612393   -0.365579   -0.979171

 Total Charge           Charge          ....    0
 Multiplicity           Mult            ....    1
 Number of Electrons    NEL             ....   80
 Basis Dimension        Dim             ....  326

ORBITAL ENERGIES
----------------

  NO   OCC          E(Eh)            E(eV)
   0   2.0000     -24.883583      -677.1167
   1   2.0000     -19.261042      -524.1196
   2   2.0000     -10.484236      -285.2906
   3   2.0000     -10.326047      -280.9860
   4   2.0000     -10.305646      -280.4309
   5   2.0000     -10.293656      -280.1046
   6   2.0000     -10.286019      -279.8968
   7   2.0000     -10.271975      -279.5146
   8   2.0000     -10.262481      -279.2563
   9   2.0000     -10.213078      -277.9120
  10   2.0000      -1.436617       -39.0923
  11   2.0000      -1.154534       -31.4165
  12   2.0000      -0.939250       -25.5583
  13   2.0000      -0.905736       -24.6463
  14   2.0000      -0.856180       -23.2978
  15   2.0000      -0.817017       -22.2322
  16   2.0000      -0.774964       -21.0878
  17   2.0000      -0.746772       -20.3207
  18   2.0000      -0.708200       -19.2711
  19   2.0000      -0.669607       -18.2209
  20   2.0000      -0.661127       -17.9902
  21   2.0000      -0.648751       -17.6534
  22   2.0000      -0.631153       -17.1745
  23   2.0000      -0.582855       -15.8603
  24   2.0000      -0.561562       -15.2809
  25   2.0000      -0.545835       -14.8529
  26   2.0000      -0.540207       -14.6998
  27   2.0000      -0.526778       -14.3344
  28   2.0000      -0.512089       -13.9347
  29   2.0000      -0.500210       -13.6114
  30   2.0000      -0.481314       -13.0972
  31   2.0000      -0.464933       -12.6515
  32   2.0000      -0.460975       -12.5438
  33   2.0000      -0.446314       -12.1448
  34   2.0000      -0.432274       -11.7628
  35   2.0000      -0.421128       -11.4595
  36   2.0000      -0.411789       -11.2054
  37   2.0000      -0.400011       -10.8848
  38   2.0000      -0.390720       -10.6320
  39   2.0000      -0.358945        -9.7674
  40   0.0000       0.037028         1.0076
  41   0.0000       0.084271         2.2931
  42   0.0000       0.105447         2.8694
  43   0.0000       0.109703         2.9852
  44   0.0000       0.111765         3.0413

MULLIKEN ATOMIC CHARGES
-----------------------
   0 C :    0.124449
   1 H :   -0.077507
   2 C :    1.255556
   3 C :    0.166443
   4 H :   -0.160829
   5 C :    0.148366
   6 C :    0.309296
   7 H :   -0.046609
   8 H :    0.057472
   9 C :    0.032418
  10 H :   -0.170722
  11 H :    0.103548
  12 C :    0.176702
  13 C :    0.540320
  14 H :    0.050018
  15 H :   -0.004721
  16 H :   -0.261722
  17 H :   -0.340711
  18 H :   -0.244488
  19 F :   -0.461336
  20 O :   -0.545211
  21 H :   -0.105824
  22 H :   -0.278303
  23 H :   -0.017079
  24 H :   -0.249522
Sum of atomic charges:   -0.0000000

LOEWDIN ATOMIC CHARGES
----------------------
   0 C :   -0.049205
   1 H :    0.022482
   2 C :    0.124926
   3 C :   -0.021604
   4 H :    0.022430
   5 C :   -0.016126
   6 C :   -0.025760
   7 H :    0.027724
   8 H :    0.021889
   9 C :   -0.014649
  10 H :    0.025761
  11 H :    0.018795
  12 C :    0.064267
  13 C :    0.040209
  14 H :    0.043951
  15 H :    0.032038
  16 H :   -0.099253
  17 H :   -0.075684
  18 H :   -0.012165
  19 F :   -0.051037
  20 O :   -0.130614
  21 H :    0.027824
  22 H :   -0.001734
  23 H :    0.005947
  24 H :    0.019589

  Mayer bond orders larger than 0.100000
B(  0-C ,  1-H ) :   0.8171 B(  0-C ,  2-C ) :   1.0696 B(  0-C ,  3-C ) :   1.1651
B(  0-C ,  4-H ) :   0.8333 B(  0-C , 16-H ) :   0.2536 B(  0-C , 17-H ) :   0.1903
B(  0-C , 18-H ) :   0.1746 B(  0-C , 23-H ) :   0.1473 B(  1-H ,  3-C ) :   0.1581
B(  1-H ,  4-H ) :  -0.1111 B(  2-C ,  3-C ) :   0.1202 B(  2-C ,  4-H ) :   0.1505
B(  2-C , 16-H ) :   0.5129 B(  2-C , 17-H ) :   0.3262 B(  2-C , 18-H ) :   0.6710
B(  2-C , 23-H ) :  -0.1552 B(  2-C , 24-H ) :   0.1017 B(  3-C ,  5-C ) :   1.1387
B(  3-C , 21-H ) :   0.2296 B(  3-C , 23-H ) :   0.8394 B(  3-C , 24-H ) :   0.9200
B(  5-C ,  6-C ) :   1.2163 B(  5-C ,  7-H ) :   0.1624 B(  5-C ,  8-H ) :   0.2012
B(  5-C , 21-H ) :   0.8109 B(  5-C , 22-H ) :   0.8758 B(  5-C , 23-H ) :   0.1054
B(  5-C , 24-H ) :   0.1885 B(  6-C ,  7-H ) :   0.8335 B(  6-C ,  8-H ) :   0.6950
B(  6-C ,  9-C ) :   1.2163 B(  6-C , 10-H ) :   0.1452 B(  6-C , 21-H ) :   0.1015
B(  7-H ,  9-C ) :   0.1405 B(  8-H ,  9-C ) :   0.1381 B(  9-C , 10-H ) :   0.9112
B(  9-C , 11-H ) :   0.8261 B(  9-C , 12-C ) :   1.2093 B(  9-C , 14-H ) :   0.1607
B(  9-C , 15-H ) :   0.1108 B( 10-H , 12-C ) :   0.1170 B( 12-C , 13-C ) :   1.2334
B( 12-C , 14-H ) :   0.7269 B( 12-C , 15-H ) :   0.8921 B( 13-C , 14-H ) :   0.1873
B( 13-C , 15-H ) :   0.1454 B( 13-C , 16-H ) :   0.1099 B( 13-C , 17-H ) :   0.1249
B( 13-C , 19-F ) :   0.6427 B( 13-C , 20-O ) :   1.7126 B( 16-H , 17-H ) :   0.3803
B( 16-H , 20-O ) :   0.1825 B( 16-H , 23-H ) :   0.2086 B( 16-H , 24-H ) :  -0.1467
B( 17-H , 19-F ) :   0.2076 B( 18-H , 23-H ) :  -0.1133

Dispersion correction           -0.010976484
FINAL SINGLE POINT ENERGY      -488.453928429492

DIPOLE MOMENT
-------------
                                X             Y             Z
Electronic contribution:      0.32333      -1.97128     -10.58182
Nuclear contribution   :     -1.21560       2.80077      10.24180
                        -----------------------------------------
Total Dipole Moment    :     -0.89227       0.82949      -0.34001
                        -----------------------------------------
Magnitude (a.u.)       :      1.26483
Magnitude (Debye)      :      3.21495

Rotational constants in cm-1:     0.051255     0.042531     0.028894
Rotational constants in MHz :  1536.587743  1275.050721   866.218876

                             ****ORCA TERMINATED NORMALLY****
TOTAL RUN TIME: 0 days 0 hours 0 minutes 40 seconds 235 msec
