                         Program Version 5.0.0 -  RELEASE  -
|  1> !wB97X-D3 RIJCOSX def2-SVPD def2/J TightSCF CPCM(Water)
|  2> *xyz -1 1
|  3> C         -0.10608        1.76991       -4.08984
|  4> C         -0.25875        1.00432       -5.40983
|  5> C          0.39596       -0.37070       -5.33994
|  6> H          0.23915        1.56939       -6.20125
|  7> H         -1.30936        0.88869       -5.68245
|  8> O         -0.32633       -1.39040       -5.49128
|  9> O          1.61941       -0.40073       -5.03683
| 10> H         -0.57627        2.72718       -4.17630
| 11> H          0.93321        1.90140       -3.87192
| 12> H         -0.56868        1.21534       -3.30031
| 13> *
| 14> %MaxCore 64000
| 15>
| 16> %pal nprocs 18
| 17> end
| 18>
| 19> %scf
| 20>   MaxIter 150
| 21> end
| 22>
| 23>
| 24>                          ****END OF INPUT****

CARTESIAN COORDINATES (ANGSTROEM)
---------------------------------
  C     -0.106080    1.769910   -4.089840
  C     -0.258750    1.004320   -5.409830
  C      0.395960   -0.370700   -5.339940
  H      0.239150    1.569390   -6.201250
  H     -1.309360    0.888690   -5.682450
  O     -0.326330   -1.390400   -5.491280
  O      1.619410   -0.400730   -5.036830
  H     -0.576270    2.727180   -4.176300
  H      0.933210    1.901400   -3.871920
  H     -0.568680    1.215340   -3.300310

 Total Charge           Charge          ....   -1
 Multiplicity           Mult            ....    1
 Number of Electrons    NEL             ....   40
 Basis Dimension        Dim             ....  146

ORBITAL ENERGIES
----------------

  NO   OCC          E(Eh)            E(eV)
   0   2.0000     -19.178795      -521.8815
   1   2.0000     -19.176523      -521.8197
   2   2.0000     -10.366459      -282.0857
   3   2.0000     -10.271212      -279.4939
   4   2.0000     -10.266054      -279.3535
   5   2.0000      -1.122374       -30.5414
   6   2.0000      -1.026072       -27.9208
   7   2.0000      -0.865990       -23.5648
   8   2.0000      -0.732953       -19.9447
   9   2.0000      -0.591055       -16.0834
  10   2.0000      -0.546576       -14.8731
  11   2.0000      -0.537733       -14.6325
  12   2.0000      -0.507440       -13.8081
  13   2.0000      -0.491963       -13.3870
  14   2.0000      -0.466226       -12.6866
  15   2.0000      -0.438520       -11.9327
  16   2.0000      -0.426042       -11.5932
  17   2.0000      -0.342829        -9.3289
  18   2.0000      -0.330379        -8.9901
  19   2.0000      -0.322665        -8.7802
  20   0.0000       0.095333         2.5942
  21   0.0000       0.119397         3.2490
  22   0.0000       0.130501         3.5511
  23   0.0000       0.141090         3.8392
  24   0.0000       0.151405         4.1200

MULLIKEN ATOMIC CHARGES
-----------------------
   0 C :    0.491844
   1 C :   -0.302450
   2 C :    0.396186
   3 H :    0.037436
   4 H :   -0.042610
   5 O :   -0.714916
   6 O :   -0.746874
   7 H :   -0.028640
   8 H :   -0.042487
   9 H :   -0.047487
Sum of atomic charges:   -1.0000000

LOEWDIN ATOMIC CHARGES
----------------------
   0 C :    0.117107
   1 C :   -0.035407
   2 C :   -0.324114
   3 H :    0.024260
   4 H :    0.012288
   5 O :   -0.369412
   6 O :   -0.367543
   7 H :   -0.019227
   8 H :   -0.025028
   9 H :   -0.012925

  Mayer bond orders larger than 0.100000
B(  0-C ,  1-C ) :   1.2802 B(  0-C ,  7-H ) :   0.8654 B(  0-C ,  8-H ) :   0.8469
B(  0-C ,  9-H ) :   0.8706 B(  1-C ,  2-C ) :   1.0509 B(  1-C ,  3-H ) :   0.8877
B(  1-C ,  4-H ) :   0.9753 B(  1-C ,  7-H ) :   0.1384 B(  1-C ,  8-H ) :   0.1712
B(  1-C ,  9-H ) :   0.1468 B(  2-C ,  4-H ) :   0.1446 B(  2-C ,  5-O ) :   1.4824
B(  2-C ,  6-O ) :   1.4856 B(  5-O ,  6-O ) :   0.1361

Dispersion correction           -0.001961723
FINAL SINGLE POINT ENERGY      -267.692502174959

DIPOLE MOMENT
-------------
                                X             Y             Z
Electronic contribution:      1.42350      -4.56252      -1.64873
Nuclear contribution   :     -2.46071       7.20791       1.95694
                        -----------------------------------------
Total Dipole Moment    :     -1.03721       2.64539       0.30821
                        -----------------------------------------
Magnitude (a.u.)       :      2.85813
Magnitude (Debye)      :      7.26478

Rotational constants in cm-1:     0.309435     0.135317     0.107436
Rotational constants in MHz :  9276.637721  4056.700783  3220.846587

                             ****ORCA TERMINATED NORMALLY****
TOTAL RUN TIME: 0 days 0 hours 0 minutes 7 seconds 864 msec
