                         Program Version 5.0.0 -  RELEASE  -
|  1> !wB97X-D3 RIJCOSX def2-SVPD def2/J TightSCF CPCM(Water)
|  2> *xyz 1 1
|  3> C          0.81607       -2.10149       -2.18655
|  4> H          1.69623       -2.36869       -1.60046
|  5> N          1.10055       -2.46749       -3.59927
|  6> C          0.51624       -0.61363       -2.03937
|  7> H         -0.02007       -2.71285       -1.84084
|  8> H          1.70061       -1.75723       -4.07838
|  9> H          0.29386       -2.35977       -4.25632
| 10> H          1.50132       -3.42848       -3.69491
| 11> H         -0.34841       -0.36504       -2.61858
| 12> H          1.35358       -0.04503       -2.38643
| 13> H          0.33317       -0.38682       -1.00984
| 14> *
| 15> %MaxCore 64000
| 16>
| 17> %pal nprocs 18
| 18> end
| 19>
| 20> %scf
| 21>   MaxIter 150
| 22> end
| 23>
| 24>
| 25>                          ****END OF INPUT****

CARTESIAN COORDINATES (ANGSTROEM)
---------------------------------
  C      0.816070   -2.101490   -2.186550
  H      1.696230   -2.368690   -1.600460
  N      1.100550   -2.467490   -3.599270
  C      0.516240   -0.613630   -2.039370
  H     -0.020070   -2.712850   -1.840840
  H      1.700610   -1.757230   -4.078380
  H      0.293860   -2.359770   -4.256320
  H      1.501320   -3.428480   -3.694910
  H     -0.348410   -0.365040   -2.618580
  H      1.353580   -0.045030   -2.386430
  H      0.333170   -0.386820   -1.009840

 Total Charge           Charge          ....    1
 Multiplicity           Mult            ....    1
 Number of Electrons    NEL             ....   26
 Basis Dimension        Dim             ....  124

ORBITAL ENERGIES
----------------

  NO   OCC          E(Eh)            E(eV)
   0   2.0000     -14.558417      -396.1547
   1   2.0000     -10.352921      -281.7173
   2   2.0000     -10.289911      -280.0027
   3   2.0000      -1.102593       -30.0031
   4   2.0000      -0.885722       -24.1017
   5   2.0000      -0.763996       -20.7894
   6   2.0000      -0.678425       -18.4609
   7   2.0000      -0.660669       -17.9777
   8   2.0000      -0.605101       -16.4656
   9   2.0000      -0.548096       -14.9145
  10   2.0000      -0.501228       -13.6391
  11   2.0000      -0.482917       -13.1408
  12   2.0000      -0.462916       -12.5966
  13   0.0000       0.085095         2.3156
  14   0.0000       0.118084         3.2132
  15   0.0000       0.125961         3.4276
  16   0.0000       0.146881         3.9968
  17   0.0000       0.166646         4.5347

MULLIKEN ATOMIC CHARGES
-----------------------
   0 C :    0.187082
   1 H :   -0.009244
   2 N :   -1.057918
   3 C :    0.416971
   4 H :   -0.025402
   5 H :    0.486742
   6 H :    0.448550
   7 H :    0.467919
   8 H :    0.049600
   9 H :    0.022594
  10 H :    0.013106
Sum of atomic charges:    1.0000000

LOEWDIN ATOMIC CHARGES
----------------------
   0 C :    0.051922
   1 H :    0.049281
   2 N :    0.324425
   3 C :    0.149244
   4 H :    0.049939
   5 H :    0.123018
   6 H :    0.128150
   7 H :    0.131319
   8 H :   -0.003414
   9 H :   -0.004116
  10 H :    0.000233

  Mayer bond orders larger than 0.100000
B(  0-C ,  1-H ) :   0.9509 B(  0-C ,  2-N ) :   0.6321 B(  0-C ,  3-C ) :   1.2987
B(  0-C ,  4-H ) :   0.9640 B(  0-C ,  8-H ) :   0.1268 B(  0-C ,  9-H ) :   0.1329
B(  0-C , 10-H ) :   0.1689 B(  2-N ,  4-H ) :   0.1031 B(  2-N ,  5-H ) :   0.6022
B(  2-N ,  6-H ) :   0.6814 B(  2-N ,  7-H ) :   0.6146 B(  3-C ,  8-H ) :   0.8537
B(  3-C ,  9-H ) :   0.8699 B(  3-C , 10-H ) :   0.8488

Dispersion correction           -0.001532289
FINAL SINGLE POINT ENERGY      -135.517847781478

DIPOLE MOMENT
-------------
                                X             Y             Z
Electronic contribution:      0.51405      -1.66072      -1.42234
Nuclear contribution   :     -0.07506       0.54337      -0.16191
                        -----------------------------------------
Total Dipole Moment    :      0.43900      -1.11736      -1.58425
                        -----------------------------------------
Magnitude (a.u.)       :      1.98773
Magnitude (Debye)      :      5.05240

Rotational constants in cm-1:     0.999557     0.280801     0.246932
Rotational constants in MHz : 29965.963633  8418.199581  7402.841054

                             ****ORCA TERMINATED NORMALLY****
TOTAL RUN TIME: 0 days 0 hours 0 minutes 6 seconds 268 msec
