                         Program Version 5.0.0 -  RELEASE  -
|  1> !wB97X-D3 RIJCOSX def2-SVPD def2/J TightSCF CPCM(Water) xyzfile
|  2>
|  3> *xyzfile 0 1 B.xyz
|  4>
|  5> %MaxCore 64000
|  6>
|  7> %pal nprocs 18
|  8> end
|  9>
| 10> %scf
| 11>   MaxIter 150
| 12> end
| 13>
| 14>
| 15>                          ****END OF INPUT****

CARTESIAN COORDINATES (ANGSTROEM)
---------------------------------
  C      0.816067   -2.101491   -2.186546
  H      1.696232   -2.368691   -1.600457
  N      1.100552   -2.467492   -3.599269
  C      0.516243   -0.613634   -2.039373
  H     -0.020066   -2.712849   -1.840844
  C     -0.868621   -0.193925   -2.546303
  C     -0.984801    1.284739   -2.928686
  H     -0.764939    1.904116   -2.051568
  H     -2.032613    1.478953   -3.178952
  C     -0.106085    1.769914   -4.089836
  H     -0.347744    2.822196   -4.262942
  H      0.949683    1.745875   -3.808781
  C     -0.258747    1.004323   -5.409829
  C      0.395958   -0.370696   -5.339939
  H      0.239150    1.569393   -6.201253
  H     -1.309360    0.888694   -5.682455
  H      1.700606   -1.757225   -4.078378
  H      0.293855   -2.359766   -4.256324
  H      1.501324   -3.428479   -3.694915
  O     -0.326329   -1.390398   -5.491279
  O      1.619412   -0.400726   -5.036827
  H     -1.607271   -0.412651   -1.768955
  H     -1.157234   -0.796164   -3.409254
  H      1.299044   -0.056805   -2.558982
  H      0.612393   -0.365579   -0.979171

 Total Charge           Charge          ....    0
 Multiplicity           Mult            ....    1
 Number of Electrons    NEL             ....   80
 Basis Dimension        Dim             ....  326

ORBITAL ENERGIES
----------------

  NO   OCC          E(Eh)            E(eV)
   0   2.0000     -19.203558      -522.5554
   1   2.0000     -19.203409      -522.5513
   2   2.0000     -14.500470      -394.5778
   3   2.0000     -10.390577      -282.7420
   4   2.0000     -10.334529      -281.2168
   5   2.0000     -10.287726      -279.9433
   6   2.0000     -10.281042      -279.7614
   7   2.0000     -10.279315      -279.7144
   8   2.0000     -10.278807      -279.7006
   9   2.0000     -10.278400      -279.6895
  10   2.0000      -1.158440       -31.5227
  11   2.0000      -1.063915       -28.9506
  12   2.0000      -1.057849       -28.7855
  13   2.0000      -0.919671       -25.0255
  14   2.0000      -0.877051       -23.8658
  15   2.0000      -0.829959       -22.5843
  16   2.0000      -0.762944       -20.7608
  17   2.0000      -0.726669       -19.7737
  18   2.0000      -0.667697       -18.1690
  19   2.0000      -0.653424       -17.7806
  20   2.0000      -0.628869       -17.1124
  21   2.0000      -0.616580       -16.7780
  22   2.0000      -0.581705       -15.8290
  23   2.0000      -0.572998       -15.5921
  24   2.0000      -0.560255       -15.2453
  25   2.0000      -0.546376       -14.8676
  26   2.0000      -0.528876       -14.3915
  27   2.0000      -0.515459       -14.0263
  28   2.0000      -0.502646       -13.6777
  29   2.0000      -0.494741       -13.4626
  30   2.0000      -0.487324       -13.2608
  31   2.0000      -0.459881       -12.5140
  32   2.0000      -0.445966       -12.1354
  33   2.0000      -0.440434       -11.9848
  34   2.0000      -0.416124       -11.3233
  35   2.0000      -0.404315       -11.0020
  36   2.0000      -0.401957       -10.9378
  37   2.0000      -0.366592        -9.9755
  38   2.0000      -0.353150        -9.6097
  39   2.0000      -0.347805        -9.4643
  40   0.0000       0.091126         2.4797
  41   0.0000       0.097379         2.6498
  42   0.0000       0.111871         3.0442
  43   0.0000       0.113716         3.0944
  44   0.0000       0.117892         3.2080

MULLIKEN ATOMIC CHARGES
-----------------------
   0 C :    0.934166
   1 H :   -0.084611
   2 N :   -0.636792
   3 C :   -0.002574
   4 H :   -0.109625
   5 C :    0.150130
   6 C :    0.292677
   7 H :   -0.042280
   8 H :    0.088015
   9 C :    0.007557
  10 H :   -0.175518
  11 H :    0.078399
  12 C :    0.238245
  13 C :    0.242955
  14 H :    0.043981
  15 H :   -0.036668
  16 H :    0.328554
  17 H :    0.277895
  18 H :    0.354047
  19 O :   -0.702367
  20 O :   -0.726707
  21 H :   -0.108419
  22 H :   -0.232563
  23 H :    0.000915
  24 H :   -0.179410
Sum of atomic charges:    0.0000000

LOEWDIN ATOMIC CHARGES
----------------------
   0 C :    0.102616
   1 H :    0.041911
   2 N :    0.321366
   3 C :   -0.000739
   4 H :    0.044722
   5 C :   -0.014229
   6 C :   -0.022836
   7 H :    0.025298
   8 H :    0.024829
   9 C :   -0.023989
  10 H :    0.021857
  11 H :    0.008374
  12 C :    0.039557
  13 C :   -0.210991
  14 H :    0.033670
  15 H :    0.025542
  16 H :   -0.021894
  17 H :   -0.019202
  18 H :    0.124542
  19 O :   -0.286351
  20 O :   -0.273423
  21 H :    0.028170
  22 H :   -0.008026
  23 H :    0.006107
  24 H :    0.033118

  Mayer bond orders larger than 0.100000
B(  0-C ,  1-H ) :   0.8043 B(  0-C ,  2-N ) :   0.6941 B(  0-C ,  3-C ) :   1.1489
B(  0-C ,  4-H ) :   0.8406 B(  1-H ,  3-C ) :   0.1909 B(  2-N ,  4-H ) :   0.1958
B(  2-N , 13-C ) :   0.1238 B(  2-N , 16-H ) :   0.7633 B(  2-N , 17-H ) :   0.8580
B(  2-N , 18-H ) :   0.7584 B(  3-C ,  5-C ) :   1.1631 B(  3-C , 21-H ) :   0.2148
B(  3-C , 22-H ) :   0.1160 B(  3-C , 23-H ) :   0.8988 B(  3-C , 24-H ) :   0.9279
B(  5-C ,  6-C ) :   1.2273 B(  5-C ,  7-H ) :   0.1577 B(  5-C ,  8-H ) :   0.2007
B(  5-C , 21-H ) :   0.8088 B(  5-C , 22-H ) :   0.8767 B(  5-C , 23-H ) :   0.1027
B(  5-C , 24-H ) :   0.1679 B(  6-C ,  7-H ) :   0.8358 B(  6-C ,  8-H ) :   0.6893
B(  6-C ,  9-C ) :   1.2256 B(  6-C , 10-H ) :   0.1353 B(  6-C , 11-H ) :   0.1017
B(  6-C , 21-H ) :   0.1028 B(  7-H ,  9-C ) :   0.1458 B(  8-H ,  9-C ) :   0.1460
B(  9-C , 10-H ) :   0.9183 B(  9-C , 11-H ) :   0.8245 B(  9-C , 12-C ) :   1.2213
B(  9-C , 14-H ) :   0.1574 B(  9-C , 15-H ) :   0.1258 B( 10-H , 11-H ) :  -0.1020
B( 10-H , 12-C ) :   0.1090 B( 12-C , 13-C ) :   1.1790 B( 12-C , 14-H ) :   0.7338
B( 12-C , 15-H ) :   0.8535 B( 13-C , 14-H ) :   0.1716 B( 13-C , 15-H ) :   0.2332
B( 13-C , 19-O ) :   1.4462 B( 13-C , 20-O ) :   1.3806 B( 16-H , 20-O ) :   0.1768
B( 17-H , 19-O ) :   0.1811 B( 19-O , 20-O ) :   0.1005

Dispersion correction           -0.011303590
FINAL SINGLE POINT ENERGY      -480.588567015072

DIPOLE MOMENT
-------------
                                X             Y             Z
Electronic contribution:      2.34253      -3.41202      -5.64284
Nuclear contribution   :     -2.02598       1.95876       8.24116
                        -----------------------------------------
Total Dipole Moment    :      0.31656      -1.45326       2.59831
                        -----------------------------------------
Magnitude (a.u.)       :      2.99389
Magnitude (Debye)      :      7.60988

Rotational constants in cm-1:     0.052900     0.041948     0.028766
Rotational constants in MHz :  1585.892512  1257.572595   862.390225

                             ****ORCA TERMINATED NORMALLY****
TOTAL RUN TIME: 0 days 0 hours 0 minutes 36 seconds 116 msec
