                         Program Version 5.0.0 -  RELEASE  -
|  1> !wB97X-D3 RIJCOSX def2-SVPD def2/J TightSCF CPCM(Water)
|  2> *xyz 0 1
|  3> C         -0.10608        1.76991       -4.08984
|  4> C         -0.25875        1.00432       -5.40983
|  5> C          0.39596       -0.37070       -5.33994
|  6> H          0.23915        1.56939       -6.20125
|  7> H         -1.30936        0.88869       -5.68245
|  8> F         -0.32633       -1.39040       -5.49128
|  9> O          1.61941       -0.40073       -5.03683
| 10> H         -0.57627        2.72718       -4.17630
| 11> H          0.93321        1.90140       -3.87192
| 12> H         -0.56868        1.21534       -3.30031
| 13> *
| 14> %MaxCore 64000
| 15>
| 16> %pal nprocs 18
| 17> end
| 18>
| 19> %scf
| 20>   MaxIter 150
| 21> end
| 22>
| 23>
| 24>                          ****END OF INPUT****

CARTESIAN COORDINATES (ANGSTROEM)
---------------------------------
  C     -0.106080    1.769910   -4.089840
  C     -0.258750    1.004320   -5.409830
  C      0.395960   -0.370700   -5.339940
  H      0.239150    1.569390   -6.201250
  H     -1.309360    0.888690   -5.682450
  F     -0.326330   -1.390400   -5.491280
  O      1.619410   -0.400730   -5.036830
  H     -0.576270    2.727180   -4.176300
  H      0.933210    1.901400   -3.871920
  H     -0.568680    1.215340   -3.300310

 Total Charge           Charge          ....    0
 Multiplicity           Mult            ....    1
 Number of Electrons    NEL             ....   40
 Basis Dimension        Dim             ....  146

ORBITAL ENERGIES
----------------

  NO   OCC          E(Eh)            E(eV)
   0   2.0000     -24.876583      -676.9262
   1   2.0000     -19.262363      -524.1555
   2   2.0000     -10.481278      -285.2101
   3   2.0000     -10.312191      -280.6090
   4   2.0000     -10.283810      -279.8367
   5   2.0000      -1.424482       -38.7621
   6   2.0000      -1.148290       -31.2466
   7   2.0000      -0.903512       -24.5858
   8   2.0000      -0.793744       -21.5989
   9   2.0000      -0.743429       -20.2297
  10   2.0000      -0.657452       -17.8902
  11   2.0000      -0.640894       -17.4396
  12   2.0000      -0.616075       -16.7643
  13   2.0000      -0.557427       -15.1684
  14   2.0000      -0.535156       -14.5623
  15   2.0000      -0.494169       -13.4470
  16   2.0000      -0.470196       -12.7947
  17   2.0000      -0.463179       -12.6037
  18   2.0000      -0.444239       -12.0884
  19   2.0000      -0.401666       -10.9299
  20   0.0000       0.047215         1.2848
  21   0.0000       0.090611         2.4656
  22   0.0000       0.123698         3.3660
  23   0.0000       0.133698         3.6381
  24   0.0000       0.147874         4.0239

MULLIKEN ATOMIC CHARGES
-----------------------
   0 C :    0.455660
   1 C :   -0.446648
   2 C :    0.779127
   3 H :    0.125760
   4 H :    0.047805
   5 F :   -0.379623
   6 O :   -0.561586
   7 H :    0.005824
   8 H :   -0.010716
   9 H :   -0.015603
Sum of atomic charges:    0.0000000

LOEWDIN ATOMIC CHARGES
----------------------
   0 C :    0.141103
   1 C :    0.011674
   2 C :    0.008997
   3 H :    0.048229
   4 H :    0.034116
   5 F :   -0.034369
   6 O :   -0.187300
   7 H :   -0.005882
   8 H :   -0.012533
   9 H :   -0.004035

  Mayer bond orders larger than 0.100000
B(  0-C ,  1-C ) :   1.2929 B(  0-C ,  7-H ) :   0.8719 B(  0-C ,  8-H ) :   0.8554
B(  0-C ,  9-H ) :   0.8779 B(  1-C ,  2-C ) :   1.1031 B(  1-C ,  3-H ) :   0.8849
B(  1-C ,  4-H ) :   0.9760 B(  1-C ,  7-H ) :   0.1312 B(  1-C ,  8-H ) :   0.1543
B(  1-C ,  9-H ) :   0.1376 B(  2-C ,  5-F ) :   0.7514 B(  2-C ,  6-O ) :   1.7852

Dispersion correction           -0.001915525
FINAL SINGLE POINT ENERGY      -292.123903121374

DIPOLE MOMENT
-------------
                                X             Y             Z
Electronic contribution:      0.50214      -8.02081      -2.65631
Nuclear contribution   :     -1.80992       8.85192       2.42184
                        -----------------------------------------
Total Dipole Moment    :     -1.30779       0.83111      -0.23447
                        -----------------------------------------
Magnitude (a.u.)       :      1.56717
Magnitude (Debye)      :      3.98344

Rotational constants in cm-1:     0.298360     0.128849     0.102271
Rotational constants in MHz :  8944.606599  3862.796179  3066.020510

                             ****ORCA TERMINATED NORMALLY****
TOTAL RUN TIME: 0 days 0 hours 0 minutes 8 seconds 220 msec
