                         Program Version 5.0.0 -  RELEASE  -
|  1> !wB97X-D3 RIJCOSX def2-SVPD def2/J TightSCF CPCM(Water)
|  2> *xyz 0 1
|  3> C          0.81607       -2.10149       -2.18655
|  4> H          1.69623       -2.36869       -1.60046
|  5> C          1.10055       -2.46749       -3.59927
|  6> C          0.51624       -0.61363       -2.03937
|  7> H         -0.02007       -2.71285       -1.84084
|  8> H          1.70061       -1.75723       -4.07838
|  9> H          0.29386       -2.35977       -4.25632
| 10> H          1.50132       -3.42848       -3.69491
| 11> H         -0.34841       -0.36504       -2.61858
| 12> H          1.35358       -0.04503       -2.38643
| 13> H          0.33317       -0.38682       -1.00984
| 14> *
| 15> %MaxCore 64000
| 16>
| 17> %pal nprocs 18
| 18> end
| 19>
| 20> %scf
| 21>   MaxIter 150
| 22> end
| 23>
| 24>
| 25>                          ****END OF INPUT****

CARTESIAN COORDINATES (ANGSTROEM)
---------------------------------
  C      0.816070   -2.101490   -2.186550
  H      1.696230   -2.368690   -1.600460
  C      1.100550   -2.467490   -3.599270
  C      0.516240   -0.613630   -2.039370
  H     -0.020070   -2.712850   -1.840840
  H      1.700610   -1.757230   -4.078380
  H      0.293860   -2.359770   -4.256320
  H      1.501320   -3.428480   -3.694910
  H     -0.348410   -0.365040   -2.618580
  H      1.353580   -0.045030   -2.386430
  H      0.333170   -0.386820   -1.009840

 Total Charge           Charge          ....    0
 Multiplicity           Mult            ....    1
 Number of Electrons    NEL             ....   26
 Basis Dimension        Dim             ....  124

ORBITAL ENERGIES
----------------

  NO   OCC          E(Eh)            E(eV)
   0   2.0000     -10.274431      -279.5815
   1   2.0000     -10.264420      -279.3091
   2   2.0000     -10.251854      -278.9671
   3   2.0000      -0.897078       -24.4107
   4   2.0000      -0.792301       -21.5596
   5   2.0000      -0.690660       -18.7938
   6   2.0000      -0.558617       -15.2007
   7   2.0000      -0.543429       -14.7875
   8   2.0000      -0.507130       -13.7997
   9   2.0000      -0.468842       -12.7579
  10   2.0000      -0.432156       -11.7596
  11   2.0000      -0.427655       -11.6371
  12   2.0000      -0.409678       -11.1479
  13   0.0000       0.101470         2.7611
  14   0.0000       0.126639         3.4460
  15   0.0000       0.134601         3.6627
  16   0.0000       0.169231         4.6050
  17   0.0000       0.186995         5.0884

MULLIKEN ATOMIC CHARGES
-----------------------
   0 C :   -0.563505
   1 H :   -0.049669
   2 C :    0.698493
   3 C :    0.524427
   4 H :   -0.074089
   5 H :   -0.171491
   6 H :   -0.152313
   7 H :   -0.115525
   8 H :   -0.021649
   9 H :   -0.011253
  10 H :   -0.063425
Sum of atomic charges:   -0.0000000

LOEWDIN ATOMIC CHARGES
----------------------
   0 C :   -0.121875
   1 H :    0.021604
   2 C :    0.094490
   3 C :    0.109160
   4 H :    0.022141
   5 H :   -0.028572
   6 H :   -0.025640
   7 H :   -0.021867
   8 H :   -0.013696
   9 H :   -0.015033
  10 H :   -0.020712

  Mayer bond orders larger than 0.100000
B(  0-C ,  1-H ) :   0.9511 B(  0-C ,  2-C ) :   1.2609 B(  0-C ,  3-C ) :   1.2548
B(  0-C ,  4-H ) :   0.9732 B(  0-C ,  5-H ) :   0.1625 B(  0-C ,  6-H ) :   0.1632
B(  0-C ,  7-H ) :   0.1712 B(  0-C ,  8-H ) :   0.1665 B(  0-C ,  9-H ) :   0.1500
B(  0-C , 10-H ) :   0.1676 B(  2-C ,  4-H ) :   0.1022 B(  2-C ,  5-H ) :   0.7650
B(  2-C ,  6-H ) :   0.7458 B(  2-C ,  7-H ) :   0.8188 B(  3-C ,  8-H ) :   0.8512
B(  3-C ,  9-H ) :   0.8570 B(  3-C , 10-H ) :   0.8585 B(  5-H ,  6-H ) :   0.2879

Dispersion correction           -0.001479541
FINAL SINGLE POINT ENERGY      -119.016185163627

DIPOLE MOMENT
-------------
                                X             Y             Z
Electronic contribution:     -0.01771      -0.30410       0.45072
Nuclear contribution   :      0.01737       0.30387      -0.47422
                        -----------------------------------------
Total Dipole Moment    :     -0.00033      -0.00023      -0.02349
                        -----------------------------------------
Magnitude (a.u.)       :      0.02349
Magnitude (Debye)      :      0.05972

Rotational constants in cm-1:     1.006891     0.295208     0.258491
Rotational constants in MHz : 30185.831813  8850.104914  7749.351732

                             ****ORCA TERMINATED NORMALLY****
TOTAL RUN TIME: 0 days 0 hours 0 minutes 6 seconds 159 msec
