                         Program Version 5.0.0 -  RELEASE  -
|  1> !wB97X-D3 RIJCOSX def2-SVPD def2/J TightSCF CPCM(Water)
|  2> *xyz 0 1
|  3> C         -0.10608        1.76991       -4.08984
|  4> C         -0.25875        1.00432       -5.40983
|  5> C          0.39596       -0.37070       -5.33994
|  6> H          0.23915        1.56939       -6.20125
|  7> H         -1.30936        0.88869       -5.68245
|  8> O         -0.32633       -1.39040       -5.49128
|  9> F          1.61941       -0.40073       -5.03683
| 10> H         -0.57627        2.72718       -4.17630
| 11> H          0.93321        1.90140       -3.87192
| 12> H         -0.56868        1.21534       -3.30031
| 13> *
| 14> %MaxCore 64000
| 15>
| 16> %pal nprocs 18
| 17> end
| 18>
| 19> %scf
| 20>   MaxIter 150
| 21> end
| 22>
| 23>
| 24>                          ****END OF INPUT****

CARTESIAN COORDINATES (ANGSTROEM)
---------------------------------
  C     -0.106080    1.769910   -4.089840
  C     -0.258750    1.004320   -5.409830
  C      0.395960   -0.370700   -5.339940
  H      0.239150    1.569390   -6.201250
  H     -1.309360    0.888690   -5.682450
  O     -0.326330   -1.390400   -5.491280
  F      1.619410   -0.400730   -5.036830
  H     -0.576270    2.727180   -4.176300
  H      0.933210    1.901400   -3.871920
  H     -0.568680    1.215340   -3.300310

 Total Charge           Charge          ....    0
 Multiplicity           Mult            ....    1
 Number of Electrons    NEL             ....   40
 Basis Dimension        Dim             ....  146

ORBITAL ENERGIES
----------------

  NO   OCC          E(Eh)            E(eV)
   0   2.0000     -24.875510      -676.8970
   1   2.0000     -19.263987      -524.1997
   2   2.0000     -10.481135      -285.2062
   3   2.0000     -10.312132      -280.6074
   4   2.0000     -10.284836      -279.8646
   5   2.0000      -1.423292       -38.7298
   6   2.0000      -1.149280       -31.2735
   7   2.0000      -0.906744       -24.6738
   8   2.0000      -0.789157       -21.4740
   9   2.0000      -0.746470       -20.3125
  10   2.0000      -0.658122       -17.9084
  11   2.0000      -0.645657       -17.5692
  12   2.0000      -0.609083       -16.5740
  13   2.0000      -0.557651       -15.1744
  14   2.0000      -0.530232       -14.4284
  15   2.0000      -0.498877       -13.5751
  16   2.0000      -0.477423       -12.9913
  17   2.0000      -0.461821       -12.5668
  18   2.0000      -0.450937       -12.2706
  19   2.0000      -0.397819       -10.8252
  20   0.0000       0.049801         1.3552
  21   0.0000       0.089872         2.4455
  22   0.0000       0.123007         3.3472
  23   0.0000       0.133190         3.6243
  24   0.0000       0.148871         4.0510

MULLIKEN ATOMIC CHARGES
-----------------------
   0 C :    0.429701
   1 C :   -0.431811
   2 C :    0.791612
   3 H :    0.124818
   4 H :    0.019031
   5 O :   -0.534586
   6 F :   -0.401940
   7 H :    0.010578
   8 H :    0.007224
   9 H :   -0.014626
Sum of atomic charges:    0.0000000

LOEWDIN ATOMIC CHARGES
----------------------
   0 C :    0.139638
   1 C :    0.013369
   2 C :    0.002390
   3 H :    0.046887
   4 H :    0.038540
   5 O :   -0.186531
   6 F :   -0.035205
   7 H :   -0.005595
   8 H :   -0.009329
   9 H :   -0.004164

  Mayer bond orders larger than 0.100000
B(  0-C ,  1-C ) :   1.2767 B(  0-C ,  7-H ) :   0.8760 B(  0-C ,  8-H ) :   0.8483
B(  0-C ,  9-H ) :   0.8869 B(  1-C ,  2-C ) :   1.0792 B(  1-C ,  3-H ) :   0.8809
B(  1-C ,  4-H ) :   1.0086 B(  1-C ,  7-H ) :   0.1325 B(  1-C ,  8-H ) :   0.1479
B(  1-C ,  9-H ) :   0.1342 B(  2-C ,  4-H ) :   0.1057 B(  2-C ,  5-O ) :   1.7926
B(  2-C ,  6-F ) :   0.7286

Dispersion correction           -0.001926137
FINAL SINGLE POINT ENERGY      -292.125559030952

DIPOLE MOMENT
-------------
                                X             Y             Z
Electronic contribution:      4.16585      -6.13891      -1.79918
Nuclear contribution   :     -3.93139       7.77287       1.92635
                        -----------------------------------------
Total Dipole Moment    :      0.23446       1.63397       0.12717
                        -----------------------------------------
Magnitude (a.u.)       :      1.65559
Magnitude (Debye)      :      4.20818

Rotational constants in cm-1:     0.286068     0.133630     0.103472
Rotational constants in MHz :  8576.109806  4006.118234  3102.010802

                             ****ORCA TERMINATED NORMALLY****
TOTAL RUN TIME: 0 days 0 hours 0 minutes 8 seconds 476 msec
