                         Program Version 5.0.0 -  RELEASE  -
|  1> !wB97X-D3 RIJCOSX def2-SVPD def2/J TightSCF CPCM(Water) xyzfile
|  2>
|  3> *xyzfile 0 1 D1.xyz
|  4>
|  5> %MaxCore 64000
|  6>
|  7> %pal nprocs 18
|  8> end
|  9>
| 10> %scf
| 11>   MaxIter 150
| 12> end
| 13>
| 14>
| 15>                          ****END OF INPUT****

CARTESIAN COORDINATES (ANGSTROEM)
---------------------------------
  C      0.816067   -2.101491   -2.186546
  H      1.696232   -2.368691   -1.600457
  C      1.100552   -2.467492   -3.599269
  C      0.516243   -0.613634   -2.039373
  H     -0.020066   -2.712849   -1.840844
  C     -0.868621   -0.193925   -2.546303
  C     -0.984801    1.284739   -2.928686
  H     -0.764939    1.904116   -2.051568
  H     -2.032613    1.478953   -3.178952
  C     -0.106085    1.769914   -4.089836
  H     -0.347744    2.822196   -4.262942
  H      0.949683    1.745875   -3.808781
  C     -0.258747    1.004323   -5.409829
  C      0.395958   -0.370696   -5.339939
  H      0.239150    1.569393   -6.201253
  H     -1.309360    0.888694   -5.682455
  H      1.700606   -1.757225   -4.078378
  H      0.293855   -2.359766   -4.256324
  H      1.501324   -3.428479   -3.694915
  F     -0.326329   -1.390398   -5.491279
  O      1.619412   -0.400726   -5.036827
  H     -1.607271   -0.412651   -1.768955
  H     -1.157234   -0.796164   -3.409254
  H      1.299044   -0.056805   -2.558982
  H      0.612393   -0.365579   -0.979171

 Total Charge           Charge          ....    0
 Multiplicity           Mult            ....    1
 Number of Electrons    NEL             ....   80
 Basis Dimension        Dim             ....  326

ORBITAL ENERGIES
----------------

  NO   OCC          E(Eh)            E(eV)
   0   2.0000     -24.880189      -677.0244
   1   2.0000     -19.261776      -524.1396
   2   2.0000     -10.483495      -285.2704
   3   2.0000     -10.310957      -280.5754
   4   2.0000     -10.293339      -280.0960
   5   2.0000     -10.282414      -279.7987
   6   2.0000     -10.279231      -279.7121
   7   2.0000     -10.271328      -279.4970
   8   2.0000     -10.266644      -279.3696
   9   2.0000     -10.220878      -278.1242
  10   2.0000      -1.432977       -38.9933
  11   2.0000      -1.156220       -31.4623
  12   2.0000      -0.929373       -25.2895
  13   2.0000      -0.903657       -24.5898
  14   2.0000      -0.851481       -23.1700
  15   2.0000      -0.813272       -22.1302
  16   2.0000      -0.771896       -21.0044
  17   2.0000      -0.742526       -20.2052
  18   2.0000      -0.704802       -19.1786
  19   2.0000      -0.664543       -18.0831
  20   2.0000      -0.659284       -17.9400
  21   2.0000      -0.644465       -17.5368
  22   2.0000      -0.627043       -17.0627
  23   2.0000      -0.574868       -15.6429
  24   2.0000      -0.556189       -15.1347
  25   2.0000      -0.543870       -14.7994
  26   2.0000      -0.536386       -14.5958
  27   2.0000      -0.523115       -14.2347
  28   2.0000      -0.509800       -13.8724
  29   2.0000      -0.494318       -13.4511
  30   2.0000      -0.479377       -13.0445
  31   2.0000      -0.461861       -12.5679
  32   2.0000      -0.457999       -12.4628
  33   2.0000      -0.441164       -12.0047
  34   2.0000      -0.424572       -11.5532
  35   2.0000      -0.418495       -11.3878
  36   2.0000      -0.408370       -11.1123
  37   2.0000      -0.399484       -10.8705
  38   2.0000      -0.390510       -10.6263
  39   2.0000      -0.363499        -9.8913
  40   0.0000       0.040570         1.1040
  41   0.0000       0.092445         2.5155
  42   0.0000       0.112466         3.0604
  43   0.0000       0.113613         3.0916
  44   0.0000       0.113647         3.0925

MULLIKEN ATOMIC CHARGES
-----------------------
   0 C :    0.117509
   1 H :   -0.077165
   2 C :    1.261352
   3 C :    0.160043
   4 H :   -0.155122
   5 C :    0.125958
   6 C :    0.281495
   7 H :   -0.033662
   8 H :    0.079664
   9 C :    0.014112
  10 H :   -0.149207
  11 H :    0.101888
  12 C :    0.134131
  13 C :    0.536189
  14 H :    0.086192
  15 H :    0.036421
  16 H :   -0.303538
  17 H :   -0.329991
  18 H :   -0.240599
  19 F :   -0.461599
  20 O :   -0.570470
  21 H :   -0.093521
  22 H :   -0.264422
  23 H :   -0.013706
  24 H :   -0.241951
Sum of atomic charges:   -0.0000000

LOEWDIN ATOMIC CHARGES
----------------------
   0 C :   -0.052511
   1 H :    0.021090
   2 C :    0.118433
   3 C :   -0.023379
   4 H :    0.022690
   5 C :   -0.014935
   6 C :   -0.023402
   7 H :    0.028510
   8 H :    0.025752
   9 C :   -0.012620
  10 H :    0.030697
  11 H :    0.015264
  12 C :    0.073449
  13 C :    0.046265
  14 H :    0.051461
  15 H :    0.040609
  16 H :   -0.106536
  17 H :   -0.074765
  18 H :   -0.015269
  19 F :   -0.044787
  20 O :   -0.159443
  21 H :    0.029186
  22 H :    0.000196
  23 H :    0.003775
  24 H :    0.020270

  Mayer bond orders larger than 0.100000
B(  0-C ,  1-H ) :   0.8158 B(  0-C ,  2-C ) :   1.0722 B(  0-C ,  3-C ) :   1.1673
B(  0-C ,  4-H ) :   0.8292 B(  0-C , 16-H ) :   0.2596 B(  0-C , 17-H ) :   0.1895
B(  0-C , 18-H ) :   0.1778 B(  0-C , 23-H ) :   0.1452 B(  1-H ,  3-C ) :   0.1566
B(  1-H ,  4-H ) :  -0.1129 B(  2-C ,  3-C ) :   0.1236 B(  2-C ,  4-H ) :   0.1496
B(  2-C , 16-H ) :   0.5001 B(  2-C , 17-H ) :   0.3252 B(  2-C , 18-H ) :   0.6606
B(  2-C , 23-H ) :  -0.1582 B(  2-C , 24-H ) :   0.1026 B(  3-C ,  5-C ) :   1.1452
B(  3-C , 21-H ) :   0.2312 B(  3-C , 23-H ) :   0.8388 B(  3-C , 24-H ) :   0.9229
B(  5-C ,  6-C ) :   1.2291 B(  5-C ,  7-H ) :   0.1623 B(  5-C ,  8-H ) :   0.1988
B(  5-C , 21-H ) :   0.8132 B(  5-C , 22-H ) :   0.8804 B(  5-C , 23-H ) :   0.1053
B(  5-C , 24-H ) :   0.1898 B(  6-C ,  7-H ) :   0.8350 B(  6-C ,  8-H ) :   0.6953
B(  6-C ,  9-C ) :   1.2255 B(  6-C , 10-H ) :   0.1411 B(  6-C , 21-H ) :   0.1016
B(  7-H ,  9-C ) :   0.1405 B(  8-H ,  9-C ) :   0.1394 B(  9-C , 10-H ) :   0.9260
B(  9-C , 11-H ) :   0.8243 B(  9-C , 12-C ) :   1.2154 B(  9-C , 14-H ) :   0.1578
B(  9-C , 15-H ) :   0.1090 B( 10-H , 12-C ) :   0.1165 B( 12-C , 13-C ) :   1.2551
B( 12-C , 14-H ) :   0.7295 B( 12-C , 15-H ) :   0.8908 B( 13-C , 14-H ) :   0.1875
B( 13-C , 15-H ) :   0.1458 B( 13-C , 16-H ) :   0.1092 B( 13-C , 17-H ) :   0.1232
B( 13-C , 19-F ) :   0.6480 B( 13-C , 20-O ) :   1.6879 B( 16-H , 17-H ) :   0.3876
B( 16-H , 20-O ) :   0.1949 B( 16-H , 23-H ) :   0.2103 B( 16-H , 24-H ) :  -0.1477
B( 17-H , 19-F ) :   0.2082 B( 18-H , 23-H ) :  -0.1144

Dispersion correction           -0.010976484
FINAL SINGLE POINT ENERGY      -488.460710589272

DIPOLE MOMENT
-------------
                                X             Y             Z
Electronic contribution:     -0.04925      -1.75044     -10.68909
Nuclear contribution   :     -1.21560       2.80077      10.24180
                        -----------------------------------------
Total Dipole Moment    :     -1.26486       1.05033      -0.44728
                        -----------------------------------------
Magnitude (a.u.)       :      1.70386
Magnitude (Debye)      :      4.33086

Rotational constants in cm-1:     0.051255     0.042531     0.028894
Rotational constants in MHz :  1536.587743  1275.050721   866.218876

                             ****ORCA TERMINATED NORMALLY****
TOTAL RUN TIME: 0 days 0 hours 0 minutes 42 seconds 168 msec
