                         Program Version 5.0.0 -  RELEASE  -
|  1> !CAM-B3LYP RIJCOSX def2-SVP def2/J TightSCF
|  2> *xyz -1 1
|  3> C          2.49556        1.81615       -2.13636
|  4> C          1.87218        0.42790       -2.07750
|  5> H          2.61427       -0.36583       -2.19889
|  6> H          1.38995        0.27309       -1.11236
|  7> S          0.57902        0.14047       -3.29794
|  8> O          0.22886       -1.24687       -3.12787
|  9> O         -0.43927        1.11897       -3.01455
| 10> O          1.24788        0.40347       -4.59565
| 11> H          2.96535        1.95613       -3.08747
| 12> H          3.22581        1.91242       -1.36024
| 13> H          1.73350        2.55528       -2.00274
| 14> *
| 15>
| 16> %MaxCore 64000
| 17>
| 18> %pal nprocs 4
| 19> end
| 20>
| 21> %scf
| 22>   MaxIter 150
| 23> end
| 24>
| 25>
| 26>                          ****END OF INPUT****

CARTESIAN COORDINATES (ANGSTROEM)
---------------------------------
  C      2.495560    1.816150   -2.136360
  C      1.872180    0.427900   -2.077500
  H      2.614270   -0.365830   -2.198890
  H      1.389950    0.273090   -1.112360
  S      0.579020    0.140470   -3.297940
  O      0.228860   -1.246870   -3.127870
  O     -0.439270    1.118970   -3.014550
  O      1.247880    0.403470   -4.595650
  H      2.965350    1.956130   -3.087470
  H      3.225810    1.912420   -1.360240
  H      1.733500    2.555280   -2.002740

 Total Charge           Charge          ....   -1
 Multiplicity           Mult            ....    1
 Number of Electrons    NEL             ....   58
 Basis Dimension        Dim             ....  113

ORBITAL ENERGIES
----------------

  NO   OCC          E(Eh)            E(eV)
   0   2.0000     -88.920457     -2419.6486
   1   2.0000     -18.957233      -515.8525
   2   2.0000     -18.956917      -515.8439
   3   2.0000     -18.940394      -515.3943
   4   2.0000     -10.105969      -274.9974
   5   2.0000     -10.101069      -274.8641
   6   2.0000      -7.980603      -217.1632
   7   2.0000      -5.949971      -161.9069
   8   2.0000      -5.949790      -161.9020
   9   2.0000      -5.949759      -161.9012
  10   2.0000      -0.987489       -26.8709
  11   2.0000      -0.845225       -22.9998
  12   2.0000      -0.816599       -22.2208
  13   2.0000      -0.697097       -18.9690
  14   2.0000      -0.566694       -15.4205
  15   2.0000      -0.432745       -11.7756
  16   2.0000      -0.376332       -10.2405
  17   2.0000      -0.367304        -9.9948
  18   2.0000      -0.328391        -8.9360
  19   2.0000      -0.309734        -8.4283
  20   2.0000      -0.304382        -8.2826
  21   2.0000      -0.282923        -7.6987
  22   2.0000      -0.264420        -7.1952
  23   2.0000      -0.190183        -5.1751
  24   2.0000      -0.188169        -5.1203
  25   2.0000      -0.155129        -4.2213
  26   2.0000      -0.144727        -3.9382
  27   2.0000      -0.134438        -3.6583
  28   2.0000      -0.099503        -2.7076
  29   0.0000       0.246435         6.7058
  30   0.0000       0.297515         8.0958
  31   0.0000       0.306059         8.3283
  32   0.0000       0.313438         8.5291
  33   0.0000       0.344296         9.3688

MULLIKEN ATOMIC CHARGES
-----------------------
   0 C :    0.047995
   1 C :   -0.083366
   2 H :   -0.009270
   3 H :   -0.016964
   4 S :    0.866495
   5 O :   -0.571209
   6 O :   -0.572880
   7 O :   -0.619231
   8 H :    0.001113
   9 H :   -0.041992
  10 H :   -0.000693
Sum of atomic charges:   -1.0000000

LOEWDIN ATOMIC CHARGES
----------------------
   0 C :   -0.072630
   1 C :   -0.186903
   2 H :    0.005891
   3 H :    0.001797
   4 S :    1.108300
   5 O :   -0.613096
   6 O :   -0.613714
   7 O :   -0.660870
   8 H :    0.015626
   9 H :   -0.000114
  10 H :    0.015713

  Mayer bond orders larger than 0.100000
B(  0-C ,  1-C ) :   1.0574 B(  0-C ,  8-H ) :   0.9661 B(  0-C ,  9-H ) :   0.9613
B(  0-C , 10-H ) :   0.9663 B(  1-C ,  2-H ) :   0.9450 B(  1-C ,  3-H ) :   0.9415
B(  1-C ,  4-S ) :   0.9032 B(  4-S ,  5-O ) :   1.6475 B(  4-S ,  6-O ) :   1.6341
B(  4-S ,  7-O ) :   1.5876

FINAL SINGLE POINT ENERGY      -702.607961100919

DIPOLE MOMENT
-------------
                                X             Y             Z
Electronic contribution:     -5.78170      -3.64502      -4.16194
Nuclear contribution   :      6.89220       4.11756       5.35566
                        -----------------------------------------
Total Dipole Moment    :      1.11049       0.47254       1.19372
                        -----------------------------------------
Magnitude (a.u.)       :      1.69748
Magnitude (Debye)      :      4.31466

Rotational constants in cm-1:     0.162183     0.084017     0.082390
Rotational constants in MHz :  4862.117324  2518.774315  2469.980309

                             ****ORCA TERMINATED NORMALLY****
TOTAL RUN TIME: 0 days 0 hours 0 minutes 13 seconds 71 msec
