                         Program Version 5.0.0 -  RELEASE  -
|  1> !CAM-B3LYP RIJCOSX def2-SVP def2/J TightSCF
|  2> *xyz 1 1
|  3> C          3.38093        2.08304       -3.35013
|  4> N          4.53592        1.18245       -3.42852
|  5> C          2.49556        1.81615       -2.13636
|  6> C          4.67196        0.12227       -4.22060
|  7> N          5.86602       -0.50785       -4.22428
|  8> N          3.69888       -0.31284       -4.98699
|  9> H          2.73141       -0.05009       -4.84900
| 10> H          3.89005       -1.05517       -5.64373
| 11> H          5.25193        1.30346       -2.72101
| 12> H          6.69516       -0.06232       -3.85160
| 13> H          5.97538       -1.39688       -4.69141
| 14> H          2.80646        1.98651       -4.26848
| 15> H          3.77871        3.09828       -3.30738
| 16> H          2.11090        0.81901       -2.18783
| 17> H          1.68276        2.51198       -2.12786
| 18> H          3.07216        1.93031       -1.24227
| 19> *
| 20>
| 21> %MaxCore 64000
| 22>
| 23> %pal nprocs 4
| 24> end
| 25>
| 26> %scf
| 27>   MaxIter 150
| 28> end
| 29>
| 30>
| 31>                          ****END OF INPUT****

CARTESIAN COORDINATES (ANGSTROEM)
---------------------------------
  C      3.380930    2.083040   -3.350130
  N      4.535920    1.182450   -3.428520
  C      2.495560    1.816150   -2.136360
  C      4.671960    0.122270   -4.220600
  N      5.866020   -0.507850   -4.224280
  N      3.698880   -0.312840   -4.986990
  H      2.731410   -0.050090   -4.849000
  H      3.890050   -1.055170   -5.643730
  H      5.251930    1.303460   -2.721010
  H      6.695160   -0.062320   -3.851600
  H      5.975380   -1.396880   -4.691410
  H      2.806460    1.986510   -4.268480
  H      3.778710    3.098280   -3.307380
  H      2.110900    0.819010   -2.187830
  H      1.682760    2.511980   -2.127860
  H      3.072160    1.930310   -1.242270

 Total Charge           Charge          ....    1
 Multiplicity           Mult            ....    1
 Number of Electrons    NEL             ....   48
 Basis Dimension        Dim             ....  134

ORBITAL ENERGIES
----------------

  NO   OCC          E(Eh)            E(eV)
   0   2.0000     -14.629138      -398.0791
   1   2.0000     -14.621671      -397.8759
   2   2.0000     -14.620567      -397.8459
   3   2.0000     -10.596487      -288.3451
   4   2.0000     -10.462269      -284.6928
   5   2.0000     -10.392500      -282.7943
   6   2.0000      -1.287482       -35.0342
   7   2.0000      -1.175300       -31.9815
   8   2.0000      -1.159407       -31.5491
   9   2.0000      -1.002787       -27.2872
  10   2.0000      -0.910749       -24.7827
  11   2.0000      -0.872974       -23.7548
  12   2.0000      -0.857084       -23.3225
  13   2.0000      -0.811177       -22.0733
  14   2.0000      -0.764135       -20.7932
  15   2.0000      -0.760122       -20.6840
  16   2.0000      -0.709774       -19.3139
  17   2.0000      -0.700139       -19.0518
  18   2.0000      -0.670265       -18.2388
  19   2.0000      -0.623060       -16.9543
  20   2.0000      -0.593586       -16.1523
  21   2.0000      -0.576999       -15.7009
  22   2.0000      -0.539791       -14.6885
  23   2.0000      -0.506698       -13.7879
  24   0.0000      -0.106587        -2.9004
  25   0.0000      -0.091860        -2.4996
  26   0.0000      -0.058905        -1.6029
  27   0.0000      -0.049558        -1.3485
  28   0.0000      -0.031221        -0.8496

MULLIKEN ATOMIC CHARGES
-----------------------
   0 C :    0.032115
   1 N :   -0.124334
   2 C :    0.026178
   3 C :    0.029558
   4 N :   -0.049302
   5 N :   -0.007904
   6 H :    0.177490
   7 H :    0.170935
   8 H :    0.164356
   9 H :    0.173927
  10 H :    0.168790
  11 H :    0.041954
  12 H :    0.071367
  13 H :    0.020977
  14 H :    0.063411
  15 H :    0.040481
Sum of atomic charges:    1.0000000

LOEWDIN ATOMIC CHARGES
----------------------
   0 C :    0.044929
   1 N :    0.023856
   2 C :   -0.045938
   3 C :    0.152038
   4 N :    0.028570
   5 N :    0.057195
   6 H :    0.113244
   7 H :    0.113162
   8 H :    0.106333
   9 H :    0.111115
  10 H :    0.107641
  11 H :    0.031065
  12 H :    0.047861
  13 H :    0.026017
  14 H :    0.048270
  15 H :    0.034642

  Mayer bond orders larger than 0.100000
B(  0-C ,  1-N ) :   0.9263 B(  0-C ,  2-C ) :   1.0975 B(  0-C , 11-H ) :   0.9558
B(  0-C , 12-H ) :   0.9505 B(  1-N ,  3-C ) :   1.3849 B(  1-N ,  8-H ) :   0.9111
B(  2-C , 13-H ) :   0.9688 B(  2-C , 14-H ) :   0.9645 B(  2-C , 15-H ) :   0.9691
B(  3-C ,  4-N ) :   1.3698 B(  3-C ,  5-N ) :   1.4182 B(  4-N ,  9-H ) :   0.9274
B(  4-N , 10-H ) :   0.9309 B(  5-N ,  6-H ) :   0.9239 B(  5-N ,  7-H ) :   0.9246

FINAL SINGLE POINT ENERGY      -284.044620660221

DIPOLE MOMENT
-------------
                                X             Y             Z
Electronic contribution:      3.62094      -2.72422      -2.86585
Nuclear contribution   :     -2.93277       1.85779       2.25966
                        -----------------------------------------
Total Dipole Moment    :      0.68817      -0.86642      -0.60619
                        -----------------------------------------
Magnitude (a.u.)       :      1.26164
Magnitude (Debye)      :      3.20684

Rotational constants in cm-1:     0.245511     0.068839     0.059711
Rotational constants in MHz :  7360.233487  2063.743353  1790.088408

                             ****ORCA TERMINATED NORMALLY****
TOTAL RUN TIME: 0 days 0 hours 0 minutes 18 seconds 162 msec
