                         Program Version 5.0.0 -  RELEASE  -
|  1> !CAM-B3LYP RIJCOSX def2-TZVP def2/J TightSCF xyzfile
|  2>
|  3> *xyzfile 0 1 B.xyz
|  4>
|  5> %MaxCore 64000
|  6>
|  7> %pal nprocs 18
|  8> end
|  9>
| 10> %scf
| 11>   MaxIter 150
| 12> end
| 13>
| 14>
| 15>                          ****END OF INPUT****

CARTESIAN COORDINATES (ANGSTROEM)
---------------------------------
  C      3.380928    2.083045   -3.350127
  N      4.535924    1.182447   -3.428518
  C      2.495557    1.816150   -2.136364
  C      1.872181    0.427903   -2.077497
  H      2.614270   -0.365825   -2.198894
  H      1.389953    0.273087   -1.112360
  S      0.579024    0.140472   -3.297943
  C      4.671956    0.122273   -4.220598
  N      5.866023   -0.507849   -4.224284
  N      3.698881   -0.312844   -4.986988
  H      2.731405   -0.050091   -4.849000
  H      3.890046   -1.055172   -5.643730
  H      5.251933    1.303459   -2.721014
  H      6.695165   -0.062322   -3.851596
  H      5.975383   -1.396884   -4.691414
  O      0.228860   -1.246868   -3.127871
  O     -0.439269    1.118966   -3.014550
  O      1.247881    0.403474   -4.595647
  H      1.697003    2.561969   -2.141109
  H      3.080787    1.987436   -1.225838
  H      2.806463    1.986511   -4.268484
  H      3.778714    3.098282   -3.307383

 Total Charge           Charge          ....    0
 Multiplicity           Mult            ....    1
 Number of Electrons    NEL             ....   96
 Basis Dimension        Dim             ....  413

ORBITAL ENERGIES
----------------

  NO   OCC          E(Eh)            E(eV)
   0   2.0000     -89.059993     -2423.4456
   1   2.0000     -19.128967      -520.5256
   2   2.0000     -19.112601      -520.0803
   3   2.0000     -19.112550      -520.0789
   4   2.0000     -14.483245      -394.1091
   5   2.0000     -14.477224      -393.9453
   6   2.0000     -14.447337      -393.1320
   7   2.0000     -10.444048      -284.1970
   8   2.0000     -10.307373      -280.4779
   9   2.0000     -10.257547      -279.1220
  10   2.0000     -10.243413      -278.7374
  11   2.0000      -8.103431      -220.5056
  12   2.0000      -6.068321      -165.1274
  13   2.0000      -6.067216      -165.0973
  14   2.0000      -6.065967      -165.0634
  15   2.0000      -1.161163       -31.5968
  16   2.0000      -1.153854       -31.3980
  17   2.0000      -1.050005       -28.5721
  18   2.0000      -1.034644       -28.1541
  19   2.0000      -1.013031       -27.5660
  20   2.0000      -1.012445       -27.5500
  21   2.0000      -0.891696       -24.2643
  22   2.0000      -0.817986       -22.2585
  23   2.0000      -0.762549       -20.7500
  24   2.0000      -0.724252       -19.7079
  25   2.0000      -0.715664       -19.4742
  26   2.0000      -0.678528       -18.4637
  27   2.0000      -0.636301       -17.3146
  28   2.0000      -0.620998       -16.8982
  29   2.0000      -0.600692       -16.3457
  30   2.0000      -0.580395       -15.7934
  31   2.0000      -0.557919       -15.1818
  32   2.0000      -0.543284       -14.7835
  33   2.0000      -0.520728       -14.1697
  34   2.0000      -0.503668       -13.7055
  35   2.0000      -0.487011       -13.2523
  36   2.0000      -0.466879       -12.7044
  37   2.0000      -0.447384       -12.1739
  38   2.0000      -0.440258       -11.9800
  39   2.0000      -0.428102       -11.6492
  40   2.0000      -0.405429       -11.0323
  41   2.0000      -0.375204       -10.2098
  42   2.0000      -0.368772       -10.0348
  43   2.0000      -0.361170        -9.8279
  44   2.0000      -0.328591        -8.9414
  45   2.0000      -0.318595        -8.6694
  46   2.0000      -0.309813        -8.4304
  47   2.0000      -0.278697        -7.5837
  48   0.0000      -0.001097        -0.0298
  49   0.0000       0.020455         0.5566
  50   0.0000       0.035364         0.9623
  51   0.0000       0.055802         1.5184
  52   0.0000       0.090974         2.4755

MULLIKEN ATOMIC CHARGES
-----------------------
   0 C :   -0.237015
   1 N :   -0.282613
   2 C :   -0.161728
   3 C :   -0.320910
   4 H :    0.108599
   5 H :    0.136036
   6 S :    0.861240
   7 C :    0.443699
   8 N :   -0.466578
   9 N :   -0.375408
  10 H :    0.303699
  11 H :    0.237335
  12 H :    0.226602
  13 H :    0.259166
  14 H :    0.262848
  15 O :   -0.505429
  16 O :   -0.500155
  17 O :   -0.591460
  18 H :    0.148022
  19 H :    0.098938
  20 H :    0.218067
  21 H :    0.137044
Sum of atomic charges:   -0.0000000

LOEWDIN ATOMIC CHARGES
----------------------
   0 C :   -0.264370
   1 N :    0.155264
   2 C :   -0.290004
   3 C :   -0.394816
   4 H :    0.122265
   5 H :    0.138479
   6 S :    0.445173
   7 C :   -0.421151
   8 N :    0.012929
   9 N :    0.091109
  10 H :    0.141292
  11 H :    0.184609
  12 H :    0.196585
  13 H :    0.181547
  14 H :    0.183321
  15 O :   -0.341829
  16 O :   -0.335444
  17 O :   -0.383084
  18 H :    0.156357
  19 H :    0.133284
  20 H :    0.151687
  21 H :    0.136797

  Mayer bond orders larger than 0.100000
B(  0-C ,  1-N ) :   0.8176 B(  0-C ,  2-C ) :   0.9422 B(  0-C , 20-H ) :   0.9594
B(  0-C , 21-H ) :   0.9779 B(  1-N ,  7-C ) :   1.3531 B(  1-N , 12-H ) :   0.9207
B(  2-C ,  3-C ) :   0.9301 B(  2-C , 18-H ) :   0.9556 B(  2-C , 19-H ) :   0.9705
B(  3-C ,  4-H ) :   0.9609 B(  3-C ,  5-H ) :   0.9649 B(  3-C ,  6-S ) :   0.9045
B(  6-S , 15-O ) :   1.8760 B(  6-S , 16-O ) :   1.8530 B(  6-S , 17-O ) :   1.4731
B(  7-C ,  8-N ) :   1.2154 B(  7-C ,  9-N ) :   1.4489 B(  8-N , 13-H ) :   0.9129
B(  8-N , 14-H ) :   0.9124 B(  9-N , 10-H ) :   0.7388 B(  9-N , 11-H ) :   0.9204
B( 10-H , 17-O ) :   0.2247

FINAL SINGLE POINT ENERGY      -947.206349090870

DIPOLE MOMENT
-------------
                                X             Y             Z
Electronic contribution:     -7.02504      -3.22271      -2.43958
Nuclear contribution   :     13.40759       3.44219       2.21042
                        -----------------------------------------
Total Dipole Moment    :      6.38255       0.21948      -0.22916
                        -----------------------------------------
Magnitude (a.u.)       :      6.39044
Magnitude (Debye)      :     16.24320

Rotational constants in cm-1:     0.059860     0.020817     0.017914
Rotational constants in MHz :  1794.564877   624.092098   537.039275

                             ****ORCA TERMINATED NORMALLY****
TOTAL RUN TIME: 0 days 0 hours 0 minutes 53 seconds 328 msec
