                         Program Version 5.0.0 -  RELEASE  -
|  1> !CAM-B3LYP RIJCOSX def2-SVP def2/J TightSCF
|  2> *xyz 0 1
|  3> C          2.49556        1.81615       -2.13636
|  4> C          1.87218        0.42790       -2.07750
|  5> H          2.61427       -0.36583       -2.19889
|  6> H          1.38995        0.27309       -1.11236
|  7> S          0.57902        0.14047       -3.29794
|  8> F          0.22886       -1.24687       -3.12787
|  9> O         -0.43927        1.11897       -3.01455
| 10> O          1.24788        0.40347       -4.59565
| 11> H          2.96535        1.95613       -3.08747
| 12> H          3.22581        1.91242       -1.36024
| 13> H          1.73350        2.55528       -2.00274
| 14> *
| 15>
| 16> %MaxCore 64000
| 17>
| 18> %pal nprocs 4
| 19> end
| 20>
| 21> %scf
| 22>   MaxIter 150
| 23> end
| 24>
| 25>
| 26>                          ****END OF INPUT****

CARTESIAN COORDINATES (ANGSTROEM)
---------------------------------
  C      2.495560    1.816150   -2.136360
  C      1.872180    0.427900   -2.077500
  H      2.614270   -0.365830   -2.198890
  H      1.389950    0.273090   -1.112360
  S      0.579020    0.140470   -3.297940
  F      0.228860   -1.246870   -3.127870
  O     -0.439270    1.118970   -3.014550
  O      1.247880    0.403470   -4.595650
  H      2.965350    1.956130   -3.087470
  H      3.225810    1.912420   -1.360240
  H      1.733500    2.555280   -2.002740

 Total Charge           Charge          ....    0
 Multiplicity           Mult            ....    1
 Number of Electrons    NEL             ....   58
 Basis Dimension        Dim             ....  113

ORBITAL ENERGIES
----------------

  NO   OCC          E(Eh)            E(eV)
   0   2.0000     -89.195301     -2427.1275
   1   2.0000     -24.878594      -676.9809
   2   2.0000     -19.209758      -522.7241
   3   2.0000     -19.193274      -522.2755
   4   2.0000     -10.314320      -280.6669
   5   2.0000     -10.275256      -279.6039
   6   2.0000      -8.257879      -224.7083
   7   2.0000      -6.231371      -169.5642
   8   2.0000      -6.224758      -169.3843
   9   2.0000      -6.223549      -169.3514
  10   2.0000      -1.454232       -39.5717
  11   2.0000      -1.181509       -32.1505
  12   2.0000      -1.070690       -29.1350
  13   2.0000      -0.896880       -24.4053
  14   2.0000      -0.808107       -21.9897
  15   2.0000      -0.746976       -20.3262
  16   2.0000      -0.659026       -17.9330
  17   2.0000      -0.658043       -17.9063
  18   2.0000      -0.619674       -16.8622
  19   2.0000      -0.562403       -15.3038
  20   2.0000      -0.546848       -14.8805
  21   2.0000      -0.501035       -13.6339
  22   2.0000      -0.494242       -13.4490
  23   2.0000      -0.474029       -12.8990
  24   2.0000      -0.450513       -12.2591
  25   2.0000      -0.444255       -12.0888
  26   2.0000      -0.389162       -10.5896
  27   2.0000      -0.374365       -10.1870
  28   2.0000      -0.358458        -9.7541
  29   0.0000       0.086360         2.3500
  30   0.0000       0.096386         2.6228
  31   0.0000       0.128538         3.4977
  32   0.0000       0.133665         3.6372
  33   0.0000       0.142453         3.8763

MULLIKEN ATOMIC CHARGES
-----------------------
   0 C :    0.030074
   1 C :   -0.120085
   2 H :    0.057387
   3 H :    0.052467
   4 S :    0.941676
   5 F :   -0.168975
   6 O :   -0.434626
   7 O :   -0.480583
   8 H :    0.046621
   9 H :    0.032628
  10 H :    0.043416
Sum of atomic charges:   -0.0000000

LOEWDIN ATOMIC CHARGES
----------------------
   0 C :   -0.046864
   1 C :   -0.151439
   2 H :    0.032954
   3 H :    0.030294
   4 S :    1.165007
   5 F :   -0.117300
   6 O :   -0.485422
   7 O :   -0.532643
   8 H :    0.035223
   9 H :    0.035402
  10 H :    0.034788

  Mayer bond orders larger than 0.100000
B(  0-C ,  1-C ) :   1.0722 B(  0-C ,  8-H ) :   0.9711 B(  0-C ,  9-H ) :   0.9644
B(  0-C , 10-H ) :   0.9705 B(  1-C ,  2-H ) :   0.9344 B(  1-C ,  3-H ) :   0.9331
B(  1-C ,  4-S ) :   0.9297 B(  4-S ,  5-F ) :   1.0303 B(  4-S ,  6-O ) :   1.7856
B(  4-S ,  7-O ) :   1.7402

FINAL SINGLE POINT ENERGY      -727.110568098664

DIPOLE MOMENT
-------------
                                X             Y             Z
Electronic contribution:     -6.85997      -6.45722      -4.10810
Nuclear contribution   :      7.60530       5.82028       5.38743
                        -----------------------------------------
Total Dipole Moment    :      0.74532      -0.63694       1.27933
                        -----------------------------------------
Magnitude (a.u.)       :      1.61180
Magnitude (Debye)      :      4.09686

Rotational constants in cm-1:     0.157861     0.081452     0.078859
Rotational constants in MHz :  4732.562506  2441.865430  2364.129821

                             ****ORCA TERMINATED NORMALLY****
TOTAL RUN TIME: 0 days 0 hours 0 minutes 13 seconds 563 msec
