                         Program Version 5.0.0 -  RELEASE  -
|  1> !CAM-B3LYP RIJCOSX def2-SVP def2/J TightSCF
|  2> *xyz 0 1
|  3> C          3.38093        2.08304       -3.35013
|  4> C          4.53592        1.18245       -3.42852
|  5> C          2.49556        1.81615       -2.13636
|  6> C          4.67196        0.12227       -4.22060
|  7> N          5.86602       -0.50785       -4.22428
|  8> N          3.69888       -0.31284       -4.98699
|  9> H          2.73141       -0.05009       -4.84900
| 10> H          3.89005       -1.05517       -5.64373
| 11> H          5.25193        1.30346       -2.72101
| 12> H          6.69516       -0.06232       -3.85160
| 13> H          5.97538       -1.39688       -4.69141
| 14> H          2.80646        1.98651       -4.26848
| 15> H          3.77871        3.09828       -3.30738
| 16> H          2.11090        0.81901       -2.18783
| 17> H          1.68276        2.51198       -2.12786
| 18> H          3.07216        1.93031       -1.24227
| 19> *
| 20>
| 21> %MaxCore 64000
| 22>
| 23> %pal nprocs 4
| 24> end
| 25>
| 26> %scf
| 27>   MaxIter 150
| 28> end
| 29>
| 30>
| 31>                          ****END OF INPUT****

CARTESIAN COORDINATES (ANGSTROEM)
---------------------------------
  C      3.380930    2.083040   -3.350130
  C      4.535920    1.182450   -3.428520
  C      2.495560    1.816150   -2.136360
  C      4.671960    0.122270   -4.220600
  N      5.866020   -0.507850   -4.224280
  N      3.698880   -0.312840   -4.986990
  H      2.731410   -0.050090   -4.849000
  H      3.890050   -1.055170   -5.643730
  H      5.251930    1.303460   -2.721010
  H      6.695160   -0.062320   -3.851600
  H      5.975380   -1.396880   -4.691410
  H      2.806460    1.986510   -4.268480
  H      3.778710    3.098280   -3.307380
  H      2.110900    0.819010   -2.187830
  H      1.682760    2.511980   -2.127860
  H      3.072160    1.930310   -1.242270

 Total Charge           Charge          ....    0
 Multiplicity           Mult            ....    1
 Number of Electrons    NEL             ....   48
 Basis Dimension        Dim             ....  134

ORBITAL ENERGIES
----------------

  NO   OCC          E(Eh)            E(eV)
   0   2.0000     -14.398199      -391.7949
   1   2.0000     -14.389671      -391.5629
   2   2.0000     -10.295533      -280.1557
   3   2.0000     -10.223854      -278.2052
   4   2.0000     -10.218867      -278.0695
   5   2.0000     -10.167502      -276.6718
   6   2.0000      -1.026005       -27.9190
   7   2.0000      -0.931228       -25.3400
   8   2.0000      -0.837881       -22.7999
   9   2.0000      -0.758893       -20.6505
  10   2.0000      -0.680317       -18.5124
  11   2.0000      -0.641114       -17.4456
  12   2.0000      -0.606815       -16.5123
  13   2.0000      -0.567817       -15.4511
  14   2.0000      -0.540471       -14.7070
  15   2.0000      -0.503280       -13.6949
  16   2.0000      -0.476822       -12.9750
  17   2.0000      -0.453987       -12.3536
  18   2.0000      -0.436940       -11.8897
  19   2.0000      -0.409210       -11.1352
  20   2.0000      -0.383915       -10.4469
  21   2.0000      -0.376671       -10.2497
  22   2.0000      -0.319675        -8.6988
  23   2.0000      -0.202948        -5.5225
  24   0.0000       0.087004         2.3675
  25   0.0000       0.115315         3.1379
  26   0.0000       0.138012         3.7555
  27   0.0000       0.148362         4.0371
  28   0.0000       0.160016         4.3543

MULLIKEN ATOMIC CHARGES
-----------------------
   0 C :    0.070798
   1 C :   -0.198666
   2 C :    0.066216
   3 C :   -0.042524
   4 N :   -0.084681
   5 N :   -0.043507
   6 H :    0.123209
   7 H :    0.097512
   8 H :   -0.103376
   9 H :    0.118501
  10 H :    0.091262
  11 H :   -0.040847
  12 H :   -0.016099
  13 H :   -0.018346
  14 H :   -0.012023
  15 H :   -0.007429
Sum of atomic charges:    0.0000000

LOEWDIN ATOMIC CHARGES
----------------------
   0 C :   -0.037286
   1 C :   -0.220817
   2 C :   -0.053737
   3 C :    0.026703
   4 N :   -0.037666
   5 N :   -0.013030
   6 H :    0.081400
   7 H :    0.065289
   8 H :   -0.013073
   9 H :    0.080873
  10 H :    0.058991
  11 H :    0.005536
  12 H :    0.019046
  13 H :    0.010801
  14 H :    0.010319
  15 H :    0.016652

  Mayer bond orders larger than 0.100000
B(  0-C ,  1-C ) :   1.0630 B(  0-C ,  2-C ) :   1.0889 B(  0-C , 11-H ) :   0.9394
B(  0-C , 12-H ) :   0.9232 B(  1-C ,  3-C ) :   1.7098 B(  1-C ,  8-H ) :   0.9463
B(  2-C , 13-H ) :   0.9698 B(  2-C , 14-H ) :   0.9645 B(  2-C , 15-H ) :   0.9696
B(  3-C ,  4-N ) :   1.2132 B(  3-C ,  5-N ) :   1.2569 B(  4-N ,  9-H ) :   0.9460
B(  4-N , 10-H ) :   0.9524 B(  5-N ,  6-H ) :   0.9409 B(  5-N ,  7-H ) :   0.9477

FINAL SINGLE POINT ENERGY      -267.566593132259

DIPOLE MOMENT
-------------
                                X             Y             Z
Electronic contribution:      3.04456      -2.94120      -3.00077
Nuclear contribution   :     -2.84307       1.95814       2.32378
                        -----------------------------------------
Total Dipole Moment    :      0.20148      -0.98306      -0.67699
                        -----------------------------------------
Magnitude (a.u.)       :      1.21051
Magnitude (Debye)      :      3.07686

Rotational constants in cm-1:     0.248902     0.068887     0.059904
Rotational constants in MHz :  7461.898926  2065.183281  1795.882140

                             ****ORCA TERMINATED NORMALLY****
TOTAL RUN TIME: 0 days 0 hours 0 minutes 18 seconds 394 msec
