                         Program Version 5.0.0 -  RELEASE  -
|  1> !CAM-B3LYP RIJCOSX def2-SVP def2/J TightSCF
|  2> *xyz 0 1
|  3> C          2.49556        1.81615       -2.13636
|  4> C          1.87218        0.42790       -2.07750
|  5> H          2.61427       -0.36583       -2.19889
|  6> H          1.38995        0.27309       -1.11236
|  7> S          0.57902        0.14047       -3.29794
|  8> O          0.22886       -1.24687       -3.12787
|  9> F         -0.43927        1.11897       -3.01455
| 10> O          1.24788        0.40347       -4.59565
| 11> H          2.96535        1.95613       -3.08747
| 12> H          3.22581        1.91242       -1.36024
| 13> H          1.73350        2.55528       -2.00274
| 14> *
| 15>
| 16> %MaxCore 64000
| 17>
| 18> %pal nprocs 4
| 19> end
| 20>
| 21> %scf
| 22>   MaxIter 150
| 23> end
| 24>
| 25>
| 26>                          ****END OF INPUT****

CARTESIAN COORDINATES (ANGSTROEM)
---------------------------------
  C      2.495560    1.816150   -2.136360
  C      1.872180    0.427900   -2.077500
  H      2.614270   -0.365830   -2.198890
  H      1.389950    0.273090   -1.112360
  S      0.579020    0.140470   -3.297940
  O      0.228860   -1.246870   -3.127870
  F     -0.439270    1.118970   -3.014550
  O      1.247880    0.403470   -4.595650
  H      2.965350    1.956130   -3.087470
  H      3.225810    1.912420   -1.360240
  H      1.733500    2.555280   -2.002740

 Total Charge           Charge          ....    0
 Multiplicity           Mult            ....    1
 Number of Electrons    NEL             ....   58
 Basis Dimension        Dim             ....  113

ORBITAL ENERGIES
----------------

  NO   OCC          E(Eh)            E(eV)
   0   2.0000     -89.195430     -2427.1311
   1   2.0000     -24.878697      -676.9838
   2   2.0000     -19.210006      -522.7308
   3   2.0000     -19.194400      -522.3062
   4   2.0000     -10.314092      -280.6607
   5   2.0000     -10.278786      -279.7000
   6   2.0000      -8.257985      -224.7112
   7   2.0000      -6.231584      -169.5700
   8   2.0000      -6.224786      -169.3850
   9   2.0000      -6.223645      -169.3540
  10   2.0000      -1.454484       -39.5785
  11   2.0000      -1.181110       -32.1396
  12   2.0000      -1.072008       -29.1708
  13   2.0000      -0.900082       -24.4925
  14   2.0000      -0.803996       -21.8778
  15   2.0000      -0.751417       -20.4471
  16   2.0000      -0.669367       -18.2144
  17   2.0000      -0.657083       -17.8801
  18   2.0000      -0.612173       -16.6581
  19   2.0000      -0.561627       -15.2826
  20   2.0000      -0.545195       -14.8355
  21   2.0000      -0.515329       -14.0228
  22   2.0000      -0.494209       -13.4481
  23   2.0000      -0.473228       -12.8772
  24   2.0000      -0.460584       -12.5331
  25   2.0000      -0.438650       -11.9363
  26   2.0000      -0.388908       -10.5827
  27   2.0000      -0.374622       -10.1940
  28   2.0000      -0.360770        -9.8171
  29   0.0000       0.075095         2.0435
  30   0.0000       0.106553         2.8995
  31   0.0000       0.126092         3.4311
  32   0.0000       0.137044         3.7291
  33   0.0000       0.139439         3.7943

MULLIKEN ATOMIC CHARGES
-----------------------
   0 C :    0.019000
   1 C :   -0.125601
   2 H :    0.088702
   3 H :    0.053101
   4 S :    0.941595
   5 O :   -0.429385
   6 F :   -0.170711
   7 O :   -0.479900
   8 H :    0.049005
   9 H :    0.033796
  10 H :    0.020397
Sum of atomic charges:    0.0000000

LOEWDIN ATOMIC CHARGES
----------------------
   0 C :   -0.060809
   1 C :   -0.148014
   2 H :    0.052505
   3 H :    0.029918
   4 S :    1.165320
   5 O :   -0.483037
   6 F :   -0.118087
   7 O :   -0.531735
   8 H :    0.034199
   9 H :    0.035323
  10 H :    0.024416

  Mayer bond orders larger than 0.100000
B(  0-C ,  1-C ) :   1.0494 B(  0-C ,  8-H ) :   0.9704 B(  0-C ,  9-H ) :   0.9628
B(  0-C , 10-H ) :   0.9731 B(  1-C ,  2-H ) :   0.9407 B(  1-C ,  3-H ) :   0.9369
B(  1-C ,  4-S ) :   0.9289 B(  4-S ,  5-O ) :   1.7959 B(  4-S ,  6-F ) :   1.0238
B(  4-S ,  7-O ) :   1.7404

FINAL SINGLE POINT ENERGY      -727.110780496498

DIPOLE MOMENT
-------------
                                X             Y             Z
Electronic contribution:     -7.99149      -2.42835      -3.91157
Nuclear contribution   :      8.30151       3.35500       5.26935
                        -----------------------------------------
Total Dipole Moment    :      0.31002       0.92665       1.35778
                        -----------------------------------------
Magnitude (a.u.)       :      1.67283
Magnitude (Debye)      :      4.25200

Rotational constants in cm-1:     0.152913     0.083043     0.080351
Rotational constants in MHz :  4584.227971  2489.580280  2408.872860

                             ****ORCA TERMINATED NORMALLY****
TOTAL RUN TIME: 0 days 0 hours 0 minutes 12 seconds 910 msec
