                         Program Version 5.0.0 -  RELEASE  -
|  1> !CAM-B3LYP RIJCOSX def2-SVP def2/J TightSCF
|  2> *xyz 0 1
|  3> C          3.38093        2.08304       -3.35013
|  4> N          4.53592        1.18245       -3.42852
|  5> C          2.49556        1.81615       -2.13636
|  6> C          4.67196        0.12227       -4.22060
|  7> C          5.86602       -0.50785       -4.22428
|  8> N          3.69888       -0.31284       -4.98699
|  9> H          2.73141       -0.05009       -4.84900
| 10> H          3.89005       -1.05517       -5.64373
| 11> H          5.25193        1.30346       -2.72101
| 12> H          6.69516       -0.06232       -3.85160
| 13> H          5.97538       -1.39688       -4.69141
| 14> H          2.80646        1.98651       -4.26848
| 15> H          3.77871        3.09828       -3.30738
| 16> H          2.11090        0.81901       -2.18783
| 17> H          1.68276        2.51198       -2.12786
| 18> H          3.07216        1.93031       -1.24227
| 19> *
| 20>
| 21> %MaxCore 64000
| 22>
| 23> %pal nprocs 4
| 24> end
| 25>
| 26> %scf
| 27>   MaxIter 150
| 28> end
| 29>
| 30>
| 31>                          ****END OF INPUT****

CARTESIAN COORDINATES (ANGSTROEM)
---------------------------------
  C      3.380930    2.083040   -3.350130
  N      4.535920    1.182450   -3.428520
  C      2.495560    1.816150   -2.136360
  C      4.671960    0.122270   -4.220600
  C      5.866020   -0.507850   -4.224280
  N      3.698880   -0.312840   -4.986990
  H      2.731410   -0.050090   -4.849000
  H      3.890050   -1.055170   -5.643730
  H      5.251930    1.303460   -2.721010
  H      6.695160   -0.062320   -3.851600
  H      5.975380   -1.396880   -4.691410
  H      2.806460    1.986510   -4.268480
  H      3.778710    3.098280   -3.307380
  H      2.110900    0.819010   -2.187830
  H      1.682760    2.511980   -2.127860
  H      3.072160    1.930310   -1.242270

 Total Charge           Charge          ....    0
 Multiplicity           Mult            ....    1
 Number of Electrons    NEL             ....   48
 Basis Dimension        Dim             ....  134

ORBITAL ENERGIES
----------------

  NO   OCC          E(Eh)            E(eV)
   0   2.0000     -14.398820      -391.8118
   1   2.0000     -14.393584      -391.6693
   2   2.0000     -10.299822      -280.2724
   3   2.0000     -10.295383      -280.1516
   4   2.0000     -10.250933      -278.9421
   5   2.0000     -10.158733      -276.4332
   6   2.0000      -1.035177       -28.1686
   7   2.0000      -0.952629       -25.9224
   8   2.0000      -0.842114       -22.9151
   9   2.0000      -0.763114       -20.7654
  10   2.0000      -0.694323       -18.8935
  11   2.0000      -0.667709       -18.1693
  12   2.0000      -0.608320       -16.5532
  13   2.0000      -0.561697       -15.2846
  14   2.0000      -0.545016       -14.8306
  15   2.0000      -0.510424       -13.8893
  16   2.0000      -0.493003       -13.4153
  17   2.0000      -0.464991       -12.6530
  18   2.0000      -0.448619       -12.2076
  19   2.0000      -0.429569       -11.6892
  20   2.0000      -0.425156       -11.5691
  21   2.0000      -0.412303       -11.2193
  22   2.0000      -0.309512        -8.4223
  23   2.0000      -0.204643        -5.5686
  24   0.0000       0.083339         2.2678
  25   0.0000       0.117584         3.1996
  26   0.0000       0.128431         3.4948
  27   0.0000       0.151705         4.1281
  28   0.0000       0.155381         4.2281

MULLIKEN ATOMIC CHARGES
-----------------------
   0 C :    0.072601
   1 N :   -0.146768
   2 C :    0.040545
   3 C :   -0.047797
   4 C :   -0.098325
   5 N :   -0.052445
   6 H :    0.101941
   7 H :    0.121915
   8 H :    0.118459
   9 H :   -0.066600
  10 H :   -0.075656
  11 H :    0.002890
  12 H :    0.010398
  13 H :    0.004175
  14 H :    0.006795
  15 H :    0.007872
Sum of atomic charges:    0.0000000

LOEWDIN ATOMIC CHARGES
----------------------
   0 C :    0.033953
   1 N :   -0.031224
   2 C :   -0.062398
   3 C :    0.040898
   4 C :   -0.274839
   5 N :   -0.009976
   6 H :    0.064268
   7 H :    0.085438
   8 H :    0.082798
   9 H :   -0.012789
  10 H :   -0.015359
  11 H :    0.016804
  12 H :    0.019959
  13 H :    0.019146
  14 H :    0.022320
  15 H :    0.021002

  Mayer bond orders larger than 0.100000
B(  0-C ,  1-N ) :   1.0077 B(  0-C ,  2-C ) :   1.0909 B(  0-C , 11-H ) :   0.9533
B(  0-C , 12-H ) :   0.9551 B(  1-N ,  3-C ) :   1.1998 B(  1-N ,  8-H ) :   0.9308
B(  2-C , 13-H ) :   0.9683 B(  2-C , 14-H ) :   0.9629 B(  2-C , 15-H ) :   0.9688
B(  3-C ,  4-C ) :   1.7253 B(  3-C ,  5-N ) :   1.2508 B(  4-C ,  9-H ) :   0.9389
B(  4-C , 10-H ) :   0.9377 B(  5-N ,  6-H ) :   0.9488 B(  5-N ,  7-H ) :   0.9419

FINAL SINGLE POINT ENERGY      -267.558271107813

DIPOLE MOMENT
-------------
                                X             Y             Z
Electronic contribution:      1.45610      -1.12721      -2.07319
Nuclear contribution   :     -2.56090       1.59955       2.15496
                        -----------------------------------------
Total Dipole Moment    :     -1.10481       0.47234       0.08177
                        -----------------------------------------
Magnitude (a.u.)       :      1.20432
Magnitude (Debye)      :      3.06113

Rotational constants in cm-1:     0.249834     0.071381     0.061833
Rotational constants in MHz :  7489.842787  2139.945635  1853.706310

                             ****ORCA TERMINATED NORMALLY****
TOTAL RUN TIME: 0 days 0 hours 0 minutes 19 seconds 817 msec
