                         Program Version 5.0.0 -  RELEASE  -
|  1> !CAM-B3LYP RIJCOSX def2-SVP def2/J TightSCF
|  2> *xyz 0 1
|  3> C          2.49556        1.81615       -2.13636
|  4> C          1.87218        0.42790       -2.07750
|  5> H          2.61427       -0.36583       -2.19889
|  6> H          1.38995        0.27309       -1.11236
|  7> S          0.57902        0.14047       -3.29794
|  8> O          0.22886       -1.24687       -3.12787
|  9> O         -0.43927        1.11897       -3.01455
| 10> F          1.24788        0.40347       -4.59565
| 11> H          2.96535        1.95613       -3.08747
| 12> H          3.22581        1.91242       -1.36024
| 13> H          1.73350        2.55528       -2.00274
| 14> *
| 15>
| 16> %MaxCore 64000
| 17>
| 18> %pal nprocs 4
| 19> end
| 20>
| 21> %scf
| 22>   MaxIter 150
| 23> end
| 24>
| 25>
| 26>                          ****END OF INPUT****

CARTESIAN COORDINATES (ANGSTROEM)
---------------------------------
  C      2.495560    1.816150   -2.136360
  C      1.872180    0.427900   -2.077500
  H      2.614270   -0.365830   -2.198890
  H      1.389950    0.273090   -1.112360
  S      0.579020    0.140470   -3.297940
  O      0.228860   -1.246870   -3.127870
  O     -0.439270    1.118970   -3.014550
  F      1.247880    0.403470   -4.595650
  H      2.965350    1.956130   -3.087470
  H      3.225810    1.912420   -1.360240
  H      1.733500    2.555280   -2.002740

 Total Charge           Charge          ....    0
 Multiplicity           Mult            ....    1
 Number of Electrons    NEL             ....   58
 Basis Dimension        Dim             ....  113

ORBITAL ENERGIES
----------------

  NO   OCC          E(Eh)            E(eV)
   0   2.0000     -89.194160     -2427.0965
   1   2.0000     -24.855923      -676.3641
   2   2.0000     -19.210629      -522.7478
   3   2.0000     -19.209894      -522.7278
   4   2.0000     -10.313074      -280.6330
   5   2.0000     -10.279473      -279.7187
   6   2.0000      -8.256495      -224.6706
   7   2.0000      -6.229865      -169.5233
   8   2.0000      -6.223610      -169.3530
   9   2.0000      -6.222362      -169.3191
  10   2.0000      -1.417068       -38.5604
  11   2.0000      -1.192143       -32.4398
  12   2.0000      -1.094730       -29.7891
  13   2.0000      -0.899633       -24.4803
  14   2.0000      -0.790584       -21.5129
  15   2.0000      -0.743322       -20.2268
  16   2.0000      -0.652156       -17.7461
  17   2.0000      -0.631234       -17.1768
  18   2.0000      -0.609520       -16.5859
  19   2.0000      -0.562639       -15.3102
  20   2.0000      -0.543158       -14.7801
  21   2.0000      -0.518123       -14.0989
  22   2.0000      -0.500088       -13.6081
  23   2.0000      -0.473798       -12.8927
  24   2.0000      -0.466202       -12.6860
  25   2.0000      -0.442505       -12.0412
  26   2.0000      -0.398155       -10.8344
  27   2.0000      -0.386131       -10.5072
  28   2.0000      -0.376977       -10.2581
  29   0.0000       0.075642         2.0583
  30   0.0000       0.112125         3.0511
  31   0.0000       0.130604         3.5539
  32   0.0000       0.138181         3.7601
  33   0.0000       0.140984         3.8364

MULLIKEN ATOMIC CHARGES
-----------------------
   0 C :    0.015839
   1 C :   -0.129834
   2 H :    0.062694
   3 H :    0.082363
   4 S :    0.951780
   5 O :   -0.434456
   6 O :   -0.439589
   7 F :   -0.213173
   8 H :    0.025154
   9 H :    0.035059
  10 H :    0.044162
Sum of atomic charges:   -0.0000000

LOEWDIN ATOMIC CHARGES
----------------------
   0 C :   -0.061653
   1 C :   -0.150248
   2 H :    0.035263
   3 H :    0.049065
   4 S :    1.171840
   5 O :   -0.487271
   6 O :   -0.489355
   7 F :   -0.161654
   8 H :    0.025327
   9 H :    0.035877
  10 H :    0.032810

  Mayer bond orders larger than 0.100000
B(  0-C ,  1-C ) :   1.0493 B(  0-C ,  8-H ) :   0.9748 B(  0-C ,  9-H ) :   0.9634
B(  0-C , 10-H ) :   0.9700 B(  1-C ,  2-H ) :   0.9390 B(  1-C ,  3-H ) :   0.9395
B(  1-C ,  4-S ) :   0.9310 B(  4-S ,  5-O ) :   1.7994 B(  4-S ,  6-O ) :   1.7896
B(  4-S ,  7-F ) :   0.9772

FINAL SINGLE POINT ENERGY      -727.130777065919

DIPOLE MOMENT
-------------
                                X             Y             Z
Electronic contribution:     -5.10938      -3.63675      -6.61070
Nuclear contribution   :      6.54345       4.10057       6.91691
                        -----------------------------------------
Total Dipole Moment    :      1.43407       0.46382       0.30621
                        -----------------------------------------
Magnitude (a.u.)       :      1.53800
Magnitude (Debye)      :      3.90928

Rotational constants in cm-1:     0.152835     0.082826     0.080611
Rotational constants in MHz :  4581.878371  2483.049050  2416.647141

                             ****ORCA TERMINATED NORMALLY****
TOTAL RUN TIME: 0 days 0 hours 0 minutes 12 seconds 937 msec
