                         Program Version 5.0.0 -  RELEASE  -
|  1> !CAM-B3LYP RIJCOSX def2-SVP def2/J TightSCF
|  2> *xyz 0 1
|  3> C          3.38093        2.08304       -3.35013
|  4> N          4.53592        1.18245       -3.42852
|  5> C          2.49556        1.81615       -2.13636
|  6> C          4.67196        0.12227       -4.22060
|  7> N          5.86602       -0.50785       -4.22428
|  8> C          3.69888       -0.31284       -4.98699
|  9> H          2.73141       -0.05009       -4.84900
| 10> H          3.89005       -1.05517       -5.64373
| 11> H          5.25193        1.30346       -2.72101
| 12> H          6.69516       -0.06232       -3.85160
| 13> H          5.97538       -1.39688       -4.69141
| 14> H          2.80646        1.98651       -4.26848
| 15> H          3.77871        3.09828       -3.30738
| 16> H          2.11090        0.81901       -2.18783
| 17> H          1.68276        2.51198       -2.12786
| 18> H          3.07216        1.93031       -1.24227
| 19> *
| 20>
| 21> %MaxCore 64000
| 22>
| 23> %pal nprocs 4
| 24> end
| 25>
| 26> %scf
| 27>   MaxIter 150
| 28> end
| 29>
| 30>
| 31>                          ****END OF INPUT****

CARTESIAN COORDINATES (ANGSTROEM)
---------------------------------
  C      3.380930    2.083040   -3.350130
  N      4.535920    1.182450   -3.428520
  C      2.495560    1.816150   -2.136360
  C      4.671960    0.122270   -4.220600
  N      5.866020   -0.507850   -4.224280
  C      3.698880   -0.312840   -4.986990
  H      2.731410   -0.050090   -4.849000
  H      3.890050   -1.055170   -5.643730
  H      5.251930    1.303460   -2.721010
  H      6.695160   -0.062320   -3.851600
  H      5.975380   -1.396880   -4.691410
  H      2.806460    1.986510   -4.268480
  H      3.778710    3.098280   -3.307380
  H      2.110900    0.819010   -2.187830
  H      1.682760    2.511980   -2.127860
  H      3.072160    1.930310   -1.242270

 Total Charge           Charge          ....    0
 Multiplicity           Mult            ....    1
 Number of Electrons    NEL             ....   48
 Basis Dimension        Dim             ....  134

ORBITAL ENERGIES
----------------

  NO   OCC          E(Eh)            E(eV)
   0   2.0000     -14.393523      -391.6677
   1   2.0000     -14.391017      -391.5995
   2   2.0000     -10.297199      -280.2010
   3   2.0000     -10.285811      -279.8912
   4   2.0000     -10.242320      -278.7077
   5   2.0000     -10.162534      -276.5366
   6   2.0000      -1.028224       -27.9794
   7   2.0000      -0.942959       -25.6592
   8   2.0000      -0.825911       -22.4742
   9   2.0000      -0.776573       -21.1316
  10   2.0000      -0.706023       -19.2119
  11   2.0000      -0.628318       -17.0974
  12   2.0000      -0.607667       -16.5354
  13   2.0000      -0.576609       -15.6903
  14   2.0000      -0.521241       -14.1837
  15   2.0000      -0.513263       -13.9666
  16   2.0000      -0.483884       -13.1671
  17   2.0000      -0.463032       -12.5997
  18   2.0000      -0.439424       -11.9573
  19   2.0000      -0.436252       -11.8710
  20   2.0000      -0.414706       -11.2847
  21   2.0000      -0.408476       -11.1152
  22   2.0000      -0.301797        -8.2123
  23   2.0000      -0.216487        -5.8909
  24   0.0000       0.092414         2.5147
  25   0.0000       0.115314         3.1378
  26   0.0000       0.135782         3.6948
  27   0.0000       0.152357         4.1458
  28   0.0000       0.161591         4.3971

MULLIKEN ATOMIC CHARGES
-----------------------
   0 C :    0.101294
   1 N :   -0.167297
   2 C :    0.030473
   3 C :    0.019081
   4 N :   -0.100976
   5 C :   -0.111514
   6 H :   -0.054458
   7 H :   -0.075399
   8 H :    0.093722
   9 H :    0.096675
  10 H :    0.118019
  11 H :    0.026335
  12 H :    0.001433
  13 H :    0.019024
  14 H :    0.006286
  15 H :   -0.002698
Sum of atomic charges:   -0.0000000

LOEWDIN ATOMIC CHARGES
----------------------
   0 C :    0.047015
   1 N :   -0.037020
   2 C :   -0.060319
   3 C :    0.046292
   4 N :   -0.037167
   5 C :   -0.253913
   6 H :   -0.008609
   7 H :   -0.009672
   8 H :    0.062324
   9 H :    0.061575
  10 H :    0.079349
  11 H :    0.029291
  12 H :    0.016398
  13 H :    0.025571
  14 H :    0.022699
  15 H :    0.016186

  Mayer bond orders larger than 0.100000
B(  0-C ,  1-N ) :   0.9885 B(  0-C ,  2-C ) :   1.1053 B(  0-C , 11-H ) :   0.9439
B(  0-C , 12-H ) :   0.9584 B(  1-N ,  3-C ) :   1.1724 B(  1-N ,  8-H ) :   0.9348
B(  2-C , 13-H ) :   0.9701 B(  2-C , 14-H ) :   0.9644 B(  2-C , 15-H ) :   0.9685
B(  3-C ,  4-N ) :   1.2111 B(  3-C ,  5-C ) :   1.7822 B(  4-N ,  9-H ) :   0.9525
B(  4-N , 10-H ) :   0.9483 B(  5-C ,  6-H ) :   0.9352 B(  5-C ,  7-H ) :   0.9279

FINAL SINGLE POINT ENERGY      -267.562223536444

DIPOLE MOMENT
-------------
                                X             Y             Z
Electronic contribution:      3.79071      -1.34169      -1.32372
Nuclear contribution   :     -3.02065       1.64092       1.99316
                        -----------------------------------------
Total Dipole Moment    :      0.77006       0.29923       0.66944
                        -----------------------------------------
Magnitude (a.u.)       :      1.06334
Magnitude (Debye)      :      2.70279

Rotational constants in cm-1:     0.259304     0.069422     0.060943
Rotational constants in MHz :  7773.747720  2081.225169  1827.013389

                             ****ORCA TERMINATED NORMALLY****
TOTAL RUN TIME: 0 days 0 hours 0 minutes 19 seconds 263 msec
