                         Program Version 5.0.0 -  RELEASE  -
|  1> !CAM-B3LYP RIJCOSX def2-TZVP def2/J TightSCF xyzfile
|  2>
|  3> *xyzfile 0 1 D1.xyz
|  4>
|  5> %MaxCore 64000
|  6>
|  7> %pal nprocs 18
|  8> end
|  9>
| 10> %scf
| 11>   MaxIter 150
| 12> end
| 13>
| 14>
| 15>                          ****END OF INPUT****

CARTESIAN COORDINATES (ANGSTROEM)
---------------------------------
  C      3.380928    2.083045   -3.350127
  C      4.535924    1.182447   -3.428518
  C      2.495557    1.816150   -2.136364
  C      1.872181    0.427903   -2.077497
  H      2.614270   -0.365825   -2.198894
  H      1.389953    0.273087   -1.112360
  S      0.579024    0.140472   -3.297943
  C      4.671956    0.122273   -4.220598
  N      5.866023   -0.507849   -4.224284
  N      3.698881   -0.312844   -4.986988
  H      2.731405   -0.050091   -4.849000
  H      3.890046   -1.055172   -5.643730
  H      5.251933    1.303459   -2.721014
  H      6.695165   -0.062322   -3.851596
  H      5.975383   -1.396884   -4.691414
  F      0.228860   -1.246868   -3.127871
  O     -0.439269    1.118966   -3.014550
  O      1.247881    0.403474   -4.595647
  H      1.697003    2.561969   -2.141109
  H      3.080787    1.987436   -1.225838
  H      2.806463    1.986511   -4.268484
  H      3.778714    3.098282   -3.307383

 Total Charge           Charge          ....    0
 Multiplicity           Mult            ....    1
 Number of Electrons    NEL             ....   96
 Basis Dimension        Dim             ....  413

ORBITAL ENERGIES
----------------

  NO   OCC          E(Eh)            E(eV)
   0   2.0000     -89.187920     -2426.9267
   1   2.0000     -24.888691      -677.2557
   2   2.0000     -19.220641      -523.0202
   3   2.0000     -19.215451      -522.8790
   4   2.0000     -14.378898      -391.2697
   5   2.0000     -14.362322      -390.8187
   6   2.0000     -10.295843      -280.1641
   7   2.0000     -10.284254      -279.8488
   8   2.0000     -10.251236      -278.9503
   9   2.0000     -10.216754      -278.0120
  10   2.0000     -10.159368      -276.4505
  11   2.0000      -8.232114      -224.0072
  12   2.0000      -6.199852      -168.7066
  13   2.0000      -6.193652      -168.5378
  14   2.0000      -6.192929      -168.5182
  15   2.0000      -1.479024       -40.2463
  16   2.0000      -1.202994       -32.7351
  17   2.0000      -1.106691       -30.1146
  18   2.0000      -1.033886       -28.1335
  19   2.0000      -0.939776       -25.5726
  20   2.0000      -0.907707       -24.7000
  21   2.0000      -0.845583       -23.0095
  22   2.0000      -0.806042       -21.9335
  23   2.0000      -0.759792       -20.6750
  24   2.0000      -0.704506       -19.1706
  25   2.0000      -0.676729       -18.4147
  26   2.0000      -0.664954       -18.0943
  27   2.0000      -0.655980       -17.8501
  28   2.0000      -0.625542       -17.0219
  29   2.0000      -0.606430       -16.5018
  30   2.0000      -0.586333       -15.9549
  31   2.0000      -0.560686       -15.2570
  32   2.0000      -0.555146       -15.1063
  33   2.0000      -0.538322       -14.6485
  34   2.0000      -0.521075       -14.1792
  35   2.0000      -0.505532       -13.7562
  36   2.0000      -0.475005       -12.9255
  37   2.0000      -0.472286       -12.8516
  38   2.0000      -0.460089       -12.5197
  39   2.0000      -0.448548       -12.2056
  40   2.0000      -0.423173       -11.5151
  41   2.0000      -0.419200       -11.4070
  42   2.0000      -0.403333       -10.9752
  43   2.0000      -0.399317       -10.8660
  44   2.0000      -0.384610       -10.4658
  45   2.0000      -0.375176       -10.2090
  46   2.0000      -0.318436        -8.6651
  47   2.0000      -0.213024        -5.7967
  48   0.0000       0.059208         1.6111
  49   0.0000       0.070055         1.9063
  50   0.0000       0.079098         2.1524
  51   0.0000       0.103812         2.8249
  52   0.0000       0.104776         2.8511

MULLIKEN ATOMIC CHARGES
-----------------------
   0 C :   -0.278710
   1 C :   -0.385474
   2 C :   -0.151294
   3 C :   -0.326351
   4 H :    0.180967
   5 H :    0.152739
   6 S :    0.885466
   7 C :    0.356601
   8 N :   -0.492782
   9 N :   -0.475713
  10 H :    0.265692
  11 H :    0.198760
  12 H :    0.083526
  13 H :    0.237101
  14 H :    0.206817
  15 F :   -0.097522
  16 O :   -0.394899
  17 O :   -0.464940
  18 H :    0.130285
  19 H :    0.110973
  20 H :    0.156087
  21 H :    0.102671
Sum of atomic charges:   -0.0000000

LOEWDIN ATOMIC CHARGES
----------------------
   0 C :   -0.282375
   1 C :   -0.293343
   2 C :   -0.273511
   3 C :   -0.367748
   4 H :    0.145993
   5 H :    0.139518
   6 S :    0.563079
   7 C :   -0.464530
   8 N :   -0.032064
   9 N :   -0.001077
  10 H :    0.133179
  11 H :    0.158719
  12 H :    0.116298
  13 H :    0.171964
  14 H :    0.154845
  15 F :    0.101564
  16 O :   -0.254805
  17 O :   -0.289574
  18 H :    0.142895
  19 H :    0.145500
  20 H :    0.144695
  21 H :    0.140777

  Mayer bond orders larger than 0.100000
B(  0-C ,  1-C ) :   0.9704 B(  0-C ,  2-C ) :   0.9341 B(  0-C , 20-H ) :   0.9921
B(  0-C , 21-H ) :   0.9917 B(  1-C ,  7-C ) :   1.6214 B(  1-C , 12-H ) :   0.9954
B(  2-C ,  3-C ) :   0.9425 B(  2-C , 18-H ) :   0.9674 B(  2-C , 19-H ) :   0.9615
B(  3-C ,  4-H ) :   0.9318 B(  3-C ,  5-H ) :   0.9470 B(  3-C ,  6-S ) :   0.9403
B(  6-S , 15-F ) :   1.1504 B(  6-S , 16-O ) :   1.9623 B(  6-S , 17-O ) :   1.7270
B(  7-C ,  8-N ) :   1.1072 B(  7-C ,  9-N ) :   1.1807 B(  8-N , 13-H ) :   0.9252
B(  8-N , 14-H ) :   0.9324 B(  9-N , 10-H ) :   0.8390 B(  9-N , 11-H ) :   0.9357
B( 10-H , 17-O ) :   0.1329

FINAL SINGLE POINT ENERGY      -955.098754320899

DIPOLE MOMENT
-------------
                                X             Y             Z
Electronic contribution:    -15.28269      -6.79104      -1.17025
Nuclear contribution   :     15.92508       5.34175       1.81950
                        -----------------------------------------
Total Dipole Moment    :      0.64239      -1.44928       0.64925
                        -----------------------------------------
Magnitude (a.u.)       :      1.71307
Magnitude (Debye)      :      4.35427

Rotational constants in cm-1:     0.058561     0.020662     0.017762
Rotational constants in MHz :  1755.621534   619.433801   532.501507

                             ****ORCA TERMINATED NORMALLY****
TOTAL RUN TIME: 0 days 0 hours 0 minutes 58 seconds 41 msec
