                         Program Version 5.0.0 -  RELEASE  -
|  1> !CAM-B3LYP RIJCOSX def2-TZVP def2/J TightSCF xyzfile
|  2>
|  3> *xyzfile 0 1 D4.xyz
|  4>
|  5> %MaxCore 64000
|  6>
|  7> %pal nprocs 18
|  8> end
|  9>
| 10> %scf
| 11>   MaxIter 150
| 12> end
| 13>
| 14>
| 15>                          ****END OF INPUT****

CARTESIAN COORDINATES (ANGSTROEM)
---------------------------------
  C      3.380928    2.083045   -3.350127
  C      4.535924    1.182447   -3.428518
  C      2.495557    1.816150   -2.136364
  C      1.872181    0.427903   -2.077497
  H      2.614270   -0.365825   -2.198894
  H      1.389953    0.273087   -1.112360
  S      0.579024    0.140472   -3.297943
  C      4.671956    0.122273   -4.220598
  N      5.866023   -0.507849   -4.224284
  N      3.698881   -0.312844   -4.986988
  H      2.731405   -0.050091   -4.849000
  H      3.890046   -1.055172   -5.643730
  H      5.251933    1.303459   -2.721014
  H      6.695165   -0.062322   -3.851596
  H      5.975383   -1.396884   -4.691414
  O      0.228860   -1.246868   -3.127871
  F     -0.439269    1.118966   -3.014550
  O      1.247881    0.403474   -4.595647
  H      1.697003    2.561969   -2.141109
  H      3.080787    1.987436   -1.225838
  H      2.806463    1.986511   -4.268484
  H      3.778714    3.098282   -3.307383

 Total Charge           Charge          ....    0
 Multiplicity           Mult            ....    1
 Number of Electrons    NEL             ....   96
 Basis Dimension        Dim             ....  413

ORBITAL ENERGIES
----------------

  NO   OCC          E(Eh)            E(eV)
   0   2.0000     -89.188272     -2426.9363
   1   2.0000     -24.888142      -677.2408
   2   2.0000     -19.221236      -523.0364
   3   2.0000     -19.214744      -522.8598
   4   2.0000     -14.378220      -391.2512
   5   2.0000     -14.361519      -390.7968
   6   2.0000     -10.295329      -280.1501
   7   2.0000     -10.284475      -279.8548
   8   2.0000     -10.253702      -279.0174
   9   2.0000     -10.219009      -278.0734
  10   2.0000     -10.159681      -276.4590
  11   2.0000      -8.232320      -224.0128
  12   2.0000      -6.200150      -168.7147
  13   2.0000      -6.193880      -168.5441
  14   2.0000      -6.193067      -168.5219
  15   2.0000      -1.478485       -40.2316
  16   2.0000      -1.202728       -32.7279
  17   2.0000      -1.106848       -30.1189
  18   2.0000      -1.033055       -28.1108
  19   2.0000      -0.938812       -25.5464
  20   2.0000      -0.910463       -24.7750
  21   2.0000      -0.843424       -22.9507
  22   2.0000      -0.805674       -21.9235
  23   2.0000      -0.761632       -20.7251
  24   2.0000      -0.702959       -19.1285
  25   2.0000      -0.679821       -18.4989
  26   2.0000      -0.669718       -18.2240
  27   2.0000      -0.654810       -17.8183
  28   2.0000      -0.622059       -16.9271
  29   2.0000      -0.603728       -16.4283
  30   2.0000      -0.585216       -15.9245
  31   2.0000      -0.557621       -15.1736
  32   2.0000      -0.551584       -15.0094
  33   2.0000      -0.545370       -14.8403
  34   2.0000      -0.522474       -14.2172
  35   2.0000      -0.508805       -13.8453
  36   2.0000      -0.478080       -13.0092
  37   2.0000      -0.468866       -12.7585
  38   2.0000      -0.467604       -12.7242
  39   2.0000      -0.446412       -12.1475
  40   2.0000      -0.424735       -11.5576
  41   2.0000      -0.414331       -11.2745
  42   2.0000      -0.407038       -11.0761
  43   2.0000      -0.398879       -10.8540
  44   2.0000      -0.391469       -10.6524
  45   2.0000      -0.372347       -10.1321
  46   2.0000      -0.317193        -8.6313
  47   2.0000      -0.213165        -5.8005
  48   0.0000       0.054776         1.4905
  49   0.0000       0.072565         1.9746
  50   0.0000       0.080379         2.1872
  51   0.0000       0.098660         2.6847
  52   0.0000       0.107381         2.9220

MULLIKEN ATOMIC CHARGES
-----------------------
   0 C :   -0.262823
   1 C :   -0.391688
   2 C :   -0.159261
   3 C :   -0.331927
   4 H :    0.199319
   5 H :    0.154132
   6 S :    0.887098
   7 C :    0.355346
   8 N :   -0.491984
   9 N :   -0.469202
  10 H :    0.275977
  11 H :    0.201359
  12 H :    0.084607
  13 H :    0.236529
  14 H :    0.209092
  15 O :   -0.396689
  16 F :   -0.095972
  17 O :   -0.473274
  18 H :    0.105849
  19 H :    0.111541
  20 H :    0.150149
  21 H :    0.101822
Sum of atomic charges:    0.0000000

LOEWDIN ATOMIC CHARGES
----------------------
   0 C :   -0.286382
   1 C :   -0.295169
   2 C :   -0.285775
   3 C :   -0.362159
   4 H :    0.158299
   5 H :    0.139433
   6 S :    0.564219
   7 C :   -0.461862
   8 N :   -0.030329
   9 N :    0.006202
  10 H :    0.138273
  11 H :    0.160658
  12 H :    0.116420
  13 H :    0.171914
  14 H :    0.155920
  15 O :   -0.259361
  16 F :    0.106281
  17 O :   -0.295673
  18 H :    0.132225
  19 H :    0.144259
  20 H :    0.142748
  21 H :    0.139858

  Mayer bond orders larger than 0.100000
B(  0-C ,  1-C ) :   0.9757 B(  0-C ,  2-C ) :   0.9177 B(  0-C , 20-H ) :   0.9913
B(  0-C , 21-H ) :   0.9912 B(  1-C ,  7-C ) :   1.6131 B(  1-C , 12-H ) :   0.9953
B(  2-C ,  3-C ) :   0.9245 B(  2-C , 18-H ) :   0.9766 B(  2-C , 19-H ) :   0.9639
B(  3-C ,  4-H ) :   0.9348 B(  3-C ,  5-H ) :   0.9563 B(  3-C ,  6-S ) :   0.9367
B(  6-S , 15-O ) :   1.9677 B(  6-S , 16-F ) :   1.1529 B(  6-S , 17-O ) :   1.7277
B(  7-C ,  8-N ) :   1.1089 B(  7-C ,  9-N ) :   1.1919 B(  8-N , 13-H ) :   0.9251
B(  8-N , 14-H ) :   0.9317 B(  9-N , 10-H ) :   0.8470 B(  9-N , 11-H ) :   0.9350
B( 10-H , 17-O ) :   0.1102

FINAL SINGLE POINT ENERGY      -955.099297685626

DIPOLE MOMENT
-------------
                                X             Y             Z
Electronic contribution:    -16.40192      -2.71772      -0.99407
Nuclear contribution   :     16.65743       2.74852       1.69529
                        -----------------------------------------
Total Dipole Moment    :      0.25551       0.03079       0.70122
                        -----------------------------------------
Magnitude (a.u.)       :      0.74695
Magnitude (Debye)      :      1.89861

Rotational constants in cm-1:     0.059907     0.020458     0.017675
Rotational constants in MHz :  1795.978106   613.328205   529.885290

                             ****ORCA TERMINATED NORMALLY****
TOTAL RUN TIME: 0 days 0 hours 0 minutes 51 seconds 564 msec
