                         Program Version 5.0.0 -  RELEASE  -
|  1> !CAM-B3LYP RIJCOSX def2-TZVP def2/J TightSCF xyzfile
|  2>
|  3> *xyzfile 0 1 D6.xyz
|  4>
|  5> %MaxCore 64000
|  6>
|  7> %pal nprocs 18
|  8> end
|  9>
| 10> %scf
| 11>   MaxIter 150
| 12> end
| 13>
| 14>
| 15>                          ****END OF INPUT****

CARTESIAN COORDINATES (ANGSTROEM)
---------------------------------
  C      3.380928    2.083045   -3.350127
  N      4.535924    1.182447   -3.428518
  C      2.495557    1.816150   -2.136364
  C      1.872181    0.427903   -2.077497
  H      2.614270   -0.365825   -2.198894
  H      1.389953    0.273087   -1.112360
  S      0.579024    0.140472   -3.297943
  C      4.671956    0.122273   -4.220598
  N      5.866023   -0.507849   -4.224284
  C      3.698881   -0.312844   -4.986988
  H      2.731405   -0.050091   -4.849000
  H      3.890046   -1.055172   -5.643730
  H      5.251933    1.303459   -2.721014
  H      6.695165   -0.062322   -3.851596
  H      5.975383   -1.396884   -4.691414
  O      0.228860   -1.246868   -3.127871
  F     -0.439269    1.118966   -3.014550
  O      1.247881    0.403474   -4.595647
  H      1.697003    2.561969   -2.141109
  H      3.080787    1.987436   -1.225838
  H      2.806463    1.986511   -4.268484
  H      3.778714    3.098282   -3.307383

 Total Charge           Charge          ....    0
 Multiplicity           Mult            ....    1
 Number of Electrons    NEL             ....   96
 Basis Dimension        Dim             ....  413

ORBITAL ENERGIES
----------------

  NO   OCC          E(Eh)            E(eV)
   0   2.0000     -89.178440     -2426.6687
   1   2.0000     -24.880966      -677.0455
   2   2.0000     -19.212851      -522.8082
   3   2.0000     -19.199009      -522.4316
   4   2.0000     -14.388223      -391.5234
   5   2.0000     -14.375835      -391.1864
   6   2.0000     -10.300403      -280.2882
   7   2.0000     -10.281553      -279.7753
   8   2.0000     -10.278762      -279.6993
   9   2.0000     -10.274077      -279.5718
  10   2.0000     -10.128294      -275.6049
  11   2.0000      -8.222506      -223.7458
  12   2.0000      -6.190416      -168.4498
  13   2.0000      -6.183723      -168.2677
  14   2.0000      -6.183554      -168.2630
  15   2.0000      -1.471772       -40.0489
  16   2.0000      -1.191822       -32.4311
  17   2.0000      -1.093710       -29.7614
  18   2.0000      -1.042642       -28.3717
  19   2.0000      -0.960147       -26.1269
  20   2.0000      -0.908323       -24.7167
  21   2.0000      -0.830916       -22.6104
  22   2.0000      -0.797182       -21.6924
  23   2.0000      -0.773944       -21.0601
  24   2.0000      -0.720320       -19.6009
  25   2.0000      -0.675245       -18.3743
  26   2.0000      -0.667279       -18.1576
  27   2.0000      -0.641504       -17.4562
  28   2.0000      -0.626025       -17.0350
  29   2.0000      -0.604634       -16.4529
  30   2.0000      -0.585263       -15.9258
  31   2.0000      -0.565181       -15.3794
  32   2.0000      -0.557143       -15.1606
  33   2.0000      -0.533260       -14.5108
  34   2.0000      -0.519417       -14.1341
  35   2.0000      -0.511857       -13.9283
  36   2.0000      -0.484228       -13.1765
  37   2.0000      -0.466868       -12.7041
  38   2.0000      -0.460544       -12.5320
  39   2.0000      -0.452121       -12.3029
  40   2.0000      -0.441788       -12.0217
  41   2.0000      -0.433077       -11.7846
  42   2.0000      -0.416968       -11.3463
  43   2.0000      -0.389203       -10.5908
  44   2.0000      -0.376229       -10.2377
  45   2.0000      -0.360367        -9.8061
  46   2.0000      -0.310377        -8.4458
  47   2.0000      -0.216468        -5.8904
  48   0.0000       0.049731         1.3532
  49   0.0000       0.069647         1.8952
  50   0.0000       0.077355         2.1049
  51   0.0000       0.098852         2.6899
  52   0.0000       0.099740         2.7141

MULLIKEN ATOMIC CHARGES
-----------------------
   0 C :   -0.167719
   1 N :   -0.353036
   2 C :   -0.209632
   3 C :   -0.302550
   4 H :    0.199059
   5 H :    0.153842
   6 S :    0.865816
   7 C :    0.422810
   8 N :   -0.515325
   9 C :   -0.569822
  10 H :    0.151759
  11 H :    0.074784
  12 H :    0.184021
  13 H :    0.207343
  14 H :    0.238025
  15 O :   -0.396805
  16 F :   -0.101995
  17 O :   -0.429742
  18 H :    0.115142
  19 H :    0.117290
  20 H :    0.194047
  21 H :    0.122687
Sum of atomic charges:    0.0000000

LOEWDIN ATOMIC CHARGES
----------------------
   0 C :   -0.271845
   1 N :    0.106178
   2 C :   -0.293318
   3 C :   -0.361919
   4 H :    0.160077
   5 H :    0.139162
   6 S :    0.552395
   7 C :   -0.477121
   8 N :   -0.035635
   9 C :   -0.323714
  10 H :    0.082000
  11 H :    0.096480
  12 H :    0.173136
  13 H :    0.153435
  14 H :    0.172106
  15 O :   -0.258918
  16 F :    0.098737
  17 O :   -0.274269
  18 H :    0.139739
  19 H :    0.141936
  20 H :    0.149308
  21 H :    0.132048

  Mayer bond orders larger than 0.100000
B(  0-C ,  1-N ) :   0.8705 B(  0-C ,  2-C ) :   0.9338 B(  0-C , 20-H ) :   0.9715
B(  0-C , 21-H ) :   0.9851 B(  1-N ,  7-C ) :   1.1188 B(  1-N , 12-H ) :   0.9350
B(  2-C ,  3-C ) :   0.9311 B(  2-C , 18-H ) :   0.9749 B(  2-C , 19-H ) :   0.9638
B(  3-C ,  4-H ) :   0.9385 B(  3-C ,  5-H ) :   0.9546 B(  3-C ,  6-S ) :   0.9284
B(  6-S , 15-O ) :   1.9673 B(  6-S , 16-F ) :   1.1354 B(  6-S , 17-O ) :   1.7933
B(  7-C ,  8-N ) :   1.0612 B(  7-C ,  9-C ) :   1.6159 B(  8-N , 13-H ) :   0.9328
B(  8-N , 14-H ) :   0.9278 B(  9-C , 10-H ) :   1.0040 B(  9-C , 11-H ) :   1.0154

FINAL SINGLE POINT ENERGY      -955.067469021061

DIPOLE MOMENT
-------------
                                X             Y             Z
Electronic contribution:    -15.79484      -1.42211       0.27835
Nuclear contribution   :     16.57580       2.60270       1.54331
                        -----------------------------------------
Total Dipole Moment    :      0.78096       1.18059       1.82166
                        -----------------------------------------
Magnitude (a.u.)       :      2.30697
Magnitude (Debye)      :      5.86386

Rotational constants in cm-1:     0.060402     0.020377     0.017632
Rotational constants in MHz :  1810.792194   610.900365   528.582827

                             ****ORCA TERMINATED NORMALLY****
TOTAL RUN TIME: 0 days 0 hours 1 minutes 4 seconds 286 msec
