                         Program Version 5.0.0 -  RELEASE  -
|  1> !CAM-B3LYP RIJCOSX def2-TZVP def2/J TightSCF xyzfile
|  2>
|  3> *xyzfile 0 1 D7.xyz
|  4>
|  5> %MaxCore 64000
|  6>
|  7> %pal nprocs 18
|  8> end
|  9>
| 10> %scf
| 11>   MaxIter 150
| 12> end
| 13>
| 14>
| 15>                          ****END OF INPUT****

CARTESIAN COORDINATES (ANGSTROEM)
---------------------------------
  C      3.380928    2.083045   -3.350127
  C      4.535924    1.182447   -3.428518
  C      2.495557    1.816150   -2.136364
  C      1.872181    0.427903   -2.077497
  H      2.614270   -0.365825   -2.198894
  H      1.389953    0.273087   -1.112360
  S      0.579024    0.140472   -3.297943
  C      4.671956    0.122273   -4.220598
  N      5.866023   -0.507849   -4.224284
  N      3.698881   -0.312844   -4.986988
  H      2.731405   -0.050091   -4.849000
  H      3.890046   -1.055172   -5.643730
  H      5.251933    1.303459   -2.721014
  H      6.695165   -0.062322   -3.851596
  H      5.975383   -1.396884   -4.691414
  O      0.228860   -1.246868   -3.127871
  O     -0.439269    1.118966   -3.014550
  F      1.247881    0.403474   -4.595647
  H      1.697003    2.561969   -2.141109
  H      3.080787    1.987436   -1.225838
  H      2.806463    1.986511   -4.268484
  H      3.778714    3.098282   -3.307383

 Total Charge           Charge          ....    0
 Multiplicity           Mult            ....    1
 Number of Electrons    NEL             ....   96
 Basis Dimension        Dim             ....  413

ORBITAL ENERGIES
----------------

  NO   OCC          E(Eh)            E(eV)
   0   2.0000     -89.177661     -2426.6475
   1   2.0000     -24.875632      -676.9004
   2   2.0000     -19.215666      -522.8849
   3   2.0000     -19.214913      -522.8644
   4   2.0000     -14.392302      -391.6345
   5   2.0000     -14.392047      -391.6275
   6   2.0000     -10.301027      -280.3052
   7   2.0000     -10.291855      -280.0556
   8   2.0000     -10.253279      -279.0059
   9   2.0000     -10.234106      -278.4842
  10   2.0000     -10.175272      -276.8832
  11   2.0000      -8.222181      -223.7369
  12   2.0000      -6.190552      -168.4535
  13   2.0000      -6.183115      -168.2511
  14   2.0000      -6.182938      -168.2463
  15   2.0000      -1.456982       -39.6465
  16   2.0000      -1.204577       -32.7782
  17   2.0000      -1.111051       -30.2332
  18   2.0000      -1.053898       -28.6780
  19   2.0000      -0.959963       -26.1219
  20   2.0000      -0.911411       -24.8008
  21   2.0000      -0.847623       -23.0650
  22   2.0000      -0.810402       -22.0522
  23   2.0000      -0.766585       -20.8598
  24   2.0000      -0.721783       -19.6407
  25   2.0000      -0.674339       -18.3497
  26   2.0000      -0.664332       -18.0774
  27   2.0000      -0.648603       -17.6494
  28   2.0000      -0.625268       -17.0144
  29   2.0000      -0.619666       -16.8620
  30   2.0000      -0.585900       -15.9432
  31   2.0000      -0.563755       -15.3406
  32   2.0000      -0.548793       -14.9334
  33   2.0000      -0.542597       -14.7648
  34   2.0000      -0.529861       -14.4183
  35   2.0000      -0.523499       -14.2451
  36   2.0000      -0.481403       -13.0996
  37   2.0000      -0.476927       -12.9778
  38   2.0000      -0.475393       -12.9361
  39   2.0000      -0.455832       -12.4038
  40   2.0000      -0.429870       -11.6974
  41   2.0000      -0.417980       -11.3738
  42   2.0000      -0.409936       -11.1549
  43   2.0000      -0.402898       -10.9634
  44   2.0000      -0.394479       -10.7343
  45   2.0000      -0.387092       -10.5333
  46   2.0000      -0.337855        -9.1935
  47   2.0000      -0.228691        -6.2230
  48   0.0000       0.051546         1.4026
  49   0.0000       0.065677         1.7872
  50   0.0000       0.084327         2.2947
  51   0.0000       0.097560         2.6547
  52   0.0000       0.103984         2.8296

MULLIKEN ATOMIC CHARGES
-----------------------
   0 C :   -0.292437
   1 C :   -0.364605
   2 C :   -0.153500
   3 C :   -0.333318
   4 H :    0.187270
   5 H :    0.167648
   6 S :    0.866913
   7 C :    0.366191
   8 N :   -0.490190
   9 N :   -0.476167
  10 H :    0.246199
  11 H :    0.214469
  12 H :    0.093084
  13 H :    0.241773
  14 H :    0.211675
  15 O :   -0.409616
  16 O :   -0.406905
  17 F :   -0.148111
  18 H :    0.135462
  19 H :    0.109766
  20 H :    0.122110
  21 H :    0.112291
Sum of atomic charges:   -0.0000000

LOEWDIN ATOMIC CHARGES
----------------------
   0 C :   -0.284712
   1 C :   -0.283498
   2 C :   -0.284284
   3 C :   -0.362112
   4 H :    0.147251
   5 H :    0.150975
   6 S :    0.553585
   7 C :   -0.461644
   8 N :   -0.026732
   9 N :   -0.001731
  10 H :    0.140964
  11 H :    0.165534
  12 H :    0.119724
  13 H :    0.174788
  14 H :    0.157364
  15 O :   -0.266886
  16 O :   -0.262369
  17 F :    0.061062
  18 H :    0.141706
  19 H :    0.144164
  20 H :    0.132952
  21 H :    0.143902

  Mayer bond orders larger than 0.100000
B(  0-C ,  1-C ) :   0.9705 B(  0-C ,  2-C ) :   0.9317 B(  0-C , 20-H ) :   0.9981
B(  0-C , 21-H ) :   0.9928 B(  1-C ,  7-C ) :   1.6378 B(  1-C , 12-H ) :   0.9944
B(  2-C ,  3-C ) :   0.9242 B(  2-C , 18-H ) :   0.9706 B(  2-C , 19-H ) :   0.9611
B(  3-C ,  4-H ) :   0.9407 B(  3-C ,  5-H ) :   0.9501 B(  3-C ,  6-S ) :   0.9286
B(  6-S , 15-O ) :   1.9541 B(  6-S , 16-O ) :   1.9490 B(  6-S , 17-F ) :   1.0130
B(  7-C ,  8-N ) :   1.1118 B(  7-C ,  9-N ) :   1.1470 B(  8-N , 13-H ) :   0.9231
B(  8-N , 14-H ) :   0.9311 B(  9-N , 10-H ) :   0.8963 B(  9-N , 11-H ) :   0.9296

FINAL SINGLE POINT ENERGY      -955.105312447457

DIPOLE MOMENT
-------------
                                X             Y             Z
Electronic contribution:    -13.18180      -3.90815      -3.70063
Nuclear contribution   :     14.80811       3.53278       3.42836
                        -----------------------------------------
Total Dipole Moment    :      1.62631      -0.37537      -0.27227
                        -----------------------------------------
Magnitude (a.u.)       :      1.69113
Magnitude (Debye)      :      4.29851

Rotational constants in cm-1:     0.059173     0.020923     0.018056
Rotational constants in MHz :  1773.956621   627.264018   541.303397

                             ****ORCA TERMINATED NORMALLY****
TOTAL RUN TIME: 0 days 0 hours 0 minutes 45 seconds 170 msec
