                         Program Version 5.0.0 -  RELEASE  -
|  1> !CAM-B3LYP RIJCOSX def2-TZVP def2/J TightSCF xyzfile
|  2>
|  3> *xyzfile 0 1 D8.xyz
|  4>
|  5> %MaxCore 64000
|  6>
|  7> %pal nprocs 18
|  8> end
|  9>
| 10> %scf
| 11>   MaxIter 150
| 12> end
| 13>
| 14>
| 15>                          ****END OF INPUT****

CARTESIAN COORDINATES (ANGSTROEM)
---------------------------------
  C      3.380928    2.083045   -3.350127
  N      4.535924    1.182447   -3.428518
  C      2.495557    1.816150   -2.136364
  C      1.872181    0.427903   -2.077497
  H      2.614270   -0.365825   -2.198894
  H      1.389953    0.273087   -1.112360
  S      0.579024    0.140472   -3.297943
  C      4.671956    0.122273   -4.220598
  C      5.866023   -0.507849   -4.224284
  N      3.698881   -0.312844   -4.986988
  H      2.731405   -0.050091   -4.849000
  H      3.890046   -1.055172   -5.643730
  H      5.251933    1.303459   -2.721014
  H      6.695165   -0.062322   -3.851596
  H      5.975383   -1.396884   -4.691414
  O      0.228860   -1.246868   -3.127871
  O     -0.439269    1.118966   -3.014550
  F      1.247881    0.403474   -4.595647
  H      1.697003    2.561969   -2.141109
  H      3.080787    1.987436   -1.225838
  H      2.806463    1.986511   -4.268484
  H      3.778714    3.098282   -3.307383

 Total Charge           Charge          ....    0
 Multiplicity           Mult            ....    1
 Number of Electrons    NEL             ....   96
 Basis Dimension        Dim             ....  413

ORBITAL ENERGIES
----------------

  NO   OCC          E(Eh)            E(eV)
   0   2.0000     -89.191304     -2427.0188
   1   2.0000     -24.887716      -677.2292
   2   2.0000     -19.228220      -523.2265
   3   2.0000     -19.227402      -523.2042
   4   2.0000     -14.401886      -391.8952
   5   2.0000     -14.390413      -391.5830
   6   2.0000     -10.311129      -280.5801
   7   2.0000     -10.302610      -280.3483
   8   2.0000     -10.301402      -280.3154
   9   2.0000     -10.281441      -279.7722
  10   2.0000     -10.157063      -276.3877
  11   2.0000      -8.235690      -224.1045
  12   2.0000      -6.204025      -168.8201
  13   2.0000      -6.196785      -168.6231
  14   2.0000      -6.196382      -168.6121
  15   2.0000      -1.469259       -39.9806
  16   2.0000      -1.217049       -33.1176
  17   2.0000      -1.123367       -30.5684
  18   2.0000      -1.063872       -28.9494
  19   2.0000      -0.982302       -26.7298
  20   2.0000      -0.922572       -25.1045
  21   2.0000      -0.854280       -23.2461
  22   2.0000      -0.806402       -21.9433
  23   2.0000      -0.783634       -21.3238
  24   2.0000      -0.722467       -19.6593
  25   2.0000      -0.691710       -18.8224
  26   2.0000      -0.686925       -18.6922
  27   2.0000      -0.671445       -18.2709
  28   2.0000      -0.638002       -17.3609
  29   2.0000      -0.610458       -16.6114
  30   2.0000      -0.589117       -16.0307
  31   2.0000      -0.569882       -15.5073
  32   2.0000      -0.563115       -15.3231
  33   2.0000      -0.555980       -15.1290
  34   2.0000      -0.540942       -14.7198
  35   2.0000      -0.528976       -14.3942
  36   2.0000      -0.498806       -13.5732
  37   2.0000      -0.478511       -13.0210
  38   2.0000      -0.477444       -12.9919
  39   2.0000      -0.462318       -12.5803
  40   2.0000      -0.454870       -12.3776
  41   2.0000      -0.446639       -12.1537
  42   2.0000      -0.429902       -11.6982
  43   2.0000      -0.422714       -11.5026
  44   2.0000      -0.409166       -11.1340
  45   2.0000      -0.403332       -10.9752
  46   2.0000      -0.329736        -8.9726
  47   2.0000      -0.223820        -6.0905
  48   0.0000       0.043087         1.1725
  49   0.0000       0.062676         1.7055
  50   0.0000       0.079413         2.1609
  51   0.0000       0.089007         2.4220
  52   0.0000       0.100582         2.7370

MULLIKEN ATOMIC CHARGES
-----------------------
   0 C :   -0.251337
   1 N :   -0.310360
   2 C :   -0.174842
   3 C :   -0.323608
   4 H :    0.190742
   5 H :    0.174968
   6 S :    0.869603
   7 C :    0.403201
   8 C :   -0.595106
   9 N :   -0.480578
  10 H :    0.228599
  11 H :    0.240181
  12 H :    0.222108
  13 H :    0.098623
  14 H :    0.089396
  15 O :   -0.399667
  16 O :   -0.405414
  17 F :   -0.144642
  18 H :    0.142692
  19 H :    0.123202
  20 H :    0.163027
  21 H :    0.139215
Sum of atomic charges:    0.0000000

LOEWDIN ATOMIC CHARGES
----------------------
   0 C :   -0.287544
   1 N :    0.118177
   2 C :   -0.292231
   3 C :   -0.362253
   4 H :    0.150072
   5 H :    0.154061
   6 S :    0.552976
   7 C :   -0.473314
   8 C :   -0.358153
   9 N :   -0.001190
  10 H :    0.130709
  11 H :    0.181529
  12 H :    0.194764
  13 H :    0.093084
  14 H :    0.092446
  15 O :   -0.258186
  16 O :   -0.260521
  17 F :    0.061787
  18 H :    0.148394
  19 H :    0.145234
  20 H :    0.132839
  21 H :    0.137321

  Mayer bond orders larger than 0.100000
B(  0-C ,  1-N ) :   0.8929 B(  0-C ,  2-C ) :   0.9298 B(  0-C , 20-H ) :   0.9866
B(  0-C , 21-H ) :   0.9872 B(  1-N ,  7-C ) :   1.1619 B(  1-N , 12-H ) :   0.9282
B(  2-C ,  3-C ) :   0.9201 B(  2-C , 18-H ) :   0.9660 B(  2-C , 19-H ) :   0.9596
B(  3-C ,  4-H ) :   0.9377 B(  3-C ,  5-H ) :   0.9475 B(  3-C ,  6-S ) :   0.9242
B(  6-S , 15-O ) :   1.9627 B(  6-S , 16-O ) :   1.9450 B(  6-S , 17-F ) :   1.0171
B(  7-C ,  8-C ) :   1.5519 B(  7-C ,  9-N ) :   1.1591 B(  8-C , 13-H ) :   1.0093
B(  8-C , 14-H ) :   1.0130 B(  9-N , 10-H ) :   0.9026 B(  9-N , 11-H ) :   0.9259

FINAL SINGLE POINT ENERGY      -955.090880118744

DIPOLE MOMENT
-------------
                                X             Y             Z
Electronic contribution:    -14.65484      -2.42088      -2.90207
Nuclear contribution   :     14.93782       3.36795       3.35075
                        -----------------------------------------
Total Dipole Moment    :      0.28298       0.94707       0.44869
                        -----------------------------------------
Magnitude (a.u.)       :      1.08551
Magnitude (Debye)      :      2.75916

Rotational constants in cm-1:     0.059219     0.021387     0.018380
Rotational constants in MHz :  1775.354399   641.172207   551.019443

                             ****ORCA TERMINATED NORMALLY****
TOTAL RUN TIME: 0 days 0 hours 0 minutes 43 seconds 221 msec
