                         Program Version 5.0.0 -  RELEASE  -
|  1> !CAM-B3LYP RIJCOSX def2-TZVP def2/J TightSCF xyzfile
|  2>
|  3> *xyzfile 0 1 D9.xyz
|  4>
|  5> %MaxCore 64000
|  6>
|  7> %pal nprocs 18
|  8> end
|  9>
| 10> %scf
| 11>   MaxIter 150
| 12> end
| 13>
| 14>
| 15>                          ****END OF INPUT****

CARTESIAN COORDINATES (ANGSTROEM)
---------------------------------
  C      3.380928    2.083045   -3.350127
  N      4.535924    1.182447   -3.428518
  C      2.495557    1.816150   -2.136364
  C      1.872181    0.427903   -2.077497
  H      2.614270   -0.365825   -2.198894
  H      1.389953    0.273087   -1.112360
  S      0.579024    0.140472   -3.297943
  C      4.671956    0.122273   -4.220598
  N      5.866023   -0.507849   -4.224284
  C      3.698881   -0.312844   -4.986988
  H      2.731405   -0.050091   -4.849000
  H      3.890046   -1.055172   -5.643730
  H      5.251933    1.303459   -2.721014
  H      6.695165   -0.062322   -3.851596
  H      5.975383   -1.396884   -4.691414
  O      0.228860   -1.246868   -3.127871
  O     -0.439269    1.118966   -3.014550
  F      1.247881    0.403474   -4.595647
  H      1.697003    2.561969   -2.141109
  H      3.080787    1.987436   -1.225838
  H      2.806463    1.986511   -4.268484
  H      3.778714    3.098282   -3.307383

 Total Charge           Charge          ....    0
 Multiplicity           Mult            ....    1
 Number of Electrons    NEL             ....   96
 Basis Dimension        Dim             ....  413

ORBITAL ENERGIES
----------------

  NO   OCC          E(Eh)            E(eV)
   0   2.0000     -89.172967     -2426.5198
   1   2.0000     -24.855880      -676.3629
   2   2.0000     -19.210671      -522.7489
   3   2.0000     -19.209021      -522.7040
   4   2.0000     -14.403076      -391.9276
   5   2.0000     -14.392126      -391.6297
   6   2.0000     -10.300125      -280.2807
   7   2.0000     -10.297100      -280.1983
   8   2.0000     -10.295590      -280.1573
   9   2.0000     -10.273382      -279.5529
  10   2.0000     -10.155141      -276.3354
  11   2.0000      -8.217016      -223.5964
  12   2.0000      -6.185072      -168.3044
  13   2.0000      -6.178411      -168.1231
  14   2.0000      -6.177869      -168.1084
  15   2.0000      -1.439023       -39.1578
  16   2.0000      -1.198412       -32.6105
  17   2.0000      -1.105733       -30.0885
  18   2.0000      -1.059029       -28.8176
  19   2.0000      -0.974803       -26.5258
  20   2.0000      -0.908558       -24.7231
  21   2.0000      -0.830542       -22.6002
  22   2.0000      -0.811428       -22.0801
  23   2.0000      -0.773382       -21.0448
  24   2.0000      -0.729673       -19.8554
  25   2.0000      -0.663668       -18.0593
  26   2.0000      -0.659289       -17.9402
  27   2.0000      -0.638695       -17.3798
  28   2.0000      -0.627620       -17.0784
  29   2.0000      -0.616085       -16.7645
  30   2.0000      -0.589013       -16.0279
  31   2.0000      -0.568037       -15.4571
  32   2.0000      -0.551597       -15.0097
  33   2.0000      -0.536936       -14.6108
  34   2.0000      -0.531398       -14.4601
  35   2.0000      -0.516149       -14.0451
  36   2.0000      -0.487271       -13.2593
  37   2.0000      -0.478997       -13.0342
  38   2.0000      -0.467711       -12.7271
  39   2.0000      -0.451760       -12.2930
  40   2.0000      -0.447825       -12.1859
  41   2.0000      -0.439037       -11.9468
  42   2.0000      -0.423357       -11.5201
  43   2.0000      -0.406156       -11.0521
  44   2.0000      -0.393113       -10.6972
  45   2.0000      -0.385947       -10.5022
  46   2.0000      -0.324344        -8.8258
  47   2.0000      -0.237729        -6.4689
  48   0.0000       0.046593         1.2679
  49   0.0000       0.066568         1.8114
  50   0.0000       0.079786         2.1711
  51   0.0000       0.098473         2.6796
  52   0.0000       0.104677         2.8484

MULLIKEN ATOMIC CHARGES
-----------------------
   0 C :   -0.199018
   1 N :   -0.337555
   2 C :   -0.200011
   3 C :   -0.302860
   4 H :    0.185950
   5 H :    0.167399
   6 S :    0.875188
   7 C :    0.443248
   8 N :   -0.510643
   9 C :   -0.565389
  10 H :    0.092374
  11 H :    0.086272
  12 H :    0.191780
  13 H :    0.214509
  14 H :    0.241585
  15 O :   -0.409696
  16 O :   -0.418703
  17 F :   -0.117727
  18 H :    0.142176
  19 H :    0.114604
  20 H :    0.174867
  21 H :    0.131649
Sum of atomic charges:   -0.0000000

LOEWDIN ATOMIC CHARGES
----------------------
   0 C :   -0.271047
   1 N :    0.111773
   2 C :   -0.292389
   3 C :   -0.361482
   4 H :    0.149306
   5 H :    0.150438
   6 S :    0.557451
   7 C :   -0.467601
   8 N :   -0.027087
   9 C :   -0.340951
  10 H :    0.078201
  11 H :    0.099526
  12 H :    0.177268
  13 H :    0.157450
  14 H :    0.174224
  15 O :   -0.264420
  16 O :   -0.270660
  17 F :    0.072650
  18 H :    0.148550
  19 H :    0.141810
  20 H :    0.141386
  21 H :    0.135605

  Mayer bond orders larger than 0.100000
B(  0-C ,  1-N ) :   0.8641 B(  0-C ,  2-C ) :   0.9464 B(  0-C , 20-H ) :   0.9805
B(  0-C , 21-H ) :   0.9860 B(  1-N ,  7-C ) :   1.1425 B(  1-N , 12-H ) :   0.9325
B(  2-C ,  3-C ) :   0.9304 B(  2-C , 18-H ) :   0.9677 B(  2-C , 19-H ) :   0.9619
B(  3-C ,  4-H ) :   0.9434 B(  3-C ,  5-H ) :   0.9489 B(  3-C ,  6-S ) :   0.9218
B(  6-S , 15-O ) :   1.9558 B(  6-S , 16-O ) :   1.9335 B(  6-S , 17-F ) :   1.0634
B(  7-C ,  8-N ) :   1.0795 B(  7-C ,  9-C ) :   1.5841 B(  8-N , 13-H ) :   0.9309
B(  8-N , 14-H ) :   0.9262 B(  9-C , 10-H ) :   1.0378 B(  9-C , 11-H ) :   1.0106

FINAL SINGLE POINT ENERGY      -955.087957232842

DIPOLE MOMENT
-------------
                                X             Y             Z
Electronic contribution:    -12.57763      -2.63588      -2.40458
Nuclear contribution   :     14.72648       3.38697       3.27638
                        -----------------------------------------
Total Dipole Moment    :      2.14885       0.75108       0.87179
                        -----------------------------------------
Magnitude (a.u.)       :      2.43756
Magnitude (Debye)      :      6.19580

Rotational constants in cm-1:     0.059651     0.020833     0.018010
Rotational constants in MHz :  1788.283887   624.555661   539.921162

                             ****ORCA TERMINATED NORMALLY****
TOTAL RUN TIME: 0 days 0 hours 0 minutes 44 seconds 662 msec
