                         Program Version 5.0.0 -  RELEASE  -
|  1> !M062X D3Zero RIJCOSX def2-TZVP def2/J TightSCF
|  2> *xyz -1 1
|  3> C         -2.79070       -0.78527        5.70281
|  4> C         -2.45380        0.05510        6.94145
|  5> C         -2.07842        1.48042        6.56410
|  6> H         -1.62558       -0.38216        7.49891
|  7> H         -3.32527        0.08775        7.59917
|  8> O         -0.90125        1.85816        6.82810
|  9> O         -2.93658        2.17731        5.96415
| 10> H         -1.94052       -0.82114        5.05412
| 11> H         -3.61590       -0.34261        5.18514
| 12> H         -3.05063       -1.77815        6.00536
| 13> *
| 14> %MaxCore 64000
| 15>
| 16> %pal nprocs 4
| 17> end
| 18>
| 19> %scf
| 20>   MaxIter 150
| 21> end
| 22>
| 23>
| 24>                          ****END OF INPUT****

CARTESIAN COORDINATES (ANGSTROEM)
---------------------------------
  C     -2.790700   -0.785270    5.702810
  C     -2.453800    0.055100    6.941450
  C     -2.078420    1.480420    6.564100
  H     -1.625580   -0.382160    7.498910
  H     -3.325270    0.087750    7.599170
  O     -0.901250    1.858160    6.828100
  O     -2.936580    2.177310    5.964150
  H     -1.940520   -0.821140    5.054120
  H     -3.615900   -0.342610    5.185140
  H     -3.050630   -1.778150    6.005360

 Total Charge           Charge          ....   -1
 Multiplicity           Mult            ....    1
 Number of Electrons    NEL             ....   40
 Basis Dimension        Dim             ....  185

ORBITAL ENERGIES
----------------

  NO   OCC          E(Eh)            E(eV)
   0   2.0000     -19.350432      -526.5520
   1   2.0000     -19.349050      -526.5144
   2   2.0000     -10.414151      -283.3835
   3   2.0000     -10.369199      -282.1602
   4   2.0000     -10.356162      -281.8055
   5   2.0000      -0.932371       -25.3711
   6   2.0000      -0.833353       -22.6767
   7   2.0000      -0.700632       -19.0652
   8   2.0000      -0.560526       -15.2527
   9   2.0000      -0.396350       -10.7852
  10   2.0000      -0.360293        -9.8041
  11   2.0000      -0.332524        -9.0484
  12   2.0000      -0.296256        -8.0615
  13   2.0000      -0.280438        -7.6311
  14   2.0000      -0.275044        -7.4843
  15   2.0000      -0.239940        -6.5291
  16   2.0000      -0.224740        -6.1155
  17   2.0000      -0.105343        -2.8665
  18   2.0000      -0.104376        -2.8402
  19   2.0000      -0.096264        -2.6195
  20   0.0000       0.216500         5.8913
  21   0.0000       0.257711         7.0127
  22   0.0000       0.278604         7.5812
  23   0.0000       0.282059         7.6752
  24   0.0000       0.297587         8.0978

MULLIKEN ATOMIC CHARGES
-----------------------
   0 C :   -0.404456
   1 C :   -0.228552
   2 C :    0.281816
   3 H :    0.081854
   4 H :    0.075803
   5 O :   -0.567430
   6 O :   -0.566676
   7 H :    0.117713
   8 H :    0.126570
   9 H :    0.083359
Sum of atomic charges:   -1.0000000

LOEWDIN ATOMIC CHARGES
----------------------
   0 C :   -0.324233
   1 C :   -0.290395
   2 C :   -0.685864
   3 H :    0.121411
   4 H :    0.122854
   5 O :   -0.136043
   6 O :   -0.126953
   7 H :    0.110724
   8 H :    0.113700
   9 H :    0.094800

  Mayer bond orders larger than 0.100000
B(  0-C ,  1-C ) :   0.9334 B(  0-C ,  7-H ) :   0.9811 B(  0-C ,  8-H ) :   0.9708
B(  0-C ,  9-H ) :   0.9773 B(  1-C ,  2-C ) :   0.9370 B(  1-C ,  3-H ) :   0.9690
B(  1-C ,  4-H ) :   0.9665 B(  2-C ,  5-O ) :   1.8364 B(  2-C ,  6-O ) :   1.8124

Dispersion correction           -0.000086182
FINAL SINGLE POINT ENERGY      -267.826318226103

DIPOLE MOMENT
-------------
                                X             Y             Z
Electronic contribution:      1.64521       5.56417       0.67880
Nuclear contribution   :     -2.24498      -7.51881      -0.57245
                        -----------------------------------------
Total Dipole Moment    :     -0.59977      -1.95464       0.10635
                        -----------------------------------------
Magnitude (a.u.)       :      2.04735
Magnitude (Debye)      :      5.20395

Rotational constants in cm-1:     0.305589     0.135336     0.107479
Rotational constants in MHz :  9161.317320  4057.276612  3222.126231

                             ****ORCA TERMINATED NORMALLY****
TOTAL RUN TIME: 0 days 0 hours 0 minutes 24 seconds 907 msec
