                         Program Version 5.0.0 -  RELEASE  -
|  1> !M062X D3Zero RIJCOSX def2-TZVP def2/J TightSCF
|  2> *xyz 1 1
|  3> C         -0.69912        3.48945        3.75516
|  4> H         -0.96672        4.34901        3.14049
|  5> N         -1.08067        3.79296        5.15686
|  6> C          0.77696        3.13839        3.61741
|  7> H         -1.33146        2.65651        3.44632
|  8> H         -0.87449        4.76274        5.42734
|  9> H         -0.68079        3.13476        5.83900
| 10> H         -2.05755        3.53169        5.34620
| 11> H          0.99957        2.92898        2.59199
| 12> H          0.99576        2.27685        4.21303
| 13> H          1.37223        3.96279        3.95046
| 14> *
| 15> %MaxCore 64000
| 16>
| 17> %pal nprocs 4
| 18> end
| 19>
| 20> %scf
| 21>   MaxIter 150
| 22> end
| 23>
| 24>
| 25>                          ****END OF INPUT****

CARTESIAN COORDINATES (ANGSTROEM)
---------------------------------
  C     -0.699120    3.489450    3.755160
  H     -0.966720    4.349010    3.140490
  N     -1.080670    3.792960    5.156860
  C      0.776960    3.138390    3.617410
  H     -1.331460    2.656510    3.446320
  H     -0.874490    4.762740    5.427340
  H     -0.680790    3.134760    5.839000
  H     -2.057550    3.531690    5.346200
  H      0.999570    2.928980    2.591990
  H      0.995760    2.276850    4.213030
  H      1.372230    3.962790    3.950460

 Total Charge           Charge          ....    1
 Multiplicity           Mult            ....    1
 Number of Electrons    NEL             ....   26
 Basis Dimension        Dim             ....  141

ORBITAL ENERGIES
----------------

  NO   OCC          E(Eh)            E(eV)
   0   2.0000     -15.081931      -410.4002
   1   2.0000     -10.790749      -293.6312
   2   2.0000     -10.708052      -291.3809
   3   2.0000      -1.327163       -36.1139
   4   2.0000      -1.063143       -28.9296
   5   2.0000      -0.932437       -25.3729
   6   2.0000      -0.890876       -24.2420
   7   2.0000      -0.841371       -22.8949
   8   2.0000      -0.769078       -20.9277
   9   2.0000      -0.712384       -19.3849
  10   2.0000      -0.645428       -17.5630
  11   2.0000      -0.630211       -17.1489
  12   2.0000      -0.613769       -16.7015
  13   0.0000      -0.165882        -4.5139
  14   0.0000      -0.104811        -2.8520
  15   0.0000      -0.100705        -2.7403
  16   0.0000      -0.080146        -2.1809
  17   0.0000      -0.042597        -1.1591

MULLIKEN ATOMIC CHARGES
-----------------------
   0 C :   -0.218801
   1 H :    0.209686
   2 N :   -0.336287
   3 C :   -0.401730
   4 H :    0.198064
   5 H :    0.350212
   6 H :    0.331198
   7 H :    0.340110
   8 H :    0.193198
   9 H :    0.166753
  10 H :    0.167596
Sum of atomic charges:    1.0000000

LOEWDIN ATOMIC CHARGES
----------------------
   0 C :   -0.278347
   1 H :    0.154452
   2 N :    0.161574
   3 C :   -0.275944
   4 H :    0.152531
   5 H :    0.226163
   6 H :    0.223841
   7 H :    0.226900
   8 H :    0.147347
   9 H :    0.130086
  10 H :    0.131399

  Mayer bond orders larger than 0.100000
B(  0-C ,  1-H ) :   0.9579 B(  0-C ,  2-N ) :   0.8249 B(  0-C ,  3-C ) :   0.9710
B(  0-C ,  4-H ) :   0.9565 B(  2-N ,  5-H ) :   0.8639 B(  2-N ,  6-H ) :   0.8733
B(  2-N ,  7-H ) :   0.8761 B(  3-C ,  8-H ) :   0.9585 B(  3-C ,  9-H ) :   0.9569
B(  3-C , 10-H ) :   0.9560

Dispersion correction           -0.000055245
FINAL SINGLE POINT ENERGY      -135.503124678782

DIPOLE MOMENT
-------------
                                X             Y             Z
Electronic contribution:     -1.33209       0.57104       1.09746
Nuclear contribution   :      0.33986      -0.24565       0.10678
                        -----------------------------------------
Total Dipole Moment    :     -0.99224       0.32539       1.20424
                        -----------------------------------------
Magnitude (a.u.)       :      1.59393
Magnitude (Debye)      :      4.05144

Rotational constants in cm-1:     1.016237     0.277523     0.247812
Rotational constants in MHz : 30466.024354  8319.937961  7429.230177

                             ****ORCA TERMINATED NORMALLY****
TOTAL RUN TIME: 0 days 0 hours 0 minutes 18 seconds 21 msec
