                         Program Version 5.0.0 -  RELEASE  -
|  1> !M062X D3Zero RIJCOSX def2-TZVP def2/J TightSCF xyzfile
|  2>
|  3> *xyzfile 0 1 B.xyz
|  4>
|  5> %MaxCore 64000
|  6>
|  7> %pal nprocs 18
|  8> end
|  9>
| 10> %scf
| 11>   MaxIter 150
| 12> end
| 13>
| 14>
| 15>                          ****END OF INPUT****

CARTESIAN COORDINATES (ANGSTROEM)
---------------------------------
  C     -0.699123    3.489451    3.755163
  H     -0.966716    4.349013    3.140491
  N     -1.080669    3.792957    5.156857
  C      0.776956    3.138391    3.617408
  H     -1.331455    2.656510    3.446323
  H      1.371398    3.888342    4.149744
  H      1.046926    3.232057    2.561331
  C      1.118917    1.731170    4.115155
  H      2.200573    1.654226    4.254882
  C      0.659466    0.635182    3.153306
  H      0.677024    1.576674    5.103150
  H      1.312288    0.638870    2.274207
  H     -0.339563    0.868049    2.772876
  C      0.639957   -0.771175    3.755619
  C     -0.341821   -0.965537    4.915046
  H      1.648266   -1.028665    4.097015
  H      0.398568   -1.482386    2.958453
  H     -0.279892   -2.005646    5.252547
  C     -1.789164   -0.639231    4.557496
  H     -0.032380   -0.352918    5.765118
  H     -2.107151   -1.270102    3.719619
  H     -1.856352    0.391636    4.197604
  C     -2.790700   -0.785275    5.702812
  H     -2.867308   -1.835651    6.001675
  H     -3.774554   -0.486577    5.334807
  C     -2.453797    0.055101    6.941445
  C     -2.078419    1.480421    6.564098
  H     -1.625584   -0.382163    7.498914
  H     -3.325274    0.087746    7.599175
  H     -0.874488    4.762737    5.427344
  H     -0.680793    3.134762    5.839000
  H     -2.057550    3.531691    5.346197
  O     -0.901252    1.858156    6.828104
  O     -2.936582    2.177309    5.964151

 Total Charge           Charge          ....    0
 Multiplicity           Mult            ....    1
 Number of Electrons    NEL             ....  104
 Basis Dimension        Dim             ....  529

ORBITAL ENERGIES
----------------

  NO   OCC          E(Eh)            E(eV)
   0   2.0000     -19.560479      -532.2677
   1   2.0000     -19.558289      -532.2081
   2   2.0000     -14.827245      -403.4699
   3   2.0000     -10.613577      -288.8101
   4   2.0000     -10.606701      -288.6230
   5   2.0000     -10.558073      -287.2998
   6   2.0000     -10.533427      -286.6291
   7   2.0000     -10.529788      -286.5301
   8   2.0000     -10.523205      -286.3510
   9   2.0000     -10.514093      -286.1030
  10   2.0000     -10.513680      -286.0918
  11   2.0000     -10.512545      -286.0609
  12   2.0000     -10.506106      -285.8857
  13   2.0000      -1.151563       -31.3356
  14   2.0000      -1.092411       -29.7260
  15   2.0000      -1.047343       -28.4996
  16   2.0000      -0.922848       -25.1120
  17   2.0000      -0.893282       -24.3074
  18   2.0000      -0.863119       -23.4867
  19   2.0000      -0.813450       -22.1351
  20   2.0000      -0.779052       -21.1991
  21   2.0000      -0.737034       -20.0557
  22   2.0000      -0.695822       -18.9343
  23   2.0000      -0.675316       -18.3763
  24   2.0000      -0.656806       -17.8726
  25   2.0000      -0.629672       -17.1343
  26   2.0000      -0.622539       -16.9402
  27   2.0000      -0.573402       -15.6031
  28   2.0000      -0.564588       -15.3632
  29   2.0000      -0.544839       -14.8258
  30   2.0000      -0.543170       -14.7804
  31   2.0000      -0.520151       -14.1540
  32   2.0000      -0.516095       -14.0437
  33   2.0000      -0.500789       -13.6272
  34   2.0000      -0.491362       -13.3707
  35   2.0000      -0.476192       -12.9578
  36   2.0000      -0.472169       -12.8484
  37   2.0000      -0.468065       -12.7367
  38   2.0000      -0.451061       -12.2740
  39   2.0000      -0.446775       -12.1574
  40   2.0000      -0.425343       -11.5742
  41   2.0000      -0.420326       -11.4377
  42   2.0000      -0.413453       -11.2506
  43   2.0000      -0.396926       -10.8009
  44   2.0000      -0.386011       -10.5039
  45   2.0000      -0.381205       -10.3731
  46   2.0000      -0.365557        -9.9473
  47   2.0000      -0.359992        -9.7959
  48   2.0000      -0.354026        -9.6335
  49   2.0000      -0.315074        -8.5736
  50   2.0000      -0.309452        -8.4206
  51   2.0000      -0.302452        -8.2301
  52   0.0000       0.030418         0.8277
  53   0.0000       0.067255         1.8301
  54   0.0000       0.075645         2.0584
  55   0.0000       0.080141         2.1807
  56   0.0000       0.088748         2.4149

MULLIKEN ATOMIC CHARGES
-----------------------
   0 C :   -0.259771
   1 H :    0.167215
   2 N :   -0.365654
   3 C :   -0.266799
   4 H :    0.202093
   5 H :    0.153405
   6 H :    0.157460
   7 C :   -0.334773
   8 H :    0.149496
   9 C :   -0.312726
  10 H :    0.198747
  11 H :    0.147990
  12 H :    0.151212
  13 C :   -0.267533
  14 C :   -0.348241
  15 H :    0.145347
  16 H :    0.145667
  17 H :    0.143349
  18 C :   -0.264569
  19 H :    0.196135
  20 H :    0.145840
  21 H :    0.120568
  22 C :   -0.266731
  23 H :    0.137025
  24 H :    0.147067
  25 C :   -0.305718
  26 C :    0.380167
  27 H :    0.156335
  28 H :    0.143421
  29 H :    0.278092
  30 H :    0.325655
  31 H :    0.332757
  32 O :   -0.567568
  33 O :   -0.564959
Sum of atomic charges:    0.0000000

LOEWDIN ATOMIC CHARGES
----------------------
   0 C :   -0.275631
   1 H :    0.135107
   2 N :    0.128286
   3 C :   -0.274680
   4 H :    0.143496
   5 H :    0.139488
   6 H :    0.147042
   7 C :   -0.268567
   8 H :    0.140743
   9 C :   -0.275632
  10 H :    0.147502
  11 H :    0.136850
  12 H :    0.133393
  13 C :   -0.271459
  14 C :   -0.272119
  15 H :    0.138226
  16 H :    0.137941
  17 H :    0.137969
  18 C :   -0.273737
  19 H :    0.143419
  20 H :    0.136952
  21 H :    0.133891
  22 C :   -0.265523
  23 H :    0.135346
  24 H :    0.142221
  25 C :   -0.239523
  26 C :   -0.619864
  27 H :    0.140297
  28 H :    0.145402
  29 H :    0.188646
  30 H :    0.170156
  31 H :    0.185230
  32 O :   -0.078226
  33 O :   -0.072641

  Mayer bond orders larger than 0.100000
B(  0-C ,  1-H ) :   0.9847 B(  0-C ,  2-N ) :   0.8467 B(  0-C ,  3-C ) :   0.9089
B(  0-C ,  4-H ) :   0.9789 B(  2-N , 29-H ) :   0.8979 B(  2-N , 30-H ) :   0.7503
B(  2-N , 31-H ) :   0.7800 B(  3-C ,  5-H ) :   0.9796 B(  3-C ,  6-H ) :   0.9762
B(  3-C ,  7-C ) :   0.9097 B(  7-C ,  8-H ) :   0.9757 B(  7-C ,  9-C ) :   0.8529
B(  7-C , 10-H ) :   0.9876 B(  9-C , 11-H ) :   0.9752 B(  9-C , 12-H ) :   0.9977
B(  9-C , 13-C ) :   0.9201 B( 13-C , 14-C ) :   0.9226 B( 13-C , 15-H ) :   0.9893
B( 13-C , 16-H ) :   0.9892 B( 14-C , 17-H ) :   0.9781 B( 14-C , 18-C ) :   0.8587
B( 14-C , 19-H ) :   0.9819 B( 18-C , 20-H ) :   0.9794 B( 18-C , 21-H ) :   0.9778
B( 18-C , 22-C ) :   0.9478 B( 22-C , 23-H ) :   0.9846 B( 22-C , 24-H ) :   0.9777
B( 22-C , 25-C ) :   0.9088 B( 25-C , 26-C ) :   0.9274 B( 25-C , 27-H ) :   0.9908
B( 25-C , 28-H ) :   0.9638 B( 26-C , 32-O ) :   1.5907 B( 26-C , 33-O ) :   1.6465
B( 30-H , 32-O ) :   0.2012 B( 31-H , 33-O ) :   0.1539

Dispersion correction           -0.002087310
FINAL SINGLE POINT ENERGY      -598.893835500222

DIPOLE MOMENT
-------------
                                X             Y             Z
Electronic contribution:     -4.65267       4.85131       6.68217
Nuclear contribution   :      5.60885      -3.40606      -8.06960
                        -----------------------------------------
Total Dipole Moment    :      0.95617       1.44525      -1.38743
                        -----------------------------------------
Magnitude (a.u.)       :      2.21991
Magnitude (Debye)      :      5.64256

Rotational constants in cm-1:     0.028465     0.023505     0.015110
Rotational constants in MHz :   853.363165   704.655786   452.976312

                             ****ORCA TERMINATED NORMALLY****
TOTAL RUN TIME: 0 days 0 hours 1 minutes 17 seconds 902 msec
