                         Program Version 5.0.0 -  RELEASE  -
|  1> !M062X D3Zero RIJCOSX def2-TZVP def2/J TightSCF
|  2> *xyz 0 1
|  3> C         -2.79070       -0.78527        5.70281
|  4> C         -2.45380        0.05510        6.94145
|  5> C         -2.07842        1.48042        6.56410
|  6> H         -1.62558       -0.38216        7.49891
|  7> H         -3.32527        0.08775        7.59917
|  8> F         -0.90125        1.85816        6.82810
|  9> O         -2.93658        2.17731        5.96415
| 10> H         -1.94052       -0.82114        5.05412
| 11> H         -3.61590       -0.34261        5.18514
| 12> H         -3.05063       -1.77815        6.00536
| 13> *
| 14> %MaxCore 64000
| 15>
| 16> %pal nprocs 4
| 17> end
| 18>
| 19> %scf
| 20>   MaxIter 150
| 21> end
| 22>
| 23>
| 24>                          ****END OF INPUT****

CARTESIAN COORDINATES (ANGSTROEM)
---------------------------------
  C     -2.790700   -0.785270    5.702810
  C     -2.453800    0.055100    6.941450
  C     -2.078420    1.480420    6.564100
  H     -1.625580   -0.382160    7.498910
  H     -3.325270    0.087750    7.599170
  F     -0.901250    1.858160    6.828100
  O     -2.936580    2.177310    5.964150
  H     -1.940520   -0.821140    5.054120
  H     -3.615900   -0.342610    5.185140
  H     -3.050630   -1.778150    6.005360

 Total Charge           Charge          ....    0
 Multiplicity           Mult            ....    1
 Number of Electrons    NEL             ....   40
 Basis Dimension        Dim             ....  185

ORBITAL ENERGIES
----------------

  NO   OCC          E(Eh)            E(eV)
   0   2.0000     -25.311811      -688.7694
   1   2.0000     -19.633967      -534.2674
   2   2.0000     -10.719869      -291.7025
   3   2.0000     -10.568449      -287.5821
   4   2.0000     -10.541408      -286.8463
   5   2.0000      -1.458143       -39.6781
   6   2.0000      -1.154704       -31.4211
   7   2.0000      -0.902600       -24.5610
   8   2.0000      -0.786716       -21.4076
   9   2.0000      -0.729943       -19.8628
  10   2.0000      -0.640111       -17.4183
  11   2.0000      -0.627952       -17.0874
  12   2.0000      -0.594449       -16.1758
  13   2.0000      -0.538522       -14.6539
  14   2.0000      -0.511237       -13.9115
  15   2.0000      -0.468239       -12.7414
  16   2.0000      -0.449963       -12.2441
  17   2.0000      -0.440681       -11.9915
  18   2.0000      -0.413931       -11.2636
  19   2.0000      -0.371592       -10.1115
  20   0.0000       0.013372         0.3639
  21   0.0000       0.066022         1.7966
  22   0.0000       0.104202         2.8355
  23   0.0000       0.119296         3.2462
  24   0.0000       0.130571         3.5530

MULLIKEN ATOMIC CHARGES
-----------------------
   0 C :   -0.410071
   1 C :   -0.278075
   2 C :    0.417198
   3 H :    0.139535
   4 H :    0.157373
   5 F :   -0.119267
   6 O :   -0.352565
   7 H :    0.141445
   8 H :    0.162448
   9 H :    0.141980
Sum of atomic charges:    0.0000000

LOEWDIN ATOMIC CHARGES
----------------------
   0 C :   -0.284966
   1 C :   -0.258864
   2 C :   -0.479467
   3 H :    0.140811
   4 H :    0.156138
   5 F :    0.302398
   6 O :    0.055735
   7 H :    0.121124
   8 H :    0.126850
   9 H :    0.120241

  Mayer bond orders larger than 0.100000
B(  0-C ,  1-C ) :   0.9422 B(  0-C ,  7-H ) :   0.9710 B(  0-C ,  8-H ) :   0.9658
B(  0-C ,  9-H ) :   0.9728 B(  1-C ,  2-C ) :   0.9806 B(  1-C ,  3-H ) :   0.9658
B(  1-C ,  4-H ) :   0.9504 B(  2-C ,  5-F ) :   1.1355 B(  2-C ,  6-O ) :   2.0385

Dispersion correction           -0.000089563
FINAL SINGLE POINT ENERGY      -292.394087626182

DIPOLE MOMENT
-------------
                                X             Y             Z
Electronic contribution:      3.96246       7.40274       1.49385
Nuclear contribution   :     -3.69486      -8.49563      -1.04945
                        -----------------------------------------
Total Dipole Moment    :      0.26760      -1.09290       0.44439
                        -----------------------------------------
Magnitude (a.u.)       :      1.20976
Magnitude (Debye)      :      3.07496

Rotational constants in cm-1:     0.293725     0.129218     0.102393
Rotational constants in MHz :  8805.653529  3873.869810  3069.666716

                             ****ORCA TERMINATED NORMALLY****
TOTAL RUN TIME: 0 days 0 hours 0 minutes 27 seconds 84 msec
