                         Program Version 5.0.0 -  RELEASE  -
|  1> !M062X D3Zero RIJCOSX def2-TZVP def2/J TightSCF
|  2> *xyz 0 1
|  3> C         -0.69912        3.48945        3.75516
|  4> H         -0.96672        4.34901        3.14049
|  5> C         -1.08067        3.79296        5.15686
|  6> C          0.77696        3.13839        3.61741
|  7> H         -1.33146        2.65651        3.44632
|  8> H         -0.87449        4.76274        5.42734
|  9> H         -0.68079        3.13476        5.83900
| 10> H         -2.05755        3.53169        5.34620
| 11> H          0.99957        2.92898        2.59199
| 12> H          0.99576        2.27685        4.21303
| 13> H          1.37223        3.96279        3.95046
| 14> *
| 15> %MaxCore 64000
| 16>
| 17> %pal nprocs 4
| 18> end
| 19>
| 20> %scf
| 21>   MaxIter 150
| 22> end
| 23>
| 24>
| 25>                          ****END OF INPUT****

CARTESIAN COORDINATES (ANGSTROEM)
---------------------------------
  C     -0.699120    3.489450    3.755160
  H     -0.966720    4.349010    3.140490
  C     -1.080670    3.792960    5.156860
  C      0.776960    3.138390    3.617410
  H     -1.331460    2.656510    3.446320
  H     -0.874490    4.762740    5.427340
  H     -0.680790    3.134760    5.839000
  H     -2.057550    3.531690    5.346200
  H      0.999570    2.928980    2.591990
  H      0.995760    2.276850    4.213030
  H      1.372230    3.962790    3.950460

 Total Charge           Charge          ....    0
 Multiplicity           Mult            ....    1
 Number of Electrons    NEL             ....   26
 Basis Dimension        Dim             ....  141

ORBITAL ENERGIES
----------------

  NO   OCC          E(Eh)            E(eV)
   0   2.0000     -10.519836      -286.2593
   1   2.0000     -10.510356      -286.0013
   2   2.0000     -10.492203      -285.5074
   3   2.0000      -0.890100       -24.2209
   4   2.0000      -0.783947       -21.3323
   5   2.0000      -0.671759       -18.2795
   6   2.0000      -0.542759       -14.7692
   7   2.0000      -0.507160       -13.8005
   8   2.0000      -0.465267       -12.6605
   9   2.0000      -0.460539       -12.5319
  10   2.0000      -0.399753       -10.8778
  11   2.0000      -0.389086       -10.5876
  12   2.0000      -0.383954       -10.4479
  13   0.0000       0.072427         1.9708
  14   0.0000       0.115445         3.1414
  15   0.0000       0.121493         3.3060
  16   0.0000       0.126244         3.4353
  17   0.0000       0.148739         4.0474

MULLIKEN ATOMIC CHARGES
-----------------------
   0 C :   -0.211673
   1 H :    0.116921
   2 C :   -0.408405
   3 C :   -0.394753
   4 H :    0.115736
   5 H :    0.129878
   6 H :    0.130118
   7 H :    0.134649
   8 H :    0.129883
   9 H :    0.129705
  10 H :    0.127942
Sum of atomic charges:    0.0000000

LOEWDIN ATOMIC CHARGES
----------------------
   0 C :   -0.324882
   1 H :    0.132902
   2 C :   -0.312312
   3 C :   -0.307586
   4 H :    0.133831
   5 H :    0.107678
   6 H :    0.111883
   7 H :    0.112292
   8 H :    0.114496
   9 H :    0.115419
  10 H :    0.116280

  Mayer bond orders larger than 0.100000
B(  0-C ,  1-H ) :   0.9794 B(  0-C ,  2-C ) :   0.9323 B(  0-C ,  3-C ) :   0.9507
B(  0-C ,  4-H ) :   0.9856 B(  2-C ,  5-H ) :   0.9766 B(  2-C ,  6-H ) :   0.9807
B(  2-C ,  7-H ) :   0.9847 B(  3-C ,  8-H ) :   0.9813 B(  3-C ,  9-H ) :   0.9766
B(  3-C , 10-H ) :   0.9741

Dispersion correction           -0.000053822
FINAL SINGLE POINT ENERGY      -119.094182067057

DIPOLE MOMENT
-------------
                                X             Y             Z
Electronic contribution:     -0.14493       0.12025      -0.40044
Nuclear contribution   :      0.10024      -0.14218       0.41628
                        -----------------------------------------
Total Dipole Moment    :     -0.04469      -0.02194       0.01584
                        -----------------------------------------
Magnitude (a.u.)       :      0.05224
Magnitude (Debye)      :      0.13278

Rotational constants in cm-1:     1.024179     0.291605     0.259489
Rotational constants in MHz : 30704.103454  8742.106283  7779.285909

                             ****ORCA TERMINATED NORMALLY****
TOTAL RUN TIME: 0 days 0 hours 0 minutes 16 seconds 130 msec
