                         Program Version 5.0.0 -  RELEASE  -
|  1> !M062X D3Zero RIJCOSX def2-TZVP def2/J TightSCF
|  2> *xyz 0 1
|  3> C         -2.79070       -0.78527        5.70281
|  4> C         -2.45380        0.05510        6.94145
|  5> C         -2.07842        1.48042        6.56410
|  6> H         -1.62558       -0.38216        7.49891
|  7> H         -3.32527        0.08775        7.59917
|  8> O         -0.90125        1.85816        6.82810
|  9> F         -2.93658        2.17731        5.96415
| 10> H         -1.94052       -0.82114        5.05412
| 11> H         -3.61590       -0.34261        5.18514
| 12> H         -3.05063       -1.77815        6.00536
| 13> *
| 14> %MaxCore 64000
| 15>
| 16> %pal nprocs 4
| 17> end
| 18>
| 19> %scf
| 20>   MaxIter 150
| 21> end
| 22>
| 23>
| 24>                          ****END OF INPUT****

CARTESIAN COORDINATES (ANGSTROEM)
---------------------------------
  C     -2.790700   -0.785270    5.702810
  C     -2.453800    0.055100    6.941450
  C     -2.078420    1.480420    6.564100
  H     -1.625580   -0.382160    7.498910
  H     -3.325270    0.087750    7.599170
  O     -0.901250    1.858160    6.828100
  F     -2.936580    2.177310    5.964150
  H     -1.940520   -0.821140    5.054120
  H     -3.615900   -0.342610    5.185140
  H     -3.050630   -1.778150    6.005360

 Total Charge           Charge          ....    0
 Multiplicity           Mult            ....    1
 Number of Electrons    NEL             ....   40
 Basis Dimension        Dim             ....  185

ORBITAL ENERGIES
----------------

  NO   OCC          E(Eh)            E(eV)
   0   2.0000     -25.315107      -688.8591
   1   2.0000     -19.632182      -534.2188
   2   2.0000     -10.719522      -291.6930
   3   2.0000     -10.568099      -287.5726
   4   2.0000     -10.545334      -286.9531
   5   2.0000      -1.463528       -39.8246
   6   2.0000      -1.149717       -31.2854
   7   2.0000      -0.905768       -24.6472
   8   2.0000      -0.784656       -21.3516
   9   2.0000      -0.736721       -20.0472
  10   2.0000      -0.644756       -17.5447
  11   2.0000      -0.635253       -17.2861
  12   2.0000      -0.587088       -15.9755
  13   2.0000      -0.539301       -14.6751
  14   2.0000      -0.511214       -13.9108
  15   2.0000      -0.471264       -12.8237
  16   2.0000      -0.454215       -12.3598
  17   2.0000      -0.442950       -12.0533
  18   2.0000      -0.415502       -11.3064
  19   2.0000      -0.365302        -9.9404
  20   0.0000       0.017194         0.4679
  21   0.0000       0.062357         1.6968
  22   0.0000       0.103038         2.8038
  23   0.0000       0.121121         3.2959
  24   0.0000       0.135239         3.6800

MULLIKEN ATOMIC CHARGES
-----------------------
   0 C :   -0.411768
   1 C :   -0.277136
   2 C :    0.411208
   3 H :    0.160010
   4 H :    0.146467
   5 O :   -0.354090
   6 F :   -0.117473
   7 H :    0.150804
   8 H :    0.146213
   9 H :    0.145765
Sum of atomic charges:    0.0000000

LOEWDIN ATOMIC CHARGES
----------------------
   0 C :   -0.291093
   1 C :   -0.255381
   2 C :   -0.482843
   3 H :    0.153347
   4 H :    0.148502
   5 O :    0.046084
   6 F :    0.314712
   7 H :    0.123525
   8 H :    0.121130
   9 H :    0.122017

  Mayer bond orders larger than 0.100000
B(  0-C ,  1-C ) :   0.9319 B(  0-C ,  7-H ) :   0.9683 B(  0-C ,  8-H ) :   0.9681
B(  0-C ,  9-H ) :   0.9724 B(  1-C ,  2-C ) :   1.0005 B(  1-C ,  3-H ) :   0.9691
B(  1-C ,  4-H ) :   0.9479 B(  2-C ,  5-O ) :   2.0429 B(  2-C ,  6-F ) :   1.1342

Dispersion correction           -0.000092382
FINAL SINGLE POINT ENERGY      -292.391686669129

DIPOLE MOMENT
-------------
                                X             Y             Z
Electronic contribution:      0.57553       7.91336       0.06103
Nuclear contribution   :     -1.47571      -8.84360      -0.10748
                        -----------------------------------------
Total Dipole Moment    :     -0.90018      -0.93024      -0.04645
                        -----------------------------------------
Magnitude (a.u.)       :      1.29531
Magnitude (Debye)      :      3.29243

Rotational constants in cm-1:     0.283081     0.133379     0.103386
Rotational constants in MHz :  8486.545774  3998.599544  3099.448040

                             ****ORCA TERMINATED NORMALLY****
TOTAL RUN TIME: 0 days 0 hours 0 minutes 26 seconds 88 msec
