                         Program Version 5.0.0 -  RELEASE  -
|  1> !M062X D3Zero RIJCOSX def2-TZVP def2/J TightSCF xyzfile
|  2>
|  3> *xyzfile 0 1 D1.xyz
|  4>
|  5> %MaxCore 64000
|  6>
|  7> %pal nprocs 18
|  8> end
|  9>
| 10> %scf
| 11>   MaxIter 150
| 12> end
| 13>
| 14>
| 15>                          ****END OF INPUT****

CARTESIAN COORDINATES (ANGSTROEM)
---------------------------------
  C     -0.699123    3.489451    3.755163
  H     -0.966716    4.349013    3.140491
  C     -1.080669    3.792957    5.156857
  C      0.776956    3.138391    3.617408
  H     -1.331455    2.656510    3.446323
  H      1.371398    3.888342    4.149744
  H      1.046926    3.232057    2.561331
  C      1.118917    1.731170    4.115155
  H      2.200573    1.654226    4.254882
  C      0.659466    0.635182    3.153306
  H      0.677024    1.576674    5.103150
  H      1.312288    0.638870    2.274207
  H     -0.339563    0.868049    2.772876
  C      0.639957   -0.771175    3.755619
  C     -0.341821   -0.965537    4.915046
  H      1.648266   -1.028665    4.097015
  H      0.398568   -1.482386    2.958453
  H     -0.279892   -2.005646    5.252547
  C     -1.789164   -0.639231    4.557496
  H     -0.032380   -0.352918    5.765118
  H     -2.107151   -1.270102    3.719619
  H     -1.856352    0.391636    4.197604
  C     -2.790700   -0.785275    5.702812
  H     -2.867308   -1.835651    6.001675
  H     -3.774554   -0.486577    5.334807
  C     -2.453797    0.055101    6.941445
  C     -2.078419    1.480421    6.564098
  H     -1.625584   -0.382163    7.498914
  H     -3.325274    0.087746    7.599175
  H     -0.874488    4.762737    5.427344
  H     -0.680793    3.134762    5.839000
  H     -2.057550    3.531691    5.346197
  F     -0.901252    1.858156    6.828104
  O     -2.936582    2.177309    5.964151

 Total Charge           Charge          ....    0
 Multiplicity           Mult            ....    1
 Number of Electrons    NEL             ....  104
 Basis Dimension        Dim             ....  529

ORBITAL ENERGIES
----------------

  NO   OCC          E(Eh)            E(eV)
   0   2.0000     -25.322943      -689.0723
   1   2.0000     -19.641283      -534.4665
   2   2.0000     -10.731274      -292.0128
   3   2.0000     -10.570400      -287.6352
   4   2.0000     -10.552697      -287.1535
   5   2.0000     -10.537703      -286.7455
   6   2.0000     -10.534558      -286.6599
   7   2.0000     -10.529121      -286.5119
   8   2.0000     -10.521885      -286.3151
   9   2.0000     -10.519246      -286.2432
  10   2.0000     -10.511841      -286.0417
  11   2.0000     -10.501891      -285.7710
  12   2.0000     -10.447948      -284.3031
  13   2.0000      -1.476006       -40.1642
  14   2.0000      -1.169917       -31.8350
  15   2.0000      -0.933124       -25.3916
  16   2.0000      -0.908233       -24.7143
  17   2.0000      -0.876411       -23.8483
  18   2.0000      -0.847010       -23.0483
  19   2.0000      -0.803470       -21.8635
  20   2.0000      -0.779415       -21.2090
  21   2.0000      -0.750954       -20.4345
  22   2.0000      -0.713249       -19.4085
  23   2.0000      -0.695421       -18.9234
  24   2.0000      -0.656470       -17.8635
  25   2.0000      -0.650273       -17.6948
  26   2.0000      -0.644582       -17.5400
  27   2.0000      -0.623482       -16.9658
  28   2.0000      -0.601605       -16.3705
  29   2.0000      -0.553187       -15.0530
  30   2.0000      -0.548095       -14.9144
  31   2.0000      -0.531307       -14.4576
  32   2.0000      -0.527577       -14.3561
  33   2.0000      -0.504449       -13.7268
  34   2.0000      -0.501733       -13.6528
  35   2.0000      -0.484127       -13.1738
  36   2.0000      -0.473814       -12.8931
  37   2.0000      -0.465389       -12.6639
  38   2.0000      -0.455365       -12.3911
  39   2.0000      -0.447115       -12.1666
  40   2.0000      -0.432061       -11.7570
  41   2.0000      -0.426015       -11.5925
  42   2.0000      -0.413415       -11.2496
  43   2.0000      -0.406238       -11.0543
  44   2.0000      -0.401552       -10.9268
  45   2.0000      -0.388603       -10.5744
  46   2.0000      -0.383349       -10.4315
  47   2.0000      -0.372373       -10.1328
  48   2.0000      -0.369031       -10.0418
  49   2.0000      -0.356247        -9.6940
  50   2.0000      -0.355390        -9.6707
  51   2.0000      -0.332760        -9.0548
  52   0.0000       0.000767         0.0209
  53   0.0000       0.059014         1.6059
  54   0.0000       0.076709         2.0874
  55   0.0000       0.079590         2.1657
  56   0.0000       0.087710         2.3867

MULLIKEN ATOMIC CHARGES
-----------------------
   0 C :   -0.262753
   1 H :    0.125995
   2 C :   -0.525039
   3 C :   -0.239097
   4 H :    0.139514
   5 H :    0.141619
   6 H :    0.133502
   7 C :   -0.300377
   8 H :    0.143568
   9 C :   -0.325373
  10 H :    0.131158
  11 H :    0.147582
  12 H :    0.166602
  13 C :   -0.263718
  14 C :   -0.341012
  15 H :    0.147792
  16 H :    0.148358
  17 H :    0.151414
  18 C :   -0.302444
  19 H :    0.162232
  20 H :    0.158957
  21 H :    0.156444
  22 C :   -0.265552
  23 H :    0.153922
  24 H :    0.166228
  25 C :   -0.336324
  26 C :    0.415150
  27 H :    0.179668
  28 H :    0.177459
  29 H :    0.132461
  30 H :    0.146378
  31 H :    0.204219
  32 F :   -0.119110
  33 O :   -0.349422
Sum of atomic charges:   -0.0000000

LOEWDIN ATOMIC CHARGES
----------------------
   0 C :   -0.305792
   1 H :    0.134614
   2 C :   -0.332996
   3 C :   -0.271042
   4 H :    0.131560
   5 H :    0.137326
   6 H :    0.135304
   7 C :   -0.269652
   8 H :    0.136830
   9 C :   -0.274215
  10 H :    0.132245
  11 H :    0.138416
  12 H :    0.136082
  13 C :   -0.271337
  14 C :   -0.274539
  15 H :    0.138834
  16 H :    0.138731
  17 H :    0.139240
  18 C :   -0.271884
  19 H :    0.132867
  20 H :    0.143536
  21 H :    0.141133
  22 C :   -0.256150
  23 H :    0.142505
  24 H :    0.147863
  25 C :   -0.232502
  26 C :   -0.469136
  27 H :    0.145358
  28 H :    0.159841
  29 H :    0.101482
  30 H :    0.102026
  31 H :    0.113558
  32 F :    0.316934
  33 O :    0.082959

  Mayer bond orders larger than 0.100000
B(  0-C ,  1-H ) :   0.9888 B(  0-C ,  2-C ) :   0.8592 B(  0-C ,  3-C ) :   0.8948
B(  0-C ,  4-H ) :   1.0176 B(  2-C , 29-H ) :   0.9713 B(  2-C , 30-H ) :   0.9957
B(  2-C , 31-H ) :   0.9649 B(  3-C ,  5-H ) :   0.9821 B(  3-C ,  6-H ) :   0.9851
B(  3-C ,  7-C ) :   0.9240 B(  7-C ,  8-H ) :   0.9784 B(  7-C ,  9-C ) :   0.8773
B(  7-C , 10-H ) :   1.0008 B(  9-C , 11-H ) :   0.9774 B(  9-C , 12-H ) :   0.9958
B(  9-C , 13-C ) :   0.9089 B( 13-C , 14-C ) :   0.9262 B( 13-C , 15-H ) :   0.9898
B( 13-C , 16-H ) :   0.9890 B( 14-C , 17-H ) :   0.9780 B( 14-C , 18-C ) :   0.8598
B( 14-C , 19-H ) :   0.9883 B( 18-C , 20-H ) :   0.9759 B( 18-C , 21-H ) :   0.9748
B( 18-C , 22-C ) :   0.9358 B( 22-C , 23-H ) :   0.9820 B( 22-C , 24-H ) :   0.9773
B( 22-C , 25-C ) :   0.8996 B( 25-C , 26-C ) :   0.9494 B( 25-C , 27-H ) :   0.9774
B( 25-C , 28-H ) :   0.9590 B( 26-C , 32-F ) :   1.0916 B( 26-C , 33-O ) :   1.9730

Dispersion correction           -0.002041392
FINAL SINGLE POINT ENERGY      -606.794456746001

DIPOLE MOMENT
-------------
                                X             Y             Z
Electronic contribution:     -5.47117       2.46951      10.83358
Nuclear contribution   :      5.54676      -3.70047     -10.28793
                        -----------------------------------------
Total Dipole Moment    :      0.07559      -1.23095       0.54565
                        -----------------------------------------
Magnitude (a.u.)       :      1.34859
Magnitude (Debye)      :      3.42784

Rotational constants in cm-1:     0.028503     0.023389     0.015214
Rotational constants in MHz :   854.502405   701.197575   456.108322

                             ****ORCA TERMINATED NORMALLY****
TOTAL RUN TIME: 0 days 0 hours 0 minutes 51 seconds 904 msec
