                         Program Version 5.0.0 -  RELEASE  -
|  1> !PBE D3BJ RIJCOSX def2-SVP def2/J TightSCF
|  2> *xyz -1 1
|  3> C         -0.05517        1.61942       -3.78858
|  4> C          1.22302        2.46987       -3.75691
|  5> H          1.11470        3.25807       -4.53300
|  6> H          1.23773        3.01124       -2.79216
|  7> O          2.35381        1.71203       -3.93448
|  8> H         -0.10198        1.08015       -4.71156
|  9> H         -0.91014        2.25726       -3.70441
| 10> H         -0.04403        0.92826       -2.97183
| 11> *
| 12>
| 13> %MaxCore 64000
| 14>
| 15> %pal nprocs 4
| 16> end
| 17>
| 18> %scf
| 19>   MaxIter 150
| 20> end
| 21>
| 22>
| 23>                          ****END OF INPUT****

CARTESIAN COORDINATES (ANGSTROEM)
---------------------------------
  C     -0.055170    1.619420   -3.788580
  C      1.223020    2.469870   -3.756910
  H      1.114700    3.258070   -4.533000
  H      1.237730    3.011240   -2.792160
  O      2.353810    1.712030   -3.934480
  H     -0.101980    1.080150   -4.711560
  H     -0.910140    2.257260   -3.704410
  H     -0.044030    0.928260   -2.971830

 Total Charge           Charge          ....   -1
 Multiplicity           Mult            ....    1
 Number of Electrons    NEL             ....   26
 Basis Dimension        Dim             ....   67

ORBITAL ENERGIES
----------------

  NO   OCC          E(Eh)            E(eV)
   0   2.0000     -18.380446      -500.1574
   1   2.0000      -9.681027      -263.4341
   2   2.0000      -9.669161      -263.1113
   3   2.0000      -0.547599       -14.9009
   4   2.0000      -0.427083       -11.6215
   5   2.0000      -0.284081        -7.7302
   6   2.0000      -0.181969        -4.9516
   7   2.0000      -0.159855        -4.3499
   8   2.0000      -0.108074        -2.9408
   9   2.0000      -0.090275        -2.4565
  10   2.0000      -0.025366        -0.6902
  11   2.0000       0.117028         3.1845
  12   2.0000       0.121856         3.3159
  13   0.0000       0.234154         6.3717
  14   0.0000       0.275415         7.4944
  15   0.0000       0.286245         7.7891
  16   0.0000       0.296091         8.0570
  17   0.0000       0.336278         9.1506

MULLIKEN ATOMIC CHARGES
-----------------------
   0 C :    0.079182
   1 C :    0.202919
   2 H :   -0.173474
   3 H :   -0.170847
   4 O :   -0.646685
   5 H :   -0.075157
   6 H :   -0.142721
   7 H :   -0.073217
Sum of atomic charges:   -1.0000000

LOEWDIN ATOMIC CHARGES
----------------------
   0 C :   -0.118555
   1 C :   -0.006820
   2 H :   -0.086553
   3 H :   -0.083646
   4 O :   -0.619172
   5 H :   -0.019805
   6 H :   -0.046573
   7 H :   -0.018876

  Mayer bond orders larger than 0.100000
B(  0-C ,  1-C ) :   1.0036 B(  0-C ,  4-O ) :  -0.1121 B(  0-C ,  5-H ) :   0.9431
B(  0-C ,  6-H ) :   0.8830 B(  0-C ,  7-H ) :   0.9468 B(  1-C ,  2-H ) :   0.8442
B(  1-C ,  3-H ) :   0.8471 B(  1-C ,  4-O ) :   1.5370 B(  4-O ,  6-H ) :   0.1155

Dispersion correction           -0.003764383
FINAL SINGLE POINT ENERGY      -154.085146868507

DIPOLE MOMENT
-------------
                                X             Y             Z
Electronic contribution:      3.30486      -0.79289      -0.30881
Nuclear contribution   :     -4.28298       0.81046       0.39340
                        -----------------------------------------
Total Dipole Moment    :     -0.97812       0.01758       0.08459
                        -----------------------------------------
Magnitude (a.u.)       :      0.98193
Magnitude (Debye)      :      2.49586

Rotational constants in cm-1:     1.266793     0.328147     0.288309
Rotational constants in MHz : 37977.512300  9837.594308  8643.275638

                             ****ORCA TERMINATED NORMALLY****
TOTAL RUN TIME: 0 days 0 hours 0 minutes 5 seconds 849 msec
