                         Program Version 5.0.0 -  RELEASE  -
|  1> !PBE D3BJ RIJCOSX def2-SVP def2/J TightSCF
|  2> *xyz 1 1
|  3> C          1.63556       -1.67040       -5.29211
|  4> C          0.33848       -1.50091       -4.50540
|  5> N          2.48451       -0.50741       -5.14039
|  6> H          1.39834       -1.82924       -6.35259
|  7> H          2.15586       -2.56540       -4.93209
|  8> C          3.45115       -0.14953       -5.95259
|  9> N          3.92267        1.08956       -5.85071
| 10> N          3.96616       -1.00618       -6.86788
| 11> H          3.52139       -1.90647       -6.99527
| 12> H          4.44482       -0.62347       -7.67035
| 13> H          2.25200        0.24080       -4.49879
| 14> H          3.46428        1.64078       -5.13639
| 15> H          4.83447        1.31375       -6.22465
| 16> H         -0.17658       -0.62881       -4.85045
| 17> H          0.56384       -1.39374       -3.46490
| 18> H         -0.28102       -2.36136       -4.64938
| 19> *
| 20>
| 21> %MaxCore 64000
| 22>
| 23> %pal nprocs 4
| 24> end
| 25>
| 26> %scf
| 27>   MaxIter 150
| 28> end
| 29>
| 30>
| 31>                          ****END OF INPUT****

CARTESIAN COORDINATES (ANGSTROEM)
---------------------------------
  C      1.635560   -1.670400   -5.292110
  C      0.338480   -1.500910   -4.505400
  N      2.484510   -0.507410   -5.140390
  H      1.398340   -1.829240   -6.352590
  H      2.155860   -2.565400   -4.932090
  C      3.451150   -0.149530   -5.952590
  N      3.922670    1.089560   -5.850710
  N      3.966160   -1.006180   -6.867880
  H      3.521390   -1.906470   -6.995270
  H      4.444820   -0.623470   -7.670350
  H      2.252000    0.240800   -4.498790
  H      3.464280    1.640780   -5.136390
  H      4.834470    1.313750   -6.224650
  H     -0.176580   -0.628810   -4.850450
  H      0.563840   -1.393740   -3.464900
  H     -0.281020   -2.361360   -4.649380

 Total Charge           Charge          ....    1
 Multiplicity           Mult            ....    1
 Number of Electrons    NEL             ....   48
 Basis Dimension        Dim             ....  134

ORBITAL ENERGIES
----------------

  NO   OCC          E(Eh)            E(eV)
   0   2.0000     -14.222731      -387.0202
   1   2.0000     -14.218282      -386.8991
   2   2.0000     -14.215770      -386.8308
   3   2.0000     -10.211855      -277.8787
   4   2.0000     -10.102900      -274.9139
   5   2.0000     -10.034882      -273.0630
   6   2.0000      -1.124251       -30.5924
   7   2.0000      -1.018187       -27.7063
   8   2.0000      -1.004645       -27.3378
   9   2.0000      -0.860051       -23.4032
  10   2.0000      -0.765829       -20.8393
  11   2.0000      -0.750000       -20.4085
  12   2.0000      -0.719806       -19.5869
  13   2.0000      -0.687941       -18.7198
  14   2.0000      -0.639680       -17.4066
  15   2.0000      -0.633253       -17.2317
  16   2.0000      -0.609127       -16.5752
  17   2.0000      -0.593167       -16.1409
  18   2.0000      -0.552066       -15.0225
  19   2.0000      -0.501622       -13.6498
  20   2.0000      -0.486108       -13.2277
  21   2.0000      -0.474637       -12.9155
  22   2.0000      -0.430993       -11.7279
  23   2.0000      -0.411483       -11.1970
  24   0.0000      -0.192571        -5.2401
  25   0.0000      -0.164511        -4.4766
  26   0.0000      -0.128941        -3.5087
  27   0.0000      -0.111400        -3.0313
  28   0.0000      -0.092511        -2.5174

MULLIKEN ATOMIC CHARGES
-----------------------
   0 C :    0.010136
   1 C :   -0.042752
   2 N :   -0.069520
   3 H :    0.065470
   4 H :    0.079597
   5 C :   -0.028808
   6 N :    0.010634
   7 N :   -0.024087
   8 H :    0.160768
   9 H :    0.167335
  10 H :    0.149525
  11 H :    0.158418
  12 H :    0.173897
  13 H :    0.054449
  14 H :    0.059778
  15 H :    0.075159
Sum of atomic charges:    1.0000000

LOEWDIN ATOMIC CHARGES
----------------------
   0 C :    0.025042
   1 C :   -0.044794
   2 N :    0.053779
   3 H :    0.037151
   4 H :    0.042971
   5 C :    0.106712
   6 N :    0.062827
   7 N :    0.052451
   8 H :    0.104915
   9 H :    0.108928
  10 H :    0.100323
  11 H :    0.105571
  12 H :    0.112704
  13 H :    0.036580
  14 H :    0.039431
  15 H :    0.055409

  Mayer bond orders larger than 0.100000
B(  0-C ,  1-C ) :   1.1217 B(  0-C ,  2-N ) :   0.9400 B(  0-C ,  3-H ) :   0.9373
B(  0-C ,  4-H ) :   0.9369 B(  1-C , 13-H ) :   0.9685 B(  1-C , 14-H ) :   0.9647
B(  1-C , 15-H ) :   0.9531 B(  2-N ,  5-C ) :   1.3941 B(  2-N , 10-H ) :   0.9015
B(  5-C ,  6-N ) :   1.3916 B(  5-C ,  7-N ) :   1.3826 B(  6-N , 11-H ) :   0.9198
B(  6-N , 12-H ) :   0.9231 B(  7-N ,  8-H ) :   0.9239 B(  7-N ,  9-H ) :   0.9267

Dispersion correction           -0.012048894
FINAL SINGLE POINT ENERGY      -283.838680675697

DIPOLE MOMENT
-------------
                                X             Y             Z
Electronic contribution:      4.76044       2.52304      -1.72730
Nuclear contribution   :     -3.96322      -1.85512       1.24891
                        -----------------------------------------
Total Dipole Moment    :      0.79723       0.66792      -0.47839
                        -----------------------------------------
Magnitude (a.u.)       :      1.14479
Magnitude (Debye)      :      2.90983

Rotational constants in cm-1:     0.261404     0.067000     0.054949
Rotational constants in MHz :  7836.702504  2008.609425  1647.329138

                             ****ORCA TERMINATED NORMALLY****
TOTAL RUN TIME: 0 days 0 hours 0 minutes 8 seconds 705 msec
