                         Program Version 5.0.0 -  RELEASE  -
|  1> !PBE D3BJ RIJCOSX def2-SVP def2/J TightSCF
|  2> *xyz 0 1
|  3> C         -0.05517        1.61942       -3.78858
|  4> C          1.22302        2.46987       -3.75691
|  5> H          1.11470        3.25807       -4.53300
|  6> H          1.23773        3.01124       -2.79216
|  7> F          2.35381        1.71203       -3.93448
|  8> H         -0.10198        1.08015       -4.71156
|  9> H         -0.91014        2.25726       -3.70441
| 10> H         -0.04403        0.92826       -2.97183
| 11> *
| 12>
| 13> %MaxCore 64000
| 14>
| 15> %pal nprocs 4
| 16> end
| 17>
| 18> %scf
| 19>   MaxIter 150
| 20> end
| 21>
| 22>
| 23>                          ****END OF INPUT****

CARTESIAN COORDINATES (ANGSTROEM)
---------------------------------
  C     -0.055170    1.619420   -3.788580
  C      1.223020    2.469870   -3.756910
  H      1.114700    3.258070   -4.533000
  H      1.237730    3.011240   -2.792160
  F      2.353810    1.712030   -3.934480
  H     -0.101980    1.080150   -4.711560
  H     -0.910140    2.257260   -3.704410
  H     -0.044030    0.928260   -2.971830

 Total Charge           Charge          ....    0
 Multiplicity           Mult            ....    1
 Number of Electrons    NEL             ....   26
 Basis Dimension        Dim             ....   67

ORBITAL ENERGIES
----------------

  NO   OCC          E(Eh)            E(eV)
   0   2.0000     -24.237857      -659.5456
   1   2.0000      -9.964305      -271.1425
   2   2.0000      -9.887988      -269.0658
   3   2.0000      -1.065255       -28.9871
   4   2.0000      -0.682164       -18.5626
   5   2.0000      -0.555887       -15.1265
   6   2.0000      -0.443226       -12.0608
   7   2.0000      -0.431942       -11.7537
   8   2.0000      -0.392350       -10.6764
   9   2.0000      -0.349460        -9.5093
  10   2.0000      -0.344454        -9.3731
  11   2.0000      -0.275521        -7.4973
  12   2.0000      -0.271567        -7.3897
  13   0.0000       0.044293         1.2053
  14   0.0000       0.086710         2.3595
  15   0.0000       0.092149         2.5075
  16   0.0000       0.100349         2.7306
  17   0.0000       0.119168         3.2427

MULLIKEN ATOMIC CHARGES
-----------------------
   0 C :   -0.061187
   1 C :    0.181169
   2 H :    0.013525
   3 H :    0.012784
   4 F :   -0.232336
   5 H :    0.033062
   6 H :    0.020532
   7 H :    0.032450
Sum of atomic charges:    0.0000000

LOEWDIN ATOMIC CHARGES
----------------------
   0 C :   -0.081555
   1 C :    0.092447
   2 H :    0.010401
   3 H :    0.009989
   4 F :   -0.117058
   5 H :    0.027408
   6 H :    0.031750
   7 H :    0.026618

  Mayer bond orders larger than 0.100000
B(  0-C ,  1-C ) :   1.1082 B(  0-C ,  5-H ) :   0.9665 B(  0-C ,  6-H ) :   0.9535
B(  0-C ,  7-H ) :   0.9679 B(  1-C ,  2-H ) :   0.9486 B(  1-C ,  3-H ) :   0.9487
B(  1-C ,  4-F ) :   1.0360

Dispersion correction           -0.003482557
FINAL SINGLE POINT ENERGY      -178.709110588850

DIPOLE MOMENT
-------------
                                X             Y             Z
Electronic contribution:      5.12232      -0.78560      -0.44380
Nuclear contribution   :     -5.66833       1.07099       0.52006
                        -----------------------------------------
Total Dipole Moment    :     -0.54601       0.28539       0.07627
                        -----------------------------------------
Magnitude (a.u.)       :      0.62080
Magnitude (Debye)      :      1.57794

Rotational constants in cm-1:     1.245689     0.305293     0.269541
Rotational constants in MHz : 37344.801915  9152.442838  8080.640229

                             ****ORCA TERMINATED NORMALLY****
TOTAL RUN TIME: 0 days 0 hours 0 minutes 5 seconds 365 msec
