                         Program Version 5.0.0 -  RELEASE  -
|  1> !PBE D3BJ RIJCOSX def2-SVP def2/J TightSCF
|  2> *xyz 0 1
|  3> C          1.63556       -1.67040       -5.29211
|  4> C          0.33848       -1.50091       -4.50540
|  5> C          2.48451       -0.50741       -5.14039
|  6> H          1.39834       -1.82924       -6.35259
|  7> H          2.15586       -2.56540       -4.93209
|  8> C          3.45115       -0.14953       -5.95259
|  9> N          3.92267        1.08956       -5.85071
| 10> N          3.96616       -1.00618       -6.86788
| 11> H          3.52139       -1.90647       -6.99527
| 12> H          4.44482       -0.62347       -7.67035
| 13> H          2.25200        0.24080       -4.49879
| 14> H          3.46428        1.64078       -5.13639
| 15> H          4.83447        1.31375       -6.22465
| 16> H         -0.17658       -0.62881       -4.85045
| 17> H          0.56384       -1.39374       -3.46490
| 18> H         -0.28102       -2.36136       -4.64938
| 19> *
| 20>
| 21> %MaxCore 64000
| 22>
| 23> %pal nprocs 4
| 24> end
| 25>
| 26> %scf
| 27>   MaxIter 150
| 28> end
| 29>
| 30>
| 31>                          ****END OF INPUT****

CARTESIAN COORDINATES (ANGSTROEM)
---------------------------------
  C      1.635560   -1.670400   -5.292110
  C      0.338480   -1.500910   -4.505400
  C      2.484510   -0.507410   -5.140390
  H      1.398340   -1.829240   -6.352590
  H      2.155860   -2.565400   -4.932090
  C      3.451150   -0.149530   -5.952590
  N      3.922670    1.089560   -5.850710
  N      3.966160   -1.006180   -6.867880
  H      3.521390   -1.906470   -6.995270
  H      4.444820   -0.623470   -7.670350
  H      2.252000    0.240800   -4.498790
  H      3.464280    1.640780   -5.136390
  H      4.834470    1.313750   -6.224650
  H     -0.176580   -0.628810   -4.850450
  H      0.563840   -1.393740   -3.464900
  H     -0.281020   -2.361360   -4.649380

 Total Charge           Charge          ....    0
 Multiplicity           Mult            ....    1
 Number of Electrons    NEL             ....   48
 Basis Dimension        Dim             ....  134

ORBITAL ENERGIES
----------------

  NO   OCC          E(Eh)            E(eV)
   0   2.0000     -13.989956      -380.6861
   1   2.0000     -13.985503      -380.5649
   2   2.0000      -9.918268      -269.8898
   3   2.0000      -9.866760      -268.4882
   4   2.0000      -9.859888      -268.3012
   5   2.0000      -9.808334      -266.8983
   6   2.0000      -0.857503       -23.3338
   7   2.0000      -0.776010       -21.1163
   8   2.0000      -0.688532       -18.7359
   9   2.0000      -0.615758       -16.7556
  10   2.0000      -0.538800       -14.6615
  11   2.0000      -0.514207       -13.9923
  12   2.0000      -0.473586       -12.8869
  13   2.0000      -0.450327       -12.2540
  14   2.0000      -0.411414       -11.1951
  15   2.0000      -0.383573       -10.4376
  16   2.0000      -0.372199       -10.1281
  17   2.0000      -0.339245        -9.2313
  18   2.0000      -0.322511        -8.7760
  19   2.0000      -0.290882        -7.9153
  20   2.0000      -0.281207        -7.6520
  21   2.0000      -0.279440        -7.6039
  22   2.0000      -0.207967        -5.6591
  23   2.0000      -0.119786        -3.2595
  24   0.0000       0.026875         0.7313
  25   0.0000       0.055436         1.5085
  26   0.0000       0.066850         1.8191
  27   0.0000       0.072074         1.9612
  28   0.0000       0.082541         2.2460

MULLIKEN ATOMIC CHARGES
-----------------------
   0 C :    0.016907
   1 C :    0.006584
   2 C :   -0.092278
   3 H :   -0.008761
   4 H :    0.001647
   5 C :   -0.155467
   6 N :   -0.019719
   7 N :   -0.058436
   8 H :    0.108436
   9 H :    0.093868
  10 H :   -0.115863
  11 H :    0.110319
  12 H :    0.094505
  13 H :    0.007855
  14 H :    0.012417
  15 H :   -0.002013
Sum of atomic charges:    0.0000000

LOEWDIN ATOMIC CHARGES
----------------------
   0 C :   -0.047761
   1 C :   -0.052468
   2 C :   -0.218269
   3 H :    0.008983
   4 H :    0.013095
   5 C :    0.000958
   6 N :   -0.012007
   7 N :   -0.018059
   8 H :    0.075710
   9 H :    0.060282
  10 H :   -0.009865
  11 H :    0.080411
  12 H :    0.061363
  13 H :    0.019076
  14 H :    0.021141
  15 H :    0.017410

  Mayer bond orders larger than 0.100000
B(  0-C ,  1-C ) :   1.1209 B(  0-C ,  2-C ) :   1.0645 B(  0-C ,  3-H ) :   0.9252
B(  0-C ,  4-H ) :   0.9111 B(  1-C , 13-H ) :   0.9704 B(  1-C , 14-H ) :   0.9648
B(  1-C , 15-H ) :   0.9586 B(  2-C ,  5-C ) :   1.6488 B(  2-C , 10-H ) :   0.9187
B(  5-C ,  6-N ) :   1.2612 B(  5-C ,  7-N ) :   1.2602 B(  6-N , 11-H ) :   0.9267
B(  6-N , 12-H ) :   0.9398 B(  7-N ,  8-H ) :   0.9357 B(  7-N ,  9-H ) :   0.9414

Dispersion correction           -0.012504408
FINAL SINGLE POINT ENERGY      -267.369551585049

DIPOLE MOMENT
-------------
                                X             Y             Z
Electronic contribution:      4.67708       2.23764      -1.99172
Nuclear contribution   :     -3.99655      -1.83277       1.34879
                        -----------------------------------------
Total Dipole Moment    :      0.68054       0.40487      -0.64293
                        -----------------------------------------
Magnitude (a.u.)       :      1.02001
Magnitude (Debye)      :      2.59265

Rotational constants in cm-1:     0.262971     0.067064     0.055026
Rotational constants in MHz :  7883.664566  2010.513309  1649.636654

                             ****ORCA TERMINATED NORMALLY****
TOTAL RUN TIME: 0 days 0 hours 0 minutes 9 seconds 92 msec
