                         Program Version 5.0.0 -  RELEASE  -
|  1> !PBE D3BJ RIJCOSX def2-SVP def2/J TightSCF
|  2> *xyz 0 1
|  3> C          1.63556       -1.67040       -5.29211
|  4> C          0.33848       -1.50091       -4.50540
|  5> N          2.48451       -0.50741       -5.14039
|  6> H          1.39834       -1.82924       -6.35259
|  7> H          2.15586       -2.56540       -4.93209
|  8> C          3.45115       -0.14953       -5.95259
|  9> C          3.92267        1.08956       -5.85071
| 10> N          3.96616       -1.00618       -6.86788
| 11> H          3.52139       -1.90647       -6.99527
| 12> H          4.44482       -0.62347       -7.67035
| 13> H          2.25200        0.24080       -4.49879
| 14> H          3.46428        1.64078       -5.13639
| 15> H          4.83447        1.31375       -6.22465
| 16> H         -0.17658       -0.62881       -4.85045
| 17> H          0.56384       -1.39374       -3.46490
| 18> H         -0.28102       -2.36136       -4.64938
| 19> *
| 20>
| 21> %MaxCore 64000
| 22>
| 23> %pal nprocs 4
| 24> end
| 25>
| 26> %scf
| 27>   MaxIter 150
| 28> end
| 29>
| 30>
| 31>                          ****END OF INPUT****

CARTESIAN COORDINATES (ANGSTROEM)
---------------------------------
  C      1.635560   -1.670400   -5.292110
  C      0.338480   -1.500910   -4.505400
  N      2.484510   -0.507410   -5.140390
  H      1.398340   -1.829240   -6.352590
  H      2.155860   -2.565400   -4.932090
  C      3.451150   -0.149530   -5.952590
  C      3.922670    1.089560   -5.850710
  N      3.966160   -1.006180   -6.867880
  H      3.521390   -1.906470   -6.995270
  H      4.444820   -0.623470   -7.670350
  H      2.252000    0.240800   -4.498790
  H      3.464280    1.640780   -5.136390
  H      4.834470    1.313750   -6.224650
  H     -0.176580   -0.628810   -4.850450
  H      0.563840   -1.393740   -3.464900
  H     -0.281020   -2.361360   -4.649380

 Total Charge           Charge          ....    0
 Multiplicity           Mult            ....    1
 Number of Electrons    NEL             ....   48
 Basis Dimension        Dim             ....  134

ORBITAL ENERGIES
----------------

  NO   OCC          E(Eh)            E(eV)
   0   2.0000     -13.991861      -380.7379
   1   2.0000     -13.988309      -380.6412
   2   2.0000      -9.933270      -270.2980
   3   2.0000      -9.921887      -269.9883
   4   2.0000      -9.895304      -269.2649
   5   2.0000      -9.798451      -266.6294
   6   2.0000      -0.871553       -23.7162
   7   2.0000      -0.789662       -21.4878
   8   2.0000      -0.697478       -18.9793
   9   2.0000      -0.621706       -16.9175
  10   2.0000      -0.557545       -15.1716
  11   2.0000      -0.530510       -14.4359
  12   2.0000      -0.475332       -12.9344
  13   2.0000      -0.439763       -11.9666
  14   2.0000      -0.426097       -11.5947
  15   2.0000      -0.410288       -11.1645
  16   2.0000      -0.366250        -9.9662
  17   2.0000      -0.344279        -9.3683
  18   2.0000      -0.332135        -9.0379
  19   2.0000      -0.325484        -8.8569
  20   2.0000      -0.323832        -8.8119
  21   2.0000      -0.297507        -8.0956
  22   2.0000      -0.205063        -5.5800
  23   2.0000      -0.118366        -3.2209
  24   0.0000       0.027939         0.7602
  25   0.0000       0.048567         1.3216
  26   0.0000       0.053047         1.4435
  27   0.0000       0.064111         1.7445
  28   0.0000       0.087941         2.3930

MULLIKEN ATOMIC CHARGES
-----------------------
   0 C :    0.063024
   1 C :   -0.037712
   2 N :   -0.091458
   3 H :    0.013874
   4 H :    0.019357
   5 C :   -0.112079
   6 C :   -0.061465
   7 N :   -0.071342
   8 H :    0.091831
   9 H :    0.117099
  10 H :    0.114751
  11 H :   -0.075988
  12 H :   -0.056166
  13 H :    0.030753
  14 H :    0.029481
  15 H :    0.026039
Sum of atomic charges:   -0.0000000

LOEWDIN ATOMIC CHARGES
----------------------
   0 C :    0.019089
   1 C :   -0.059405
   2 N :   -0.011282
   3 H :    0.013520
   4 H :    0.013724
   5 C :    0.010689
   6 C :   -0.256351
   7 N :   -0.016113
   8 H :    0.060205
   9 H :    0.079513
  10 H :    0.082607
  11 H :   -0.011808
  12 H :   -0.008485
  13 H :    0.026228
  14 H :    0.026104
  15 H :    0.031764

  Mayer bond orders larger than 0.100000
B(  0-C ,  1-C ) :   1.1243 B(  0-C ,  2-N ) :   1.0130 B(  0-C ,  3-H ) :   0.9301
B(  0-C ,  4-H ) :   0.9352 B(  1-C , 13-H ) :   0.9682 B(  1-C , 14-H ) :   0.9657
B(  1-C , 15-H ) :   0.9591 B(  2-N ,  5-C ) :   1.2418 B(  2-N , 10-H ) :   0.9123
B(  5-C ,  6-C ) :   1.7164 B(  5-C ,  7-N ) :   1.2276 B(  6-C , 11-H ) :   0.9075
B(  6-C , 12-H ) :   0.9392 B(  7-N ,  8-H ) :   0.9488 B(  7-N ,  9-H ) :   0.9461

Dispersion correction           -0.012392279
FINAL SINGLE POINT ENERGY      -267.359099550993

DIPOLE MOMENT
-------------
                                X             Y             Z
Electronic contribution:      2.99554       0.53802      -1.32892
Nuclear contribution   :     -3.69145      -1.49398       1.19810
                        -----------------------------------------
Total Dipole Moment    :     -0.69591      -0.95596      -0.13082
                        -----------------------------------------
Magnitude (a.u.)       :      1.18965
Magnitude (Debye)      :      3.02385

Rotational constants in cm-1:     0.270790     0.068966     0.056679
Rotational constants in MHz :  8118.084803  2067.559423  1699.196934

                             ****ORCA TERMINATED NORMALLY****
TOTAL RUN TIME: 0 days 0 hours 0 minutes 8 seconds 557 msec
