                         Program Version 5.0.0 -  RELEASE  -
|  1> !PBE D3BJ RIJCOSX def2-SVP def2/J TightSCF
|  2> *xyz 0 1
|  3> C          1.63556       -1.67040       -5.29211
|  4> C          0.33848       -1.50091       -4.50540
|  5> N          2.48451       -0.50741       -5.14039
|  6> H          1.39834       -1.82924       -6.35259
|  7> H          2.15586       -2.56540       -4.93209
|  8> C          3.45115       -0.14953       -5.95259
|  9> N          3.92267        1.08956       -5.85071
| 10> C          3.96616       -1.00618       -6.86788
| 11> H          3.52139       -1.90647       -6.99527
| 12> H          4.44482       -0.62347       -7.67035
| 13> H          2.25200        0.24080       -4.49879
| 14> H          3.46428        1.64078       -5.13639
| 15> H          4.83447        1.31375       -6.22465
| 16> H         -0.17658       -0.62881       -4.85045
| 17> H          0.56384       -1.39374       -3.46490
| 18> H         -0.28102       -2.36136       -4.64938
| 19> *
| 20>
| 21> %MaxCore 64000
| 22>
| 23> %pal nprocs 4
| 24> end
| 25>
| 26> %scf
| 27>   MaxIter 150
| 28> end
| 29>
| 30>
| 31>                          ****END OF INPUT****

CARTESIAN COORDINATES (ANGSTROEM)
---------------------------------
  C      1.635560   -1.670400   -5.292110
  C      0.338480   -1.500910   -4.505400
  N      2.484510   -0.507410   -5.140390
  H      1.398340   -1.829240   -6.352590
  H      2.155860   -2.565400   -4.932090
  C      3.451150   -0.149530   -5.952590
  N      3.922670    1.089560   -5.850710
  C      3.966160   -1.006180   -6.867880
  H      3.521390   -1.906470   -6.995270
  H      4.444820   -0.623470   -7.670350
  H      2.252000    0.240800   -4.498790
  H      3.464280    1.640780   -5.136390
  H      4.834470    1.313750   -6.224650
  H     -0.176580   -0.628810   -4.850450
  H      0.563840   -1.393740   -3.464900
  H     -0.281020   -2.361360   -4.649380

 Total Charge           Charge          ....    0
 Multiplicity           Mult            ....    1
 Number of Electrons    NEL             ....   48
 Basis Dimension        Dim             ....  134

ORBITAL ENERGIES
----------------

  NO   OCC          E(Eh)            E(eV)
   0   2.0000     -13.997566      -380.8931
   1   2.0000     -13.990944      -380.7129
   2   2.0000      -9.925181      -270.0779
   3   2.0000      -9.923313      -270.0271
   4   2.0000      -9.891014      -269.1482
   5   2.0000      -9.798571      -266.6327
   6   2.0000      -0.879424       -23.9303
   7   2.0000      -0.794735       -21.6258
   8   2.0000      -0.684109       -18.6155
   9   2.0000      -0.619638       -16.8612
  10   2.0000      -0.574904       -15.6439
  11   2.0000      -0.503247       -13.6941
  12   2.0000      -0.475700       -12.9444
  13   2.0000      -0.464160       -12.6304
  14   2.0000      -0.419864       -11.4251
  15   2.0000      -0.414242       -11.2721
  16   2.0000      -0.349493        -9.5102
  17   2.0000      -0.344355        -9.3704
  18   2.0000      -0.339718        -9.2442
  19   2.0000      -0.319551        -8.6954
  20   2.0000      -0.310443        -8.4476
  21   2.0000      -0.297884        -8.1058
  22   2.0000      -0.200579        -5.4580
  23   2.0000      -0.121161        -3.2970
  24   0.0000       0.017689         0.4813
  25   0.0000       0.045648         1.2421
  26   0.0000       0.061140         1.6637
  27   0.0000       0.071840         1.9549
  28   0.0000       0.095051         2.5865

MULLIKEN ATOMIC CHARGES
-----------------------
   0 C :    0.087258
   1 C :   -0.036187
   2 N :   -0.110974
   3 H :    0.028677
   4 H :    0.023991
   5 C :   -0.101197
   6 N :   -0.043227
   7 C :   -0.103499
   8 H :   -0.055016
   9 H :   -0.057310
  10 H :    0.084382
  11 H :    0.086721
  12 H :    0.122620
  13 H :    0.022920
  14 H :    0.022620
  15 H :    0.028221
Sum of atomic charges:   -0.0000000

LOEWDIN ATOMIC CHARGES
----------------------
   0 C :    0.034860
   1 C :   -0.062755
   2 N :   -0.006582
   3 H :    0.022845
   4 H :    0.019454
   5 C :    0.003699
   6 N :   -0.006785
   7 C :   -0.265589
   8 H :   -0.010022
   9 H :   -0.009750
  10 H :    0.059769
  11 H :    0.058671
  12 H :    0.083678
  13 H :    0.022704
  14 H :    0.022779
  15 H :    0.033025

  Mayer bond orders larger than 0.100000
B(  0-C ,  1-C ) :   1.1137 B(  0-C ,  2-N ) :   1.0118 B(  0-C ,  3-H ) :   0.9279
B(  0-C ,  4-H ) :   0.9381 B(  1-C , 13-H ) :   0.9671 B(  1-C , 14-H ) :   0.9651
B(  1-C , 15-H ) :   0.9599 B(  2-N ,  5-C ) :   1.2162 B(  2-N , 10-H ) :   0.9241
B(  5-C ,  6-N ) :   1.2436 B(  5-C ,  7-C ) :   1.7090 B(  6-N , 11-H ) :   0.9453
B(  6-N , 12-H ) :   0.9408 B(  7-C ,  8-H ) :   0.9289 B(  7-C ,  9-H ) :   0.9350

Dispersion correction           -0.012435794
FINAL SINGLE POINT ENERGY      -267.359068014623

DIPOLE MOMENT
-------------
                                X             Y             Z
Electronic contribution:      3.07997       2.73451      -0.15163
Nuclear contribution   :     -3.68222      -1.93858       0.98231
                        -----------------------------------------
Total Dipole Moment    :     -0.60225       0.79593       0.83068
                        -----------------------------------------
Magnitude (a.u.)       :      1.29855
Magnitude (Debye)      :      3.30066

Rotational constants in cm-1:     0.275407     0.068040     0.056255
Rotational constants in MHz :  8256.498401  2039.796466  1686.484500

                             ****ORCA TERMINATED NORMALLY****
TOTAL RUN TIME: 0 days 0 hours 0 minutes 8 seconds 149 msec
