                         Program Version 5.0.0 -  RELEASE  -
|  1> !PBE D3BJ RIJCOSX def2-TZVP def2/J TightSCF xyzfile
|  2>
|  3> *xyzfile 0 1 D1.xyz
|  4>
|  5> %MaxCore 64000
|  6>
|  7> %pal nprocs 18
|  8> end
|  9>
| 10> %scf
| 11>   MaxIter 150
| 12> end
| 13>
| 14>
| 15>                          ****END OF INPUT****

CARTESIAN COORDINATES (ANGSTROEM)
---------------------------------
  C      1.635557   -1.670396   -5.292109
  C      0.338484   -1.500907   -4.505398
  C      2.484511   -0.507410   -5.140392
  C     -0.684873   -0.528026   -5.099889
  C     -0.290406    0.951335   -5.153423
  H      0.607991    1.070692   -5.764412
  C     -0.055168    1.619420   -3.788577
  H     -1.080912    1.483775   -5.689436
  H      0.045006    0.862302   -3.003015
  H     -0.922936    2.230329   -3.517028
  C      1.223022    2.469865   -3.756911
  H      1.114701    3.258074   -4.532999
  H      1.237732    3.011242   -2.792157
  F      2.353815    1.712032   -3.934477
  H      1.398337   -1.829239   -6.352591
  H      2.155864   -2.565398   -4.932091
  C      3.451149   -0.149530   -5.952589
  N      3.922667    1.089559   -5.850711
  N      3.966162   -1.006183   -6.867880
  H      3.521391   -1.906467   -6.995270
  H      4.444824   -0.623472   -7.670348
  H      2.251995    0.240804   -4.498792
  H      3.464277    1.640782   -5.136392
  H      4.834470    1.313745   -6.224653
  H     -0.937999   -0.869056   -6.110838
  H     -1.604638   -0.622496   -4.513132
  H      0.594887   -1.211578   -3.482312
  H     -0.126530   -2.487656   -4.434176

 Total Charge           Charge          ....    0
 Multiplicity           Mult            ....    1
 Number of Electrons    NEL             ....   88
 Basis Dimension        Dim             ....  443

ORBITAL ENERGIES
----------------

  NO   OCC          E(Eh)            E(eV)
   0   2.0000     -24.272189      -660.4798
   1   2.0000     -13.968784      -380.1099
   2   2.0000     -13.953714      -379.6999
   3   2.0000      -9.964712      -271.1536
   4   2.0000      -9.894153      -269.2336
   5   2.0000      -9.886554      -269.0268
   6   2.0000      -9.869551      -268.5641
   7   2.0000      -9.866809      -268.4895
   8   2.0000      -9.857193      -268.2278
   9   2.0000      -9.846919      -267.9483
  10   2.0000      -9.776254      -266.0254
  11   2.0000      -1.133702       -30.8496
  12   2.0000      -0.857123       -23.3235
  13   2.0000      -0.776760       -21.1367
  14   2.0000      -0.733808       -19.9679
  15   2.0000      -0.702185       -19.1074
  16   2.0000      -0.655843       -17.8464
  17   2.0000      -0.623396       -16.9635
  18   2.0000      -0.576652       -15.6915
  19   2.0000      -0.545517       -14.8443
  20   2.0000      -0.520442       -14.1619
  21   2.0000      -0.496318       -13.5055
  22   2.0000      -0.479029       -13.0350
  23   2.0000      -0.468445       -12.7470
  24   2.0000      -0.451047       -12.2736
  25   2.0000      -0.446790       -12.1578
  26   2.0000      -0.429728       -11.6935
  27   2.0000      -0.407281       -11.0827
  28   2.0000      -0.390562       -10.6277
  29   2.0000      -0.388884       -10.5821
  30   2.0000      -0.368440       -10.0258
  31   2.0000      -0.352714        -9.5978
  32   2.0000      -0.341144        -9.2830
  33   2.0000      -0.330879        -9.0037
  34   2.0000      -0.316052        -8.6002
  35   2.0000      -0.310639        -8.4529
  36   2.0000      -0.304466        -8.2849
  37   2.0000      -0.292250        -7.9525
  38   2.0000      -0.276130        -7.5139
  39   2.0000      -0.267000        -7.2654
  40   2.0000      -0.261232        -7.1085
  41   2.0000      -0.248196        -6.7538
  42   2.0000      -0.203594        -5.5401
  43   2.0000      -0.114075        -3.1041
  44   0.0000       0.012423         0.3381
  45   0.0000       0.019974         0.5435
  46   0.0000       0.030877         0.8402
  47   0.0000       0.042417         1.1542
  48   0.0000       0.046662         1.2697

MULLIKEN ATOMIC CHARGES
-----------------------
   0 C :   -0.149136
   1 C :   -0.186422
   2 C :   -0.353211
   3 C :   -0.174221
   4 C :   -0.203986
   5 H :    0.142506
   6 C :   -0.193705
   7 H :    0.084792
   8 H :    0.104706
   9 H :    0.107466
  10 C :   -0.024976
  11 H :    0.099264
  12 H :    0.105821
  13 F :   -0.186017
  14 H :    0.050099
  15 H :    0.075925
  16 C :    0.221497
  17 N :   -0.438848
  18 N :   -0.443402
  19 H :    0.227517
  20 H :    0.200152
  21 H :    0.162324
  22 H :    0.232615
  23 H :    0.196448
  24 H :    0.083886
  25 H :    0.087130
  26 H :    0.086134
  27 H :    0.085644
Sum of atomic charges:   -0.0000000

LOEWDIN ATOMIC CHARGES
----------------------
   0 C :   -0.289466
   1 C :   -0.267100
   2 C :   -0.288361
   3 C :   -0.270727
   4 C :   -0.274479
   5 H :    0.148142
   6 C :   -0.274889
   7 H :    0.133453
   8 H :    0.142292
   9 H :    0.143695
  10 C :   -0.358258
  11 H :    0.125909
  12 H :    0.124358
  13 F :    0.166042
  14 H :    0.129967
  15 H :    0.133440
  16 C :   -0.481118
  17 N :   -0.018384
  18 N :   -0.020088
  19 H :    0.169007
  20 H :    0.152220
  21 H :    0.119498
  22 H :    0.158011
  23 H :    0.152225
  24 H :    0.138516
  25 H :    0.136652
  26 H :    0.134689
  27 H :    0.134756

  Mayer bond orders larger than 0.100000
B(  0-C ,  1-C ) :   1.0264 B(  0-C ,  2-C ) :   1.0103 B(  0-C , 14-H ) :   0.9317
B(  0-C , 15-H ) :   0.9320 B(  1-C ,  3-C ) :   1.0329 B(  1-C , 26-H ) :   0.9602
B(  1-C , 27-H ) :   0.9510 B(  2-C , 16-C ) :   1.6205 B(  2-C , 21-H ) :   0.9817
B(  3-C ,  4-C ) :   0.9993 B(  3-C , 24-H ) :   0.9415 B(  3-C , 25-H ) :   0.9498
B(  4-C ,  5-H ) :   0.9669 B(  4-C ,  6-C ) :   0.9771 B(  4-C ,  7-H ) :   0.9446
B(  6-C ,  8-H ) :   0.9501 B(  6-C ,  9-H ) :   0.9335 B(  6-C , 10-C ) :   1.0118
B( 10-C , 11-H ) :   0.9619 B( 10-C , 12-H ) :   0.9518 B( 10-C , 13-F ) :   0.9663
B( 16-C , 17-N ) :   1.2285 B( 16-C , 18-N ) :   1.1745 B( 17-N , 22-H ) :   0.8771
B( 17-N , 23-H ) :   0.9198 B( 18-N , 19-H ) :   0.9195 B( 18-N , 20-H ) :   0.9170

Dispersion correction           -0.029029259
FINAL SINGLE POINT ENERGY      -523.925617830901

DIPOLE MOMENT
-------------
                                X             Y             Z
Electronic contribution:      7.95335       3.83596       1.09212
Nuclear contribution   :     -8.11591      -2.99033      -1.35383
                        -----------------------------------------
Total Dipole Moment    :     -0.16256       0.84563      -0.26172
                        -----------------------------------------
Magnitude (a.u.)       :      0.90001
Magnitude (Debye)      :      2.28765

Rotational constants in cm-1:     0.043530     0.028984     0.019589
Rotational constants in MHz :  1305.007140   868.923804   587.262638

                             ****ORCA TERMINATED NORMALLY****
TOTAL RUN TIME: 0 days 0 hours 0 minutes 17 seconds 556 msec
