                         Program Version 5.0.0 -  RELEASE  -
|  1> !PBE D3BJ RIJCOSX def2-TZVP def2/J TightSCF xyzfile
|  2>
|  3> *xyzfile 0 1 D2.xyz
|  4>
|  5> %MaxCore 64000
|  6>
|  7> %pal nprocs 18
|  8> end
|  9>
| 10> %scf
| 11>   MaxIter 150
| 12> end
| 13>
| 14>
| 15>                          ****END OF INPUT****

CARTESIAN COORDINATES (ANGSTROEM)
---------------------------------
  C      1.635557   -1.670396   -5.292109
  C      0.338484   -1.500907   -4.505398
  N      2.484511   -0.507410   -5.140392
  C     -0.684873   -0.528026   -5.099889
  C     -0.290406    0.951335   -5.153423
  H      0.607991    1.070692   -5.764412
  C     -0.055168    1.619420   -3.788577
  H     -1.080912    1.483775   -5.689436
  H      0.045006    0.862302   -3.003015
  H     -0.922936    2.230329   -3.517028
  C      1.223022    2.469865   -3.756911
  H      1.114701    3.258074   -4.532999
  H      1.237732    3.011242   -2.792157
  F      2.353815    1.712032   -3.934477
  H      1.398337   -1.829239   -6.352591
  H      2.155864   -2.565398   -4.932091
  C      3.451149   -0.149530   -5.952589
  C      3.922667    1.089559   -5.850711
  N      3.966162   -1.006183   -6.867880
  H      3.521391   -1.906467   -6.995270
  H      4.444824   -0.623472   -7.670348
  H      2.251995    0.240804   -4.498792
  H      3.464277    1.640782   -5.136392
  H      4.834470    1.313745   -6.224653
  H     -0.937999   -0.869056   -6.110838
  H     -1.604638   -0.622496   -4.513132
  H      0.594887   -1.211578   -3.482312
  H     -0.126530   -2.487656   -4.434176

 Total Charge           Charge          ....    0
 Multiplicity           Mult            ....    1
 Number of Electrons    NEL             ....   88
 Basis Dimension        Dim             ....  443

ORBITAL ENERGIES
----------------

  NO   OCC          E(Eh)            E(eV)
   0   2.0000     -24.274116      -660.5323
   1   2.0000     -13.967052      -380.0628
   2   2.0000     -13.959726      -379.8635
   3   2.0000      -9.966696      -271.2076
   4   2.0000      -9.908955      -269.6364
   5   2.0000      -9.898332      -269.3473
   6   2.0000      -9.895722      -269.2763
   7   2.0000      -9.885359      -268.9943
   8   2.0000      -9.884914      -268.9822
   9   2.0000      -9.882873      -268.9267
  10   2.0000      -9.764908      -265.7167
  11   2.0000      -1.135021       -30.8855
  12   2.0000      -0.869765       -23.6675
  13   2.0000      -0.791546       -21.5391
  14   2.0000      -0.744970       -20.2717
  15   2.0000      -0.705931       -19.2094
  16   2.0000      -0.668418       -18.1886
  17   2.0000      -0.618054       -16.8181
  18   2.0000      -0.587923       -15.9982
  19   2.0000      -0.560897       -15.2628
  20   2.0000      -0.526897       -14.3376
  21   2.0000      -0.511097       -13.9077
  22   2.0000      -0.488405       -13.2902
  23   2.0000      -0.463194       -12.6042
  24   2.0000      -0.455005       -12.3813
  25   2.0000      -0.447181       -12.1684
  26   2.0000      -0.435742       -11.8571
  27   2.0000      -0.421105       -11.4589
  28   2.0000      -0.402775       -10.9601
  29   2.0000      -0.394045       -10.7225
  30   2.0000      -0.375283       -10.2120
  31   2.0000      -0.361952        -9.8492
  32   2.0000      -0.353078        -9.6078
  33   2.0000      -0.333705        -9.0806
  34   2.0000      -0.327490        -8.9114
  35   2.0000      -0.318273        -8.6607
  36   2.0000      -0.307841        -8.3768
  37   2.0000      -0.303889        -8.2692
  38   2.0000      -0.291025        -7.9192
  39   2.0000      -0.283307        -7.7092
  40   2.0000      -0.278371        -7.5749
  41   2.0000      -0.275909        -7.5079
  42   2.0000      -0.198531        -5.4023
  43   2.0000      -0.112908        -3.0724
  44   0.0000       0.006921         0.1883
  45   0.0000       0.017727         0.4824
  46   0.0000       0.027488         0.7480
  47   0.0000       0.032476         0.8837
  48   0.0000       0.042804         1.1648

MULLIKEN ATOMIC CHARGES
-----------------------
   0 C :   -0.117369
   1 C :   -0.216330
   2 N :   -0.225312
   3 C :   -0.164611
   4 C :   -0.250440
   5 H :    0.159198
   6 C :   -0.209541
   7 H :    0.096947
   8 H :    0.104931
   9 H :    0.110680
  10 C :   -0.009328
  11 H :    0.105032
  12 H :    0.108277
  13 F :   -0.181044
  14 H :    0.076214
  15 H :    0.104648
  16 C :    0.303792
  17 C :   -0.605834
  18 N :   -0.456846
  19 H :    0.210149
  20 H :    0.230375
  21 H :    0.219778
  22 H :    0.126486
  23 H :    0.085793
  24 H :    0.091621
  25 H :    0.096121
  26 H :    0.103400
  27 H :    0.103213
Sum of atomic charges:   -0.0000000

LOEWDIN ATOMIC CHARGES
----------------------
   0 C :   -0.302292
   1 C :   -0.274879
   2 N :    0.130929
   3 C :   -0.272471
   4 C :   -0.276439
   5 H :    0.149536
   6 C :   -0.277955
   7 H :    0.137633
   8 H :    0.140298
   9 H :    0.145210
  10 C :   -0.355219
  11 H :    0.129375
  12 H :    0.125588
  13 F :    0.172516
  14 H :    0.126555
  15 H :    0.126143
  16 C :   -0.483530
  17 C :   -0.366021
  18 N :   -0.017143
  19 H :    0.154944
  20 H :    0.169763
  21 H :    0.171019
  22 H :    0.094498
  23 H :    0.092490
  24 H :    0.140416
  25 H :    0.139745
  26 H :    0.136221
  27 H :    0.143071

  Mayer bond orders larger than 0.100000
B(  0-C ,  1-C ) :   1.0183 B(  0-C ,  2-N ) :   0.9901 B(  0-C , 14-H ) :   0.9342
B(  0-C , 15-H ) :   0.9360 B(  1-C ,  3-C ) :   1.0239 B(  1-C , 26-H ) :   0.9593
B(  1-C , 27-H ) :   0.9484 B(  2-N , 16-C ) :   1.2507 B(  2-N , 21-H ) :   0.8803
B(  3-C ,  4-C ) :   1.0035 B(  3-C , 24-H ) :   0.9433 B(  3-C , 25-H ) :   0.9486
B(  4-C ,  5-H ) :   0.9625 B(  4-C ,  6-C ) :   0.9706 B(  4-C ,  7-H ) :   0.9465
B(  6-C ,  8-H ) :   0.9550 B(  6-C ,  9-H ) :   0.9336 B(  6-C , 10-C ) :   1.0121
B( 10-C , 11-H ) :   0.9638 B( 10-C , 12-H ) :   0.9506 B( 10-C , 13-F ) :   0.9585
B( 16-C , 17-C ) :   1.6009 B( 16-C , 18-N ) :   1.1321 B( 17-C , 22-H ) :   0.9788
B( 17-C , 23-H ) :   0.9809 B( 18-N , 19-H ) :   0.9243 B( 18-N , 20-H ) :   0.9192

Dispersion correction           -0.028834865
FINAL SINGLE POINT ENERGY      -523.917174346975

DIPOLE MOMENT
-------------
                                X             Y             Z
Electronic contribution:      6.41856       2.40716       1.68130
Nuclear contribution   :     -7.85451      -2.70006      -1.48294
                        -----------------------------------------
Total Dipole Moment    :     -1.43595      -0.29290       0.19836
                        -----------------------------------------
Magnitude (a.u.)       :      1.47888
Magnitude (Debye)      :      3.75901

Rotational constants in cm-1:     0.044065     0.029250     0.019826
Rotational constants in MHz :  1321.026981   876.903192   594.367265

                             ****ORCA TERMINATED NORMALLY****
TOTAL RUN TIME: 0 days 0 hours 0 minutes 16 seconds 603 msec
