                         Program Version 5.0.0 -  RELEASE  -
|  1> !B3LYP D3BJ RIJCOSX def2-SVPD def2/J TightSCF
|  2> *xyz -1 1
|  3> C          0.96805        1.63064       -3.71575
|  4> C         -0.50835        1.72268       -4.12430
|  5> S         -1.32861        0.14674       -4.43578
|  6> H         -0.59151        2.29496       -5.04722
|  7> H         -1.11411        2.23561       -3.37436
|  8> O         -2.57135        0.47573       -5.06834
|  9> O         -1.51496       -0.40051       -3.06342
| 10> O         -0.37793       -0.62756       -5.20114
| 11> H          1.51840        1.12197       -4.47946
| 12> H          1.05062        1.08971       -2.79625
| 13> H          1.36450        2.61606       -3.58668
| 14> *
| 15> %MaxCore 64000
| 16>
| 17> %pal nprocs 4
| 18> end
| 19>
| 20> %scf
| 21>   MaxIter 150
| 22> end
| 23>
| 24>
| 25>                          ****END OF INPUT****

CARTESIAN COORDINATES (ANGSTROEM)
---------------------------------
  C      0.968050    1.630640   -3.715750
  C     -0.508350    1.722680   -4.124300
  S     -1.328610    0.146740   -4.435780
  H     -0.591510    2.294960   -5.047220
  H     -1.114110    2.235610   -3.374360
  O     -2.571350    0.475730   -5.068340
  O     -1.514960   -0.400510   -3.063420
  O     -0.377930   -0.627560   -5.201140
  H      1.518400    1.121970   -4.479460
  H      1.050620    1.089710   -2.796250
  H      1.364500    2.616060   -3.586680

 Total Charge           Charge          ....   -1
 Multiplicity           Mult            ....    1
 Number of Electrons    NEL             ....   58
 Basis Dimension        Dim             ....  176

ORBITAL ENERGIES
----------------

  NO   OCC          E(Eh)            E(eV)
   0   2.0000     -88.880895     -2418.5721
   1   2.0000     -18.924389      -514.9588
   2   2.0000     -18.920981      -514.8661
   3   2.0000     -18.905501      -514.4448
   4   2.0000     -10.043735      -273.3039
   5   2.0000     -10.040370      -273.2123
   6   2.0000      -7.934733      -215.9151
   7   2.0000      -5.903725      -160.6485
   8   2.0000      -5.903489      -160.6421
   9   2.0000      -5.903003      -160.6289
  10   2.0000      -0.933424       -25.3997
  11   2.0000      -0.798217       -21.7206
  12   2.0000      -0.766838       -20.8667
  13   2.0000      -0.623957       -16.9787
  14   2.0000      -0.502253       -13.6670
  15   2.0000      -0.379792       -10.3347
  16   2.0000      -0.317624        -8.6430
  17   2.0000      -0.316340        -8.6081
  18   2.0000      -0.278227        -7.5709
  19   2.0000      -0.265514        -7.2250
  20   2.0000      -0.258924        -7.0457
  21   2.0000      -0.230797        -6.2803
  22   2.0000      -0.215900        -5.8749
  23   2.0000      -0.154503        -4.2042
  24   2.0000      -0.153663        -4.1814
  25   2.0000      -0.121489        -3.3059
  26   2.0000      -0.111056        -3.0220
  27   2.0000      -0.098133        -2.6703
  28   2.0000      -0.067155        -1.8274
  29   0.0000       0.141786         3.8582
  30   0.0000       0.169079         4.6009
  31   0.0000       0.179171         4.8755
  32   0.0000       0.184290         5.0148
  33   0.0000       0.205515         5.5923

MULLIKEN ATOMIC CHARGES
-----------------------
   0 C :    0.980263
   1 C :   -0.168149
   2 S :    1.355362
   3 H :   -0.142209
   4 H :   -0.141208
   5 O :   -0.781070
   6 O :   -0.848656
   7 O :   -0.805132
   8 H :   -0.127300
   9 H :   -0.135642
  10 H :   -0.186259
Sum of atomic charges:   -1.0000000

LOEWDIN ATOMIC CHARGES
----------------------
   0 C :    0.112906
   1 C :   -0.127458
   2 S :    0.858914
   3 H :   -0.007709
   4 H :   -0.000558
   5 O :   -0.570786
   6 O :   -0.603121
   7 O :   -0.573853
   8 H :   -0.028237
   9 H :   -0.020906
  10 H :   -0.039191

  Mayer bond orders larger than 0.100000
B(  0-C ,  1-C ) :   1.2672 B(  0-C ,  3-H ) :   0.1111 B(  0-C ,  8-H ) :   0.7805
B(  0-C ,  9-H ) :   0.7751 B(  0-C , 10-H ) :   0.6841 B(  1-C ,  2-S ) :   0.9055
B(  1-C ,  3-H ) :   0.9617 B(  1-C ,  4-H ) :   0.9523 B(  1-C ,  8-H ) :   0.2213
B(  1-C ,  9-H ) :   0.2128 B(  1-C , 10-H ) :   0.2475 B(  2-S ,  5-O ) :   1.3408
B(  2-S ,  6-O ) :   1.2553 B(  2-S ,  7-O ) :   1.2909

Dispersion correction           -0.016692550
FINAL SINGLE POINT ENERGY      -702.587723736541

DIPOLE MOMENT
-------------
                                X             Y             Z
Electronic contribution:     -5.55702      -5.24976      -1.92918
Nuclear contribution   :      6.64523       6.80157       2.07300
                        -----------------------------------------
Total Dipole Moment    :      1.08820       1.55181       0.14382
                        -----------------------------------------
Magnitude (a.u.)       :      1.90079
Magnitude (Debye)      :      4.83142

Rotational constants in cm-1:     0.163070     0.082807     0.081541
Rotational constants in MHz :  4888.719902  2482.497026  2444.541148

                             ****ORCA TERMINATED NORMALLY****
TOTAL RUN TIME: 0 days 0 hours 0 minutes 23 seconds 741 msec
