                         Program Version 5.0.0 -  RELEASE  -
|  1> !B3LYP D3BJ RIJCOSX def2-SVPD def2/J TightSCF
|  2> *xyz 1 1
|  3> C          1.36401        0.46874       -2.81376
|  4> N          0.42884        0.32140       -1.65531
|  5> C          0.96805        1.63064       -3.71575
|  6> H          0.74858       -0.40054       -1.00134
|  7> H         -0.46105        0.02333       -2.07773
|  8> H          0.31026        1.20137       -1.13495
|  9> H          1.29485       -0.46874       -3.36468
| 10> H          2.37622        0.59740       -2.43149
| 11> H          1.65923        1.70213       -4.52942
| 12> H          0.98421        2.54058       -3.15304
| 13> H         -0.01744        1.46536       -4.09838
| 14> *
| 15> %MaxCore 64000
| 16>
| 17> %pal nprocs 4
| 18> end
| 19>
| 20> %scf
| 21>   MaxIter 150
| 22> end
| 23>
| 24>
| 25>                          ****END OF INPUT****

CARTESIAN COORDINATES (ANGSTROEM)
---------------------------------
  C      1.364010    0.468740   -2.813760
  N      0.428840    0.321400   -1.655310
  C      0.968050    1.630640   -3.715750
  H      0.748580   -0.400540   -1.001340
  H     -0.461050    0.023330   -2.077730
  H      0.310260    1.201370   -1.134950
  H      1.294850   -0.468740   -3.364680
  H      2.376220    0.597400   -2.431490
  H      1.659230    1.702130   -4.529420
  H      0.984210    2.540580   -3.153040
  H     -0.017440    1.465360   -4.098380

 Total Charge           Charge          ....    1
 Multiplicity           Mult            ....    1
 Number of Electrons    NEL             ....   26
 Basis Dimension        Dim             ....  124

ORBITAL ENERGIES
----------------

  NO   OCC          E(Eh)            E(eV)
   0   2.0000     -14.666257      -399.0891
   1   2.0000     -10.439043      -284.0608
   2   2.0000     -10.361380      -281.9475
   3   2.0000      -1.207375       -32.8543
   4   2.0000      -0.959997       -26.1229
   5   2.0000      -0.840161       -22.8619
   6   2.0000      -0.806117       -21.9356
   7   2.0000      -0.789489       -21.4831
   8   2.0000      -0.695355       -18.9216
   9   2.0000      -0.645827       -17.5738
  10   2.0000      -0.586369       -15.9559
  11   2.0000      -0.569971       -15.5097
  12   2.0000      -0.555149       -15.1064
  13   0.0000      -0.197609        -5.3772
  14   0.0000      -0.138052        -3.7566
  15   0.0000      -0.134026        -3.6470
  16   0.0000      -0.124227        -3.3804
  17   0.0000      -0.093217        -2.5366

MULLIKEN ATOMIC CHARGES
-----------------------
   0 C :    0.377801
   1 N :   -0.698748
   2 C :    0.833690
   3 H :    0.305047
   4 H :    0.405660
   5 H :    0.365433
   6 H :   -0.146307
   7 H :   -0.201859
   8 H :   -0.088001
   9 H :   -0.084473
  10 H :   -0.068244
Sum of atomic charges:    1.0000000

LOEWDIN ATOMIC CHARGES
----------------------
   0 C :    0.056458
   1 N :    0.335739
   2 C :    0.182082
   3 H :    0.104613
   4 H :    0.104347
   5 H :    0.107489
   6 H :    0.050482
   7 H :    0.049592
   8 H :    0.013968
   9 H :   -0.002398
  10 H :   -0.002371

  Mayer bond orders larger than 0.100000
B(  0-C ,  1-N ) :   0.7908 B(  0-C ,  2-C ) :   1.3105 B(  0-C ,  6-H ) :   0.8690
B(  0-C ,  7-H ) :   0.9172 B(  0-C ,  8-H ) :   0.2147 B(  0-C ,  9-H ) :   0.1665
B(  0-C , 10-H ) :   0.1718 B(  1-N ,  3-H ) :   0.8197 B(  1-N ,  4-H ) :   0.7101
B(  1-N ,  5-H ) :   0.7593 B(  1-N ,  6-H ) :   0.1366 B(  2-C ,  8-H ) :   0.7681
B(  2-C ,  9-H ) :   0.8051 B(  2-C , 10-H ) :   0.7954

Dispersion correction           -0.010052209
FINAL SINGLE POINT ENERGY      -135.360071831921

DIPOLE MOMENT
-------------
                                X             Y             Z
Electronic contribution:     -0.34309      -0.94573       1.56625
Nuclear contribution   :     -0.20470       0.31427      -0.31587
                        -----------------------------------------
Total Dipole Moment    :     -0.54779      -0.63146       1.25038
                        -----------------------------------------
Magnitude (a.u.)       :      1.50409
Magnitude (Debye)      :      3.82309

Rotational constants in cm-1:     1.011480     0.279280     0.248378
Rotational constants in MHz : 30323.408050  8372.602834  7446.185305

                             ****ORCA TERMINATED NORMALLY****
TOTAL RUN TIME: 0 days 0 hours 0 minutes 13 seconds 145 msec
