                         Program Version 5.0.0 -  RELEASE  -
|  1> !B3LYP D3BJ RIJCOSX def2-SVPD def2/J TightSCF xyzfile
|  2>
|  3> *xyzfile 0 1 B.xyz
|  4>
|  5> %MaxCore 64000
|  6>
|  7> %pal nprocs 4
|  8> end
|  9>
| 10> %scf
| 11>   MaxIter 150
| 12> end
| 13>
| 14>
| 15>                          ****END OF INPUT****

CARTESIAN COORDINATES (ANGSTROEM)
---------------------------------
  C      1.364014    0.468742   -2.813764
  N      0.428844    0.321402   -1.655312
  C      0.968045    1.630639   -3.715749
  C     -0.508347    1.722679   -4.124300
  S     -1.328608    0.146737   -4.435781
  H     -0.591511    2.294958   -5.047219
  H     -1.114114    2.235610   -3.374362
  H      0.748578   -0.400542   -1.001345
  H     -0.461053    0.023332   -2.077731
  H      0.310258    1.201375   -1.134948
  O     -2.571347    0.475733   -5.068341
  O     -1.514963   -0.400512   -3.063420
  H      1.294847   -0.468742   -3.364684
  H      2.376216    0.597400   -2.431495
  H      1.578688    1.520652   -4.612733
  H      1.266653    2.575988   -3.250448
  O     -0.377928   -0.627558   -5.201141

 Total Charge           Charge          ....    0
 Multiplicity           Mult            ....    1
 Number of Electrons    NEL             ....   74
 Basis Dimension        Dim             ....  248

ORBITAL ENERGIES
----------------

  NO   OCC          E(Eh)            E(eV)
   0   2.0000     -89.049180     -2423.1514
   1   2.0000     -19.095225      -519.6075
   2   2.0000     -19.079975      -519.1925
   3   2.0000     -19.077821      -519.1339
   4   2.0000     -14.464906      -393.6101
   5   2.0000     -10.276883      -279.6482
   6   2.0000     -10.228607      -278.3345
   7   2.0000     -10.206879      -277.7433
   8   2.0000      -8.102515      -220.4806
   9   2.0000      -6.072055      -165.2290
  10   2.0000      -6.070978      -165.1997
  11   2.0000      -6.070609      -165.1897
  12   2.0000      -1.101404       -29.9707
  13   2.0000      -1.024314       -27.8730
  14   2.0000      -0.955104       -25.9897
  15   2.0000      -0.952774       -25.9263
  16   2.0000      -0.821874       -22.3643
  17   2.0000      -0.736566       -20.0430
  18   2.0000      -0.653873       -17.7928
  19   2.0000      -0.627161       -17.0659
  20   2.0000      -0.614988       -16.7347
  21   2.0000      -0.547333       -14.8937
  22   2.0000      -0.526944       -14.3389
  23   2.0000      -0.491524       -13.3750
  24   2.0000      -0.474901       -12.9227
  25   2.0000      -0.465453       -12.6656
  26   2.0000      -0.433979       -11.8092
  27   2.0000      -0.425154       -11.5690
  28   2.0000      -0.406951       -11.0737
  29   2.0000      -0.396917       -10.8007
  30   2.0000      -0.380840       -10.3632
  31   2.0000      -0.325023        -8.8443
  32   2.0000      -0.316326        -8.6077
  33   2.0000      -0.288419        -7.8483
  34   2.0000      -0.276896        -7.5347
  35   2.0000      -0.268963        -7.3188
  36   2.0000      -0.238291        -6.4842
  37   0.0000      -0.045259        -1.2316
  38   0.0000       0.000534         0.0145
  39   0.0000       0.006188         0.1684
  40   0.0000       0.030856         0.8396
  41   0.0000       0.044308         1.2057

MULLIKEN ATOMIC CHARGES
-----------------------
   0 C :    0.780647
   1 N :   -0.179239
   2 C :    0.400495
   3 C :    0.365139
   4 S :    1.408493
   5 H :   -0.327341
   6 H :    0.033558
   7 H :    0.240194
   8 H :   -0.086239
   9 H :    0.363814
  10 O :   -0.777245
  11 O :   -0.890506
  12 H :    0.015674
  13 H :   -0.396749
  14 H :   -0.001437
  15 H :   -0.177522
  16 O :   -0.771736
Sum of atomic charges:    0.0000000

LOEWDIN ATOMIC CHARGES
----------------------
   0 C :    0.098014
   1 N :    0.330068
   2 C :   -0.009420
   3 C :   -0.054196
   4 S :    0.948170
   5 H :    0.015956
   6 H :    0.011342
   7 H :    0.092721
   8 H :   -0.116172
   9 H :    0.094828
  10 O :   -0.501396
  11 O :   -0.512309
  12 H :    0.033481
  13 H :    0.031603
  14 H :    0.037649
  15 H :    0.021976
  16 O :   -0.522315

  Mayer bond orders larger than 0.100000
B(  0-C ,  1-N ) :   0.8766 B(  0-C ,  2-C ) :   1.1962 B(  0-C , 12-H ) :   0.7642
B(  0-C , 13-H ) :   0.7958 B(  0-C , 14-H ) :   0.1768 B(  0-C , 15-H ) :   0.1548
B(  1-N ,  7-H ) :   0.8212 B(  1-N ,  8-H ) :   1.2482 B(  1-N ,  9-H ) :   0.7767
B(  1-N , 12-H ) :   0.1457 B(  1-N , 13-H ) :   0.1184 B(  2-C ,  3-C ) :   1.2349
B(  2-C ,  5-H ) :   0.1811 B(  2-C ,  6-H ) :   0.1320 B(  2-C , 12-H ) :   0.1325
B(  2-C , 14-H ) :   0.7580 B(  2-C , 15-H ) :   0.7361 B(  3-C ,  4-S ) :   0.8855
B(  3-C ,  5-H ) :   0.8106 B(  3-C ,  6-H ) :   0.8602 B(  3-C , 11-O ) :   0.1444
B(  3-C , 14-H ) :   0.1437 B(  3-C , 15-H ) :   0.1097 B(  4-S ,  5-H ) :   0.1064
B(  4-S , 10-O ) :   1.4415 B(  4-S , 11-O ) :   1.0570 B(  4-S , 16-O ) :   1.3165
B(  8-H , 11-O ) :   0.2659 B( 12-H , 13-H ) :  -0.1003

Dispersion correction           -0.030765305
FINAL SINGLE POINT ENERGY      -797.660956328177

DIPOLE MOMENT
-------------
                                X             Y             Z
Electronic contribution:     -6.88241      -4.11081      -4.27768
Nuclear contribution   :      9.95459       5.57517       7.68169
                        -----------------------------------------
Total Dipole Moment    :      3.07218       1.46437       3.40401
                        -----------------------------------------
Magnitude (a.u.)       :      4.81352
Magnitude (Debye)      :     12.23499

Rotational constants in cm-1:     0.102119     0.045768     0.041299
Rotational constants in MHz :  3061.441288  1372.093000  1238.124534

                             ****ORCA TERMINATED NORMALLY****
TOTAL RUN TIME: 0 days 0 hours 0 minutes 42 seconds 150 msec
