                         Program Version 5.0.0 -  RELEASE  -
|  1> !B3LYP D3BJ RIJCOSX def2-SVPD def2/J TightSCF
|  2> *xyz 0 1
|  3> C          0.96805        1.63064       -3.71575
|  4> C         -0.50835        1.72268       -4.12430
|  5> S         -1.32861        0.14674       -4.43578
|  6> H         -0.59151        2.29496       -5.04722
|  7> H         -1.11411        2.23561       -3.37436
|  8> F         -2.57135        0.47573       -5.06834
|  9> O         -1.51496       -0.40051       -3.06342
| 10> O         -0.37793       -0.62756       -5.20114
| 11> H          1.51840        1.12197       -4.47946
| 12> H          1.05062        1.08971       -2.79625
| 13> H          1.36450        2.61606       -3.58668
| 14> *
| 15> %MaxCore 64000
| 16>
| 17> %pal nprocs 4
| 18> end
| 19>
| 20> %scf
| 21>   MaxIter 150
| 22> end
| 23>
| 24>
| 25>                          ****END OF INPUT****

CARTESIAN COORDINATES (ANGSTROEM)
---------------------------------
  C      0.968050    1.630640   -3.715750
  C     -0.508350    1.722680   -4.124300
  S     -1.328610    0.146740   -4.435780
  H     -0.591510    2.294960   -5.047220
  H     -1.114110    2.235610   -3.374360
  F     -2.571350    0.475730   -5.068340
  O     -1.514960   -0.400510   -3.063420
  O     -0.377930   -0.627560   -5.201140
  H      1.518400    1.121970   -4.479460
  H      1.050620    1.089710   -2.796250
  H      1.364500    2.616060   -3.586680

 Total Charge           Charge          ....    0
 Multiplicity           Mult            ....    1
 Number of Electrons    NEL             ....   58
 Basis Dimension        Dim             ....  176

ORBITAL ENERGIES
----------------

  NO   OCC          E(Eh)            E(eV)
   0   2.0000     -89.140524     -2425.6370
   1   2.0000     -24.822732      -675.4609
   2   2.0000     -19.155192      -521.2393
   3   2.0000     -19.139395      -520.8094
   4   2.0000     -10.246332      -278.8169
   5   2.0000     -10.204078      -277.6671
   6   2.0000      -8.195281      -223.0049
   7   2.0000      -6.168302      -167.8480
   8   2.0000      -6.161840      -167.6722
   9   2.0000      -6.160441      -167.6341
  10   2.0000      -1.387924       -37.7673
  11   2.0000      -1.107799       -30.1447
  12   2.0000      -1.001772       -27.2596
  13   2.0000      -0.816177       -22.2093
  14   2.0000      -0.742506       -20.2046
  15   2.0000      -0.678651       -18.4670
  16   2.0000      -0.598186       -16.2775
  17   2.0000      -0.595318       -16.1994
  18   2.0000      -0.558652       -15.2017
  19   2.0000      -0.494764       -13.4632
  20   2.0000      -0.486859       -13.2481
  21   2.0000      -0.447200       -12.1689
  22   2.0000      -0.434087       -11.8121
  23   2.0000      -0.410940       -11.1822
  24   2.0000      -0.391374       -10.6498
  25   2.0000      -0.386676       -10.5220
  26   2.0000      -0.337604        -9.1867
  27   2.0000      -0.321275        -8.7423
  28   2.0000      -0.307363        -8.3638
  29   0.0000      -0.008213        -0.2235
  30   0.0000       0.017354         0.4722
  31   0.0000       0.032772         0.8918
  32   0.0000       0.039280         1.0689
  33   0.0000       0.047870         1.3026

MULLIKEN ATOMIC CHARGES
-----------------------
   0 C :    0.973118
   1 C :   -0.207889
   2 S :    1.527315
   3 H :   -0.084413
   4 H :   -0.084310
   5 F :   -0.404235
   6 O :   -0.698153
   7 O :   -0.656991
   8 H :   -0.102486
   9 H :   -0.115057
  10 H :   -0.146897
Sum of atomic charges:    0.0000000

LOEWDIN ATOMIC CHARGES
----------------------
   0 C :    0.157724
   1 C :   -0.091857
   2 S :    1.125829
   3 H :    0.010687
   4 H :    0.019078
   5 F :   -0.251838
   6 O :   -0.487086
   7 O :   -0.462650
   8 H :   -0.009941
   9 H :   -0.002832
  10 H :   -0.007114

  Mayer bond orders larger than 0.100000
B(  0-C ,  1-C ) :   1.3347 B(  0-C ,  3-H ) :   0.1122 B(  0-C ,  8-H ) :   0.7787
B(  0-C ,  9-H ) :   0.7775 B(  0-C , 10-H ) :   0.6966 B(  1-C ,  2-S ) :   0.9483
B(  1-C ,  3-H ) :   0.9409 B(  1-C ,  4-H ) :   0.9458 B(  1-C ,  8-H ) :   0.2140
B(  1-C ,  9-H ) :   0.2062 B(  1-C , 10-H ) :   0.2360 B(  2-S ,  5-F ) :   0.6963
B(  2-S ,  6-O ) :   1.4642 B(  2-S ,  7-O ) :   1.5059

Dispersion correction           -0.015951969
FINAL SINGLE POINT ENERGY      -727.066839338203

DIPOLE MOMENT
-------------
                                X             Y             Z
Electronic contribution:     -8.29069      -5.10150      -3.22799
Nuclear contribution   :      8.31000       6.74109       2.87442
                        -----------------------------------------
Total Dipole Moment    :      0.01932       1.63958      -0.35357
                        -----------------------------------------
Magnitude (a.u.)       :      1.67739
Magnitude (Debye)      :      4.26357

Rotational constants in cm-1:     0.158705     0.080192     0.078179
Rotational constants in MHz :  4757.865601  2404.095079  2343.752507

                             ****ORCA TERMINATED NORMALLY****
TOTAL RUN TIME: 0 days 0 hours 0 minutes 22 seconds 603 msec
