                         Program Version 5.0.0 -  RELEASE  -
|  1> !B3LYP D3BJ RIJCOSX def2-SVPD def2/J TightSCF
|  2> *xyz 0 1
|  3> C          1.36401        0.46874       -2.81376
|  4> C          0.42884        0.32140       -1.65531
|  5> C          0.96805        1.63064       -3.71575
|  6> H          0.74858       -0.40054       -1.00134
|  7> H         -0.46105        0.02333       -2.07773
|  8> H          0.31026        1.20137       -1.13495
|  9> H          1.29485       -0.46874       -3.36468
| 10> H          2.37622        0.59740       -2.43149
| 11> H          1.65923        1.70213       -4.52942
| 12> H          0.98421        2.54058       -3.15304
| 13> H         -0.01744        1.46536       -4.09838
| 14> *
| 15> %MaxCore 64000
| 16>
| 17> %pal nprocs 4
| 18> end
| 19>
| 20> %scf
| 21>   MaxIter 150
| 22> end
| 23>
| 24>
| 25>                          ****END OF INPUT****

CARTESIAN COORDINATES (ANGSTROEM)
---------------------------------
  C      1.364010    0.468740   -2.813760
  C      0.428840    0.321400   -1.655310
  C      0.968050    1.630640   -3.715750
  H      0.748580   -0.400540   -1.001340
  H     -0.461050    0.023330   -2.077730
  H      0.310260    1.201370   -1.134950
  H      1.294850   -0.468740   -3.364680
  H      2.376220    0.597400   -2.431490
  H      1.659230    1.702130   -4.529420
  H      0.984210    2.540580   -3.153040
  H     -0.017440    1.465360   -4.098380

 Total Charge           Charge          ....    0
 Multiplicity           Mult            ....    1
 Number of Electrons    NEL             ....   26
 Basis Dimension        Dim             ....  124

ORBITAL ENERGIES
----------------

  NO   OCC          E(Eh)            E(eV)
   0   2.0000     -10.170086      -276.7421
   1   2.0000     -10.162538      -276.5367
   2   2.0000     -10.146275      -276.0942
   3   2.0000      -0.784191       -21.3389
   4   2.0000      -0.683214       -18.5912
   5   2.0000      -0.578454       -15.7405
   6   2.0000      -0.470511       -12.8032
   7   2.0000      -0.444436       -12.0937
   8   2.0000      -0.402632       -10.9562
   9   2.0000      -0.391049       -10.6410
  10   2.0000      -0.338207        -9.2031
  11   2.0000      -0.333629        -9.0785
  12   2.0000      -0.329774        -8.9736
  13   0.0000       0.025276         0.6878
  14   0.0000       0.054164         1.4739
  15   0.0000       0.061180         1.6648
  16   0.0000       0.081559         2.2193
  17   0.0000       0.100534         2.7357

MULLIKEN ATOMIC CHARGES
-----------------------
   0 C :   -0.435569
   1 C :    1.172203
   2 C :    0.851419
   3 H :   -0.312887
   4 H :   -0.205374
   5 H :   -0.275354
   6 H :   -0.148204
   7 H :   -0.233605
   8 H :   -0.182768
   9 H :   -0.109942
  10 H :   -0.119920
Sum of atomic charges:   -0.0000000

LOEWDIN ATOMIC CHARGES
----------------------
   0 C :   -0.113946
   1 C :    0.124565
   2 C :    0.124569
   3 H :   -0.037455
   4 H :   -0.033240
   5 H :   -0.032714
   6 H :    0.017893
   7 H :    0.015374
   8 H :   -0.024925
   9 H :   -0.020422
  10 H :   -0.019699

  Mayer bond orders larger than 0.100000
B(  0-C ,  1-C ) :   1.2681 B(  0-C ,  2-C ) :   1.2677 B(  0-C ,  3-H ) :   0.2288
B(  0-C ,  4-H ) :   0.3033 B(  0-C ,  5-H ) :   0.2176 B(  0-C ,  6-H ) :   0.8811
B(  0-C ,  7-H ) :   0.9315 B(  0-C ,  8-H ) :   0.2056 B(  0-C ,  9-H ) :   0.1861
B(  0-C , 10-H ) :   0.2114 B(  1-C ,  3-H ) :   0.6544 B(  1-C ,  4-H ) :   0.6508
B(  1-C ,  5-H ) :   0.6826 B(  1-C ,  6-H ) :   0.1305 B(  2-C ,  8-H ) :   0.7836
B(  2-C ,  9-H ) :   0.7950 B(  2-C , 10-H ) :   0.7868

Dispersion correction           -0.010129921
FINAL SINGLE POINT ENERGY      -118.964248581694

DIPOLE MOMENT
-------------
                                X             Y             Z
Electronic contribution:      0.36771      -0.18459      -0.01699
Nuclear contribution   :     -0.35842       0.15752       0.02695
                        -----------------------------------------
Total Dipole Moment    :      0.00929      -0.02706       0.00996
                        -----------------------------------------
Magnitude (a.u.)       :      0.03030
Magnitude (Debye)      :      0.07701

Rotational constants in cm-1:     1.019891     0.293671     0.260247
Rotational constants in MHz : 30575.551403  8804.039097  7802.009261

                             ****ORCA TERMINATED NORMALLY****
TOTAL RUN TIME: 0 days 0 hours 0 minutes 13 seconds 513 msec
