                         Program Version 5.0.0 -  RELEASE  -
|  1> !B3LYP D3BJ RIJCOSX def2-SVPD def2/J TightSCF
|  2> *xyz 0 1
|  3> C          0.96805        1.63064       -3.71575
|  4> C         -0.50835        1.72268       -4.12430
|  5> S         -1.32861        0.14674       -4.43578
|  6> H         -0.59151        2.29496       -5.04722
|  7> H         -1.11411        2.23561       -3.37436
|  8> O         -2.57135        0.47573       -5.06834
|  9> F         -1.51496       -0.40051       -3.06342
| 10> O         -0.37793       -0.62756       -5.20114
| 11> H          1.51840        1.12197       -4.47946
| 12> H          1.05062        1.08971       -2.79625
| 13> H          1.36450        2.61606       -3.58668
| 14> *
| 15> %MaxCore 64000
| 16>
| 17> %pal nprocs 4
| 18> end
| 19>
| 20> %scf
| 21>   MaxIter 150
| 22> end
| 23>
| 24>
| 25>                          ****END OF INPUT****

CARTESIAN COORDINATES (ANGSTROEM)
---------------------------------
  C      0.968050    1.630640   -3.715750
  C     -0.508350    1.722680   -4.124300
  S     -1.328610    0.146740   -4.435780
  H     -0.591510    2.294960   -5.047220
  H     -1.114110    2.235610   -3.374360
  O     -2.571350    0.475730   -5.068340
  F     -1.514960   -0.400510   -3.063420
  O     -0.377930   -0.627560   -5.201140
  H      1.518400    1.121970   -4.479460
  H      1.050620    1.089710   -2.796250
  H      1.364500    2.616060   -3.586680

 Total Charge           Charge          ....    0
 Multiplicity           Mult            ....    1
 Number of Electrons    NEL             ....   58
 Basis Dimension        Dim             ....  176

ORBITAL ENERGIES
----------------

  NO   OCC          E(Eh)            E(eV)
   0   2.0000     -89.137845     -2425.5641
   1   2.0000     -24.794440      -674.6910
   2   2.0000     -19.158296      -521.3237
   3   2.0000     -19.154840      -521.2297
   4   2.0000     -10.245233      -278.7870
   5   2.0000     -10.205548      -277.7071
   6   2.0000      -8.192498      -222.9292
   7   2.0000      -6.165277      -167.7657
   8   2.0000      -6.159397      -167.6057
   9   2.0000      -6.157871      -167.5642
  10   2.0000      -1.340231       -36.4695
  11   2.0000      -1.122839       -30.5540
  12   2.0000      -1.028631       -27.9905
  13   2.0000      -0.817475       -22.2446
  14   2.0000      -0.722000       -19.6466
  15   2.0000      -0.671260       -18.2659
  16   2.0000      -0.580600       -15.7989
  17   2.0000      -0.564699       -15.3662
  18   2.0000      -0.550518       -14.9804
  19   2.0000      -0.496474       -13.5097
  20   2.0000      -0.481526       -13.1030
  21   2.0000      -0.462406       -12.5827
  22   2.0000      -0.438693       -11.9375
  23   2.0000      -0.409436       -11.1413
  24   2.0000      -0.406323       -11.0566
  25   2.0000      -0.386554       -10.5187
  26   2.0000      -0.347145        -9.4463
  27   2.0000      -0.335975        -9.1423
  28   2.0000      -0.326865        -8.8945
  29   0.0000      -0.008601        -0.2340
  30   0.0000       0.023746         0.6462
  31   0.0000       0.034133         0.9288
  32   0.0000       0.038036         1.0350
  33   0.0000       0.047410         1.2901

MULLIKEN ATOMIC CHARGES
-----------------------
   0 C :    1.004180
   1 C :   -0.198250
   2 S :    1.506805
   3 H :   -0.086065
   4 H :   -0.097062
   5 O :   -0.645111
   6 F :   -0.429927
   7 O :   -0.672176
   8 H :   -0.098593
   9 H :   -0.135091
  10 H :   -0.148710
Sum of atomic charges:   -0.0000000

LOEWDIN ATOMIC CHARGES
----------------------
   0 C :    0.144255
   1 C :   -0.081558
   2 S :    1.120264
   3 H :    0.025884
   4 H :    0.018011
   5 O :   -0.456831
   6 F :   -0.277686
   7 O :   -0.460787
   8 H :   -0.011394
   9 H :   -0.010619
  10 H :   -0.009540

  Mayer bond orders larger than 0.100000
B(  0-C ,  1-C ) :   1.2995 B(  0-C ,  8-H ) :   0.7854 B(  0-C ,  9-H ) :   0.7674
B(  0-C , 10-H ) :   0.6892 B(  1-C ,  2-S ) :   0.9706 B(  1-C ,  3-H ) :   0.9607
B(  1-C ,  4-H ) :   0.9492 B(  1-C ,  8-H ) :   0.2164 B(  1-C ,  9-H ) :   0.2065
B(  1-C , 10-H ) :   0.2355 B(  2-S ,  5-O ) :   1.5519 B(  2-S ,  6-F ) :   0.6197
B(  2-S ,  7-O ) :   1.5127 B(  5-O ,  7-O ) :   0.1039

Dispersion correction           -0.015883597
FINAL SINGLE POINT ENERGY      -727.091389598924

DIPOLE MOMENT
-------------
                                X             Y             Z
Electronic contribution:     -6.51566      -6.58779       0.17825
Nuclear contribution   :      7.20921       7.65416       0.78523
                        -----------------------------------------
Total Dipole Moment    :      0.69355       1.06637       0.96348
                        -----------------------------------------
Magnitude (a.u.)       :      1.59576
Magnitude (Debye)      :      4.05610

Rotational constants in cm-1:     0.153780     0.081282     0.079816
Rotational constants in MHz :  4610.199589  2436.778679  2392.820729

                             ****ORCA TERMINATED NORMALLY****
TOTAL RUN TIME: 0 days 0 hours 0 minutes 20 seconds 712 msec
