                         Program Version 5.0.0 -  RELEASE  -
|  1> !B3LYP D3BJ RIJCOSX def2-SVPD def2/J TightSCF
|  2> *xyz 0 1
|  3> C          0.96805        1.63064       -3.71575
|  4> C         -0.50835        1.72268       -4.12430
|  5> S         -1.32861        0.14674       -4.43578
|  6> H         -0.59151        2.29496       -5.04722
|  7> H         -1.11411        2.23561       -3.37436
|  8> O         -2.57135        0.47573       -5.06834
|  9> O         -1.51496       -0.40051       -3.06342
| 10> F         -0.37793       -0.62756       -5.20114
| 11> H          1.51840        1.12197       -4.47946
| 12> H          1.05062        1.08971       -2.79625
| 13> H          1.36450        2.61606       -3.58668
| 14> *
| 15> %MaxCore 64000
| 16>
| 17> %pal nprocs 4
| 18> end
| 19>
| 20> %scf
| 21>   MaxIter 150
| 22> end
| 23>
| 24>
| 25>                          ****END OF INPUT****

CARTESIAN COORDINATES (ANGSTROEM)
---------------------------------
  C      0.968050    1.630640   -3.715750
  C     -0.508350    1.722680   -4.124300
  S     -1.328610    0.146740   -4.435780
  H     -0.591510    2.294960   -5.047220
  H     -1.114110    2.235610   -3.374360
  O     -2.571350    0.475730   -5.068340
  O     -1.514960   -0.400510   -3.063420
  F     -0.377930   -0.627560   -5.201140
  H      1.518400    1.121970   -4.479460
  H      1.050620    1.089710   -2.796250
  H      1.364500    2.616060   -3.586680

 Total Charge           Charge          ....    0
 Multiplicity           Mult            ....    1
 Number of Electrons    NEL             ....   58
 Basis Dimension        Dim             ....  176

ORBITAL ENERGIES
----------------

  NO   OCC          E(Eh)            E(eV)
   0   2.0000     -89.139839     -2425.6183
   1   2.0000     -24.816910      -675.3025
   2   2.0000     -19.158838      -521.3385
   3   2.0000     -19.139453      -520.8110
   4   2.0000     -10.246150      -278.8119
   5   2.0000     -10.209185      -277.8061
   6   2.0000      -8.194590      -222.9861
   7   2.0000      -6.167665      -167.8307
   8   2.0000      -6.161189      -167.6545
   9   2.0000      -6.159734      -167.6149
  10   2.0000      -1.377338       -37.4793
  11   2.0000      -1.113782       -30.3075
  12   2.0000      -1.004728       -27.3400
  13   2.0000      -0.819890       -22.3103
  14   2.0000      -0.735669       -20.0186
  15   2.0000      -0.680450       -18.5160
  16   2.0000      -0.601719       -16.3736
  17   2.0000      -0.590320       -16.0634
  18   2.0000      -0.549979       -14.9657
  19   2.0000      -0.496504       -13.5105
  20   2.0000      -0.481780       -13.1099
  21   2.0000      -0.456172       -12.4131
  22   2.0000      -0.442361       -12.0373
  23   2.0000      -0.414676       -11.2839
  24   2.0000      -0.400201       -10.8900
  25   2.0000      -0.386130       -10.5071
  26   2.0000      -0.340580        -9.2676
  27   2.0000      -0.321842        -8.7578
  28   2.0000      -0.310167        -8.4401
  29   0.0000      -0.012478        -0.3395
  30   0.0000       0.023146         0.6298
  31   0.0000       0.034353         0.9348
  32   0.0000       0.037936         1.0323
  33   0.0000       0.046117         1.2549

MULLIKEN ATOMIC CHARGES
-----------------------
   0 C :    0.986917
   1 C :   -0.176304
   2 S :    1.494134
   3 H :   -0.093853
   4 H :   -0.090831
   5 O :   -0.632010
   6 O :   -0.699505
   7 F :   -0.409045
   8 H :   -0.119949
   9 H :   -0.111160
  10 H :   -0.148393
Sum of atomic charges:    0.0000000

LOEWDIN ATOMIC CHARGES
----------------------
   0 C :    0.142615
   1 C :   -0.079780
   2 S :    1.121900
   3 H :    0.014316
   4 H :    0.032209
   5 O :   -0.455932
   6 O :   -0.485945
   7 F :   -0.257366
   8 H :   -0.016438
   9 H :   -0.006705
  10 H :   -0.008873

  Mayer bond orders larger than 0.100000
B(  0-C ,  1-C ) :   1.2885 B(  0-C ,  3-H ) :   0.1033 B(  0-C ,  8-H ) :   0.7761
B(  0-C ,  9-H ) :   0.7872 B(  0-C , 10-H ) :   0.6917 B(  1-C ,  2-S ) :   0.9729
B(  1-C ,  3-H ) :   0.9653 B(  1-C ,  4-H ) :   0.9531 B(  1-C ,  8-H ) :   0.2048
B(  1-C ,  9-H ) :   0.2049 B(  1-C , 10-H ) :   0.2387 B(  2-S ,  5-O ) :   1.5555
B(  2-S ,  6-O ) :   1.4777 B(  2-S ,  7-F ) :   0.6721

Dispersion correction           -0.015852589
FINAL SINGLE POINT ENERGY      -727.071668088002

DIPOLE MOMENT
-------------
                                X             Y             Z
Electronic contribution:     -4.59389      -6.94377      -3.43823
Nuclear contribution   :      6.02439       7.89075       3.01280
                        -----------------------------------------
Total Dipole Moment    :      1.43050       0.94698      -0.42543
                        -----------------------------------------
Magnitude (a.u.)       :      1.76751
Magnitude (Debye)      :      4.49266

Rotational constants in cm-1:     0.153652     0.082400     0.079295
Rotational constants in MHz :  4606.361242  2470.285703  2377.214112

                             ****ORCA TERMINATED NORMALLY****
TOTAL RUN TIME: 0 days 0 hours 0 minutes 20 seconds 916 msec
