                         Program Version 5.0.0 -  RELEASE  -
|  1> !B3LYP D3BJ RIJCOSX def2-SVPD def2/J TightSCF xyzfile
|  2>
|  3> *xyzfile 0 1 D2.xyz
|  4>
|  5> %MaxCore 64000
|  6>
|  7> %pal nprocs 4
|  8> end
|  9>
| 10> %scf
| 11>   MaxIter 150
| 12> end
| 13>
| 14>
| 15>                          ****END OF INPUT****

CARTESIAN COORDINATES (ANGSTROEM)
---------------------------------
  C      1.364014    0.468742   -2.813764
  C      0.428844    0.321402   -1.655312
  C      0.968045    1.630639   -3.715749
  C     -0.508347    1.722679   -4.124300
  S     -1.328608    0.146737   -4.435781
  H     -0.591511    2.294958   -5.047219
  H     -1.114114    2.235610   -3.374362
  H      0.748578   -0.400542   -1.001345
  H     -0.461053    0.023332   -2.077731
  H      0.310258    1.201375   -1.134948
  O     -2.571347    0.475733   -5.068341
  F     -1.514963   -0.400512   -3.063420
  H      1.294847   -0.468742   -3.364684
  H      2.376216    0.597400   -2.431495
  H      1.578688    1.520652   -4.612733
  H      1.266653    2.575988   -3.250448
  O     -0.377928   -0.627558   -5.201141

 Total Charge           Charge          ....    0
 Multiplicity           Mult            ....    1
 Number of Electrons    NEL             ....   74
 Basis Dimension        Dim             ....  248

ORBITAL ENERGIES
----------------

  NO   OCC          E(Eh)            E(eV)
   0   2.0000     -89.141916     -2425.6748
   1   2.0000     -24.800687      -674.8610
   2   2.0000     -19.160984      -521.3969
   3   2.0000     -19.157546      -521.3033
   4   2.0000     -10.243929      -278.7515
   5   2.0000     -10.207380      -277.7569
   6   2.0000     -10.183790      -277.1150
   7   2.0000     -10.143959      -276.0311
   8   2.0000      -8.196169      -223.0291
   9   2.0000      -6.169150      -167.8711
  10   2.0000      -6.162986      -167.7034
  11   2.0000      -6.161435      -167.6612
  12   2.0000      -1.353688       -36.8357
  13   2.0000      -1.126902       -30.6646
  14   2.0000      -1.031548       -28.0698
  15   2.0000      -0.834131       -22.6979
  16   2.0000      -0.777384       -21.1537
  17   2.0000      -0.716378       -19.4936
  18   2.0000      -0.693688       -18.8762
  19   2.0000      -0.601546       -16.3689
  20   2.0000      -0.589386       -16.0380
  21   2.0000      -0.573579       -15.6079
  22   2.0000      -0.551108       -14.9964
  23   2.0000      -0.501599       -13.6492
  24   2.0000      -0.484706       -13.1895
  25   2.0000      -0.479833       -13.0569
  26   2.0000      -0.465127       -12.6567
  27   2.0000      -0.433578       -11.7983
  28   2.0000      -0.416769       -11.3409
  29   2.0000      -0.406415       -11.0591
  30   2.0000      -0.398243       -10.8367
  31   2.0000      -0.359003        -9.7690
  32   2.0000      -0.353831        -9.6282
  33   2.0000      -0.343850        -9.3566
  34   2.0000      -0.336995        -9.1701
  35   2.0000      -0.330753        -9.0002
  36   2.0000      -0.320918        -8.7326
  37   0.0000      -0.003343        -0.0910
  38   0.0000       0.017928         0.4879
  39   0.0000       0.028671         0.7802
  40   0.0000       0.031045         0.8448
  41   0.0000       0.041820         1.1380

MULLIKEN ATOMIC CHARGES
-----------------------
   0 C :   -0.197886
   1 C :    2.452129
   2 C :    0.485286
   3 C :    0.282104
   4 S :    1.506094
   5 H :   -0.327903
   6 H :    0.143635
   7 H :   -0.187856
   8 H :   -1.403654
   9 H :   -0.191527
  10 O :   -0.696394
  11 F :   -0.625769
  12 H :    0.013245
  13 H :   -0.415317
  14 H :   -0.053581
  15 H :   -0.092851
  16 O :   -0.689755
Sum of atomic charges:    0.0000000

LOEWDIN ATOMIC CHARGES
----------------------
   0 C :   -0.043664
   1 C :    0.156299
   2 C :   -0.020674
   3 C :   -0.022976
   4 S :    1.139861
   5 H :    0.026095
   6 H :    0.024142
   7 H :   -0.022314
   8 H :   -0.135534
   9 H :   -0.019398
  10 O :   -0.447026
  11 F :   -0.278632
  12 H :    0.012099
  13 H :    0.023316
  14 H :    0.025377
  15 H :    0.030930
  16 O :   -0.447901

  Mayer bond orders larger than 0.100000
B(  0-C ,  1-C ) :   0.9258 B(  0-C ,  2-C ) :   1.2032 B(  0-C ,  7-H ) :   0.2838
B(  0-C ,  8-H ) :   0.5934 B(  0-C ,  9-H ) :   0.3158 B(  0-C , 12-H ) :   0.8061
B(  0-C , 13-H ) :   0.8880 B(  0-C , 14-H ) :   0.1622 B(  0-C , 15-H ) :   0.1893
B(  1-C ,  7-H ) :   0.3287 B(  1-C ,  8-H ) :  -1.3578 B(  1-C , 11-F ) :  -0.2536
B(  1-C , 12-H ) :   0.1518 B(  2-C ,  3-C ) :   1.2350 B(  2-C ,  5-H ) :   0.1967
B(  2-C ,  6-H ) :   0.1216 B(  2-C , 12-H ) :   0.1545 B(  2-C , 14-H ) :   0.7894
B(  2-C , 15-H ) :   0.7129 B(  3-C ,  4-S ) :   0.9663 B(  3-C ,  5-H ) :   0.8222
B(  3-C ,  6-H ) :   0.8512 B(  3-C ,  8-H ) :   0.1218 B(  3-C , 11-F ) :   0.1377
B(  3-C , 14-H ) :   0.1586 B(  4-S ,  8-H ) :  -0.1400 B(  4-S , 10-O ) :   1.5596
B(  4-S , 11-F ) :   0.6090 B(  4-S , 16-O ) :   1.5054 B(  7-H ,  8-H ) :   0.3168
B(  7-H ,  9-H ) :  -0.2434 B(  8-H ,  9-H ) :   0.6476 B(  8-H , 11-F ) :   0.4089
B( 10-O , 16-O ) :   0.1059 B( 12-H , 13-H ) :  -0.1225

Dispersion correction           -0.029784252
FINAL SINGLE POINT ENERGY      -805.571604115204

DIPOLE MOMENT
-------------
                                X             Y             Z
Electronic contribution:    -10.47673      -5.52990      -6.14886
Nuclear contribution   :     11.08796       6.45140       7.05645
                        -----------------------------------------
Total Dipole Moment    :      0.61124       0.92149       0.90759
                        -----------------------------------------
Magnitude (a.u.)       :      1.43055
Magnitude (Debye)      :      3.63617

Rotational constants in cm-1:     0.100113     0.046890     0.041843
Rotational constants in MHz :  3001.313402  1405.711946  1254.411771

                             ****ORCA TERMINATED NORMALLY****
TOTAL RUN TIME: 0 days 0 hours 0 minutes 42 seconds 847 msec
