                         Program Version 5.0.0 -  RELEASE  -
|  1> !B3LYP D3BJ RIJCOSX def2-SVPD def2/J TightSCF xyzfile
|  2>
|  3> *xyzfile 0 1 D3.xyz
|  4>
|  5> %MaxCore 64000
|  6>
|  7> %pal nprocs 4
|  8> end
|  9>
| 10> %scf
| 11>   MaxIter 150
| 12> end
| 13>
| 14>
| 15>                          ****END OF INPUT****

CARTESIAN COORDINATES (ANGSTROEM)
---------------------------------
  C      1.364014    0.468742   -2.813764
  C      0.428844    0.321402   -1.655312
  C      0.968045    1.630639   -3.715749
  C     -0.508347    1.722679   -4.124300
  S     -1.328608    0.146737   -4.435781
  H     -0.591511    2.294958   -5.047219
  H     -1.114114    2.235610   -3.374362
  H      0.748578   -0.400542   -1.001345
  H     -0.461053    0.023332   -2.077731
  H      0.310258    1.201375   -1.134948
  O     -2.571347    0.475733   -5.068341
  O     -1.514963   -0.400512   -3.063420
  H      1.294847   -0.468742   -3.364684
  H      2.376216    0.597400   -2.431495
  H      1.578688    1.520652   -4.612733
  H      1.266653    2.575988   -3.250448
  F     -0.377928   -0.627558   -5.201141

 Total Charge           Charge          ....    0
 Multiplicity           Mult            ....    1
 Number of Electrons    NEL             ....   74
 Basis Dimension        Dim             ....  248

ORBITAL ENERGIES
----------------

  NO   OCC          E(Eh)            E(eV)
   0   2.0000     -89.146915     -2425.8109
   1   2.0000     -24.821346      -675.4232
   2   2.0000     -19.162993      -521.4516
   3   2.0000     -19.145286      -520.9697
   4   2.0000     -10.245856      -278.8039
   5   2.0000     -10.210082      -277.8304
   6   2.0000     -10.181501      -277.0527
   7   2.0000     -10.117429      -275.3092
   8   2.0000      -8.201092      -223.1631
   9   2.0000      -6.174185      -168.0081
  10   2.0000      -6.167973      -167.8391
  11   2.0000      -6.166074      -167.7874
  12   2.0000      -1.381835       -37.6016
  13   2.0000      -1.120793       -30.4983
  14   2.0000      -1.018378       -27.7115
  15   2.0000      -0.833368       -22.6771
  16   2.0000      -0.772010       -21.0075
  17   2.0000      -0.725343       -19.7376
  18   2.0000      -0.678464       -18.4620
  19   2.0000      -0.616323       -16.7710
  20   2.0000      -0.597097       -16.2478
  21   2.0000      -0.586063       -15.9476
  22   2.0000      -0.545505       -14.8439
  23   2.0000      -0.504340       -13.7238
  24   2.0000      -0.499101       -13.5812
  25   2.0000      -0.474113       -12.9013
  26   2.0000      -0.463563       -12.6142
  27   2.0000      -0.430604       -11.7173
  28   2.0000      -0.414056       -11.2670
  29   2.0000      -0.402068       -10.9408
  30   2.0000      -0.393975       -10.7206
  31   2.0000      -0.369378       -10.0513
  32   2.0000      -0.348699        -9.4886
  33   2.0000      -0.336626        -9.1601
  34   2.0000      -0.333988        -9.0883
  35   2.0000      -0.325111        -8.8467
  36   2.0000      -0.275036        -7.4841
  37   0.0000      -0.011526        -0.3136
  38   0.0000       0.017755         0.4831
  39   0.0000       0.026955         0.7335
  40   0.0000       0.036942         1.0052
  41   0.0000       0.041577         1.1314

MULLIKEN ATOMIC CHARGES
-----------------------
   0 C :   -0.163432
   1 C :    2.368598
   2 C :    0.458549
   3 C :    0.259327
   4 S :    1.545821
   5 H :   -0.326961
   6 H :    0.146137
   7 H :   -0.212998
   8 H :   -1.322582
   9 H :   -0.220037
  10 O :   -0.682295
  11 O :   -0.827060
  12 H :   -0.010535
  13 H :   -0.427900
  14 H :   -0.077402
  15 H :   -0.094424
  16 F :   -0.412807
Sum of atomic charges:    0.0000000

LOEWDIN ATOMIC CHARGES
----------------------
   0 C :   -0.047501
   1 C :    0.146419
   2 C :   -0.026590
   3 C :   -0.016610
   4 S :    1.169559
   5 H :    0.015012
   6 H :    0.038428
   7 H :   -0.024893
   8 H :   -0.179136
   9 H :   -0.022722
  10 O :   -0.445008
  11 O :   -0.443178
  12 H :    0.011676
  13 H :    0.021171
  14 H :    0.018562
  15 H :    0.032604
  16 F :   -0.247792

  Mayer bond orders larger than 0.100000
B(  0-C ,  1-C ) :   0.9440 B(  0-C ,  2-C ) :   1.1890 B(  0-C ,  7-H ) :   0.2761
B(  0-C ,  8-H ) :   0.6052 B(  0-C ,  9-H ) :   0.3242 B(  0-C , 12-H ) :   0.7862
B(  0-C , 13-H ) :   0.8842 B(  0-C , 14-H ) :   0.1625 B(  0-C , 15-H ) :   0.1878
B(  1-C ,  7-H ) :   0.3154 B(  1-C ,  8-H ) :  -1.0918 B(  1-C , 11-O ) :  -0.1866
B(  1-C , 12-H ) :   0.1603 B(  2-C ,  3-C ) :   1.2400 B(  2-C ,  5-H ) :   0.2072
B(  2-C ,  6-H ) :   0.1218 B(  2-C , 12-H ) :   0.1624 B(  2-C , 14-H ) :   0.7912
B(  2-C , 15-H ) :   0.7140 B(  3-C ,  4-S ) :   0.9593 B(  3-C ,  5-H ) :   0.8395
B(  3-C ,  6-H ) :   0.8460 B(  3-C ,  8-H ) :   0.1412 B(  3-C , 11-O ) :   0.1425
B(  3-C , 14-H ) :   0.1491 B(  3-C , 15-H ) :   0.1111 B(  4-S ,  8-H ) :  -0.1539
B(  4-S , 10-O ) :   1.5825 B(  4-S , 11-O ) :   1.3828 B(  4-S , 16-F ) :   0.6496
B(  7-H ,  8-H ) :   0.3590 B(  7-H ,  9-H ) :  -0.2325 B(  8-H ,  9-H ) :   0.6070
B(  8-H , 11-O ) :   0.3124 B( 12-H , 13-H ) :  -0.1360

Dispersion correction           -0.029898470
FINAL SINGLE POINT ENERGY      -805.553254628082

DIPOLE MOMENT
-------------
                                X             Y             Z
Electronic contribution:     -8.63426      -5.92747      -9.88726
Nuclear contribution   :      9.83476       6.70164       9.41257
                        -----------------------------------------
Total Dipole Moment    :      1.20051       0.77416      -0.47468
                        -----------------------------------------
Magnitude (a.u.)       :      1.50528
Magnitude (Debye)      :      3.82612

Rotational constants in cm-1:     0.099832     0.045916     0.042219
Rotational constants in MHz :  2992.874960  1376.530174  1265.693813

                             ****ORCA TERMINATED NORMALLY****
TOTAL RUN TIME: 0 days 0 hours 0 minutes 48 seconds 8 msec
