                         Program Version 5.0.0 -  RELEASE  -
|  1> !TPSS D3BJ RIJCOSX def2-SVPD def2/J TightSCF
|  2> *xyz -1 1
|  3> C         -5.57236       -5.80780       -0.81644
|  4> S         -6.90318       -4.61903       -0.52846
|  5> O         -8.11485       -5.25093       -0.95701
|  6> O         -6.53271       -3.42684       -1.31485
|  7> O         -6.86563       -4.29496        0.91412
|  8> C         -3.82708       -4.66110        0.78617
|  9> C         -4.45780       -5.94187        0.22919
| 10> H         -5.17735       -5.54257       -1.79771
| 11> H         -6.07420       -6.76889       -0.92127
| 12> H         -3.68106       -6.56224       -0.22988
| 13> H         -4.84394       -6.51273        1.07581
| 14> H         -3.43706       -4.07576       -0.02016
| 15> H         -3.03403       -4.91680        1.45744
| 16> H         -4.56975       -4.09647        1.31013
| 17> *
| 18> %MaxCore 64000
| 19>
| 20> %pal nprocs 4
| 21> end
| 22>
| 23> %scf
| 24>   MaxIter 150
| 25> end
| 26>
| 27>                          ****END OF INPUT****

CARTESIAN COORDINATES (ANGSTROEM)
---------------------------------
  C     -5.572360   -5.807800   -0.816440
  S     -6.903180   -4.619030   -0.528460
  O     -8.114850   -5.250930   -0.957010
  O     -6.532710   -3.426840   -1.314850
  O     -6.865630   -4.294960    0.914120
  C     -3.827080   -4.661100    0.786170
  C     -4.457800   -5.941870    0.229190
  H     -5.177350   -5.542570   -1.797710
  H     -6.074200   -6.768890   -0.921270
  H     -3.681060   -6.562240   -0.229880
  H     -4.843940   -6.512730    1.075810
  H     -3.437060   -4.075760   -0.020160
  H     -3.034030   -4.916800    1.457440
  H     -4.569750   -4.096470    1.310130

 Total Charge           Charge          ....   -1
 Multiplicity           Mult            ....    1
 Number of Electrons    NEL             ....   66
 Basis Dimension        Dim             ....  212

ORBITAL ENERGIES
----------------

  NO   OCC          E(Eh)            E(eV)
   0   2.0000     -88.368144     -2404.6194
   1   2.0000     -18.685477      -508.4577
   2   2.0000     -18.673178      -508.1230
   3   2.0000     -18.671822      -508.0861
   4   2.0000      -9.874301      -268.6934
   5   2.0000      -9.863863      -268.4093
   6   2.0000      -9.852434      -268.0984
   7   2.0000      -7.727882      -210.2864
   8   2.0000      -5.713908      -155.4833
   9   2.0000      -5.713756      -155.4792
  10   2.0000      -5.712984      -155.4582
  11   2.0000      -0.853479       -23.2243
  12   2.0000      -0.720778       -19.6134
  13   2.0000      -0.698179       -18.9984
  14   2.0000      -0.591103       -16.0847
  15   2.0000      -0.508881       -13.8474
  16   2.0000      -0.420087       -11.4311
  17   2.0000      -0.329930        -8.9778
  18   2.0000      -0.288656        -7.8547
  19   2.0000      -0.274552        -7.4709
  20   2.0000      -0.250165        -6.8073
  21   2.0000      -0.236721        -6.4415
  22   2.0000      -0.216946        -5.9034
  23   2.0000      -0.207205        -5.6383
  24   2.0000      -0.185462        -5.0467
  25   2.0000      -0.179996        -4.8979
  26   2.0000      -0.168563        -4.5868
  27   2.0000      -0.106871        -2.9081
  28   2.0000      -0.104203        -2.8355
  29   2.0000      -0.075997        -2.0680
  30   2.0000      -0.064833        -1.7642
  31   2.0000      -0.059091        -1.6079
  32   2.0000      -0.022695        -0.6176
  33   0.0000       0.125566         3.4168
  34   0.0000       0.152337         4.1453
  35   0.0000       0.158203         4.3049
  36   0.0000       0.165245         4.4965
  37   0.0000       0.185681         5.0526

MULLIKEN ATOMIC CHARGES
-----------------------
   0 C :    0.009249
   1 S :    1.233550
   2 O :   -0.784996
   3 O :   -0.787754
   4 O :   -0.820181
   5 C :    0.697788
   6 C :   -0.333047
   7 H :    0.054301
   8 H :    0.007153
   9 H :   -0.089233
  10 H :   -0.008718
  11 H :   -0.034565
  12 H :   -0.036079
  13 H :   -0.107469
Sum of atomic charges:   -1.0000000

LOEWDIN ATOMIC CHARGES
----------------------
   0 C :   -0.077346
   1 S :    0.855878
   2 O :   -0.559876
   3 O :   -0.585275
   4 O :   -0.570885
   5 C :    0.129945
   6 C :   -0.083375
   7 H :   -0.004536
   8 H :   -0.010957
   9 H :   -0.000118
  10 H :    0.011114
  11 H :   -0.022319
  12 H :   -0.038221
  13 H :   -0.044029

  Mayer bond orders larger than 0.100000
B(  0-C ,  1-S ) :   0.8425 B(  0-C ,  2-O ) :   0.1046 B(  0-C ,  6-C ) :   1.3028
B(  0-C ,  7-H ) :   0.9098 B(  0-C ,  8-H ) :   0.8954 B(  0-C ,  9-H ) :   0.1549
B(  0-C , 10-H ) :   0.1366 B(  1-S ,  2-O ) :   1.3653 B(  1-S ,  3-O ) :   1.2828
B(  1-S ,  4-O ) :   1.2751 B(  5-C ,  6-C ) :   1.2814 B(  5-C , 11-H ) :   0.7848
B(  5-C , 12-H ) :   0.7398 B(  5-C , 13-H ) :   0.8487 B(  6-C ,  7-H ) :   0.1253
B(  6-C ,  8-H ) :   0.1433 B(  6-C ,  9-H ) :   0.8758 B(  6-C , 10-H ) :   0.9087
B(  6-C , 11-H ) :   0.2059 B(  6-C , 12-H ) :   0.2144 B(  6-C , 13-H ) :   0.2111

Dispersion correction           -0.016575063
FINAL SINGLE POINT ENERGY      -742.145219687873

DIPOLE MOMENT
-------------
                                X             Y             Z
Electronic contribution:     -9.90151       3.26320      -2.57126
Nuclear contribution   :     11.75544      -4.53524       2.70749
                        -----------------------------------------
Total Dipole Moment    :      1.85393      -1.27203       0.13623
                        -----------------------------------------
Magnitude (a.u.)       :      2.25249
Magnitude (Debye)      :      5.72537

Rotational constants in cm-1:     0.134586     0.054907     0.051455
Rotational constants in MHz :  4034.798577  1646.069534  1542.570153

                             ****ORCA TERMINATED NORMALLY****
TOTAL RUN TIME: 0 days 0 hours 0 minutes 13 seconds 340 msec
