                         Program Version 5.0.0 -  RELEASE  -
|  1> !TPSS D3BJ RIJCOSX def2-SVPD def2/J TightSCF
|  2> *xyz 1 1
|  3> C         -4.38262       -1.67089        1.21620
|  4> N         -5.76354       -1.91517        0.70501
|  5> C         -3.28173       -2.19127        0.29436
|  6> H         -5.84081       -2.11520       -0.30065
|  7> H         -6.40882       -1.14866        0.93612
|  8> H         -6.17478       -2.79061        1.05143
|  9> H         -4.32862       -2.13922        2.19810
| 10> H         -4.26158       -0.59740        1.35725
| 11> C         -3.47464       -3.60590       -0.25961
| 12> H         -2.35455       -2.12760        0.87143
| 13> H         -3.16661       -1.49969       -0.54504
| 14> H         -2.64612       -3.85908       -0.88759
| 15> H         -4.37934       -3.64545       -0.82956
| 16> H         -3.53324       -4.30157        0.55126
| 17> *
| 18> %MaxCore 64000
| 19>
| 20> %pal nprocs 4
| 21> end
| 22>
| 23> %scf
| 24>   MaxIter 150
| 25> end
| 26>
| 27>                          ****END OF INPUT****

CARTESIAN COORDINATES (ANGSTROEM)
---------------------------------
  C     -4.382620   -1.670890    1.216200
  N     -5.763540   -1.915170    0.705010
  C     -3.281730   -2.191270    0.294360
  H     -5.840810   -2.115200   -0.300650
  H     -6.408820   -1.148660    0.936120
  H     -6.174780   -2.790610    1.051430
  H     -4.328620   -2.139220    2.198100
  H     -4.261580   -0.597400    1.357250
  C     -3.474640   -3.605900   -0.259610
  H     -2.354550   -2.127600    0.871430
  H     -3.166610   -1.499690   -0.545040
  H     -2.646120   -3.859080   -0.887590
  H     -4.379340   -3.645450   -0.829560
  H     -3.533240   -4.301570    0.551260

 Total Charge           Charge          ....    1
 Multiplicity           Mult            ....    1
 Number of Electrons    NEL             ....   34
 Basis Dimension        Dim             ....  160

ORBITAL ENERGIES
----------------

  NO   OCC          E(Eh)            E(eV)
   0   2.0000     -14.447226      -393.1290
   1   2.0000     -10.248845      -278.8852
   2   2.0000     -10.179476      -276.9976
   3   2.0000     -10.153017      -276.2776
   4   2.0000      -1.140985       -31.0478
   5   2.0000      -0.911690       -24.8084
   6   2.0000      -0.832827       -22.6624
   7   2.0000      -0.752789       -20.4844
   8   2.0000      -0.740464       -20.1490
   9   2.0000      -0.720990       -19.6191
  10   2.0000      -0.648122       -17.6363
  11   2.0000      -0.596263       -16.2251
  12   2.0000      -0.568010       -15.4563
  13   2.0000      -0.547033       -14.8855
  14   2.0000      -0.493202       -13.4207
  15   2.0000      -0.490700       -13.3526
  16   2.0000      -0.474205       -12.9038
  17   0.0000      -0.204285        -5.5589
  18   0.0000      -0.153789        -4.1848
  19   0.0000      -0.150723        -4.1014
  20   0.0000      -0.128189        -3.4882
  21   0.0000      -0.104370        -2.8400

MULLIKEN ATOMIC CHARGES
-----------------------
   0 C :    0.635226
   1 N :   -0.879377
   2 C :   -0.458319
   3 H :    0.378709
   4 H :    0.367272
   5 H :    0.433797
   6 H :   -0.022111
   7 H :   -0.005998
   8 C :    0.703719
   9 H :   -0.001929
  10 H :   -0.021761
  11 H :   -0.037114
  12 H :   -0.097503
  13 H :    0.005390
Sum of atomic charges:    1.0000000

LOEWDIN ATOMIC CHARGES
----------------------
   0 C :    0.108966
   1 N :    0.333870
   2 C :   -0.034916
   3 H :    0.087736
   4 H :    0.106648
   5 H :    0.103164
   6 H :    0.048431
   7 H :    0.046951
   8 C :    0.159204
   9 H :    0.042962
  10 H :    0.031862
  11 H :    0.004291
  12 H :   -0.032952
  13 H :   -0.006218

  Mayer bond orders larger than 0.100000
B(  0-C ,  1-N ) :   0.6366 B(  0-C ,  2-C ) :   1.2364 B(  0-C ,  6-H ) :   0.8241
B(  0-C ,  7-H ) :   0.8864 B(  0-C ,  9-H ) :   0.1304 B(  0-C , 10-H ) :   0.1124
B(  1-N ,  3-H ) :   0.6529 B(  1-N ,  4-H ) :   0.7489 B(  1-N ,  5-H ) :   0.7192
B(  1-N ,  6-H ) :   0.1217 B(  2-C ,  6-H ) :   0.1374 B(  2-C ,  8-C ) :   1.3195
B(  2-C ,  9-H ) :   0.9280 B(  2-C , 10-H ) :   0.9426 B(  2-C , 11-H ) :   0.2108
B(  2-C , 12-H ) :   0.1768 B(  2-C , 13-H ) :   0.1861 B(  8-C , 11-H ) :   0.7826
B(  8-C , 12-H ) :   0.8478 B(  8-C , 13-H ) :   0.8013

Dispersion correction           -0.011417924
FINAL SINGLE POINT ENERGY      -174.768516469447

DIPOLE MOMENT
-------------
                                X             Y             Z
Electronic contribution:     -1.70666       1.30953       0.78481
Nuclear contribution   :     -0.18358      -0.73024      -0.44649
                        -----------------------------------------
Total Dipole Moment    :     -1.89024       0.57929       0.33832
                        -----------------------------------------
Magnitude (a.u.)       :      2.00575
Magnitude (Debye)      :      5.09821

Rotational constants in cm-1:     0.423641     0.164544     0.133152
Rotational constants in MHz : 12700.438743  4932.897948  3991.802402

                             ****ORCA TERMINATED NORMALLY****
TOTAL RUN TIME: 0 days 0 hours 0 minutes 7 seconds 604 msec
