                         Program Version 5.0.0 -  RELEASE  -
|  1> !TPSS D3BJ RIJCOSX def2-SVPD def2/J TightSCF
|  2> *xyz 0 1
|  3> C         -5.57236       -5.80780       -0.81644
|  4> S         -6.90318       -4.61903       -0.52846
|  5> F         -8.11485       -5.25093       -0.95701
|  6> O         -6.53271       -3.42684       -1.31485
|  7> O         -6.86563       -4.29496        0.91412
|  8> C         -3.82708       -4.66110        0.78617
|  9> C         -4.45780       -5.94187        0.22919
| 10> H         -5.17735       -5.54257       -1.79771
| 11> H         -6.07420       -6.76889       -0.92127
| 12> H         -3.68106       -6.56224       -0.22988
| 13> H         -4.84394       -6.51273        1.07581
| 14> H         -3.43706       -4.07576       -0.02016
| 15> H         -3.03403       -4.91680        1.45744
| 16> H         -4.56975       -4.09647        1.31013
| 17> *
| 18> %MaxCore 64000
| 19>
| 20> %pal nprocs 4
| 21> end
| 22>
| 23> %scf
| 24>   MaxIter 150
| 25> end
| 26>
| 27>                          ****END OF INPUT****

CARTESIAN COORDINATES (ANGSTROEM)
---------------------------------
  C     -5.572360   -5.807800   -0.816440
  S     -6.903180   -4.619030   -0.528460
  F     -8.114850   -5.250930   -0.957010
  O     -6.532710   -3.426840   -1.314850
  O     -6.865630   -4.294960    0.914120
  C     -3.827080   -4.661100    0.786170
  C     -4.457800   -5.941870    0.229190
  H     -5.177350   -5.542570   -1.797710
  H     -6.074200   -6.768890   -0.921270
  H     -3.681060   -6.562240   -0.229880
  H     -4.843940   -6.512730    1.075810
  H     -3.437060   -4.075760   -0.020160
  H     -3.034030   -4.916800    1.457440
  H     -4.569750   -4.096470    1.310130

 Total Charge           Charge          ....    0
 Multiplicity           Mult            ....    1
 Number of Electrons    NEL             ....   66
 Basis Dimension        Dim             ....  212

ORBITAL ENERGIES
----------------

  NO   OCC          E(Eh)            E(eV)
   0   2.0000     -88.621654     -2411.5178
   1   2.0000     -24.545653      -667.9212
   2   2.0000     -18.903040      -514.3779
   3   2.0000     -18.902700      -514.3686
   4   2.0000     -10.062837      -273.8237
   5   2.0000     -10.031645      -272.9749
   6   2.0000      -9.993118      -271.9266
   7   2.0000      -7.982612      -217.2179
   8   2.0000      -5.972992      -162.5334
   9   2.0000      -5.966230      -162.3494
  10   2.0000      -5.964545      -162.3035
  11   2.0000      -1.300683       -35.3934
  12   2.0000      -1.022245       -27.8167
  13   2.0000      -0.925195       -25.1758
  14   2.0000      -0.765915       -20.8416
  15   2.0000      -0.698306       -19.0019
  16   2.0000      -0.652687       -17.7605
  17   2.0000      -0.585974       -15.9452
  18   2.0000      -0.534709       -14.5502
  19   2.0000      -0.528242       -14.3742
  20   2.0000      -0.502441       -13.6721
  21   2.0000      -0.451484       -12.2855
  22   2.0000      -0.437508       -11.9052
  23   2.0000      -0.415068       -11.2946
  24   2.0000      -0.400674       -10.9029
  25   2.0000      -0.380438       -10.3522
  26   2.0000      -0.345712        -9.4073
  27   2.0000      -0.337962        -9.1964
  28   2.0000      -0.331342        -9.0163
  29   2.0000      -0.321240        -8.7414
  30   2.0000      -0.282156        -7.6779
  31   2.0000      -0.280276        -7.6267
  32   2.0000      -0.258059        -7.0221
  33   0.0000      -0.019530        -0.5314
  34   0.0000      -0.007924        -0.2156
  35   0.0000       0.019648         0.5346
  36   0.0000       0.024762         0.6738
  37   0.0000       0.026318         0.7161

MULLIKEN ATOMIC CHARGES
-----------------------
   0 C :   -0.008550
   1 S :    1.440222
   2 F :   -0.410886
   3 O :   -0.654849
   4 O :   -0.699439
   5 C :    0.710610
   6 C :   -0.324426
   7 H :    0.100740
   8 H :    0.053392
   9 H :   -0.058222
  10 H :    0.014056
  11 H :   -0.022106
  12 H :   -0.018230
  13 H :   -0.122312
Sum of atomic charges:    0.0000000

LOEWDIN ATOMIC CHARGES
----------------------
   0 C :   -0.042966
   1 S :    1.118593
   2 F :   -0.250455
   3 O :   -0.469244
   4 O :   -0.465954
   5 C :    0.152528
   6 C :   -0.054157
   7 H :    0.017732
   8 H :    0.006313
   9 H :    0.027208
  10 H :    0.024864
  11 H :   -0.011581
  12 H :   -0.015965
  13 H :   -0.036916

  Mayer bond orders larger than 0.100000
B(  0-C ,  1-S ) :   0.8931 B(  0-C ,  6-C ) :   1.3531 B(  0-C ,  7-H ) :   0.9091
B(  0-C ,  8-H ) :   0.8492 B(  0-C ,  9-H ) :   0.1450 B(  0-C , 10-H ) :   0.1347
B(  1-S ,  2-F ) :   0.6850 B(  1-S ,  3-O ) :   1.4858 B(  1-S ,  4-O ) :   1.4547
B(  5-C ,  6-C ) :   1.3084 B(  5-C , 11-H ) :   0.7830 B(  5-C , 12-H ) :   0.7380
B(  5-C , 13-H ) :   0.8562 B(  6-C ,  7-H ) :   0.1187 B(  6-C ,  8-H ) :   0.1551
B(  6-C ,  9-H ) :   0.8627 B(  6-C , 10-H ) :   0.9012 B(  6-C , 11-H ) :   0.2002
B(  6-C , 12-H ) :   0.2056 B(  6-C , 13-H ) :   0.1982

Dispersion correction           -0.016031411
FINAL SINGLE POINT ENERGY      -766.630244260575

DIPOLE MOMENT
-------------
                                X             Y             Z
Electronic contribution:    -13.37714       2.49226      -3.85910
Nuclear contribution   :     13.81909      -4.05404       3.42760
                        -----------------------------------------
Total Dipole Moment    :      0.44194      -1.56177      -0.43150
                        -----------------------------------------
Magnitude (a.u.)       :      1.67948
Magnitude (Debye)      :      4.26889

Rotational constants in cm-1:     0.132500     0.053014     0.049575
Rotational constants in MHz :  3972.256497  1589.318970  1486.215991

                             ****ORCA TERMINATED NORMALLY****
TOTAL RUN TIME: 0 days 0 hours 0 minutes 13 seconds 512 msec
