                         Program Version 5.0.0 -  RELEASE  -
|  1> !TPSS D3BJ RIJCOSX def2-SVPD def2/J TightSCF
|  2> *xyz 0 1
|  3> C         -4.38262       -1.67089        1.21620
|  4> C         -5.76354       -1.91517        0.70501
|  5> C         -3.28173       -2.19127        0.29436
|  6> H         -5.84081       -2.11520       -0.30065
|  7> H         -6.40882       -1.14866        0.93612
|  8> H         -6.17478       -2.79061        1.05143
|  9> H         -4.32862       -2.13922        2.19810
| 10> H         -4.26158       -0.59740        1.35725
| 11> C         -3.47464       -3.60590       -0.25961
| 12> H         -2.35455       -2.12760        0.87143
| 13> H         -3.16661       -1.49969       -0.54504
| 14> H         -2.64612       -3.85908       -0.88759
| 15> H         -4.37934       -3.64545       -0.82956
| 16> H         -3.53324       -4.30157        0.55126
| 17> *
| 18> %MaxCore 64000
| 19>
| 20> %pal nprocs 4
| 21> end
| 22>
| 23> %scf
| 24>   MaxIter 150
| 25> end
| 26>
| 27>                          ****END OF INPUT****

CARTESIAN COORDINATES (ANGSTROEM)
---------------------------------
  C     -4.382620   -1.670890    1.216200
  C     -5.763540   -1.915170    0.705010
  C     -3.281730   -2.191270    0.294360
  H     -5.840810   -2.115200   -0.300650
  H     -6.408820   -1.148660    0.936120
  H     -6.174780   -2.790610    1.051430
  H     -4.328620   -2.139220    2.198100
  H     -4.261580   -0.597400    1.357250
  C     -3.474640   -3.605900   -0.259610
  H     -2.354550   -2.127600    0.871430
  H     -3.166610   -1.499690   -0.545040
  H     -2.646120   -3.859080   -0.887590
  H     -4.379340   -3.645450   -0.829560
  H     -3.533240   -4.301570    0.551260

 Total Charge           Charge          ....    0
 Multiplicity           Mult            ....    1
 Number of Electrons    NEL             ....   34
 Basis Dimension        Dim             ....  160

ORBITAL ENERGIES
----------------

  NO   OCC          E(Eh)            E(eV)
   0   2.0000      -9.990788      -271.8632
   1   2.0000      -9.987562      -271.7754
   2   2.0000      -9.983002      -271.6513
   3   2.0000      -9.963461      -271.1195
   4   2.0000      -0.734735       -19.9931
   5   2.0000      -0.667243       -18.1566
   6   2.0000      -0.594605       -16.1800
   7   2.0000      -0.515169       -14.0185
   8   2.0000      -0.423347       -11.5199
   9   2.0000      -0.418193       -11.3796
  10   2.0000      -0.378591       -10.3020
  11   2.0000      -0.356387        -9.6978
  12   2.0000      -0.346175        -9.4199
  13   2.0000      -0.322578        -8.7778
  14   2.0000      -0.292524        -7.9600
  15   2.0000      -0.285358        -7.7650
  16   2.0000      -0.278657        -7.5826
  17   0.0000       0.014278         0.3885
  18   0.0000       0.040019         1.0890
  19   0.0000       0.044904         1.2219
  20   0.0000       0.055610         1.5132
  21   0.0000       0.079827         2.1722

MULLIKEN ATOMIC CHARGES
-----------------------
   0 C :   -0.228155
   1 C :    0.958461
   2 C :   -0.347343
   3 H :   -0.329561
   4 H :   -0.330320
   5 H :   -0.073472
   6 H :   -0.064296
   7 H :   -0.026714
   8 C :    0.615612
   9 H :   -0.053977
  10 H :    0.002999
  11 H :   -0.040825
  12 H :   -0.043852
  13 H :   -0.038557
Sum of atomic charges:   -0.0000000

LOEWDIN ATOMIC CHARGES
----------------------
   0 C :   -0.056251
   1 C :    0.128706
   2 C :   -0.070831
   3 H :   -0.048582
   4 H :   -0.036998
   5 H :   -0.034903
   6 H :    0.016600
   7 H :    0.015112
   8 C :    0.135291
   9 H :    0.010708
  10 H :    0.016435
  11 H :   -0.023039
  12 H :   -0.033284
  13 H :   -0.018963

  Mayer bond orders larger than 0.100000
B(  0-C ,  1-C ) :   1.2541 B(  0-C ,  2-C ) :   1.2453 B(  0-C ,  3-H ) :   0.2578
B(  0-C ,  4-H ) :   0.1928 B(  0-C ,  5-H ) :   0.2262 B(  0-C ,  6-H ) :   0.8560
B(  0-C ,  7-H ) :   0.8865 B(  0-C ,  9-H ) :   0.1715 B(  0-C , 10-H ) :   0.1343
B(  1-C ,  3-H ) :   0.6577 B(  1-C ,  4-H ) :   0.7609 B(  1-C ,  5-H ) :   0.6064
B(  1-C ,  6-H ) :   0.1272 B(  2-C ,  6-H ) :   0.1399 B(  2-C ,  8-C ) :   1.3311
B(  2-C ,  9-H ) :   0.8940 B(  2-C , 10-H ) :   0.8959 B(  2-C , 11-H ) :   0.2143
B(  2-C , 12-H ) :   0.1877 B(  2-C , 13-H ) :   0.1831 B(  3-H ,  5-H ) :   0.3076
B(  8-C , 11-H ) :   0.7553 B(  8-C , 12-H ) :   0.8553 B(  8-C , 13-H ) :   0.8187

Dispersion correction           -0.011463332
FINAL SINGLE POINT ENERGY      -158.365815005709

DIPOLE MOMENT
-------------
                                X             Y             Z
Electronic contribution:      0.63968       0.59529       0.37857
Nuclear contribution   :     -0.64996      -0.59433      -0.37777
                        -----------------------------------------
Total Dipole Moment    :     -0.01028       0.00096       0.00080
                        -----------------------------------------
Magnitude (a.u.)       :      0.01036
Magnitude (Debye)      :      0.02633

Rotational constants in cm-1:     0.431358     0.171688     0.138554
Rotational constants in MHz : 12931.797515  5147.084397  4153.759343

                             ****ORCA TERMINATED NORMALLY****
TOTAL RUN TIME: 0 days 0 hours 0 minutes 7 seconds 595 msec
