                         Program Version 5.0.0 -  RELEASE  -
|  1> !TPSS D3BJ RIJCOSX def2-SVPD def2/J TightSCF
|  2> *xyz 0 1
|  3> C         -5.57236       -5.80780       -0.81644
|  4> S         -6.90318       -4.61903       -0.52846
|  5> O         -8.11485       -5.25093       -0.95701
|  6> F         -6.53271       -3.42684       -1.31485
|  7> O         -6.86563       -4.29496        0.91412
|  8> C         -3.82708       -4.66110        0.78617
|  9> C         -4.45780       -5.94187        0.22919
| 10> H         -5.17735       -5.54257       -1.79771
| 11> H         -6.07420       -6.76889       -0.92127
| 12> H         -3.68106       -6.56224       -0.22988
| 13> H         -4.84394       -6.51273        1.07581
| 14> H         -3.43706       -4.07576       -0.02016
| 15> H         -3.03403       -4.91680        1.45744
| 16> H         -4.56975       -4.09647        1.31013
| 17> *
| 18> %MaxCore 64000
| 19>
| 20> %pal nprocs 4
| 21> end
| 22>
| 23> %scf
| 24>   MaxIter 150
| 25> end
| 26>
| 27>                          ****END OF INPUT****

CARTESIAN COORDINATES (ANGSTROEM)
---------------------------------
  C     -5.572360   -5.807800   -0.816440
  S     -6.903180   -4.619030   -0.528460
  O     -8.114850   -5.250930   -0.957010
  F     -6.532710   -3.426840   -1.314850
  O     -6.865630   -4.294960    0.914120
  C     -3.827080   -4.661100    0.786170
  C     -4.457800   -5.941870    0.229190
  H     -5.177350   -5.542570   -1.797710
  H     -6.074200   -6.768890   -0.921270
  H     -3.681060   -6.562240   -0.229880
  H     -4.843940   -6.512730    1.075810
  H     -3.437060   -4.075760   -0.020160
  H     -3.034030   -4.916800    1.457440
  H     -4.569750   -4.096470    1.310130

 Total Charge           Charge          ....    0
 Multiplicity           Mult            ....    1
 Number of Electrons    NEL             ....   66
 Basis Dimension        Dim             ....  212

ORBITAL ENERGIES
----------------

  NO   OCC          E(Eh)            E(eV)
   0   2.0000     -88.619646     -2411.4632
   1   2.0000     -24.524941      -667.3576
   2   2.0000     -18.916268      -514.7378
   3   2.0000     -18.902447      -514.3617
   4   2.0000     -10.062282      -273.8086
   5   2.0000     -10.031032      -272.9583
   6   2.0000      -9.998778      -272.0806
   7   2.0000      -7.980604      -217.1633
   8   2.0000      -5.970754      -162.4725
   9   2.0000      -5.964461      -162.3012
  10   2.0000      -5.962713      -162.2537
  11   2.0000      -1.264839       -34.4180
  12   2.0000      -1.038268       -28.2527
  13   2.0000      -0.940629       -25.5958
  14   2.0000      -0.766686       -20.8626
  15   2.0000      -0.693221       -18.8635
  16   2.0000      -0.643176       -17.5017
  17   2.0000      -0.582902       -15.8616
  18   2.0000      -0.516970       -14.0675
  19   2.0000      -0.508283       -13.8311
  20   2.0000      -0.500506       -13.6195
  21   2.0000      -0.454117       -12.3571
  22   2.0000      -0.436633       -11.8814
  23   2.0000      -0.411587       -11.1998
  24   2.0000      -0.402843       -10.9619
  25   2.0000      -0.395381       -10.7589
  26   2.0000      -0.349152        -9.5009
  27   2.0000      -0.343733        -9.3535
  28   2.0000      -0.337989        -9.1971
  29   2.0000      -0.324127        -8.8199
  30   2.0000      -0.295018        -8.0279
  31   2.0000      -0.284204        -7.7336
  32   2.0000      -0.268465        -7.3053
  33   0.0000      -0.017574        -0.4782
  34   0.0000      -0.005718        -0.1556
  35   0.0000       0.015860         0.4316
  36   0.0000       0.023688         0.6446
  37   0.0000       0.031214         0.8494

MULLIKEN ATOMIC CHARGES
-----------------------
   0 C :   -0.010602
   1 S :    1.403929
   2 O :   -0.655830
   3 F :   -0.385679
   4 O :   -0.698943
   5 C :    0.710189
   6 C :   -0.297763
   7 H :    0.097859
   8 H :    0.049856
   9 H :   -0.057029
  10 H :    0.014511
  11 H :   -0.033552
  12 H :   -0.013726
  13 H :   -0.123222
Sum of atomic charges:   -0.0000000

LOEWDIN ATOMIC CHARGES
----------------------
   0 C :   -0.036562
   1 S :    1.114961
   2 O :   -0.445838
   3 F :   -0.269048
   4 O :   -0.462205
   5 C :    0.146811
   6 C :   -0.058926
   7 H :    0.012716
   8 H :    0.019175
   9 H :    0.025070
  10 H :    0.026997
  11 H :   -0.016494
  12 H :   -0.015319
  13 H :   -0.041337

  Mayer bond orders larger than 0.100000
B(  0-C ,  1-S ) :   0.9026 B(  0-C ,  6-C ) :   1.3416 B(  0-C ,  7-H ) :   0.8860
B(  0-C ,  8-H ) :   0.8924 B(  0-C ,  9-H ) :   0.1406 B(  0-C , 10-H ) :   0.1393
B(  1-S ,  2-O ) :   1.5724 B(  1-S ,  3-F ) :   0.6280 B(  1-S ,  4-O ) :   1.4865
B(  5-C ,  6-C ) :   1.3053 B(  5-C , 11-H ) :   0.7843 B(  5-C , 12-H ) :   0.7437
B(  5-C , 13-H ) :   0.8567 B(  6-C ,  7-H ) :   0.1245 B(  6-C ,  8-H ) :   0.1370
B(  6-C ,  9-H ) :   0.8640 B(  6-C , 10-H ) :   0.9026 B(  6-C , 11-H ) :   0.1959
B(  6-C , 12-H ) :   0.2037 B(  6-C , 13-H ) :   0.1968

Dispersion correction           -0.015957046
FINAL SINGLE POINT ENERGY      -766.648364725882

DIPOLE MOMENT
-------------
                                X             Y             Z
Electronic contribution:    -10.69694       5.57923      -4.46666
Nuclear contribution   :     12.11759      -6.01574       3.81244
                        -----------------------------------------
Total Dipole Moment    :      1.42065      -0.43651      -0.65422
                        -----------------------------------------
Magnitude (a.u.)       :      1.62382
Magnitude (Debye)      :      4.12742

Rotational constants in cm-1:     0.128152     0.053825     0.050608
Rotational constants in MHz :  3841.897096  1613.621976  1517.196867

                             ****ORCA TERMINATED NORMALLY****
TOTAL RUN TIME: 0 days 0 hours 0 minutes 12 seconds 687 msec
