                         Program Version 5.0.0 -  RELEASE  -
|  1> !TPSS D3BJ RIJCOSX def2-SVPD def2/J TightSCF
|  2> *xyz 0 1
|  3> C         -5.57236       -5.80780       -0.81644
|  4> S         -6.90318       -4.61903       -0.52846
|  5> O         -8.11485       -5.25093       -0.95701
|  6> O         -6.53271       -3.42684       -1.31485
|  7> F         -6.86563       -4.29496        0.91412
|  8> C         -3.82708       -4.66110        0.78617
|  9> C         -4.45780       -5.94187        0.22919
| 10> H         -5.17735       -5.54257       -1.79771
| 11> H         -6.07420       -6.76889       -0.92127
| 12> H         -3.68106       -6.56224       -0.22988
| 13> H         -4.84394       -6.51273        1.07581
| 14> H         -3.43706       -4.07576       -0.02016
| 15> H         -3.03403       -4.91680        1.45744
| 16> H         -4.56975       -4.09647        1.31013
| 17> *
| 18> %MaxCore 64000
| 19>
| 20> %pal nprocs 4
| 21> end
| 22>
| 23> %scf
| 24>   MaxIter 150
| 25> end
| 26>
| 27>                          ****END OF INPUT****

CARTESIAN COORDINATES (ANGSTROEM)
---------------------------------
  C     -5.572360   -5.807800   -0.816440
  S     -6.903180   -4.619030   -0.528460
  O     -8.114850   -5.250930   -0.957010
  O     -6.532710   -3.426840   -1.314850
  F     -6.865630   -4.294960    0.914120
  C     -3.827080   -4.661100    0.786170
  C     -4.457800   -5.941870    0.229190
  H     -5.177350   -5.542570   -1.797710
  H     -6.074200   -6.768890   -0.921270
  H     -3.681060   -6.562240   -0.229880
  H     -4.843940   -6.512730    1.075810
  H     -3.437060   -4.075760   -0.020160
  H     -3.034030   -4.916800    1.457440
  H     -4.569750   -4.096470    1.310130

 Total Charge           Charge          ....    0
 Multiplicity           Mult            ....    1
 Number of Electrons    NEL             ....   66
 Basis Dimension        Dim             ....  212

ORBITAL ENERGIES
----------------

  NO   OCC          E(Eh)            E(eV)
   0   2.0000     -88.618451     -2411.4307
   1   2.0000     -24.523724      -667.3245
   2   2.0000     -18.915427      -514.7149
   3   2.0000     -18.901065      -514.3241
   4   2.0000     -10.061265      -273.7809
   5   2.0000     -10.037166      -273.1252
   6   2.0000     -10.008700      -272.3506
   7   2.0000      -7.979436      -217.1315
   8   2.0000      -5.969637      -162.4421
   9   2.0000      -5.963320      -162.2702
  10   2.0000      -5.961482      -162.2202
  11   2.0000      -1.262285       -34.3485
  12   2.0000      -1.038133       -28.2490
  13   2.0000      -0.940028       -25.5795
  14   2.0000      -0.770625       -20.9698
  15   2.0000      -0.694458       -18.8972
  16   2.0000      -0.644146       -17.5281
  17   2.0000      -0.589315       -16.0361
  18   2.0000      -0.524049       -14.2601
  19   2.0000      -0.508416       -13.8347
  20   2.0000      -0.490684       -13.3522
  21   2.0000      -0.455009       -12.3814
  22   2.0000      -0.432849       -11.7784
  23   2.0000      -0.422725       -11.5029
  24   2.0000      -0.406024       -11.0485
  25   2.0000      -0.393132       -10.6977
  26   2.0000      -0.355369        -9.6701
  27   2.0000      -0.349495        -9.5102
  28   2.0000      -0.341384        -9.2895
  29   2.0000      -0.329969        -8.9789
  30   2.0000      -0.294869        -8.0238
  31   2.0000      -0.281963        -7.6726
  32   2.0000      -0.268954        -7.3186
  33   0.0000      -0.025762        -0.7010
  34   0.0000       0.008018         0.2182
  35   0.0000       0.018772         0.5108
  36   0.0000       0.024582         0.6689
  37   0.0000       0.025807         0.7023

MULLIKEN ATOMIC CHARGES
-----------------------
   0 C :    0.016987
   1 S :    1.378104
   2 O :   -0.655500
   3 O :   -0.661569
   4 F :   -0.406380
   5 C :    0.720405
   6 C :   -0.314190
   7 H :    0.099803
   8 H :    0.055344
   9 H :   -0.047312
  10 H :   -0.009223
  11 H :   -0.023377
  12 H :   -0.011399
  13 H :   -0.141693
Sum of atomic charges:   -0.0000000

LOEWDIN ATOMIC CHARGES
----------------------
   0 C :   -0.031386
   1 S :    1.108366
   2 O :   -0.446126
   3 O :   -0.470888
   4 F :   -0.269316
   5 C :    0.148427
   6 C :   -0.066460
   7 H :    0.026130
   8 H :    0.013746
   9 H :    0.026053
  10 H :    0.021532
  11 H :   -0.009120
  12 H :   -0.014162
  13 H :   -0.036793

  Mayer bond orders larger than 0.100000
B(  0-C ,  1-S ) :   0.9140 B(  0-C ,  6-C ) :   1.3180 B(  0-C ,  7-H ) :   0.8956
B(  0-C ,  8-H ) :   0.8876 B(  0-C ,  9-H ) :   0.1470 B(  0-C , 10-H ) :   0.1290
B(  1-S ,  2-O ) :   1.5550 B(  1-S ,  3-O ) :   1.4943 B(  1-S ,  4-F ) :   0.6390
B(  5-C ,  6-C ) :   1.3032 B(  5-C , 11-H ) :   0.7896 B(  5-C , 12-H ) :   0.7378
B(  5-C , 13-H ) :   0.8534 B(  6-C ,  7-H ) :   0.1261 B(  6-C ,  8-H ) :   0.1417
B(  6-C ,  9-H ) :   0.8578 B(  6-C , 10-H ) :   0.9202 B(  6-C , 11-H ) :   0.2049
B(  6-C , 12-H ) :   0.2052 B(  6-C , 13-H ) :   0.1938 B( 11-H , 13-H ) :   0.1003

Dispersion correction           -0.015874305
FINAL SINGLE POINT ENERGY      -766.648262791965

DIPOLE MOMENT
-------------
                                X             Y             Z
Electronic contribution:    -11.19085       4.08014      -0.70906
Nuclear contribution   :     12.47562      -5.08213       1.41531
                        -----------------------------------------
Total Dipole Moment    :      1.28478      -1.00199       0.70625
                        -----------------------------------------
Magnitude (a.u.)       :      1.77579
Magnitude (Debye)      :      4.51369

Rotational constants in cm-1:     0.128398     0.054249     0.051014
Rotational constants in MHz :  3849.278549  1626.338413  1529.351405

                             ****ORCA TERMINATED NORMALLY****
TOTAL RUN TIME: 0 days 0 hours 0 minutes 12 seconds 931 msec
