                         Program Version 5.0.0 -  RELEASE  -
|  1> !TPSS D3BJ RIJCOSX def2-SVPD def2/J TightSCF xyzfile
|  2>
|  3> *xyzfile 0 1 D3.xyz
|  4>
|  5> %MaxCore 64000
|  6>
|  7> %pal nprocs 4
|  8> end
|  9>
| 10> %scf
| 11>   MaxIter 150
| 12> end
| 13>
| 14>
| 15>                          ****END OF INPUT****

CARTESIAN COORDINATES (ANGSTROEM)
---------------------------------
  C     -4.382623   -1.670889    1.216201
  C     -5.763539   -1.915170    0.705012
  C     -3.281728   -2.191272    0.294361
  C     -5.572364   -5.807798   -0.816445
  S     -6.903179   -4.619033   -0.528458
  H     -5.840812   -2.115205   -0.300646
  H     -6.408823   -1.148656    0.936124
  H     -6.174781   -2.790606    1.051433
  O     -8.114853   -5.250932   -0.957007
  O     -6.532715   -3.426838   -1.314848
  H     -4.328618   -2.139223    2.198103
  H     -4.261583   -0.597399    1.357248
  F     -6.865632   -4.294957    0.914118
  C     -3.474641   -3.605898   -0.259608
  H     -2.354548   -2.127602    0.871433
  H     -3.166611   -1.499693   -0.545037
  C     -3.827078   -4.661097    0.786174
  H     -2.560559   -3.889391   -0.788050
  H     -4.255932   -3.570040   -1.019300
  C     -4.457800   -5.941875    0.229195
  H     -5.177347   -5.542575   -1.797714
  H     -6.074202   -6.768894   -0.921272
  H     -4.530506   -4.253640    1.511979
  H     -2.933400   -4.932302    1.356825
  H     -3.681064   -6.562236   -0.229885
  H     -4.843942   -6.512728    1.075805

 Total Charge           Charge          ....    0
 Multiplicity           Mult            ....    1
 Number of Electrons    NEL             ....   98
 Basis Dimension        Dim             ....  356

ORBITAL ENERGIES
----------------

  NO   OCC          E(Eh)            E(eV)
   0   2.0000     -88.625332     -2411.6179
   1   2.0000     -24.529632      -667.4852
   2   2.0000     -18.920324      -514.8482
   3   2.0000     -18.905596      -514.4474
   4   2.0000     -10.063347      -273.8376
   5   2.0000     -10.034352      -273.0486
   6   2.0000     -10.011560      -272.4284
   7   2.0000      -9.996970      -272.0314
   8   2.0000      -9.989836      -271.8372
   9   2.0000      -9.980341      -271.5789
  10   2.0000      -9.935095      -270.3477
  11   2.0000      -7.985206      -217.2885
  12   2.0000      -5.975464      -162.6006
  13   2.0000      -5.969195      -162.4300
  14   2.0000      -5.967266      -162.3776
  15   2.0000      -1.271469       -34.5984
  16   2.0000      -1.043874       -28.4053
  17   2.0000      -0.948216       -25.8023
  18   2.0000      -0.777176       -21.1480
  19   2.0000      -0.739566       -20.1246
  20   2.0000      -0.695529       -18.9263
  21   2.0000      -0.670288       -18.2395
  22   2.0000      -0.637825       -17.3561
  23   2.0000      -0.601513       -16.3680
  24   2.0000      -0.568197       -15.4614
  25   2.0000      -0.529237       -14.4013
  26   2.0000      -0.524596       -14.2750
  27   2.0000      -0.502089       -13.6625
  28   2.0000      -0.496098       -13.4995
  29   2.0000      -0.454942       -12.3796
  30   2.0000      -0.447330       -12.1725
  31   2.0000      -0.430224       -11.7070
  32   2.0000      -0.415622       -11.3096
  33   2.0000      -0.410913       -11.1815
  34   2.0000      -0.405422       -11.0321
  35   2.0000      -0.387208       -10.5365
  36   2.0000      -0.363580        -9.8935
  37   2.0000      -0.357691        -9.7333
  38   2.0000      -0.352427        -9.5900
  39   2.0000      -0.349312        -9.5053
  40   2.0000      -0.322757        -8.7827
  41   2.0000      -0.317187        -8.6311
  42   2.0000      -0.309777        -8.4295
  43   2.0000      -0.296280        -8.0622
  44   2.0000      -0.294184        -8.0052
  45   2.0000      -0.285859        -7.7786
  46   2.0000      -0.271759        -7.3950
  47   2.0000      -0.269867        -7.3435
  48   2.0000      -0.250139        -6.8066
  49   0.0000      -0.027010        -0.7350
  50   0.0000       0.004104         0.1117
  51   0.0000       0.014155         0.3852
  52   0.0000       0.016487         0.4486
  53   0.0000       0.020997         0.5714

MULLIKEN ATOMIC CHARGES
-----------------------
   0 C :   -0.093841
   1 C :    1.785528
   2 C :    0.394874
   3 C :    0.125053
   4 S :    1.422946
   5 H :   -0.320121
   6 H :   -0.379496
   7 H :   -0.837583
   8 O :   -0.720467
   9 O :   -0.658340
  10 H :    0.147199
  11 H :   -0.371675
  12 F :   -0.496199
  13 C :    0.082159
  14 H :   -0.040107
  15 H :    0.087462
  16 C :    0.005590
  17 H :   -0.302524
  18 H :   -0.009679
  19 C :    0.417828
  20 H :    0.192742
  21 H :   -0.216844
  22 H :   -0.006621
  23 H :   -0.211473
  24 H :    0.003567
  25 H :    0.000022
Sum of atomic charges:    0.0000000

LOEWDIN ATOMIC CHARGES
----------------------
   0 C :   -0.036460
   1 C :    0.149049
   2 C :   -0.013915
   3 C :   -0.020271
   4 S :    1.150122
   5 H :   -0.097153
   6 H :   -0.020954
   7 H :   -0.111622
   8 O :   -0.431619
   9 O :   -0.447178
  10 H :    0.010281
  11 H :    0.013455
  12 F :   -0.267210
  13 C :   -0.001279
  14 H :    0.012439
  15 H :    0.023300
  16 C :   -0.005751
  17 H :    0.021328
  18 H :   -0.018568
  19 C :   -0.018962
  20 H :    0.026104
  21 H :    0.012576
  22 H :   -0.008227
  23 H :    0.027866
  24 H :    0.029136
  25 H :    0.023516

  Mayer bond orders larger than 0.100000
B(  0-C ,  1-C ) :   1.0717 B(  0-C ,  2-C ) :   1.1614 B(  0-C ,  5-H ) :   0.3319
B(  0-C ,  7-H ) :   0.3893 B(  0-C , 10-H ) :   0.6879 B(  0-C , 11-H ) :   1.0544
B(  0-C , 14-H ) :   0.1692 B(  0-C , 15-H ) :   0.1550 B(  1-C ,  2-C ) :   0.1671
B(  1-C ,  6-H ) :   0.6198 B(  1-C ,  7-H ) :  -0.4509 B(  1-C , 10-H ) :   0.2026
B(  1-C , 17-H ) :   0.1111 B(  2-C , 10-H ) :   0.1209 B(  2-C , 13-C ) :   1.2800
B(  2-C , 14-H ) :   0.7795 B(  2-C , 15-H ) :   0.6698 B(  2-C , 17-H ) :   0.1131
B(  2-C , 18-H ) :   0.1139 B(  3-C ,  4-S ) :   0.9034 B(  3-C ,  8-O ) :   0.1147
B(  3-C , 19-C ) :   1.2290 B(  3-C , 20-H ) :   0.8450 B(  3-C , 21-H ) :   0.9348
B(  3-C , 24-H ) :   0.1265 B(  3-C , 25-H ) :   0.1155 B(  4-S ,  8-O ) :   1.5500
B(  4-S ,  9-O ) :   1.4330 B(  4-S , 12-F ) :   0.6114 B(  5-H ,  6-H ) :  -0.1139
B(  5-H ,  7-H ) :   0.9602 B(  5-H ,  9-O ) :   0.1483 B(  5-H , 11-H ) :   0.1503
B(  5-H , 17-H ) :  -0.1077 B(  5-H , 18-H ) :   0.1590 B(  6-H , 11-H ) :  -0.1331
B(  6-H , 17-H ) :   0.1140 B(  6-H , 18-H ) :  -0.1442 B(  7-H , 10-H ) :  -0.1109
B(  7-H , 11-H ) :   0.1048 B(  7-H , 12-F ) :   0.1352 B(  7-H , 17-H ) :  -0.1187
B(  9-O , 12-F ) :   0.1190 B( 10-H , 11-H ) :  -0.1990 B( 10-H , 22-H ) :   0.1322
B( 11-H , 14-H ) :   0.1034 B( 13-C , 14-H ) :   0.1674 B( 13-C , 15-H ) :   0.2256
B( 13-C , 16-C ) :   1.1886 B( 13-C , 17-H ) :   0.8693 B( 13-C , 18-H ) :   0.8219
B( 13-C , 22-H ) :   0.1088 B( 13-C , 23-H ) :   0.1698 B( 16-C , 17-H ) :   0.1803
B( 16-C , 18-H ) :   0.1690 B( 16-C , 19-C ) :   1.2646 B( 16-C , 22-H ) :   0.8648
B( 16-C , 23-H ) :   0.8537 B( 16-C , 24-H ) :   0.1423 B( 16-C , 25-H ) :   0.2307
B( 19-C , 21-H ) :   0.2072 B( 19-C , 24-H ) :   0.7593 B( 19-C , 25-H ) :   0.6960

Dispersion correction           -0.038063473
FINAL SINGLE POINT ENERGY      -923.788192329079

DIPOLE MOMENT
-------------
                                X             Y             Z
Electronic contribution:    -16.54718      -6.82087      -3.47281
Nuclear contribution   :     17.63907       5.79106       3.97609
                        -----------------------------------------
Total Dipole Moment    :      1.09190      -1.02980       0.50329
                        -----------------------------------------
Magnitude (a.u.)       :      1.58305
Magnitude (Debye)      :      4.02378

Rotational constants in cm-1:     0.048663     0.025472     0.020259
Rotational constants in MHz :  1458.892793   763.621130   607.350055

                             ****ORCA TERMINATED NORMALLY****
TOTAL RUN TIME: 0 days 0 hours 0 minutes 50 seconds 722 msec
