                         Program Version 5.0.0 -  RELEASE  -
|  1> !CAM-B3LYP RIJCOSX def2-TZVPD def2/J TightSCF
|  2> *xyz -1 1
|  3> C         -5.57236       -5.80780       -0.81644
|  4> S         -6.90318       -4.61903       -0.52846
|  5> O         -8.11485       -5.25093       -0.95701
|  6> O         -6.53271       -3.42684       -1.31485
|  7> O         -6.86563       -4.29496        0.91412
|  8> C         -4.45780       -5.94187        0.22919
|  9> H         -5.17735       -5.54257       -1.79771
| 10> H         -6.07420       -6.76889       -0.92127
| 11> H         -3.75515       -6.68239       -0.09144
| 12> H         -4.88182       -6.23486        1.16689
| 13> H         -3.95908       -5.00189        0.34143
| 14> *
| 15> %MaxCore 64000
| 16>
| 17> %pal nprocs 4
| 18> end
| 19>
| 20> %scf
| 21>   MaxIter 150
| 22> end
| 23>
| 24>                          ****END OF INPUT****

CARTESIAN COORDINATES (ANGSTROEM)
---------------------------------
  C     -5.572360   -5.807800   -0.816440
  S     -6.903180   -4.619030   -0.528460
  O     -8.114850   -5.250930   -0.957010
  O     -6.532710   -3.426840   -1.314850
  O     -6.865630   -4.294960    0.914120
  C     -4.457800   -5.941870    0.229190
  H     -5.177350   -5.542570   -1.797710
  H     -6.074200   -6.768890   -0.921270
  H     -3.755150   -6.682390   -0.091440
  H     -4.881820   -6.234860    1.166890
  H     -3.959080   -5.001890    0.341430

 Total Charge           Charge          ....   -1
 Multiplicity           Mult            ....    1
 Number of Electrons    NEL             ....   58
 Basis Dimension        Dim             ....  285

ORBITAL ENERGIES
----------------

  NO   OCC          E(Eh)            E(eV)
   0   2.0000     -88.919410     -2419.6202
   1   2.0000     -18.984627      -516.5980
   2   2.0000     -18.970637      -516.2173
   3   2.0000     -18.969913      -516.1976
   4   2.0000     -10.108336      -275.0618
   5   2.0000     -10.103117      -274.9198
   6   2.0000      -7.962740      -216.6772
   7   2.0000      -5.927345      -161.2913
   8   2.0000      -5.926182      -161.2596
   9   2.0000      -5.925963      -161.2537
  10   2.0000      -1.007382       -27.4123
  11   2.0000      -0.873784       -23.7769
  12   2.0000      -0.850360       -23.1395
  13   2.0000      -0.716800       -19.5051
  14   2.0000      -0.590675       -16.0731
  15   2.0000      -0.456962       -12.4346
  16   2.0000      -0.391626       -10.6567
  17   2.0000      -0.385434       -10.4882
  18   2.0000      -0.346614        -9.4318
  19   2.0000      -0.330060        -8.9814
  20   2.0000      -0.328209        -8.9310
  21   2.0000      -0.294135        -8.0038
  22   2.0000      -0.287999        -7.8369
  23   2.0000      -0.220181        -5.9914
  24   2.0000      -0.218468        -5.9448
  25   2.0000      -0.183673        -4.9980
  26   2.0000      -0.171683        -4.6717
  27   2.0000      -0.167476        -4.5573
  28   2.0000      -0.129647        -3.5279
  29   0.0000       0.143354         3.9009
  30   0.0000       0.162688         4.4270
  31   0.0000       0.166993         4.5441
  32   0.0000       0.176003         4.7893
  33   0.0000       0.193156         5.2560

MULLIKEN ATOMIC CHARGES
-----------------------
   0 C :   -0.501649
   1 S :    1.205086
   2 O :   -0.692059
   3 O :   -0.736234
   4 O :   -0.739240
   5 C :   -1.030707
   6 H :    0.295706
   7 H :    0.293024
   8 H :    0.336343
   9 H :    0.284483
  10 H :    0.285246
Sum of atomic charges:   -1.0000000

LOEWDIN ATOMIC CHARGES
----------------------
   0 C :   -0.318973
   1 S :    0.364744
   2 O :   -0.386591
   3 O :   -0.423644
   4 O :   -0.416960
   5 C :   -0.143874
   6 H :    0.079156
   7 H :    0.075262
   8 H :    0.049814
   9 H :    0.057838
  10 H :    0.063228

  Mayer bond orders larger than 0.100000
B(  0-C ,  1-S ) :   0.9194 B(  0-C ,  2-O ) :   0.1180 B(  0-C ,  3-O ) :   0.1215
B(  0-C ,  5-C ) :   0.5313 B(  0-C ,  6-H ) :   0.9729 B(  0-C ,  7-H ) :   0.9629
B(  1-S ,  2-O ) :   1.5128 B(  1-S ,  3-O ) :   1.4780 B(  1-S ,  4-O ) :   1.4657
B(  5-C ,  8-H ) :   0.9240 B(  5-C ,  9-H ) :   0.9970 B(  5-C , 10-H ) :   0.9850

FINAL SINGLE POINT ENERGY      -703.203231820850

DIPOLE MOMENT
-------------
                                X             Y             Z
Electronic contribution:     -6.64069       4.27622      -0.92306
Nuclear contribution   :      8.13140      -5.68016       0.80206
                        -----------------------------------------
Total Dipole Moment    :      1.49071      -1.40393      -0.12100
                        -----------------------------------------
Magnitude (a.u.)       :      2.05132
Magnitude (Debye)      :      5.21403

Rotational constants in cm-1:     0.162101     0.080498     0.079099
Rotational constants in MHz :  4859.669771  2413.267251  2371.338602

                             ****ORCA TERMINATED NORMALLY****
TOTAL RUN TIME: 0 days 0 hours 1 minutes 9 seconds 785 msec
