                         Program Version 5.0.0 -  RELEASE  -
|  1> !CAM-B3LYP RIJCOSX def2-TZVPD def2/J TightSCF
|  2> *xyz 1 1
|  3> C         -4.38262       -1.67089        1.21620
|  4> N         -5.76354       -1.91517        0.70501
|  5> C         -3.28173       -2.19127        0.29436
|  6> H         -5.84081       -2.11520       -0.30065
|  7> H         -6.40882       -1.14866        0.93612
|  8> H         -6.17478       -2.79061        1.05143
|  9> H         -4.32862       -2.13922        2.19810
| 10> H         -4.26158       -0.59740        1.35725
| 11> H         -3.36057       -1.71407       -0.66008
| 12> H         -3.38775       -3.24919        0.17403
| 13> H         -2.32559       -1.97514        0.72329
| 14> *
| 15> %MaxCore 64000
| 16>
| 17> %pal nprocs 4
| 18> end
| 19>
| 20> %scf
| 21>   MaxIter 150
| 22> end
| 23>
| 24>                          ****END OF INPUT****

CARTESIAN COORDINATES (ANGSTROEM)
---------------------------------
  C     -4.382620   -1.670890    1.216200
  N     -5.763540   -1.915170    0.705010
  C     -3.281730   -2.191270    0.294360
  H     -5.840810   -2.115200   -0.300650
  H     -6.408820   -1.148660    0.936120
  H     -6.174780   -2.790610    1.051430
  H     -4.328620   -2.139220    2.198100
  H     -4.261580   -0.597400    1.357250
  H     -3.360570   -1.714070   -0.660080
  H     -3.387750   -3.249190    0.174030
  H     -2.325590   -1.975140    0.723290

 Total Charge           Charge          ....    1
 Multiplicity           Mult            ....    1
 Number of Electrons    NEL             ....   26
 Basis Dimension        Dim             ....  183

ORBITAL ENERGIES
----------------

  NO   OCC          E(Eh)            E(eV)
   0   2.0000     -14.724594      -400.6766
   1   2.0000     -10.498289      -285.6730
   2   2.0000     -10.416557      -283.4489
   3   2.0000      -1.298826       -35.3429
   4   2.0000      -1.048915       -28.5424
   5   2.0000      -0.927369       -25.2350
   6   2.0000      -0.869116       -23.6498
   7   2.0000      -0.847766       -23.0689
   8   2.0000      -0.772473       -21.0201
   9   2.0000      -0.710475       -19.3330
  10   2.0000      -0.650580       -17.7032
  11   2.0000      -0.633143       -17.2287
  12   2.0000      -0.614980       -16.7344
  13   0.0000      -0.167111        -4.5473
  14   0.0000      -0.110863        -3.0167
  15   0.0000      -0.108150        -2.9429
  16   0.0000      -0.098358        -2.6765
  17   0.0000      -0.071160        -1.9364

MULLIKEN ATOMIC CHARGES
-----------------------
   0 C :   -0.309671
   1 N :   -0.333031
   2 C :   -1.176645
   3 H :    0.343287
   4 H :    0.353747
   5 H :    0.373703
   6 H :    0.317831
   7 H :    0.323273
   8 H :    0.383616
   9 H :    0.375909
  10 H :    0.347980
Sum of atomic charges:    1.0000000

LOEWDIN ATOMIC CHARGES
----------------------
   0 C :   -0.192999
   1 N :    0.180893
   2 C :   -0.056687
   3 H :    0.178728
   4 H :    0.183058
   5 H :    0.180585
   6 H :    0.135012
   7 H :    0.133900
   8 H :    0.082891
   9 H :    0.082310
  10 H :    0.092310

  Mayer bond orders larger than 0.100000
B(  0-C ,  1-N ) :   0.9306 B(  0-C ,  2-C ) :   0.6026 B(  0-C ,  6-H ) :   0.9330
B(  0-C ,  7-H ) :   0.9049 B(  1-N ,  3-H ) :   0.8617 B(  1-N ,  4-H ) :   0.8672
B(  1-N ,  5-H ) :   0.8488 B(  2-C ,  8-H ) :   0.9084 B(  2-C ,  9-H ) :   0.9302
B(  2-C , 10-H ) :   0.9456

FINAL SINGLE POINT ENERGY      -135.503590662478

DIPOLE MOMENT
-------------
                                X             Y             Z
Electronic contribution:     -1.79317       0.24045       0.30847
Nuclear contribution   :      0.19437      -0.25358      -0.32106
                        -----------------------------------------
Total Dipole Moment    :     -1.59880      -0.01313      -0.01259
                        -----------------------------------------
Magnitude (a.u.)       :      1.59891
Magnitude (Debye)      :      4.06410

Rotational constants in cm-1:     1.030014     0.272489     0.242697
Rotational constants in MHz : 30879.030706  8169.007780  7275.865152

                             ****ORCA TERMINATED NORMALLY****
TOTAL RUN TIME: 0 days 0 hours 0 minutes 25 seconds 577 msec
