                         Program Version 5.0.0 -  RELEASE  -
|  1> !CAM-B3LYP RIJCOSX def2-TZVPD def2/J TightSCF xyzfile
|  2>
|  3> *xyzfile 0 1 B.xyz
|  4>
|  5> %MaxCore 64000
|  6>
|  7> %pal nprocs 4
|  8> end
|  9>
| 10> %scf
| 11>   MaxIter 150
| 12> end
| 13>
| 14>
| 15>                          ****END OF INPUT****

CARTESIAN COORDINATES (ANGSTROEM)
---------------------------------
  C     -4.382623   -1.670889    1.216201
  N     -5.763539   -1.915170    0.705012
  C     -3.281728   -2.191272    0.294361
  C     -5.572364   -5.807798   -0.816445
  S     -6.903179   -4.619033   -0.528458
  H     -5.840812   -2.115205   -0.300646
  H     -6.408823   -1.148656    0.936124
  H     -6.174781   -2.790606    1.051433
  O     -8.114853   -5.250932   -0.957007
  O     -6.532715   -3.426838   -1.314848
  H     -4.328618   -2.139223    2.198103
  H     -4.261583   -0.597399    1.357248
  O     -6.865632   -4.294957    0.914118
  C     -3.474641   -3.605898   -0.259608
  H     -2.354548   -2.127602    0.871433
  H     -3.166611   -1.499693   -0.545037
  C     -3.827078   -4.661097    0.786174
  H     -2.560559   -3.889391   -0.788050
  H     -4.255932   -3.570040   -1.019300
  C     -4.457800   -5.941875    0.229195
  H     -5.177347   -5.542575   -1.797714
  H     -6.074202   -6.768894   -0.921272
  H     -4.530506   -4.253640    1.511979
  H     -2.933400   -4.932302    1.356825
  H     -3.681064   -6.562236   -0.229885
  H     -4.843942   -6.512728    1.075805

 Total Charge           Charge          ....    0
 Multiplicity           Mult            ....    1
 Number of Electrons    NEL             ....   98
 Basis Dimension        Dim             ....  560

ORBITAL ENERGIES
----------------

  NO   OCC          E(Eh)            E(eV)
   0   2.0000     -89.088569     -2424.2232
   1   2.0000     -19.155318      -521.2427
   2   2.0000     -19.151362      -521.1351
   3   2.0000     -19.139719      -520.8182
   4   2.0000     -14.495826      -394.4515
   5   2.0000     -10.332458      -281.1605
   6   2.0000     -10.278640      -279.6960
   7   2.0000     -10.252632      -278.9883
   8   2.0000     -10.250925      -278.9419
   9   2.0000     -10.248495      -278.8757
  10   2.0000     -10.246806      -278.8298
  11   2.0000      -8.132672      -221.3013
  12   2.0000      -6.097199      -165.9132
  13   2.0000      -6.096571      -165.8961
  14   2.0000      -6.095265      -165.8606
  15   2.0000      -1.182841       -32.1868
  16   2.0000      -1.091298       -29.6957
  17   2.0000      -1.042351       -28.3638
  18   2.0000      -1.039280       -28.2802
  19   2.0000      -0.916670       -24.9439
  20   2.0000      -0.875761       -23.8307
  21   2.0000      -0.824492       -22.4356
  22   2.0000      -0.772048       -21.0085
  23   2.0000      -0.716577       -19.4991
  24   2.0000      -0.675147       -18.3717
  25   2.0000      -0.664421       -18.0798
  26   2.0000      -0.649296       -17.6682
  27   2.0000      -0.613670       -16.6988
  28   2.0000      -0.583800       -15.8860
  29   2.0000      -0.562602       -15.3092
  30   2.0000      -0.556692       -15.1484
  31   2.0000      -0.541148       -14.7254
  32   2.0000      -0.519854       -14.1459
  33   2.0000      -0.511280       -13.9126
  34   2.0000      -0.502348       -13.6696
  35   2.0000      -0.489834       -13.3291
  36   2.0000      -0.487716       -13.2714
  37   2.0000      -0.455165       -12.3857
  38   2.0000      -0.444221       -12.0879
  39   2.0000      -0.440020       -11.9735
  40   2.0000      -0.412135       -11.2148
  41   2.0000      -0.405967       -11.0469
  42   2.0000      -0.399515       -10.8713
  43   2.0000      -0.389896       -10.6096
  44   2.0000      -0.387115       -10.5339
  45   2.0000      -0.349759        -9.5174
  46   2.0000      -0.343084        -9.3358
  47   2.0000      -0.334264        -9.0958
  48   2.0000      -0.311525        -8.4770
  49   0.0000      -0.001948        -0.0530
  50   0.0000       0.027150         0.7388
  51   0.0000       0.031824         0.8660
  52   0.0000       0.037643         1.0243
  53   0.0000       0.053894         1.4665

MULLIKEN ATOMIC CHARGES
-----------------------
   0 C :   -0.746437
   1 N :   -0.225658
   2 C :   -0.571588
   3 C :   -0.892138
   4 S :    1.335755
   5 H :    0.354446
   6 H :    0.331985
   7 H :    0.344749
   8 O :   -0.621889
   9 O :   -0.857363
  10 H :    0.380502
  11 H :    0.322176
  12 O :   -0.862493
  13 C :   -0.627213
  14 H :    0.306835
  15 H :    0.304917
  16 C :   -0.444307
  17 H :    0.355974
  18 H :    0.435891
  19 C :   -0.656033
  20 H :    0.409748
  21 H :    0.336860
  22 H :    0.330748
  23 H :    0.331625
  24 H :    0.298118
  25 H :    0.324791
Sum of atomic charges:    0.0000000

LOEWDIN ATOMIC CHARGES
----------------------
   0 C :   -0.160901
   1 N :    0.155916
   2 C :   -0.181367
   3 C :   -0.234400
   4 S :    0.470785
   5 H :    0.101738
   6 H :    0.172915
   7 H :    0.062877
   8 O :   -0.312861
   9 O :   -0.391034
  10 H :    0.124430
  11 H :    0.121409
  12 O :   -0.372476
  13 C :   -0.201305
  14 H :    0.118606
  15 H :    0.116908
  16 C :   -0.211059
  17 H :    0.121986
  18 H :    0.086392
  19 C :   -0.214301
  20 H :    0.098036
  21 H :    0.097334
  22 H :    0.085178
  23 H :    0.118153
  24 H :    0.113151
  25 H :    0.113889

  Mayer bond orders larger than 0.100000
B(  0-C ,  1-N ) :   0.9223 B(  0-C ,  2-C ) :   0.7624 B(  0-C , 10-H ) :   0.9266
B(  0-C , 11-H ) :   0.9136 B(  0-C , 16-C ) :   0.1306 B(  1-N ,  5-H ) :   0.8154
B(  1-N ,  6-H ) :   0.8434 B(  1-N ,  7-H ) :   0.8537 B(  2-C , 13-C ) :   0.8187
B(  2-C , 14-H ) :   0.9540 B(  2-C , 15-H ) :   0.9768 B(  3-C ,  4-S ) :   0.9107
B(  3-C ,  8-O ) :   0.1699 B(  3-C ,  9-O ) :   0.1261 B(  3-C , 19-C ) :   0.7027
B(  3-C , 20-H ) :   0.8728 B(  3-C , 21-H ) :   0.9780 B(  4-S ,  8-O ) :   1.3914
B(  4-S ,  9-O ) :   1.3244 B(  4-S , 12-O ) :   1.3444 B(  9-O , 12-O ) :   0.1164
B(  9-O , 18-H ) :  -0.1076 B( 13-C , 16-C ) :   0.3472 B( 13-C , 17-H ) :   0.8990
B( 13-C , 18-H ) :   1.0061 B( 13-C , 19-C ) :   0.1264 B( 13-C , 22-H ) :  -0.1230
B( 16-C , 18-H ) :  -0.1017 B( 16-C , 19-C ) :   0.8861 B( 16-C , 22-H ) :   1.0162
B( 16-C , 23-H ) :   0.9058 B( 19-C , 24-H ) :   0.9680 B( 19-C , 25-H ) :   0.9398

FINAL SINGLE POINT ENERGY      -916.292390334986

DIPOLE MOMENT
-------------
                                X             Y             Z
Electronic contribution:    -13.48814      -2.92643      -3.66709
Nuclear contribution   :     16.18863       5.15617       4.97370
                        -----------------------------------------
Total Dipole Moment    :      2.70049       2.22974       1.30662
                        -----------------------------------------
Magnitude (a.u.)       :      3.73786
Magnitude (Debye)      :      9.50089

Rotational constants in cm-1:     0.048546     0.025588     0.020102
Rotational constants in MHz :  1455.374030   767.095631   602.645620

                             ****ORCA TERMINATED NORMALLY****
TOTAL RUN TIME: 0 days 0 hours 5 minutes 30 seconds 834 msec
