                         Program Version 5.0.0 -  RELEASE  -
|  1> !CAM-B3LYP RIJCOSX def2-TZVPD def2/J TightSCF
|  2> *xyz 0 1
|  3> C         -5.57236       -5.80780       -0.81644
|  4> S         -6.90318       -4.61903       -0.52846
|  5> F         -8.11485       -5.25093       -0.95701
|  6> O         -6.53271       -3.42684       -1.31485
|  7> O         -6.86563       -4.29496        0.91412
|  8> C         -4.45780       -5.94187        0.22919
|  9> H         -5.17735       -5.54257       -1.79771
| 10> H         -6.07420       -6.76889       -0.92127
| 11> H         -3.75515       -6.68239       -0.09144
| 12> H         -4.88182       -6.23486        1.16689
| 13> H         -3.95908       -5.00189        0.34143
| 14> *
| 15> %MaxCore 64000
| 16>
| 17> %pal nprocs 4
| 18> end
| 19>
| 20> %scf
| 21>   MaxIter 150
| 22> end
| 23>
| 24>                          ****END OF INPUT****

CARTESIAN COORDINATES (ANGSTROEM)
---------------------------------
  C     -5.572360   -5.807800   -0.816440
  S     -6.903180   -4.619030   -0.528460
  F     -8.114850   -5.250930   -0.957010
  O     -6.532710   -3.426840   -1.314850
  O     -6.865630   -4.294960    0.914120
  C     -4.457800   -5.941870    0.229190
  H     -5.177350   -5.542570   -1.797710
  H     -6.074200   -6.768890   -0.921270
  H     -3.755150   -6.682390   -0.091440
  H     -4.881820   -6.234860    1.166890
  H     -3.959080   -5.001890    0.341430

 Total Charge           Charge          ....    0
 Multiplicity           Mult            ....    1
 Number of Electrons    NEL             ....   58
 Basis Dimension        Dim             ....  285

ORBITAL ENERGIES
----------------

  NO   OCC          E(Eh)            E(eV)
   0   2.0000     -89.182660     -2426.7836
   1   2.0000     -24.887363      -677.2196
   2   2.0000     -19.205171      -522.5993
   3   2.0000     -19.205039      -522.5957
   4   2.0000     -10.310362      -280.5592
   5   2.0000     -10.264689      -279.3164
   6   2.0000      -8.226448      -223.8530
   7   2.0000      -6.194268      -168.5546
   8   2.0000      -6.187858      -168.3802
   9   2.0000      -6.187451      -168.3691
  10   2.0000      -1.480320       -40.2815
  11   2.0000      -1.179420       -32.0937
  12   2.0000      -1.080326       -29.3972
  13   2.0000      -0.907023       -24.6813
  14   2.0000      -0.822636       -22.3851
  15   2.0000      -0.760441       -20.6927
  16   2.0000      -0.673375       -18.3235
  17   2.0000      -0.670884       -18.2557
  18   2.0000      -0.631035       -17.1713
  19   2.0000      -0.567059       -15.4305
  20   2.0000      -0.552477       -15.0337
  21   2.0000      -0.515088       -14.0163
  22   2.0000      -0.499081       -13.5807
  23   2.0000      -0.475274       -12.9329
  24   2.0000      -0.459932       -12.5154
  25   2.0000      -0.450733       -12.2651
  26   2.0000      -0.393596       -10.7103
  27   2.0000      -0.391653       -10.6574
  28   2.0000      -0.369830       -10.0636
  29   0.0000       0.014526         0.3953
  30   0.0000       0.032032         0.8716
  31   0.0000       0.043633         1.1873
  32   0.0000       0.047535         1.2935
  33   0.0000       0.068444         1.8625

MULLIKEN ATOMIC CHARGES
-----------------------
   0 C :   -0.497095
   1 S :    1.164228
   2 F :   -0.122137
   3 O :   -0.582580
   4 O :   -0.590350
   5 C :   -1.086524
   6 H :    0.348807
   7 H :    0.361341
   8 H :    0.353464
   9 H :    0.322634
  10 H :    0.328213
Sum of atomic charges:   -0.0000000

LOEWDIN ATOMIC CHARGES
----------------------
   0 C :   -0.276450
   1 S :    0.612537
   2 F :   -0.046505
   3 O :   -0.304405
   4 O :   -0.302530
   5 C :   -0.100724
   6 H :    0.099570
   7 H :    0.092013
   8 H :    0.075101
   9 H :    0.072517
  10 H :    0.078875

  Mayer bond orders larger than 0.100000
B(  0-C ,  1-S ) :   0.9044 B(  0-C ,  5-C ) :   0.6045 B(  0-C ,  6-H ) :   0.9366
B(  0-C ,  7-H ) :   0.8683 B(  1-S ,  2-F ) :   1.0315 B(  1-S ,  3-O ) :   1.6742
B(  1-S ,  4-O ) :   1.6629 B(  5-C ,  8-H ) :   0.9133 B(  5-C ,  9-H ) :   0.9607
B(  5-C , 10-H ) :   0.9542

FINAL SINGLE POINT ENERGY      -727.716055234684

DIPOLE MOMENT
-------------
                                X             Y             Z
Electronic contribution:     -9.38039       3.54346      -1.86687
Nuclear contribution   :      9.80704      -5.24335       1.35017
                        -----------------------------------------
Total Dipole Moment    :      0.42664      -1.69989      -0.51669
                        -----------------------------------------
Magnitude (a.u.)       :      1.82719
Magnitude (Debye)      :      4.64436

Rotational constants in cm-1:     0.156316     0.078308     0.076228
Rotational constants in MHz :  4686.224999  2347.601204  2285.245115

                             ****ORCA TERMINATED NORMALLY****
TOTAL RUN TIME: 0 days 0 hours 1 minutes 9 seconds 372 msec
