                         Program Version 5.0.0 -  RELEASE  -
|  1> !CAM-B3LYP RIJCOSX def2-TZVPD def2/J TightSCF
|  2> *xyz 0 1
|  3> C         -4.38262       -1.67089        1.21620
|  4> C         -5.76354       -1.91517        0.70501
|  5> C         -3.28173       -2.19127        0.29436
|  6> H         -5.84081       -2.11520       -0.30065
|  7> H         -6.40882       -1.14866        0.93612
|  8> H         -6.17478       -2.79061        1.05143
|  9> H         -4.32862       -2.13922        2.19810
| 10> H         -4.26158       -0.59740        1.35725
| 11> H         -3.36057       -1.71407       -0.66008
| 12> H         -3.38775       -3.24919        0.17403
| 13> H         -2.32559       -1.97514        0.72329
| 14> *
| 15> %MaxCore 64000
| 16>
| 17> %pal nprocs 4
| 18> end
| 19>
| 20> %scf
| 21>   MaxIter 150
| 22> end
| 23>
| 24>                          ****END OF INPUT****

CARTESIAN COORDINATES (ANGSTROEM)
---------------------------------
  C     -4.382620   -1.670890    1.216200
  C     -5.763540   -1.915170    0.705010
  C     -3.281730   -2.191270    0.294360
  H     -5.840810   -2.115200   -0.300650
  H     -6.408820   -1.148660    0.936120
  H     -6.174780   -2.790610    1.051430
  H     -4.328620   -2.139220    2.198100
  H     -4.261580   -0.597400    1.357250
  H     -3.360570   -1.714070   -0.660080
  H     -3.387750   -3.249190    0.174030
  H     -2.325590   -1.975140    0.723290

 Total Charge           Charge          ....    0
 Multiplicity           Mult            ....    1
 Number of Electrons    NEL             ....   26
 Basis Dimension        Dim             ....  183

ORBITAL ENERGIES
----------------

  NO   OCC          E(Eh)            E(eV)
   0   2.0000     -10.229733      -278.3652
   1   2.0000     -10.220150      -278.1044
   2   2.0000     -10.201069      -277.5852
   3   2.0000      -0.871382       -23.7115
   4   2.0000      -0.772604       -21.0236
   5   2.0000      -0.667231       -18.1563
   6   2.0000      -0.533980       -14.5303
   7   2.0000      -0.511974       -13.9315
   8   2.0000      -0.478060       -13.0087
   9   2.0000      -0.452879       -12.3235
  10   2.0000      -0.405682       -11.0392
  11   2.0000      -0.398344       -10.8395
  12   2.0000      -0.386032       -10.5045
  13   0.0000       0.039954         1.0872
  14   0.0000       0.061251         1.6667
  15   0.0000       0.064241         1.7481
  16   0.0000       0.089860         2.4452
  17   0.0000       0.113058         3.0765

MULLIKEN ATOMIC CHARGES
-----------------------
   0 C :   -0.079323
   1 C :   -1.286945
   2 C :   -1.153089
   3 H :    0.377194
   4 H :    0.336228
   5 H :    0.361993
   6 H :    0.241818
   7 H :    0.257190
   8 H :    0.320759
   9 H :    0.309962
  10 H :    0.314214
Sum of atomic charges:    0.0000000

LOEWDIN ATOMIC CHARGES
----------------------
   0 C :   -0.308700
   1 C :   -0.128090
   2 C :   -0.117025
   3 H :    0.052202
   4 H :    0.052949
   5 H :    0.052020
   6 H :    0.102190
   7 H :    0.100549
   8 H :    0.066438
   9 H :    0.066781
  10 H :    0.060686

  Mayer bond orders larger than 0.100000
B(  0-C ,  1-C ) :   0.6241 B(  0-C ,  2-C ) :   0.5719 B(  0-C ,  6-H ) :   0.9848
B(  0-C ,  7-H ) :   0.9745 B(  1-C ,  2-C ) :   0.1084 B(  1-C ,  3-H ) :   0.8896
B(  1-C ,  4-H ) :   0.9343 B(  1-C ,  5-H ) :   0.9509 B(  2-C ,  8-H ) :   0.9707
B(  2-C ,  9-H ) :   0.9798 B(  2-C , 10-H ) :   0.9760

FINAL SINGLE POINT ENERGY      -119.091347511133

DIPOLE MOMENT
-------------
                                X             Y             Z
Electronic contribution:      0.18711       0.23824       0.33900
Nuclear contribution   :     -0.21528      -0.24783      -0.32864
                        -----------------------------------------
Total Dipole Moment    :     -0.02817      -0.00959       0.01036
                        -----------------------------------------
Magnitude (a.u.)       :      0.03151
Magnitude (Debye)      :      0.08008

Rotational constants in cm-1:     1.037566     0.286459     0.254172
Rotational constants in MHz : 31105.431429  8587.814531  7619.871198

                             ****ORCA TERMINATED NORMALLY****
TOTAL RUN TIME: 0 days 0 hours 0 minutes 24 seconds 733 msec
