                         Program Version 5.0.0 -  RELEASE  -
|  1> !CAM-B3LYP RIJCOSX def2-TZVPD def2/J TightSCF
|  2> *xyz 0 1
|  3> C         -5.57236       -5.80780       -0.81644
|  4> S         -6.90318       -4.61903       -0.52846
|  5> O         -8.11485       -5.25093       -0.95701
|  6> F         -6.53271       -3.42684       -1.31485
|  7> O         -6.86563       -4.29496        0.91412
|  8> C         -4.45780       -5.94187        0.22919
|  9> H         -5.17735       -5.54257       -1.79771
| 10> H         -6.07420       -6.76889       -0.92127
| 11> H         -3.75515       -6.68239       -0.09144
| 12> H         -4.88182       -6.23486        1.16689
| 13> H         -3.95908       -5.00189        0.34143
| 14> *
| 15> %MaxCore 64000
| 16>
| 17> %pal nprocs 4
| 18> end
| 19>
| 20> %scf
| 21>   MaxIter 150
| 22> end
| 23>
| 24>                          ****END OF INPUT****

CARTESIAN COORDINATES (ANGSTROEM)
---------------------------------
  C     -5.572360   -5.807800   -0.816440
  S     -6.903180   -4.619030   -0.528460
  O     -8.114850   -5.250930   -0.957010
  F     -6.532710   -3.426840   -1.314850
  O     -6.865630   -4.294960    0.914120
  C     -4.457800   -5.941870    0.229190
  H     -5.177350   -5.542570   -1.797710
  H     -6.074200   -6.768890   -0.921270
  H     -3.755150   -6.682390   -0.091440
  H     -4.881820   -6.234860    1.166890
  H     -3.959080   -5.001890    0.341430

 Total Charge           Charge          ....    0
 Multiplicity           Mult            ....    1
 Number of Electrons    NEL             ....   58
 Basis Dimension        Dim             ....  285

ORBITAL ENERGIES
----------------

  NO   OCC          E(Eh)            E(eV)
   0   2.0000     -89.180335     -2426.7203
   1   2.0000     -24.864867      -676.6074
   2   2.0000     -19.219464      -522.9882
   3   2.0000     -19.204728      -522.5872
   4   2.0000     -10.309679      -280.5406
   5   2.0000     -10.264288      -279.3055
   6   2.0000      -8.224136      -223.7901
   7   2.0000      -6.192074      -168.4949
   8   2.0000      -6.185672      -168.3207
   9   2.0000      -6.185053      -168.3039
  10   2.0000      -1.443465       -39.2787
  11   2.0000      -1.196542       -32.5596
  12   2.0000      -1.095826       -29.8189
  13   2.0000      -0.906688       -24.6722
  14   2.0000      -0.808569       -22.0023
  15   2.0000      -0.752303       -20.4712
  16   2.0000      -0.656090       -17.8531
  17   2.0000      -0.645578       -17.5671
  18   2.0000      -0.626747       -17.0546
  19   2.0000      -0.565712       -15.3938
  20   2.0000      -0.553661       -15.0659
  21   2.0000      -0.526735       -14.3332
  22   2.0000      -0.502507       -13.6739
  23   2.0000      -0.472525       -12.8580
  24   2.0000      -0.470638       -12.8067
  25   2.0000      -0.453059       -12.3284
  26   2.0000      -0.406885       -11.0719
  27   2.0000      -0.395184       -10.7535
  28   2.0000      -0.382531       -10.4092
  29   0.0000       0.015412         0.4194
  30   0.0000       0.035758         0.9730
  31   0.0000       0.043206         1.1757
  32   0.0000       0.046825         1.2742
  33   0.0000       0.068776         1.8715

MULLIKEN ATOMIC CHARGES
-----------------------
   0 C :   -0.499512
   1 S :    1.168954
   2 O :   -0.556214
   3 F :   -0.164614
   4 O :   -0.591926
   5 C :   -1.059092
   6 H :    0.376651
   7 H :    0.332263
   8 H :    0.353648
   9 H :    0.320683
  10 H :    0.319159
Sum of atomic charges:   -0.0000000

LOEWDIN ATOMIC CHARGES
----------------------
   0 C :   -0.271418
   1 S :    0.613038
   2 O :   -0.271222
   3 F :   -0.081762
   4 O :   -0.301607
   5 C :   -0.106255
   6 H :    0.096062
   7 H :    0.101462
   8 H :    0.073982
   9 H :    0.073723
  10 H :    0.073998

  Mayer bond orders larger than 0.100000
B(  0-C ,  1-S ) :   0.9039 B(  0-C ,  5-C ) :   0.5879 B(  0-C ,  6-H ) :   0.8653
B(  0-C ,  7-H ) :   0.9381 B(  1-S ,  2-O ) :   1.7078 B(  1-S ,  3-F ) :   0.9913
B(  1-S ,  4-O ) :   1.6579 B(  5-C ,  8-H ) :   0.9221 B(  5-C ,  9-H ) :   0.9784
B(  5-C , 10-H ) :   0.9459

FINAL SINGLE POINT ENERGY      -727.734696726427

DIPOLE MOMENT
-------------
                                X             Y             Z
Electronic contribution:     -6.68801       6.66274      -2.49627
Nuclear contribution   :      8.15840      -7.14411       1.72305
                        -----------------------------------------
Total Dipole Moment    :      1.47039      -0.48137      -0.77322
                        -----------------------------------------
Magnitude (a.u.)       :      1.72963
Magnitude (Debye)      :      4.39637

Rotational constants in cm-1:     0.153926     0.078297     0.077402
Rotational constants in MHz :  4614.585804  2347.272644  2320.438903

                             ****ORCA TERMINATED NORMALLY****
TOTAL RUN TIME: 0 days 0 hours 1 minutes 3 seconds 786 msec
