                         Program Version 5.0.0 -  RELEASE  -
|  1> !CAM-B3LYP RIJCOSX def2-TZVPD def2/J TightSCF
|  2> *xyz 0 1
|  3> C         -5.57236       -5.80780       -0.81644
|  4> S         -6.90318       -4.61903       -0.52846
|  5> O         -8.11485       -5.25093       -0.95701
|  6> O         -6.53271       -3.42684       -1.31485
|  7> F         -6.86563       -4.29496        0.91412
|  8> C         -4.45780       -5.94187        0.22919
|  9> H         -5.17735       -5.54257       -1.79771
| 10> H         -6.07420       -6.76889       -0.92127
| 11> H         -3.75515       -6.68239       -0.09144
| 12> H         -4.88182       -6.23486        1.16689
| 13> H         -3.95908       -5.00189        0.34143
| 14> *
| 15> %MaxCore 64000
| 16>
| 17> %pal nprocs 4
| 18> end
| 19>
| 20> %scf
| 21>   MaxIter 150
| 22> end
| 23>
| 24>                          ****END OF INPUT****

CARTESIAN COORDINATES (ANGSTROEM)
---------------------------------
  C     -5.572360   -5.807800   -0.816440
  S     -6.903180   -4.619030   -0.528460
  O     -8.114850   -5.250930   -0.957010
  O     -6.532710   -3.426840   -1.314850
  F     -6.865630   -4.294960    0.914120
  C     -4.457800   -5.941870    0.229190
  H     -5.177350   -5.542570   -1.797710
  H     -6.074200   -6.768890   -0.921270
  H     -3.755150   -6.682390   -0.091440
  H     -4.881820   -6.234860    1.166890
  H     -3.959080   -5.001890    0.341430

 Total Charge           Charge          ....    0
 Multiplicity           Mult            ....    1
 Number of Electrons    NEL             ....   58
 Basis Dimension        Dim             ....  285

ORBITAL ENERGIES
----------------

  NO   OCC          E(Eh)            E(eV)
   0   2.0000     -89.179829     -2426.7065
   1   2.0000     -24.863593      -676.5728
   2   2.0000     -19.219184      -522.9806
   3   2.0000     -19.204080      -522.5696
   4   2.0000     -10.308925      -280.5201
   5   2.0000     -10.271529      -279.5025
   6   2.0000      -8.223669      -223.7774
   7   2.0000      -6.191699      -168.4847
   8   2.0000      -6.184999      -168.3024
   9   2.0000      -6.184714      -168.2946
  10   2.0000      -1.440660       -39.2023
  11   2.0000      -1.197136       -32.5757
  12   2.0000      -1.096523       -29.8379
  13   2.0000      -0.909602       -24.7515
  14   2.0000      -0.805685       -21.9238
  15   2.0000      -0.756747       -20.5921
  16   2.0000      -0.661527       -18.0011
  17   2.0000      -0.644653       -17.5419
  18   2.0000      -0.618909       -16.8414
  19   2.0000      -0.570389       -15.5211
  20   2.0000      -0.547113       -14.8877
  21   2.0000      -0.522898       -14.2288
  22   2.0000      -0.516555       -14.0562
  23   2.0000      -0.482973       -13.1424
  24   2.0000      -0.467253       -12.7146
  25   2.0000      -0.457054       -12.4371
  26   2.0000      -0.407315       -11.0836
  27   2.0000      -0.393795       -10.7157
  28   2.0000      -0.382086       -10.3971
  29   0.0000       0.012691         0.3453
  30   0.0000       0.039498         1.0748
  31   0.0000       0.041984         1.1425
  32   0.0000       0.046746         1.2720
  33   0.0000       0.071511         1.9459

MULLIKEN ATOMIC CHARGES
-----------------------
   0 C :   -0.424985
   1 S :    1.177544
   2 O :   -0.554249
   3 O :   -0.591884
   4 F :   -0.176845
   5 C :   -1.138661
   6 H :    0.338275
   7 H :    0.346010
   8 H :    0.339318
   9 H :    0.344826
  10 H :    0.340650
Sum of atomic charges:    0.0000000

LOEWDIN ATOMIC CHARGES
----------------------
   0 C :   -0.267827
   1 S :    0.611826
   2 O :   -0.271010
   3 O :   -0.306001
   4 F :   -0.080973
   5 C :   -0.108646
   6 H :    0.105694
   7 H :    0.097525
   8 H :    0.074717
   9 H :    0.069736
  10 H :    0.074958

  Mayer bond orders larger than 0.100000
B(  0-C ,  1-S ) :   0.8893 B(  0-C ,  5-C ) :   0.5356 B(  0-C ,  6-H ) :   0.9295
B(  0-C ,  7-H ) :   0.9221 B(  1-S ,  2-O ) :   1.7077 B(  1-S ,  3-O ) :   1.6686
B(  1-S ,  4-F ) :   0.9870 B(  5-C ,  8-H ) :   0.9431 B(  5-C ,  9-H ) :   0.9322
B(  5-C , 10-H ) :   0.9497

FINAL SINGLE POINT ENERGY      -727.734989895300

DIPOLE MOMENT
-------------
                                X             Y             Z
Electronic contribution:     -7.23616       5.14878       1.31028
Nuclear contribution   :      8.50531      -6.23950      -0.59960
                        -----------------------------------------
Total Dipole Moment    :      1.26915      -1.09072       0.71068
                        -----------------------------------------
Magnitude (a.u.)       :      1.81809
Magnitude (Debye)      :      4.62123

Rotational constants in cm-1:     0.152799     0.080212     0.076962
Rotational constants in MHz :  4580.804531  2404.707790  2307.252710

                             ****ORCA TERMINATED NORMALLY****
TOTAL RUN TIME: 0 days 0 hours 1 minutes 4 seconds 986 msec
