                         Program Version 5.0.0 -  RELEASE  -
|  1> !CAM-B3LYP RIJCOSX def2-TZVPD def2/J TightSCF xyzfile
|  2>
|  3> *xyzfile 0 1 D1.xyz
|  4>
|  5> %MaxCore 64000
|  6>
|  7> %pal nprocs 4
|  8> end
|  9>
| 10> %scf
| 11>   MaxIter 150
| 12> end
| 13>
| 14>
| 15>                          ****END OF INPUT****

CARTESIAN COORDINATES (ANGSTROEM)
---------------------------------
  C     -4.382623   -1.670889    1.216201
  C     -5.763539   -1.915170    0.705012
  C     -3.281728   -2.191272    0.294361
  C     -5.572364   -5.807798   -0.816445
  S     -6.903179   -4.619033   -0.528458
  H     -5.840812   -2.115205   -0.300646
  H     -6.408823   -1.148656    0.936124
  H     -6.174781   -2.790606    1.051433
  F     -8.114853   -5.250932   -0.957007
  O     -6.532715   -3.426838   -1.314848
  H     -4.328618   -2.139223    2.198103
  H     -4.261583   -0.597399    1.357248
  O     -6.865632   -4.294957    0.914118
  C     -3.474641   -3.605898   -0.259608
  H     -2.354548   -2.127602    0.871433
  H     -3.166611   -1.499693   -0.545037
  C     -3.827078   -4.661097    0.786174
  H     -2.560559   -3.889391   -0.788050
  H     -4.255932   -3.570040   -1.019300
  C     -4.457800   -5.941875    0.229195
  H     -5.177347   -5.542575   -1.797714
  H     -6.074202   -6.768894   -0.921272
  H     -4.530506   -4.253640    1.511979
  H     -2.933400   -4.932302    1.356825
  H     -3.681064   -6.562236   -0.229885
  H     -4.843942   -6.512728    1.075805

 Total Charge           Charge          ....    0
 Multiplicity           Mult            ....    1
 Number of Electrons    NEL             ....   98
 Basis Dimension        Dim             ....  560

ORBITAL ENERGIES
----------------

  NO   OCC          E(Eh)            E(eV)
   0   2.0000     -89.189518     -2426.9702
   1   2.0000     -24.891874      -677.3423
   2   2.0000     -19.212761      -522.8058
   3   2.0000     -19.211686      -522.7765
   4   2.0000     -10.311135      -280.5803
   5   2.0000     -10.272493      -279.5288
   6   2.0000     -10.239015      -278.6178
   7   2.0000     -10.228160      -278.3224
   8   2.0000     -10.219775      -278.0942
   9   2.0000     -10.205193      -277.6974
  10   2.0000     -10.146800      -276.1085
  11   2.0000      -8.233632      -224.0485
  12   2.0000      -6.201342      -168.7471
  13   2.0000      -6.195068      -168.5764
  14   2.0000      -6.194691      -168.5661
  15   2.0000      -1.485152       -40.4130
  16   2.0000      -1.192898       -32.4604
  17   2.0000      -1.093921       -29.7671
  18   2.0000      -0.920876       -25.0583
  19   2.0000      -0.879350       -23.9283
  20   2.0000      -0.837083       -22.7782
  21   2.0000      -0.809747       -22.0343
  22   2.0000      -0.772703       -21.0263
  23   2.0000      -0.725471       -19.7411
  24   2.0000      -0.691311       -18.8115
  25   2.0000      -0.680022       -18.5043
  26   2.0000      -0.664214       -18.0742
  27   2.0000      -0.630843       -17.1661
  28   2.0000      -0.615972       -16.7615
  29   2.0000      -0.569022       -15.4839
  30   2.0000      -0.566947       -15.4274
  31   2.0000      -0.542957       -14.7746
  32   2.0000      -0.539239       -14.6734
  33   2.0000      -0.511522       -13.9192
  34   2.0000      -0.503268       -13.6946
  35   2.0000      -0.486253       -13.2316
  36   2.0000      -0.478830       -13.0296
  37   2.0000      -0.454527       -12.3683
  38   2.0000      -0.446776       -12.1574
  39   2.0000      -0.443200       -12.0601
  40   2.0000      -0.413328       -11.2472
  41   2.0000      -0.408755       -11.1228
  42   2.0000      -0.403159       -10.9705
  43   2.0000      -0.398085       -10.8324
  44   2.0000      -0.389521       -10.5994
  45   2.0000      -0.375569       -10.2197
  46   2.0000      -0.357717        -9.7340
  47   2.0000      -0.351808        -9.5732
  48   2.0000      -0.330392        -8.9904
  49   0.0000       0.009603         0.2613
  50   0.0000       0.029478         0.8021
  51   0.0000       0.036041         0.9807
  52   0.0000       0.044562         1.2126
  53   0.0000       0.059789         1.6269

MULLIKEN ATOMIC CHARGES
-----------------------
   0 C :   -0.309783
   1 C :   -1.744277
   2 C :   -0.760972
   3 C :   -0.910719
   4 S :    1.186244
   5 H :    0.621405
   6 H :    0.434228
   7 H :    0.575761
   8 F :   -0.062746
   9 O :   -0.674821
  10 H :    0.298969
  11 H :    0.275737
  12 O :   -0.676627
  13 C :   -0.480103
  14 H :    0.260156
  15 H :    0.292130
  16 C :   -0.478987
  17 H :    0.338149
  18 H :    0.329699
  19 C :   -0.628347
  20 H :    0.424618
  21 H :    0.404735
  22 H :    0.337153
  23 H :    0.325782
  24 H :    0.300023
  25 H :    0.322595
Sum of atomic charges:   -0.0000000

LOEWDIN ATOMIC CHARGES
----------------------
   0 C :   -0.242550
   1 C :   -0.128465
   2 C :   -0.205023
   3 C :   -0.215289
   4 S :    0.674024
   5 H :    0.021620
   6 H :    0.067648
   7 H :   -0.007970
   8 F :   -0.033792
   9 O :   -0.307575
  10 H :    0.103752
  11 H :    0.104122
  12 O :   -0.297291
  13 C :   -0.202747
  14 H :    0.105749
  15 H :    0.113108
  16 C :   -0.200726
  17 H :    0.115105
  18 H :    0.084934
  19 C :   -0.204600
  20 H :    0.106402
  21 H :    0.098145
  22 H :    0.094984
  23 H :    0.121324
  24 H :    0.120077
  25 H :    0.115032

  Mayer bond orders larger than 0.100000
B(  0-C ,  1-C ) :   0.3053 B(  0-C ,  2-C ) :   0.7763 B(  0-C , 10-H ) :   0.9374
B(  0-C , 11-H ) :   0.9832 B(  0-C , 16-C ) :   0.1151 B(  1-C ,  5-H ) :   0.6313
B(  1-C ,  6-H ) :   0.8422 B(  1-C ,  7-H ) :   0.7817 B(  1-C ,  9-O ) :   0.1161
B(  1-C , 12-O ) :   0.1450 B(  2-C , 13-C ) :   0.8845 B(  2-C , 14-H ) :   0.9811
B(  2-C , 15-H ) :   0.9563 B(  2-C , 16-C ) :   0.1044 B(  3-C ,  4-S ) :   0.9147
B(  3-C ,  9-O ) :   0.1198 B(  3-C , 13-C ) :   0.1081 B(  3-C , 19-C ) :   0.7400
B(  3-C , 20-H ) :   0.8660 B(  3-C , 21-H ) :   0.8712 B(  4-S ,  8-F ) :   0.8880
B(  4-S ,  9-O ) :   1.6625 B(  4-S , 12-O ) :   1.7042 B(  5-H ,  9-O ) :  -0.1447
B(  7-H , 12-O ) :  -0.2593 B(  9-O , 12-O ) :   0.1690 B( 13-C , 16-C ) :   0.3919
B( 13-C , 17-H ) :   0.9142 B( 13-C , 18-H ) :   1.0451 B( 13-C , 19-C ) :   0.1051
B( 16-C , 18-H ) :  -0.1097 B( 16-C , 19-C ) :   0.8391 B( 16-C , 22-H ) :   1.0152
B( 16-C , 23-H ) :   0.9089 B( 19-C , 24-H ) :   0.9629 B( 19-C , 25-H ) :   0.9352

FINAL SINGLE POINT ENERGY      -924.171961806800

DIPOLE MOMENT
-------------
                                X             Y             Z
Electronic contribution:    -18.95285      -8.69335      -6.73804
Nuclear contribution   :     19.08524       6.89775       6.14221
                        -----------------------------------------
Total Dipole Moment    :      0.13238      -1.79560      -0.59583
                        -----------------------------------------
Magnitude (a.u.)       :      1.89650
Magnitude (Debye)      :      4.82052

Rotational constants in cm-1:     0.049343     0.024787     0.019726
Rotational constants in MHz :  1479.262779   743.087234   591.370705

                             ****ORCA TERMINATED NORMALLY****
TOTAL RUN TIME: 0 days 0 hours 6 minutes 29 seconds 570 msec
