                         Program Version 5.0.0 -  RELEASE  -
|  1> !CAM-B3LYP RIJCOSX def2-TZVPD def2/J TightSCF xyzfile
|  2>
|  3> *xyzfile 0 1 D2.xyz
|  4>
|  5> %MaxCore 64000
|  6>
|  7> %pal nprocs 4
|  8> end
|  9>
| 10> %scf
| 11>   MaxIter 150
| 12> end
| 13>
| 14>
| 15>                          ****END OF INPUT****

CARTESIAN COORDINATES (ANGSTROEM)
---------------------------------
  C     -4.382623   -1.670889    1.216201
  C     -5.763539   -1.915170    0.705012
  C     -3.281728   -2.191272    0.294361
  C     -5.572364   -5.807798   -0.816445
  S     -6.903179   -4.619033   -0.528458
  H     -5.840812   -2.115205   -0.300646
  H     -6.408823   -1.148656    0.936124
  H     -6.174781   -2.790606    1.051433
  O     -8.114853   -5.250932   -0.957007
  F     -6.532715   -3.426838   -1.314848
  H     -4.328618   -2.139223    2.198103
  H     -4.261583   -0.597399    1.357248
  O     -6.865632   -4.294957    0.914118
  C     -3.474641   -3.605898   -0.259608
  H     -2.354548   -2.127602    0.871433
  H     -3.166611   -1.499693   -0.545037
  C     -3.827078   -4.661097    0.786174
  H     -2.560559   -3.889391   -0.788050
  H     -4.255932   -3.570040   -1.019300
  C     -4.457800   -5.941875    0.229195
  H     -5.177347   -5.542575   -1.797714
  H     -6.074202   -6.768894   -0.921272
  H     -4.530506   -4.253640    1.511979
  H     -2.933400   -4.932302    1.356825
  H     -3.681064   -6.562236   -0.229885
  H     -4.843942   -6.512728    1.075805

 Total Charge           Charge          ....    0
 Multiplicity           Mult            ....    1
 Number of Electrons    NEL             ....   98
 Basis Dimension        Dim             ....  560

ORBITAL ENERGIES
----------------

  NO   OCC          E(Eh)            E(eV)
   0   2.0000     -89.184504     -2426.8337
   1   2.0000     -24.868020      -676.6932
   2   2.0000     -19.222805      -523.0791
   3   2.0000     -19.208006      -522.6764
   4   2.0000     -10.309348      -280.5316
   5   2.0000     -10.272269      -279.5227
   6   2.0000     -10.246287      -278.8156
   7   2.0000     -10.244775      -278.7745
   8   2.0000     -10.233910      -278.4788
   9   2.0000     -10.220615      -278.1171
  10   2.0000     -10.169968      -276.7389
  11   2.0000      -8.228650      -223.9129
  12   2.0000      -6.196541      -168.6165
  13   2.0000      -6.190162      -168.4429
  14   2.0000      -6.189520      -168.4254
  15   2.0000      -1.451181       -39.4886
  16   2.0000      -1.202342       -32.7174
  17   2.0000      -1.105702       -30.0877
  18   2.0000      -0.923582       -25.1319
  19   2.0000      -0.888573       -24.1793
  20   2.0000      -0.839060       -22.8320
  21   2.0000      -0.812001       -22.0957
  22   2.0000      -0.774518       -21.0757
  23   2.0000      -0.736784       -20.0489
  24   2.0000      -0.695851       -18.9351
  25   2.0000      -0.661280       -17.9943
  26   2.0000      -0.649293       -17.6682
  27   2.0000      -0.631875       -17.1942
  28   2.0000      -0.630410       -17.1543
  29   2.0000      -0.572042       -15.5661
  30   2.0000      -0.562997       -15.3199
  31   2.0000      -0.543412       -14.7870
  32   2.0000      -0.535904       -14.5827
  33   2.0000      -0.527592       -14.3565
  34   2.0000      -0.508502       -13.8370
  35   2.0000      -0.494046       -13.4437
  36   2.0000      -0.475137       -12.9291
  37   2.0000      -0.465579       -12.6691
  38   2.0000      -0.459720       -12.5096
  39   2.0000      -0.455516       -12.3952
  40   2.0000      -0.426608       -11.6086
  41   2.0000      -0.421936       -11.4815
  42   2.0000      -0.420063       -11.4305
  43   2.0000      -0.404127       -10.9969
  44   2.0000      -0.393498       -10.7076
  45   2.0000      -0.387073       -10.5328
  46   2.0000      -0.375852       -10.2274
  47   2.0000      -0.374670       -10.1953
  48   2.0000      -0.341433        -9.2909
  49   0.0000       0.016824         0.4578
  50   0.0000       0.030187         0.8214
  51   0.0000       0.037898         1.0312
  52   0.0000       0.041242         1.1222
  53   0.0000       0.058657         1.5961

MULLIKEN ATOMIC CHARGES
-----------------------
   0 C :   -0.299858
   1 C :   -1.849584
   2 C :   -0.755395
   3 C :   -0.882584
   4 S :    1.184241
   5 H :    0.614524
   6 H :    0.433306
   7 H :    0.675455
   8 O :   -0.539804
   9 F :   -0.238862
  10 H :    0.305346
  11 H :    0.274828
  12 O :   -0.660762
  13 C :   -0.468319
  14 H :    0.260149
  15 H :    0.294150
  16 C :   -0.477567
  17 H :    0.339726
  18 H :    0.281679
  19 C :   -0.610710
  20 H :    0.467753
  21 H :    0.335529
  22 H :    0.344981
  23 H :    0.323163
  24 H :    0.312519
  25 H :    0.336094
Sum of atomic charges:   -0.0000000

LOEWDIN ATOMIC CHARGES
----------------------
   0 C :   -0.239301
   1 C :   -0.125241
   2 C :   -0.205298
   3 C :   -0.212110
   4 S :    0.656359
   5 H :    0.033154
   6 H :    0.069893
   7 H :   -0.009136
   8 O :   -0.254590
   9 F :   -0.103933
  10 H :    0.107066
  11 H :    0.106087
  12 O :   -0.295185
  13 C :   -0.204069
  14 H :    0.108522
  15 H :    0.113009
  16 C :   -0.202492
  17 H :    0.117413
  18 H :    0.083128
  19 C :   -0.206681
  20 H :    0.102952
  21 H :    0.107292
  22 H :    0.094955
  23 H :    0.122390
  24 H :    0.118708
  25 H :    0.117107

  Mayer bond orders larger than 0.100000
B(  0-C ,  1-C ) :   0.3041 B(  0-C ,  2-C ) :   0.7799 B(  0-C , 10-H ) :   0.9370
B(  0-C , 11-H ) :   0.9869 B(  0-C , 16-C ) :   0.1189 B(  1-C ,  4-S ) :   0.1135
B(  1-C ,  5-H ) :   0.5820 B(  1-C ,  6-H ) :   0.8369 B(  1-C ,  7-H ) :   0.6249
B(  1-C ,  9-F ) :   0.1645 B(  1-C , 12-O ) :   0.1975 B(  2-C , 13-C ) :   0.8794
B(  2-C , 14-H ) :   0.9732 B(  2-C , 15-H ) :   0.9616 B(  3-C ,  4-S ) :   0.9190
B(  3-C ,  8-O ) :   0.1379 B(  3-C , 19-C ) :   0.6977 B(  3-C , 20-H ) :   0.7888
B(  3-C , 21-H ) :   0.9708 B(  4-S ,  8-O ) :   1.4765 B(  4-S ,  9-F ) :   1.0183
B(  4-S , 12-O ) :   1.6537 B(  5-H ,  9-F ) :  -0.1132 B(  7-H , 12-O ) :  -0.2653
B( 13-C , 16-C ) :   0.3989 B( 13-C , 17-H ) :   0.9085 B( 13-C , 18-H ) :   1.0779
B( 16-C , 18-H ) :  -0.1321 B( 16-C , 19-C ) :   0.8458 B( 16-C , 22-H ) :   1.0085
B( 16-C , 23-H ) :   0.9028 B( 19-C , 24-H ) :   0.9678 B( 19-C , 25-H ) :   0.9343

FINAL SINGLE POINT ENERGY      -924.190234799642

DIPOLE MOMENT
-------------
                                X             Y             Z
Electronic contribution:    -15.95081      -5.37383      -7.22248
Nuclear contribution   :     17.25367       4.78608       6.55647
                        -----------------------------------------
Total Dipole Moment    :      1.30286      -0.58775      -0.66601
                        -----------------------------------------
Magnitude (a.u.)       :      1.57685
Magnitude (Debye)      :      4.00805

Rotational constants in cm-1:     0.048508     0.025517     0.020225
Rotational constants in MHz :  1454.219007   764.979652   606.316599

                             ****ORCA TERMINATED NORMALLY****
TOTAL RUN TIME: 0 days 0 hours 6 minutes 25 seconds 534 msec
