                         Program Version 5.0.0 -  RELEASE  -
|  1> !CAM-B3LYP RIJCOSX def2-TZVPD def2/J TightSCF xyzfile
|  2>
|  3> *xyzfile 0 1 D3.xyz
|  4>
|  5> %MaxCore 64000
|  6>
|  7> %pal nprocs 4
|  8> end
|  9>
| 10> %scf
| 11>   MaxIter 150
| 12> end
| 13>
| 14>
| 15>                          ****END OF INPUT****

CARTESIAN COORDINATES (ANGSTROEM)
---------------------------------
  C     -4.382623   -1.670889    1.216201
  C     -5.763539   -1.915170    0.705012
  C     -3.281728   -2.191272    0.294361
  C     -5.572364   -5.807798   -0.816445
  S     -6.903179   -4.619033   -0.528458
  H     -5.840812   -2.115205   -0.300646
  H     -6.408823   -1.148656    0.936124
  H     -6.174781   -2.790606    1.051433
  O     -8.114853   -5.250932   -0.957007
  O     -6.532715   -3.426838   -1.314848
  H     -4.328618   -2.139223    2.198103
  H     -4.261583   -0.597399    1.357248
  F     -6.865632   -4.294957    0.914118
  C     -3.474641   -3.605898   -0.259608
  H     -2.354548   -2.127602    0.871433
  H     -3.166611   -1.499693   -0.545037
  C     -3.827078   -4.661097    0.786174
  H     -2.560559   -3.889391   -0.788050
  H     -4.255932   -3.570040   -1.019300
  C     -4.457800   -5.941875    0.229195
  H     -5.177347   -5.542575   -1.797714
  H     -6.074202   -6.768894   -0.921272
  H     -4.530506   -4.253640    1.511979
  H     -2.933400   -4.932302    1.356825
  H     -3.681064   -6.562236   -0.229885
  H     -4.843942   -6.512728    1.075805

 Total Charge           Charge          ....    0
 Multiplicity           Mult            ....    1
 Number of Electrons    NEL             ....   98
 Basis Dimension        Dim             ....  560

ORBITAL ENERGIES
----------------

  NO   OCC          E(Eh)            E(eV)
   0   2.0000     -89.183648     -2426.8105
   1   2.0000     -24.867909      -676.6902
   2   2.0000     -19.222415      -523.0685
   3   2.0000     -19.206246      -522.6285
   4   2.0000     -10.308453      -280.5073
   5   2.0000     -10.277069      -279.6533
   6   2.0000     -10.253146      -279.0023
   7   2.0000     -10.237908      -278.5876
   8   2.0000     -10.231084      -278.4019
   9   2.0000     -10.221055      -278.1291
  10   2.0000     -10.171904      -276.7916
  11   2.0000      -8.227871      -223.8917
  12   2.0000      -6.195914      -168.5994
  13   2.0000      -6.189139      -168.4150
  14   2.0000      -6.188825      -168.4065
  15   2.0000      -1.450716       -39.4760
  16   2.0000      -1.202422       -32.7196
  17   2.0000      -1.104453       -30.0537
  18   2.0000      -0.926444       -25.2098
  19   2.0000      -0.887445       -24.1486
  20   2.0000      -0.838882       -22.8271
  21   2.0000      -0.811467       -22.0811
  22   2.0000      -0.775458       -21.1013
  23   2.0000      -0.736504       -20.0413
  24   2.0000      -0.699877       -19.0446
  25   2.0000      -0.664327       -18.0773
  26   2.0000      -0.657879       -17.9018
  27   2.0000      -0.628799       -17.1105
  28   2.0000      -0.619934       -16.8693
  29   2.0000      -0.569824       -15.5057
  30   2.0000      -0.563665       -15.3381
  31   2.0000      -0.547470       -14.8974
  32   2.0000      -0.531336       -14.4584
  33   2.0000      -0.523111       -14.2346
  34   2.0000      -0.517032       -14.0692
  35   2.0000      -0.496836       -13.5196
  36   2.0000      -0.475507       -12.9392
  37   2.0000      -0.463186       -12.6039
  38   2.0000      -0.458475       -12.4757
  39   2.0000      -0.458456       -12.4752
  40   2.0000      -0.428425       -11.6580
  41   2.0000      -0.422281       -11.4909
  42   2.0000      -0.414078       -11.2676
  43   2.0000      -0.399881       -10.8813
  44   2.0000      -0.398580       -10.8459
  45   2.0000      -0.388744       -10.5783
  46   2.0000      -0.370985       -10.0950
  47   2.0000      -0.368492       -10.0272
  48   2.0000      -0.352917        -9.6033
  49   0.0000       0.013502         0.3674
  50   0.0000       0.032697         0.8897
  51   0.0000       0.037513         1.0208
  52   0.0000       0.039629         1.0783
  53   0.0000       0.057166         1.5556

MULLIKEN ATOMIC CHARGES
-----------------------
   0 C :   -0.277414
   1 C :   -1.895383
   2 C :   -0.773071
   3 C :   -0.791589
   4 S :    1.218764
   5 H :    0.717052
   6 H :    0.454178
   7 H :    0.581506
   8 O :   -0.551173
   9 O :   -0.662422
  10 H :    0.300651
  11 H :    0.276550
  12 F :   -0.256229
  13 C :   -0.450218
  14 H :    0.265554
  15 H :    0.299678
  16 C :   -0.455560
  17 H :    0.336504
  18 H :    0.346770
  19 C :   -0.694697
  20 H :    0.421288
  21 H :    0.339198
  22 H :    0.291962
  23 H :    0.325658
  24 H :    0.301268
  25 H :    0.331175
Sum of atomic charges:    0.0000000

LOEWDIN ATOMIC CHARGES
----------------------
   0 C :   -0.241294
   1 C :   -0.123350
   2 C :   -0.203143
   3 C :   -0.206430
   4 S :    0.654879
   5 H :    0.021973
   6 H :    0.070126
   7 H :    0.009580
   8 O :   -0.254536
   9 O :   -0.308186
  10 H :    0.103399
  11 H :    0.106912
  12 F :   -0.100047
  13 C :   -0.202660
  14 H :    0.107206
  15 H :    0.115002
  16 C :   -0.203931
  17 H :    0.117487
  18 H :    0.085759
  19 C :   -0.212732
  20 H :    0.112586
  21 H :    0.103378
  22 H :    0.092836
  23 H :    0.122454
  24 H :    0.119419
  25 H :    0.113312

  Mayer bond orders larger than 0.100000
B(  0-C ,  1-C ) :   0.2900 B(  0-C ,  2-C ) :   0.7715 B(  0-C , 10-H ) :   0.9395
B(  0-C , 11-H ) :   0.9786 B(  0-C , 16-C ) :   0.1001 B(  1-C ,  4-S ) :   0.1018
B(  1-C ,  5-H ) :   0.4746 B(  1-C ,  6-H ) :   0.7874 B(  1-C ,  7-H ) :   0.7193
B(  1-C ,  9-O ) :   0.1865 B(  1-C , 12-F ) :   0.1929 B(  2-C , 13-C ) :   0.8880
B(  2-C , 14-H ) :   0.9817 B(  2-C , 15-H ) :   0.9509 B(  2-C , 16-C ) :   0.1191
B(  3-C ,  4-S ) :   0.8752 B(  3-C ,  8-O ) :   0.1486 B(  3-C ,  9-O ) :   0.1272
B(  3-C , 19-C ) :   0.7038 B(  3-C , 20-H ) :   0.8551 B(  3-C , 21-H ) :   0.9999
B(  4-S ,  8-O ) :   1.4735 B(  4-S ,  9-O ) :   1.6137 B(  4-S , 12-F ) :   1.0773
B(  5-H ,  9-O ) :  -0.1820 B(  7-H , 12-F ) :  -0.2047 B( 13-C , 16-C ) :   0.3629
B( 13-C , 17-H ) :   0.9115 B( 13-C , 18-H ) :   1.0435 B( 13-C , 22-H ) :  -0.1063
B( 16-C , 18-H ) :  -0.1155 B( 16-C , 19-C ) :   0.7847 B( 16-C , 22-H ) :   1.0434
B( 16-C , 23-H ) :   0.9086 B( 19-C , 24-H ) :   0.9555 B( 19-C , 25-H ) :   0.9688

FINAL SINGLE POINT ENERGY      -924.189674049488

DIPOLE MOMENT
-------------
                                X             Y             Z
Electronic contribution:    -16.51208      -6.86165      -3.43954
Nuclear contribution   :     17.63907       5.79106       3.97609
                        -----------------------------------------
Total Dipole Moment    :      1.12700      -1.07059       0.53655
                        -----------------------------------------
Magnitude (a.u.)       :      1.64443
Magnitude (Debye)      :      4.17982

Rotational constants in cm-1:     0.048663     0.025472     0.020259
Rotational constants in MHz :  1458.892793   763.621130   607.350055

                             ****ORCA TERMINATED NORMALLY****
TOTAL RUN TIME: 0 days 0 hours 6 minutes 20 seconds 545 msec
