                         Program Version 5.0.0 -  RELEASE  -
|  1> !LC-PBE RIJCOSX def2-SVP def2/J TightSCF
|  2> *xyz -1 1
|  3> C          0.13297        2.38587       -4.02462
|  4> C         -1.36646        2.47911       -4.31393
|  5> C         -2.35773        2.30686       -3.13675
|  6> H         -1.63680        1.72709       -5.06399
|  7> H         -1.58235        3.44561       -4.76869
|  8> O         -3.44376        2.84652       -3.25274
|  9> O         -1.97092        1.58304       -2.15123
| 10> H          0.68084        2.52514       -4.93310
| 11> H          0.35823        1.42282       -3.61633
| 12> H          0.40851        3.14443       -3.32208
| 13> *
| 14> %MaxCore 64000
| 15>
| 16> %pal nprocs 4
| 17> end
| 18>
| 19> %scf
| 20>   MaxIter 150
| 21> end
| 22>
| 23>
| 24>                          ****END OF INPUT****

CARTESIAN COORDINATES (ANGSTROEM)
---------------------------------
  C      0.132970    2.385870   -4.024620
  C     -1.366460    2.479110   -4.313930
  C     -2.357730    2.306860   -3.136750
  H     -1.636800    1.727090   -5.063990
  H     -1.582350    3.445610   -4.768690
  O     -3.443760    2.846520   -3.252740
  O     -1.970920    1.583040   -2.151230
  H      0.680840    2.525140   -4.933100
  H      0.358230    1.422820   -3.616330
  H      0.408510    3.144430   -3.322080

 Total Charge           Charge          ....   -1
 Multiplicity           Mult            ....    1
 Number of Electrons    NEL             ....   40
 Basis Dimension        Dim             ....   95

ORBITAL ENERGIES
----------------

  NO   OCC          E(Eh)            E(eV)
   0   2.0000     -18.692147      -508.6392
   1   2.0000     -18.679942      -508.3071
   2   2.0000      -9.987082      -271.7623
   3   2.0000      -9.954373      -270.8723
   4   2.0000      -9.937942      -270.4251
   5   2.0000      -0.953334       -25.9415
   6   2.0000      -0.842264       -22.9192
   7   2.0000      -0.763027       -20.7630
   8   2.0000      -0.620135       -16.8747
   9   2.0000      -0.447102       -12.1663
  10   2.0000      -0.429577       -11.6894
  11   2.0000      -0.382578       -10.4105
  12   2.0000      -0.351977        -9.5778
  13   2.0000      -0.339926        -9.2499
  14   2.0000      -0.326981        -8.8976
  15   2.0000      -0.293174        -7.9777
  16   2.0000      -0.278322        -7.5735
  17   2.0000      -0.143953        -3.9172
  18   2.0000      -0.142749        -3.8844
  19   2.0000      -0.130731        -3.5574
  20   0.0000       0.305340         8.3087
  21   0.0000       0.358430         9.7534
  22   0.0000       0.365417         9.9435
  23   0.0000       0.374073        10.1790
  24   0.0000       0.384869        10.4728

MULLIKEN ATOMIC CHARGES
-----------------------
   0 C :   -0.095933
   1 C :   -0.176123
   2 C :    0.021541
   3 H :    0.022114
   4 H :    0.009946
   5 O :   -0.382277
   6 O :   -0.466951
   7 H :   -0.005749
   8 H :    0.041555
   9 H :    0.031877
Sum of atomic charges:   -1.0000000

LOEWDIN ATOMIC CHARGES
----------------------
   0 C :   -0.100751
   1 C :   -0.128598
   2 C :   -0.064004
   3 H :    0.022424
   4 H :    0.013264
   5 O :   -0.355857
   6 O :   -0.439668
   7 H :    0.005585
   8 H :    0.024904
   9 H :    0.022702

  Mayer bond orders larger than 0.100000
B(  0-C ,  1-C ) :   1.0497 B(  0-C ,  7-H ) :   0.9723 B(  0-C ,  8-H ) :   0.9688
B(  0-C ,  9-H ) :   0.9803 B(  1-C ,  2-C ) :   0.8965 B(  1-C ,  3-H ) :   0.9578
B(  1-C ,  4-H ) :   0.9612 B(  2-C ,  5-O ) :   1.9304 B(  2-C ,  6-O ) :   1.8521
B(  5-O ,  6-O ) :   0.1073

FINAL SINGLE POINT ENERGY      -266.832019082072

DIPOLE MOMENT
-------------
                                X             Y             Z
Electronic contribution:     -5.32169      -0.40209       3.25634
Nuclear contribution   :      6.75610       0.63068      -4.53972
                        -----------------------------------------
Total Dipole Moment    :      1.43441       0.22859      -1.28338
                        -----------------------------------------
Magnitude (a.u.)       :      1.93826
Magnitude (Debye)      :      4.92667

Rotational constants in cm-1:     0.335096     0.130241     0.099025
Rotational constants in MHz : 10045.924902  3904.536250  2968.708333

                             ****ORCA TERMINATED NORMALLY****
TOTAL RUN TIME: 0 days 0 hours 0 minutes 11 seconds 246 msec
