                         Program Version 5.0.0 -  RELEASE  -
|  1> !LC-PBE RIJCOSX def2-SVP def2/J TightSCF
|  2> *xyz 1 1
|  3> C          0.64866        1.00359       -3.64560
|  4> N          0.28128        0.67645       -2.24018
|  5> C          0.13297        2.38587       -4.02462
|  6> H          0.39079       -0.31925       -2.02649
|  7> H         -0.69269        0.99010       -2.13812
|  8> H          0.85421        1.21221       -1.57528
|  9> H          0.19099        0.23965       -4.27575
| 10> H          1.73157        0.93173       -3.75075
| 11> H          0.40589        2.60338       -5.03610
| 12> H          0.56342        3.11797       -3.37374
| 13> H         -0.93265        2.40724       -3.93025
| 14> *
| 15> %MaxCore 64000
| 16>
| 17> %pal nprocs 4
| 18> end
| 19>
| 20> %scf
| 21>   MaxIter 150
| 22> end
| 23>
| 24>
| 25>                          ****END OF INPUT****

CARTESIAN COORDINATES (ANGSTROEM)
---------------------------------
  C      0.648660    1.003590   -3.645600
  N      0.281280    0.676450   -2.240180
  C      0.132970    2.385870   -4.024620
  H      0.390790   -0.319250   -2.026490
  H     -0.692690    0.990100   -2.138120
  H      0.854210    1.212210   -1.575280
  H      0.190990    0.239650   -4.275750
  H      1.731570    0.931730   -3.750750
  H      0.405890    2.603380   -5.036100
  H      0.563420    3.117970   -3.373740
  H     -0.932650    2.407240   -3.930250

 Total Charge           Charge          ....    1
 Multiplicity           Mult            ....    1
 Number of Electrons    NEL             ....   26
 Basis Dimension        Dim             ....   82

ORBITAL ENERGIES
----------------

  NO   OCC          E(Eh)            E(eV)
   0   2.0000     -14.567322      -396.3970
   1   2.0000     -10.381021      -282.4819
   2   2.0000     -10.302685      -280.3503
   3   2.0000      -1.386068       -37.7168
   4   2.0000      -1.135077       -30.8870
   5   2.0000      -1.004420       -27.3317
   6   2.0000      -0.952413       -25.9165
   7   2.0000      -0.943990       -25.6873
   8   2.0000      -0.839656       -22.8482
   9   2.0000      -0.784905       -21.3583
  10   2.0000      -0.720428       -19.6038
  11   2.0000      -0.704566       -19.1722
  12   2.0000      -0.683337       -18.5945
  13   0.0000      -0.085374        -2.3232
  14   0.0000      -0.025214        -0.6861
  15   0.0000      -0.021895        -0.5958
  16   0.0000       0.006536         0.1779
  17   0.0000       0.047531         1.2934

MULLIKEN ATOMIC CHARGES
-----------------------
   0 C :   -0.143363
   1 N :   -0.075438
   2 C :   -0.179294
   3 H :    0.250428
   4 H :    0.241961
   5 H :    0.244820
   6 H :    0.151074
   7 H :    0.153946
   8 H :    0.144710
   9 H :    0.106267
  10 H :    0.104888
Sum of atomic charges:    1.0000000

LOEWDIN ATOMIC CHARGES
----------------------
   0 C :    0.023582
   1 N :    0.276958
   2 C :   -0.078759
   3 H :    0.156180
   4 H :    0.153712
   5 H :    0.155525
   6 H :    0.066939
   7 H :    0.067206
   8 H :    0.076565
   9 H :    0.051569
  10 H :    0.050523

  Mayer bond orders larger than 0.100000
B(  0-C ,  1-N ) :   0.9096 B(  0-C ,  2-C ) :   1.0668 B(  0-C ,  6-H ) :   0.9519
B(  0-C ,  7-H ) :   0.9515 B(  1-N ,  3-H ) :   0.9214 B(  1-N ,  4-H ) :   0.9254
B(  1-N ,  5-H ) :   0.9248 B(  2-C ,  8-H ) :   0.9568 B(  2-C ,  9-H ) :   0.9711
B(  2-C , 10-H ) :   0.9661

FINAL SINGLE POINT ENERGY      -134.984139136204

DIPOLE MOMENT
-------------
                                X             Y             Z
Electronic contribution:      0.16216      -1.34437       1.39119
Nuclear contribution   :     -0.22655       0.48066      -0.09136
                        -----------------------------------------
Total Dipole Moment    :     -0.06439      -0.86371       1.29983
                        -----------------------------------------
Magnitude (a.u.)       :      1.56196
Magnitude (Debye)      :      3.97018

Rotational constants in cm-1:     0.998155     0.284845     0.251232
Rotational constants in MHz : 29923.943568  8539.431565  7531.732866

                             ****ORCA TERMINATED NORMALLY****
TOTAL RUN TIME: 0 days 0 hours 0 minutes 8 seconds 716 msec
