                         Program Version 5.0.0 -  RELEASE  -
|  1> !LC-PBE RIJCOSX def2-SVP def2/J TightSCF
|  2> *xyz 0 1
|  3> C          0.13297        2.38587       -4.02462
|  4> C         -1.36646        2.47911       -4.31393
|  5> C         -2.35773        2.30686       -3.13675
|  6> H         -1.63680        1.72709       -5.06399
|  7> H         -1.58235        3.44561       -4.76869
|  8> F         -3.44376        2.84652       -3.25274
|  9> O         -1.97092        1.58304       -2.15123
| 10> H          0.68084        2.52514       -4.93310
| 11> H          0.35823        1.42282       -3.61633
| 12> H          0.40851        3.14443       -3.32208
| 13> *
| 14> %MaxCore 64000
| 15>
| 16> %pal nprocs 4
| 17> end
| 18>
| 19> %scf
| 20>   MaxIter 150
| 21> end
| 22>
| 23>
| 24>                          ****END OF INPUT****

CARTESIAN COORDINATES (ANGSTROEM)
---------------------------------
  C      0.132970    2.385870   -4.024620
  C     -1.366460    2.479110   -4.313930
  C     -2.357730    2.306860   -3.136750
  H     -1.636800    1.727090   -5.063990
  H     -1.582350    3.445610   -4.768690
  F     -3.443760    2.846520   -3.252740
  O     -1.970920    1.583040   -2.151230
  H      0.680840    2.525140   -4.933100
  H      0.358230    1.422820   -3.616330
  H      0.408510    3.144430   -3.322080

 Total Charge           Charge          ....    0
 Multiplicity           Mult            ....    1
 Number of Electrons    NEL             ....   40
 Basis Dimension        Dim             ....   95

ORBITAL ENERGIES
----------------

  NO   OCC          E(Eh)            E(eV)
   0   2.0000     -24.579555      -668.8437
   1   2.0000     -18.983302      -516.5619
   2   2.0000     -10.309677      -280.5406
   3   2.0000     -10.157809      -276.4080
   4   2.0000     -10.126113      -275.5455
   5   2.0000      -1.485715       -40.4284
   6   2.0000      -1.165626       -31.7183
   7   2.0000      -0.967056       -26.3149
   8   2.0000      -0.852871       -23.2078
   9   2.0000      -0.798264       -21.7219
  10   2.0000      -0.717870       -19.5342
  11   2.0000      -0.696978       -18.9657
  12   2.0000      -0.648371       -17.6431
  13   2.0000      -0.609810       -16.5938
  14   2.0000      -0.567190       -15.4340
  15   2.0000      -0.527130       -14.3439
  16   2.0000      -0.504607       -13.7311
  17   2.0000      -0.502555       -13.6752
  18   2.0000      -0.469693       -12.7810
  19   2.0000      -0.416580       -11.3357
  20   0.0000       0.080854         2.2001
  21   0.0000       0.150111         4.0847
  22   0.0000       0.198985         5.4147
  23   0.0000       0.208637         5.6773
  24   0.0000       0.223064         6.0699

MULLIKEN ATOMIC CHARGES
-----------------------
   0 C :   -0.110220
   1 C :   -0.245522
   2 C :    0.222533
   3 H :    0.108936
   4 H :    0.083081
   5 F :   -0.009177
   6 O :   -0.277363
   7 H :    0.067124
   8 H :    0.086804
   9 H :    0.073803
Sum of atomic charges:   -0.0000000

LOEWDIN ATOMIC CHARGES
----------------------
   0 C :   -0.075884
   1 C :   -0.108477
   2 C :    0.082433
   3 H :    0.062032
   4 H :    0.043734
   5 F :    0.100388
   6 O :   -0.228600
   7 H :    0.039855
   8 H :    0.044169
   9 H :    0.040351

  Mayer bond orders larger than 0.100000
B(  0-C ,  1-C ) :   1.0689 B(  0-C ,  7-H ) :   0.9705 B(  0-C ,  8-H ) :   0.9698
B(  0-C ,  9-H ) :   0.9807 B(  1-C ,  2-C ) :   0.9779 B(  1-C ,  3-H ) :   0.9351
B(  1-C ,  4-H ) :   0.9501 B(  2-C ,  5-F ) :   1.2736 B(  2-C ,  6-O ) :   2.0791

FINAL SINGLE POINT ENERGY      -291.346543137702

DIPOLE MOMENT
-------------
                                X             Y             Z
Electronic contribution:     -8.41942       0.46350       3.58983
Nuclear contribution   :      8.54799       0.05434      -4.66633
                        -----------------------------------------
Total Dipole Moment    :      0.12857       0.51784      -1.07649
                        -----------------------------------------
Magnitude (a.u.)       :      1.20147
Magnitude (Debye)      :      3.05389

Rotational constants in cm-1:     0.325803     0.123345     0.094275
Rotational constants in MHz :  9767.324172  3697.779805  2826.305733

                             ****ORCA TERMINATED NORMALLY****
TOTAL RUN TIME: 0 days 0 hours 0 minutes 12 seconds 298 msec
