                         Program Version 5.0.0 -  RELEASE  -
|  1> !LC-PBE RIJCOSX def2-SVP def2/J TightSCF
|  2> *xyz 0 1
|  3> C          0.64866        1.00359       -3.64560
|  4> C          0.28128        0.67645       -2.24018
|  5> C          0.13297        2.38587       -4.02462
|  6> H          0.39079       -0.31925       -2.02649
|  7> H         -0.69269        0.99010       -2.13812
|  8> H          0.85421        1.21221       -1.57528
|  9> H          0.19099        0.23965       -4.27575
| 10> H          1.73157        0.93173       -3.75075
| 11> H          0.40589        2.60338       -5.03610
| 12> H          0.56342        3.11797       -3.37374
| 13> H         -0.93265        2.40724       -3.93025
| 14> *
| 15> %MaxCore 64000
| 16>
| 17> %pal nprocs 4
| 18> end
| 19>
| 20> %scf
| 21>   MaxIter 150
| 22> end
| 23>
| 24>
| 25>                          ****END OF INPUT****

CARTESIAN COORDINATES (ANGSTROEM)
---------------------------------
  C      0.648660    1.003590   -3.645600
  C      0.281280    0.676450   -2.240180
  C      0.132970    2.385870   -4.024620
  H      0.390790   -0.319250   -2.026490
  H     -0.692690    0.990100   -2.138120
  H      0.854210    1.212210   -1.575280
  H      0.190990    0.239650   -4.275750
  H      1.731570    0.931730   -3.750750
  H      0.405890    2.603380   -5.036100
  H      0.563420    3.117970   -3.373740
  H     -0.932650    2.407240   -3.930250

 Total Charge           Charge          ....    0
 Multiplicity           Mult            ....    1
 Number of Electrons    NEL             ....   26
 Basis Dimension        Dim             ....   82

ORBITAL ENERGIES
----------------

  NO   OCC          E(Eh)            E(eV)
   0   2.0000     -10.111504      -275.1480
   1   2.0000     -10.103820      -274.9389
   2   2.0000     -10.085949      -274.4526
   3   2.0000      -0.966260       -26.2933
   4   2.0000      -0.851039       -23.1580
   5   2.0000      -0.739007       -20.1094
   6   2.0000      -0.615439       -16.7470
   7   2.0000      -0.594029       -16.1644
   8   2.0000      -0.540576       -14.7098
   9   2.0000      -0.521323       -14.1859
  10   2.0000      -0.468310       -12.7434
  11   2.0000      -0.463481       -12.6120
  12   2.0000      -0.452891       -12.3238
  13   0.0000       0.156455         4.2573
  14   0.0000       0.206211         5.6113
  15   0.0000       0.207411         5.6439
  16   0.0000       0.212526         5.7831
  17   0.0000       0.241067         6.5598

MULLIKEN ATOMIC CHARGES
-----------------------
   0 C :   -0.197067
   1 C :   -0.068922
   2 C :   -0.138103
   3 H :    0.043066
   4 H :    0.031971
   5 H :    0.037907
   6 H :    0.058580
   7 H :    0.059093
   8 H :    0.059987
   9 H :    0.056395
  10 H :    0.057093
Sum of atomic charges:    0.0000000

LOEWDIN ATOMIC CHARGES
----------------------
   0 C :   -0.068152
   1 C :   -0.077510
   2 C :   -0.088572
   3 H :    0.025045
   4 H :    0.025188
   5 H :    0.025063
   6 H :    0.031722
   7 H :    0.030529
   8 H :    0.033057
   9 H :    0.032039
  10 H :    0.031591

  Mayer bond orders larger than 0.100000
B(  0-C ,  1-C ) :   1.0696 B(  0-C ,  2-C ) :   1.0727 B(  0-C ,  6-H ) :   0.9678
B(  0-C ,  7-H ) :   0.9665 B(  1-C ,  3-H ) :   0.9741 B(  1-C ,  4-H ) :   0.9772
B(  1-C ,  5-H ) :   0.9752 B(  2-C ,  8-H ) :   0.9770 B(  2-C ,  9-H ) :   0.9795
B(  2-C , 10-H ) :   0.9765

FINAL SINGLE POINT ENERGY      -118.607813604185

DIPOLE MOMENT
-------------
                                X             Y             Z
Electronic contribution:      0.25190      -0.26967      -0.24105
Nuclear contribution   :     -0.24754       0.26111       0.24628
                        -----------------------------------------
Total Dipole Moment    :      0.00436      -0.00856       0.00523
                        -----------------------------------------
Magnitude (a.u.)       :      0.01094
Magnitude (Debye)      :      0.02780

Rotational constants in cm-1:     1.006509     0.299509     0.263145
Rotational constants in MHz : 30174.379724  8979.049324  7888.875355

                             ****ORCA TERMINATED NORMALLY****
TOTAL RUN TIME: 0 days 0 hours 0 minutes 9 seconds 231 msec
