                         Program Version 5.0.0 -  RELEASE  -
|  1> !LC-PBE RIJCOSX def2-SVP def2/J TightSCF
|  2> *xyz 0 1
|  3> C          0.13297        2.38587       -4.02462
|  4> C         -1.36646        2.47911       -4.31393
|  5> C         -2.35773        2.30686       -3.13675
|  6> H         -1.63680        1.72709       -5.06399
|  7> H         -1.58235        3.44561       -4.76869
|  8> O         -3.44376        2.84652       -3.25274
|  9> F         -1.97092        1.58304       -2.15123
| 10> H          0.68084        2.52514       -4.93310
| 11> H          0.35823        1.42282       -3.61633
| 12> H          0.40851        3.14443       -3.32208
| 13> *
| 14> %MaxCore 64000
| 15>
| 16> %pal nprocs 4
| 17> end
| 18>
| 19> %scf
| 20>   MaxIter 150
| 21> end
| 22>
| 23>
| 24>                          ****END OF INPUT****

CARTESIAN COORDINATES (ANGSTROEM)
---------------------------------
  C      0.132970    2.385870   -4.024620
  C     -1.366460    2.479110   -4.313930
  C     -2.357730    2.306860   -3.136750
  H     -1.636800    1.727090   -5.063990
  H     -1.582350    3.445610   -4.768690
  O     -3.443760    2.846520   -3.252740
  F     -1.970920    1.583040   -2.151230
  H      0.680840    2.525140   -4.933100
  H      0.358230    1.422820   -3.616330
  H      0.408510    3.144430   -3.322080

 Total Charge           Charge          ....    0
 Multiplicity           Mult            ....    1
 Number of Electrons    NEL             ....   40
 Basis Dimension        Dim             ....   95

ORBITAL ENERGIES
----------------

  NO   OCC          E(Eh)            E(eV)
   0   2.0000     -24.554748      -668.1687
   1   2.0000     -18.993932      -516.8512
   2   2.0000     -10.304397      -280.3969
   3   2.0000     -10.156061      -276.3605
   4   2.0000     -10.131457      -275.6910
   5   2.0000      -1.436446       -39.0877
   6   2.0000      -1.205354       -32.7994
   7   2.0000      -0.970254       -26.4019
   8   2.0000      -0.836440       -22.7607
   9   2.0000      -0.786438       -21.4001
  10   2.0000      -0.692041       -18.8314
  11   2.0000      -0.685458       -18.6523
  12   2.0000      -0.636179       -17.3113
  13   2.0000      -0.608947       -16.5703
  14   2.0000      -0.571784       -15.5590
  15   2.0000      -0.543074       -14.7778
  16   2.0000      -0.524028       -14.2595
  17   2.0000      -0.506032       -13.7698
  18   2.0000      -0.483015       -13.1435
  19   2.0000      -0.426935       -11.6175
  20   0.0000       0.086530         2.3546
  21   0.0000       0.145404         3.9567
  22   0.0000       0.198241         5.3944
  23   0.0000       0.209026         5.6879
  24   0.0000       0.220791         6.0080

MULLIKEN ATOMIC CHARGES
-----------------------
   0 C :   -0.134066
   1 C :   -0.246340
   2 C :    0.234184
   3 H :    0.111611
   4 H :    0.108190
   5 O :   -0.204648
   6 F :   -0.091661
   7 H :    0.074065
   8 H :    0.074141
   9 H :    0.074523
Sum of atomic charges:   -0.0000000

LOEWDIN ATOMIC CHARGES
----------------------
   0 C :   -0.089037
   1 C :   -0.105408
   2 C :    0.092578
   3 H :    0.062354
   4 H :    0.058894
   5 O :   -0.155803
   6 F :    0.018159
   7 H :    0.042689
   8 H :    0.037251
   9 H :    0.038322

  Mayer bond orders larger than 0.100000
B(  0-C ,  1-C ) :   1.0426 B(  0-C ,  7-H ) :   0.9700 B(  0-C ,  8-H ) :   0.9747
B(  0-C ,  9-H ) :   0.9805 B(  1-C ,  2-C ) :   0.9774 B(  1-C ,  3-H ) :   0.9419
B(  1-C ,  4-H ) :   0.9562 B(  2-C ,  5-O ) :   2.1530 B(  2-C ,  6-F ) :   1.1922

FINAL SINGLE POINT ENERGY      -291.365197761364

DIPOLE MOMENT
-------------
                                X             Y             Z
Electronic contribution:     -5.93730      -1.63613       5.40966
Nuclear contribution   :      6.94213       1.43193      -5.86732
                        -----------------------------------------
Total Dipole Moment    :      1.00484      -0.20420      -0.45765
                        -----------------------------------------
Magnitude (a.u.)       :      1.12287
Magnitude (Debye)      :      2.85411

Rotational constants in cm-1:     0.306336     0.129048     0.095707
Rotational constants in MHz :  9183.725605  3868.769583  2869.236577

                             ****ORCA TERMINATED NORMALLY****
TOTAL RUN TIME: 0 days 0 hours 0 minutes 11 seconds 947 msec
