                         Program Version 5.0.0 -  RELEASE  -
|  1> !LC-PBE RIJCOSX def2-TZVP def2/J TightSCF xyzfile
|  2>
|  3> *xyzfile 0 1 D1.xyz
|  4>
|  5> %MaxCore 64000
|  6>
|  7> %pal nprocs 18
|  8> end
|  9>
| 10> %scf
| 11>   MaxIter 150
| 12> end
| 13>
| 14>
| 15>                          ****END OF INPUT****

CARTESIAN COORDINATES (ANGSTROEM)
---------------------------------
  C      0.648656    1.003595   -3.645601
  C      0.281280    0.676454   -2.240179
  C      0.132968    2.385869   -4.024618
  C     -1.366462    2.479106   -4.313932
  C     -2.357732    2.306858   -3.136753
  H     -1.636802    1.727095   -5.063993
  H     -1.582347    3.445605   -4.768687
  H      0.390790   -0.319253   -2.026495
  H     -0.692686    0.990104   -2.138123
  H      0.854206    1.212214   -1.575279
  F     -3.443763    2.846518   -3.252744
  O     -1.970922    1.583042   -2.151229
  H      0.190993    0.239655   -4.275752
  H      1.731572    0.931729   -3.750751
  H      0.414839    3.102847   -3.245165
  H      0.683167    2.687560   -4.919721

 Total Charge           Charge          ....    0
 Multiplicity           Mult            ....    1
 Number of Electrons    NEL             ....   56
 Basis Dimension        Dim             ....  271

ORBITAL ENERGIES
----------------

  NO   OCC          E(Eh)            E(eV)
   0   2.0000     -24.587412      -669.0575
   1   2.0000     -18.987805      -516.6844
   2   2.0000     -10.321482      -280.8618
   3   2.0000     -10.155843      -276.3546
   4   2.0000     -10.123967      -275.4871
   5   2.0000     -10.094354      -274.6813
   6   2.0000     -10.019449      -272.6431
   7   2.0000      -1.518321       -41.3156
   8   2.0000      -1.206849       -32.8400
   9   2.0000      -0.998221       -27.1630
  10   2.0000      -0.933005       -25.3884
  11   2.0000      -0.853228       -23.2175
  12   2.0000      -0.823552       -22.4100
  13   2.0000      -0.743461       -20.2306
  14   2.0000      -0.730789       -19.8858
  15   2.0000      -0.714545       -19.4438
  16   2.0000      -0.677518       -18.4362
  17   2.0000      -0.632461       -17.2101
  18   2.0000      -0.595418       -16.2021
  19   2.0000      -0.578306       -15.7365
  20   2.0000      -0.550636       -14.9836
  21   2.0000      -0.520029       -14.1507
  22   2.0000      -0.512809       -13.9542
  23   2.0000      -0.489251       -13.3132
  24   2.0000      -0.475096       -12.9280
  25   2.0000      -0.447415       -12.1748
  26   2.0000      -0.439287       -11.9536
  27   2.0000      -0.373486       -10.1631
  28   0.0000       0.056775         1.5449
  29   0.0000       0.114003         3.1022
  30   0.0000       0.146644         3.9904
  31   0.0000       0.155461         4.2303
  32   0.0000       0.168052         4.5729

MULLIKEN ATOMIC CHARGES
-----------------------
   0 C :   -0.248135
   1 C :   -0.487549
   2 C :   -0.302134
   3 C :   -0.359268
   4 C :    0.336540
   5 H :    0.181548
   6 H :    0.176402
   7 H :    0.125477
   8 H :    0.199164
   9 H :    0.127312
  10 F :   -0.022271
  11 O :   -0.290647
  12 H :    0.119414
  13 H :    0.129117
  14 H :    0.162147
  15 H :    0.152882
Sum of atomic charges:    0.0000000

LOEWDIN ATOMIC CHARGES
----------------------
   0 C :   -0.319399
   1 C :   -0.340534
   2 C :   -0.276769
   3 C :   -0.250170
   4 C :   -0.493258
   5 H :    0.168081
   6 H :    0.156349
   7 H :    0.105437
   8 H :    0.072634
   9 H :    0.108519
  10 F :    0.402669
  11 O :    0.084474
  12 H :    0.141429
  13 H :    0.138546
  14 H :    0.152562
  15 H :    0.149430

  Mayer bond orders larger than 0.100000
B(  0-C ,  1-C ) :   0.9247 B(  0-C ,  2-C ) :   0.9375 B(  0-C , 12-H ) :   0.9797
B(  0-C , 13-H ) :   0.9790 B(  1-C ,  7-H ) :   0.9911 B(  1-C ,  8-H ) :   0.9250
B(  1-C ,  9-H ) :   0.9873 B(  2-C ,  3-C ) :   0.9449 B(  2-C , 14-H ) :   0.9730
B(  2-C , 15-H ) :   0.9757 B(  3-C ,  4-C ) :   0.9943 B(  3-C ,  5-H ) :   0.9319
B(  3-C ,  6-H ) :   0.9640 B(  4-C , 10-F ) :   1.2663 B(  4-C , 11-O ) :   1.9624

FINAL SINGLE POINT ENERGY      -370.003873418154

DIPOLE MOMENT
-------------
                                X             Y             Z
Electronic contribution:    -13.00602       4.61499       1.36826
Nuclear contribution   :     12.79331      -3.91961      -2.45895
                        -----------------------------------------
Total Dipole Moment    :     -0.21271       0.69537      -1.09069
                        -----------------------------------------
Magnitude (a.u.)       :      1.31087
Magnitude (Debye)      :      3.33197

Rotational constants in cm-1:     0.162888     0.059977     0.046450
Rotational constants in MHz :  4883.250030  1798.063289  1392.548669

                             ****ORCA TERMINATED NORMALLY****
TOTAL RUN TIME: 0 days 0 hours 0 minutes 20 seconds 667 msec
