                         Program Version 5.0.0 -  RELEASE  -
|  1> !wB97X-D3 RIJCOSX def2-TZVPD def2/J TightSCF
|  2> *xyz -1 1
|  3> C          1.69499        1.54179       -5.57045
|  4> S          1.78029       -0.03313       -6.42874
|  5> O          2.56929        0.21366       -7.60736
|  6> O          0.41688       -0.46297       -6.61859
|  7> O          2.50513       -0.93326       -5.48257
|  8> H          1.18489        2.25500       -6.18367
|  9> H          2.68564        1.89081       -5.36624
| 10> H          1.16361        1.41804       -4.65000
| 11> *
| 12> %MaxCore 64000
| 13>
| 14> %pal nprocs 8
| 15> end
| 16>
| 17> %scf
| 18>   MaxIter 150
| 19> end
| 20>
| 21>
| 22>                          ****END OF INPUT****

CARTESIAN COORDINATES (ANGSTROEM)
---------------------------------
  C      1.694990    1.541790   -5.570450
  S      1.780290   -0.033130   -6.428740
  O      2.569290    0.213660   -7.607360
  O      0.416880   -0.462970   -6.618590
  O      2.505130   -0.933260   -5.482570
  H      1.184890    2.255000   -6.183670
  H      2.685640    1.890810   -5.366240
  H      1.163610    1.418040   -4.650000

 Total Charge           Charge          ....   -1
 Multiplicity           Mult            ....    1
 Number of Electrons    NEL             ....   50
 Basis Dimension        Dim             ....  230

ORBITAL ENERGIES
----------------

  NO   OCC          E(Eh)            E(eV)
   0   2.0000     -88.934999     -2420.0443
   1   2.0000     -19.010642      -517.3059
   2   2.0000     -19.009457      -517.2736
   3   2.0000     -18.992264      -516.8058
   4   2.0000     -10.123569      -275.4763
   5   2.0000      -7.997549      -217.6244
   6   2.0000      -5.952014      -161.9625
   7   2.0000      -5.950544      -161.9225
   8   2.0000      -5.950181      -161.9127
   9   2.0000      -1.038935       -28.2709
  10   2.0000      -0.910448       -24.7746
  11   2.0000      -0.877617       -23.8812
  12   2.0000      -0.696335       -18.9482
  13   2.0000      -0.492570       -13.4035
  14   2.0000      -0.399396       -10.8681
  15   2.0000      -0.388670       -10.5762
  16   2.0000      -0.387735       -10.5508
  17   2.0000      -0.344595        -9.3769
  18   2.0000      -0.341093        -9.2816
  19   2.0000      -0.248814        -6.7706
  20   2.0000      -0.246876        -6.7178
  21   2.0000      -0.211456        -5.7540
  22   2.0000      -0.204547        -5.5660
  23   2.0000      -0.189966        -5.1692
  24   2.0000      -0.155032        -4.2186
  25   0.0000       0.177227         4.8226
  26   0.0000       0.188507         5.1295
  27   0.0000       0.189285         5.1507
  28   0.0000       0.200170         5.4469
  29   0.0000       0.239455         6.5159

MULLIKEN ATOMIC CHARGES
-----------------------
   0 C :   -0.894767
   1 S :    1.189526
   2 O :   -0.685280
   3 O :   -0.684961
   4 O :   -0.729515
   5 H :    0.272998
   6 H :    0.265503
   7 H :    0.266497
Sum of atomic charges:   -1.0000000

LOEWDIN ATOMIC CHARGES
----------------------
   0 C :   -0.193553
   1 S :    0.318776
   2 O :   -0.398854
   3 O :   -0.398944
   4 O :   -0.442822
   5 H :    0.037325
   6 H :    0.039232
   7 H :    0.038841

  Mayer bond orders larger than 0.100000
B(  0-C ,  1-S ) :   0.8128 B(  0-C ,  2-O ) :   0.1211 B(  0-C ,  3-O ) :   0.1214
B(  0-C ,  4-O ) :   0.1211 B(  0-C ,  5-H ) :   0.9481 B(  0-C ,  6-H ) :   0.9553
B(  0-C ,  7-H ) :   0.9547 B(  1-S ,  2-O ) :   1.5540 B(  1-S ,  3-O ) :   1.5509
B(  1-S ,  4-O ) :   1.4997

Dispersion correction           -0.001521635
FINAL SINGLE POINT ENERGY      -663.904628596694

DIPOLE MOMENT
-------------
                                X             Y             Z
Electronic contribution:      0.11927      -3.69886      -2.18651
Nuclear contribution   :     -0.31747       5.08000       2.69095
                        -----------------------------------------
Total Dipole Moment    :     -0.19821       1.38114       0.50444
                        -----------------------------------------
Magnitude (a.u.)       :      1.48367
Magnitude (Debye)      :      3.77120

Rotational constants in cm-1:     0.172246     0.157831     0.154490
Rotational constants in MHz :  5163.797750  4731.657963  4631.481993

                             ****ORCA TERMINATED NORMALLY****
TOTAL RUN TIME: 0 days 0 hours 0 minutes 20 seconds 86 msec
