                         Program Version 5.0.0 -  RELEASE  -
|  1> !wB97X-D3 RIJCOSX def2-TZVPD def2/J TightSCF
|  2> *xyz 1 1
|  3> C          1.96337       -1.74915       -1.89689
|  4> N          2.73849       -2.01517       -3.09711
|  5> C          4.04974       -2.15472       -3.15204
|  6> N          4.65821       -1.98629       -4.31866
|  7> N          4.76423       -2.45444       -2.05049
|  8> H          4.28736       -2.77626       -1.21750
|  9> H          5.75082       -2.65835       -2.12599
| 10> H          2.34518       -1.69027       -3.97145
| 11> H          4.10900       -1.59268       -5.07176
| 12> H          5.64910       -2.15646       -4.42724
| 13> H          0.92556       -1.68522       -2.14942
| 14> H          2.28268       -0.82430       -1.46378
| 15> H          2.11118       -2.54207       -1.19381
| 16> *
| 17> %MaxCore 64000
| 18>
| 19> %pal nprocs 8
| 20> end
| 21>
| 22> %scf
| 23>   MaxIter 150
| 24> end
| 25>
| 26>
| 27>                          ****END OF INPUT****

CARTESIAN COORDINATES (ANGSTROEM)
---------------------------------
  C      1.963370   -1.749150   -1.896890
  N      2.738490   -2.015170   -3.097110
  C      4.049740   -2.154720   -3.152040
  N      4.658210   -1.986290   -4.318660
  N      4.764230   -2.454440   -2.050490
  H      4.287360   -2.776260   -1.217500
  H      5.750820   -2.658350   -2.125990
  H      2.345180   -1.690270   -3.971450
  H      4.109000   -1.592680   -5.071760
  H      5.649100   -2.156460   -4.427240
  H      0.925560   -1.685220   -2.149420
  H      2.282680   -0.824300   -1.463780
  H      2.111180   -2.542070   -1.193810

 Total Charge           Charge          ....    1
 Multiplicity           Mult            ....    1
 Number of Electrons    NEL             ....   40
 Basis Dimension        Dim             ....  257

ORBITAL ENERGIES
----------------

  NO   OCC          E(Eh)            E(eV)
   0   2.0000     -14.651941      -398.6996
   1   2.0000     -14.649341      -398.6288
   2   2.0000     -14.648358      -398.6021
   3   2.0000     -10.617707      -288.9225
   4   2.0000     -10.478086      -285.1232
   5   2.0000      -1.340384       -36.4737
   6   2.0000      -1.225607       -33.3505
   7   2.0000      -1.212621       -32.9971
   8   2.0000      -1.022932       -27.8354
   9   2.0000      -0.938355       -25.5339
  10   2.0000      -0.890970       -24.2445
  11   2.0000      -0.863007       -23.4836
  12   2.0000      -0.796453       -21.6726
  13   2.0000      -0.789489       -21.4831
  14   2.0000      -0.760137       -20.6844
  15   2.0000      -0.744706       -20.2645
  16   2.0000      -0.692535       -18.8448
  17   2.0000      -0.676545       -18.4097
  18   2.0000      -0.576327       -15.6826
  19   2.0000      -0.551659       -15.0114
  20   0.0000      -0.094067        -2.5597
  21   0.0000      -0.092079        -2.5056
  22   0.0000      -0.057537        -1.5657
  23   0.0000      -0.053724        -1.4619
  24   0.0000      -0.025213        -0.6861

MULLIKEN ATOMIC CHARGES
-----------------------
   0 C :   -0.955307
   1 N :   -0.219608
   2 C :    0.853286
   3 N :   -0.409023
   4 N :   -0.380696
   5 H :    0.207553
   6 H :    0.210977
   7 H :    0.236912
   8 H :    0.209463
   9 H :    0.210816
  10 H :    0.332577
  11 H :    0.382138
  12 H :    0.320912
Sum of atomic charges:    1.0000000

LOEWDIN ATOMIC CHARGES
----------------------
   0 C :   -0.021836
   1 N :    0.038077
   2 C :   -0.434649
   3 N :    0.202679
   4 N :    0.212144
   5 H :    0.129325
   6 H :    0.138585
   7 H :    0.161915
   8 H :    0.141416
   9 H :    0.144332
  10 H :    0.100972
  11 H :    0.099479
  12 H :    0.087562

  Mayer bond orders larger than 0.100000
B(  0-C ,  1-N ) :   0.8478 B(  0-C ,  2-C ) :  -0.1320 B(  0-C , 10-H ) :   0.8976
B(  0-C , 11-H ) :   0.8495 B(  0-C , 12-H ) :   0.9004 B(  1-N ,  2-C ) :   1.2615
B(  1-N ,  3-N ) :   0.1043 B(  1-N ,  7-H ) :   0.9672 B(  2-C ,  3-N ) :   1.0275
B(  2-C ,  4-N ) :   1.1226 B(  3-N ,  8-H ) :   0.9949 B(  3-N ,  9-H ) :   1.0255
B(  4-N ,  5-H ) :   0.9750 B(  4-N ,  6-H ) :   1.0147

Dispersion correction           -0.002387251
FINAL SINGLE POINT ENERGY      -245.108443279198

DIPOLE MOMENT
-------------
                                X             Y             Z
Electronic contribution:      2.05447      -0.55437      -1.80601
Nuclear contribution   :     -1.59972       0.59064       1.48941
                        -----------------------------------------
Total Dipole Moment    :      0.45474       0.03627      -0.31660
                        -----------------------------------------
Magnitude (a.u.)       :      0.55529
Magnitude (Debye)      :      1.41142

Rotational constants in cm-1:     0.309236     0.134358     0.096189
Rotational constants in MHz :  9270.657746  4027.948155  2883.671905

                             ****ORCA TERMINATED NORMALLY****
TOTAL RUN TIME: 0 days 0 hours 0 minutes 27 seconds 796 msec
