                         Program Version 5.0.0 -  RELEASE  -
|  1> !wB97X-D3 RIJCOSX def2-TZVPD def2/J TightSCF
|  2> *xyz 0 1
|  3> C          1.69499        1.54179       -5.57045
|  4> S          1.78029       -0.03313       -6.42874
|  5> F          2.56929        0.21366       -7.60736
|  6> O          0.41688       -0.46297       -6.61859
|  7> O          2.50513       -0.93326       -5.48257
|  8> H          1.18489        2.25500       -6.18367
|  9> H          2.68564        1.89081       -5.36624
| 10> H          1.16361        1.41804       -4.65000
| 11> *
| 12> %MaxCore 64000
| 13>
| 14> %pal nprocs 8
| 15> end
| 16>
| 17> %scf
| 18>   MaxIter 150
| 19> end
| 20>
| 21>
| 22>                          ****END OF INPUT****

CARTESIAN COORDINATES (ANGSTROEM)
---------------------------------
  C      1.694990    1.541790   -5.570450
  S      1.780290   -0.033130   -6.428740
  F      2.569290    0.213660   -7.607360
  O      0.416880   -0.462970   -6.618590
  O      2.505130   -0.933260   -5.482570
  H      1.184890    2.255000   -6.183670
  H      2.685640    1.890810   -5.366240
  H      1.163610    1.418040   -4.650000

 Total Charge           Charge          ....    0
 Multiplicity           Mult            ....    1
 Number of Electrons    NEL             ....   50
 Basis Dimension        Dim             ....  230

ORBITAL ENERGIES
----------------

  NO   OCC          E(Eh)            E(eV)
   0   2.0000     -89.204077     -2427.3663
   1   2.0000     -24.913582      -677.9330
   2   2.0000     -19.250458      -523.8316
   3   2.0000     -19.231582      -523.3180
   4   2.0000     -10.333011      -281.1755
   5   2.0000      -8.266940      -224.9549
   6   2.0000      -6.224343      -169.3730
   7   2.0000      -6.218208      -169.2060
   8   2.0000      -6.217452      -169.1855
   9   2.0000      -1.508012       -41.0351
  10   2.0000      -1.223794       -33.3011
  11   2.0000      -1.118347       -30.4318
  12   2.0000      -0.918983       -25.0068
  13   2.0000      -0.831045       -22.6139
  14   2.0000      -0.712317       -19.3831
  15   2.0000      -0.698692       -19.0124
  16   2.0000      -0.663531       -18.0556
  17   2.0000      -0.580315       -15.7912
  18   2.0000      -0.577383       -15.7114
  19   2.0000      -0.566431       -15.4134
  20   2.0000      -0.536242       -14.5919
  21   2.0000      -0.487341       -13.2612
  22   2.0000      -0.438291       -11.9265
  23   2.0000      -0.420333       -11.4378
  24   2.0000      -0.402651       -10.9567
  25   0.0000       0.047640         1.2963
  26   0.0000       0.062150         1.6912
  27   0.0000       0.069635         1.8949
  28   0.0000       0.073294         1.9944
  29   0.0000       0.107061         2.9133

MULLIKEN ATOMIC CHARGES
-----------------------
   0 C :   -0.921173
   1 S :    1.214130
   2 F :   -0.124325
   3 O :   -0.556932
   4 O :   -0.596372
   5 H :    0.339443
   6 H :    0.332379
   7 H :    0.312850
Sum of atomic charges:    0.0000000

LOEWDIN ATOMIC CHARGES
----------------------
   0 C :   -0.122054
   1 S :    0.576733
   2 F :   -0.052230
   3 O :   -0.279364
   4 O :   -0.321055
   5 H :    0.061624
   6 H :    0.063031
   7 H :    0.073315

  Mayer bond orders larger than 0.100000
B(  0-C ,  1-S ) :   0.8191 B(  0-C ,  3-O ) :   0.1064 B(  0-C ,  4-O ) :   0.1021
B(  0-C ,  5-H ) :   0.8981 B(  0-C ,  6-H ) :   0.9037 B(  0-C ,  7-H ) :   0.9253
B(  1-S ,  2-F ) :   1.0136 B(  1-S ,  3-O ) :   1.7087 B(  1-S ,  4-O ) :   1.6486

Dispersion correction           -0.001531723
FINAL SINGLE POINT ENERGY      -688.420264170886

DIPOLE MOMENT
-------------
                                X             Y             Z
Electronic contribution:      1.41031      -3.23466      -4.17097
Nuclear contribution   :     -1.09446       4.91008       3.93848
                        -----------------------------------------
Total Dipole Moment    :      0.31585       1.67542      -0.23250
                        -----------------------------------------
Magnitude (a.u.)       :      1.72071
Magnitude (Debye)      :      4.37371

Rotational constants in cm-1:     0.163326     0.155515     0.146672
Rotational constants in MHz :  4896.387829  4662.220576  4397.127261

                             ****ORCA TERMINATED NORMALLY****
TOTAL RUN TIME: 0 days 0 hours 0 minutes 19 seconds 992 msec
