                         Program Version 5.0.0 -  RELEASE  -
|  1> !wB97X-D3 RIJCOSX def2-TZVPD def2/J TightSCF
|  2> *xyz 0 1
|  3> C          1.96337       -1.74915       -1.89689
|  4> C          2.73849       -2.01517       -3.09711
|  5> C          4.04974       -2.15472       -3.15204
|  6> N          4.65821       -1.98629       -4.31866
|  7> N          4.76423       -2.45444       -2.05049
|  8> H          4.28736       -2.77626       -1.21750
|  9> H          5.75082       -2.65835       -2.12599
| 10> H          2.34518       -1.69027       -3.97145
| 11> H          4.10900       -1.59268       -5.07176
| 12> H          5.64910       -2.15646       -4.42724
| 13> H          0.92556       -1.68522       -2.14942
| 14> H          2.28268       -0.82430       -1.46378
| 15> H          2.11118       -2.54207       -1.19381
| 16> *
| 17> %MaxCore 64000
| 18>
| 19> %pal nprocs 8
| 20> end
| 21>
| 22> %scf
| 23>   MaxIter 150
| 24> end
| 25>
| 26>
| 27>                          ****END OF INPUT****

CARTESIAN COORDINATES (ANGSTROEM)
---------------------------------
  C      1.963370   -1.749150   -1.896890
  C      2.738490   -2.015170   -3.097110
  C      4.049740   -2.154720   -3.152040
  N      4.658210   -1.986290   -4.318660
  N      4.764230   -2.454440   -2.050490
  H      4.287360   -2.776260   -1.217500
  H      5.750820   -2.658350   -2.125990
  H      2.345180   -1.690270   -3.971450
  H      4.109000   -1.592680   -5.071760
  H      5.649100   -2.156460   -4.427240
  H      0.925560   -1.685220   -2.149420
  H      2.282680   -0.824300   -1.463780
  H      2.111180   -2.542070   -1.193810

 Total Charge           Charge          ....    0
 Multiplicity           Mult            ....    1
 Number of Electrons    NEL             ....   40
 Basis Dimension        Dim             ....  257

ORBITAL ENERGIES
----------------

  NO   OCC          E(Eh)            E(eV)
   0   2.0000     -14.423004      -392.4699
   1   2.0000     -14.418773      -392.3548
   2   2.0000     -10.317173      -280.7445
   3   2.0000     -10.234957      -278.5073
   4   2.0000     -10.191949      -277.3370
   5   2.0000      -1.076720       -29.2991
   6   2.0000      -0.985383       -26.8136
   7   2.0000      -0.868561       -23.6347
   8   2.0000      -0.768713       -20.9177
   9   2.0000      -0.689774       -18.7697
  10   2.0000      -0.643126       -17.5003
  11   2.0000      -0.612311       -16.6618
  12   2.0000      -0.569806       -15.5052
  13   2.0000      -0.522145       -14.2083
  14   2.0000      -0.512314       -13.9408
  15   2.0000      -0.476344       -12.9620
  16   2.0000      -0.453166       -12.3313
  17   2.0000      -0.430730       -11.7208
  18   2.0000      -0.359977        -9.7955
  19   2.0000      -0.243787        -6.6338
  20   0.0000       0.064164         1.7460
  21   0.0000       0.090186         2.4541
  22   0.0000       0.096794         2.6339
  23   0.0000       0.119519         3.2523
  24   0.0000       0.131090         3.5672

MULLIKEN ATOMIC CHARGES
-----------------------
   0 C :   -1.041101
   1 C :   -0.644930
   2 C :    0.728822
   3 N :   -0.439669
   4 N :   -0.410601
   5 H :    0.177824
   6 H :    0.162585
   7 H :    0.287718
   8 H :    0.187200
   9 H :    0.163724
  10 H :    0.319904
  11 H :    0.224125
  12 H :    0.284398
Sum of atomic charges:   -0.0000000

LOEWDIN ATOMIC CHARGES
----------------------
   0 C :   -0.133630
   1 C :   -0.196081
   2 C :   -0.556069
   3 N :    0.099049
   4 N :    0.122504
   5 H :    0.101229
   6 H :    0.098334
   7 H :    0.057921
   8 H :    0.111287
   9 H :    0.102280
  10 H :    0.066446
  11 H :    0.069804
  12 H :    0.056928

  Mayer bond orders larger than 0.100000
B(  0-C ,  1-C ) :   0.7292 B(  0-C , 10-H ) :   0.9613 B(  0-C , 11-H ) :   0.9579
B(  0-C , 12-H ) :   0.9819 B(  1-C ,  2-C ) :   1.2800 B(  1-C ,  7-H ) :   1.0478
B(  2-C ,  3-N ) :   1.0523 B(  2-C ,  4-N ) :   1.0096 B(  2-C ,  7-H ) :  -0.2070
B(  3-N ,  8-H ) :   0.9882 B(  3-N ,  9-H ) :   1.0625 B(  4-N ,  5-H ) :   0.9911
B(  4-N ,  6-H ) :   1.0474

Dispersion correction           -0.002389699
FINAL SINGLE POINT ENERGY      -228.624969176490

DIPOLE MOMENT
-------------
                                X             Y             Z
Electronic contribution:      2.73888      -0.66055      -1.58383
Nuclear contribution   :     -1.78367       0.60166       1.44982
                        -----------------------------------------
Total Dipole Moment    :      0.95521      -0.05889      -0.13402
                        -----------------------------------------
Magnitude (a.u.)       :      0.96637
Magnitude (Debye)      :      2.45630

Rotational constants in cm-1:     0.313991     0.135452     0.097139
Rotational constants in MHz :  9413.212964  4060.745953  2912.144668

                             ****ORCA TERMINATED NORMALLY****
TOTAL RUN TIME: 0 days 0 hours 0 minutes 28 seconds 188 msec
