                         Program Version 5.0.0 -  RELEASE  -
|  1> !wB97X-D3 RIJCOSX def2-TZVPD def2/J TightSCF
|  2> *xyz 0 1
|  3> C          1.69499        1.54179       -5.57045
|  4> S          1.78029       -0.03313       -6.42874
|  5> O          2.56929        0.21366       -7.60736
|  6> F          0.41688       -0.46297       -6.61859
|  7> O          2.50513       -0.93326       -5.48257
|  8> H          1.18489        2.25500       -6.18367
|  9> H          2.68564        1.89081       -5.36624
| 10> H          1.16361        1.41804       -4.65000
| 11> *
| 12> %MaxCore 64000
| 13>
| 14> %pal nprocs 8
| 15> end
| 16>
| 17> %scf
| 18>   MaxIter 150
| 19> end
| 20>
| 21>
| 22>                          ****END OF INPUT****

CARTESIAN COORDINATES (ANGSTROEM)
---------------------------------
  C      1.694990    1.541790   -5.570450
  S      1.780290   -0.033130   -6.428740
  O      2.569290    0.213660   -7.607360
  F      0.416880   -0.462970   -6.618590
  O      2.505130   -0.933260   -5.482570
  H      1.184890    2.255000   -6.183670
  H      2.685640    1.890810   -5.366240
  H      1.163610    1.418040   -4.650000

 Total Charge           Charge          ....    0
 Multiplicity           Mult            ....    1
 Number of Electrons    NEL             ....   50
 Basis Dimension        Dim             ....  230

ORBITAL ENERGIES
----------------

  NO   OCC          E(Eh)            E(eV)
   0   2.0000     -89.203833     -2427.3597
   1   2.0000     -24.913881      -677.9412
   2   2.0000     -19.249313      -523.8004
   3   2.0000     -19.231636      -523.3194
   4   2.0000     -10.333027      -281.1760
   5   2.0000      -8.266735      -224.9493
   6   2.0000      -6.224097      -169.3663
   7   2.0000      -6.218015      -169.2008
   8   2.0000      -6.217249      -169.1799
   9   2.0000      -1.506954       -41.0063
  10   2.0000      -1.224707       -33.3260
  11   2.0000      -1.118042       -30.4235
  12   2.0000      -0.918559       -24.9953
  13   2.0000      -0.831090       -22.6151
  14   2.0000      -0.711890       -19.3715
  15   2.0000      -0.698150       -18.9976
  16   2.0000      -0.663121       -18.0444
  17   2.0000      -0.580379       -15.7929
  18   2.0000      -0.577192       -15.7062
  19   2.0000      -0.567024       -15.4295
  20   2.0000      -0.536106       -14.5882
  21   2.0000      -0.487523       -13.2662
  22   2.0000      -0.437579       -11.9071
  23   2.0000      -0.420292       -11.4367
  24   2.0000      -0.402148       -10.9430
  25   0.0000       0.047386         1.2895
  26   0.0000       0.062061         1.6888
  27   0.0000       0.069545         1.8924
  28   0.0000       0.073212         1.9922
  29   0.0000       0.106907         2.9091

MULLIKEN ATOMIC CHARGES
-----------------------
   0 C :   -0.921250
   1 S :    1.214736
   2 O :   -0.557263
   3 F :   -0.124148
   4 O :   -0.596089
   5 H :    0.339233
   6 H :    0.312219
   7 H :    0.332564
Sum of atomic charges:    0.0000000

LOEWDIN ATOMIC CHARGES
----------------------
   0 C :   -0.122159
   1 S :    0.577259
   2 O :   -0.279497
   3 F :   -0.052777
   4 O :   -0.320755
   5 H :    0.061622
   6 H :    0.073586
   7 H :    0.062721

  Mayer bond orders larger than 0.100000
B(  0-C ,  1-S ) :   0.8192 B(  0-C ,  2-O ) :   0.1060 B(  0-C ,  4-O ) :   0.1023
B(  0-C ,  5-H ) :   0.8981 B(  0-C ,  6-H ) :   0.9252 B(  0-C ,  7-H ) :   0.9042
B(  1-S ,  2-O ) :   1.7115 B(  1-S ,  3-F ) :   1.0105 B(  1-S ,  4-O ) :   1.6496

Dispersion correction           -0.001531061
FINAL SINGLE POINT ENERGY      -688.419501964164

DIPOLE MOMENT
-------------
                                X             Y             Z
Electronic contribution:     -2.18425      -4.36463      -2.51626
Nuclear contribution   :      1.05593       5.58608       2.95063
                        -----------------------------------------
Total Dipole Moment    :     -1.12831       1.22144       0.43437
                        -----------------------------------------
Magnitude (a.u.)       :      1.71863
Magnitude (Debye)      :      4.36842

Rotational constants in cm-1:     0.163930     0.155251     0.146268
Rotational constants in MHz :  4914.487830  4654.318941  4385.000376

                             ****ORCA TERMINATED NORMALLY****
TOTAL RUN TIME: 0 days 0 hours 0 minutes 19 seconds 841 msec
