                         Program Version 5.0.0 -  RELEASE  -
|  1> !wB97X-D3 RIJCOSX def2-TZVPD def2/J TightSCF
|  2> *xyz 0 1
|  3> C          1.96337       -1.74915       -1.89689
|  4> N          2.73849       -2.01517       -3.09711
|  5> C          4.04974       -2.15472       -3.15204
|  6> C          4.65821       -1.98629       -4.31866
|  7> N          4.76423       -2.45444       -2.05049
|  8> H          4.28736       -2.77626       -1.21750
|  9> H          5.75082       -2.65835       -2.12599
| 10> H          2.34518       -1.69027       -3.97145
| 11> H          4.10900       -1.59268       -5.07176
| 12> H          5.64910       -2.15646       -4.42724
| 13> H          0.92556       -1.68522       -2.14942
| 14> H          2.28268       -0.82430       -1.46378
| 15> H          2.11118       -2.54207       -1.19381
| 16> *
| 17> %MaxCore 64000
| 18>
| 19> %pal nprocs 8
| 20> end
| 21>
| 22> %scf
| 23>   MaxIter 150
| 24> end
| 25>
| 26>
| 27>                          ****END OF INPUT****

CARTESIAN COORDINATES (ANGSTROEM)
---------------------------------
  C      1.963370   -1.749150   -1.896890
  N      2.738490   -2.015170   -3.097110
  C      4.049740   -2.154720   -3.152040
  C      4.658210   -1.986290   -4.318660
  N      4.764230   -2.454440   -2.050490
  H      4.287360   -2.776260   -1.217500
  H      5.750820   -2.658350   -2.125990
  H      2.345180   -1.690270   -3.971450
  H      4.109000   -1.592680   -5.071760
  H      5.649100   -2.156460   -4.427240
  H      0.925560   -1.685220   -2.149420
  H      2.282680   -0.824300   -1.463780
  H      2.111180   -2.542070   -1.193810

 Total Charge           Charge          ....    0
 Multiplicity           Mult            ....    1
 Number of Electrons    NEL             ....   40
 Basis Dimension        Dim             ....  257

ORBITAL ENERGIES
----------------

  NO   OCC          E(Eh)            E(eV)
   0   2.0000     -14.422271      -392.4499
   1   2.0000     -14.421926      -392.4406
   2   2.0000     -10.321593      -280.8648
   3   2.0000     -10.304367      -280.3961
   4   2.0000     -10.183225      -277.0996
   5   2.0000      -1.086234       -29.5579
   6   2.0000      -0.998043       -27.1581
   7   2.0000      -0.860477       -23.4148
   8   2.0000      -0.779582       -21.2135
   9   2.0000      -0.705946       -19.2098
  10   2.0000      -0.637170       -17.3383
  11   2.0000      -0.594504       -16.1773
  12   2.0000      -0.574432       -15.6311
  13   2.0000      -0.558024       -15.1846
  14   2.0000      -0.501031       -13.6337
  15   2.0000      -0.486105       -13.2276
  16   2.0000      -0.485106       -13.2004
  17   2.0000      -0.459611       -12.5067
  18   2.0000      -0.350011        -9.5243
  19   2.0000      -0.249861        -6.7991
  20   0.0000       0.062362         1.6970
  21   0.0000       0.089986         2.4487
  22   0.0000       0.096470         2.6251
  23   0.0000       0.120686         3.2840
  24   0.0000       0.130192         3.5427

MULLIKEN ATOMIC CHARGES
-----------------------
   0 C :   -0.940629
   1 N :   -0.216059
   2 C :    1.080807
   3 C :   -1.616252
   4 N :   -0.407345
   5 H :    0.162497
   6 H :    0.181181
   7 H :    0.205759
   8 H :    0.308169
   9 H :    0.308085
  10 H :    0.323061
  11 H :    0.331789
  12 H :    0.278937
Sum of atomic charges:   -0.0000000

LOEWDIN ATOMIC CHARGES
----------------------
   0 C :   -0.078721
   1 N :   -0.036586
   2 C :   -0.571991
   3 C :   -0.009195
   4 N :    0.116671
   5 H :    0.091828
   6 H :    0.109917
   7 H :    0.137581
   8 H :    0.008609
   9 H :    0.007986
  10 H :    0.078773
  11 H :    0.077141
  12 H :    0.067987

  Mayer bond orders larger than 0.100000
B(  0-C ,  1-N ) :   0.8263 B(  0-C ,  2-C ) :  -0.1154 B(  0-C , 10-H ) :   0.9060
B(  0-C , 11-H ) :   0.8993 B(  0-C , 12-H ) :   0.9236 B(  1-N ,  2-C ) :   1.1723
B(  1-N ,  7-H ) :   0.9269 B(  2-C ,  3-C ) :   0.7211 B(  2-C ,  4-N ) :   0.9995
B(  2-C ,  9-H ) :  -0.1178 B(  3-C ,  8-H ) :   0.9676 B(  3-C ,  9-H ) :   1.0579
B(  4-N ,  5-H ) :   1.0252 B(  4-N ,  6-H ) :   1.0093

Dispersion correction           -0.002400261
FINAL SINGLE POINT ENERGY      -228.618249819153

DIPOLE MOMENT
-------------
                                X             Y             Z
Electronic contribution:      0.85380      -0.64207      -0.31155
Nuclear contribution   :     -1.39484       0.60751       1.20240
                        -----------------------------------------
Total Dipole Moment    :     -0.54104      -0.03457       0.89085
                        -----------------------------------------
Magnitude (a.u.)       :      1.04285
Magnitude (Debye)      :      2.65071

Rotational constants in cm-1:     0.316419     0.139940     0.099730
Rotational constants in MHz :  9485.991536  4195.289338  2989.818216

                             ****ORCA TERMINATED NORMALLY****
TOTAL RUN TIME: 0 days 0 hours 0 minutes 29 seconds 726 msec
