                         Program Version 5.0.0 -  RELEASE  -
|  1> !wB97X-D3 RIJCOSX def2-TZVPD def2/J TightSCF
|  2> *xyz 0 1
|  3> C          1.69499        1.54179       -5.57045
|  4> S          1.78029       -0.03313       -6.42874
|  5> O          2.56929        0.21366       -7.60736
|  6> O          0.41688       -0.46297       -6.61859
|  7> F          2.50513       -0.93326       -5.48257
|  8> H          1.18489        2.25500       -6.18367
|  9> H          2.68564        1.89081       -5.36624
| 10> H          1.16361        1.41804       -4.65000
| 11> *
| 12> %MaxCore 64000
| 13>
| 14> %pal nprocs 8
| 15> end
| 16>
| 17> %scf
| 18>   MaxIter 150
| 19> end
| 20>
| 21>
| 22>                          ****END OF INPUT****

CARTESIAN COORDINATES (ANGSTROEM)
---------------------------------
  C      1.694990    1.541790   -5.570450
  S      1.780290   -0.033130   -6.428740
  O      2.569290    0.213660   -7.607360
  O      0.416880   -0.462970   -6.618590
  F      2.505130   -0.933260   -5.482570
  H      1.184890    2.255000   -6.183670
  H      2.685640    1.890810   -5.366240
  H      1.163610    1.418040   -4.650000

 Total Charge           Charge          ....    0
 Multiplicity           Mult            ....    1
 Number of Electrons    NEL             ....   50
 Basis Dimension        Dim             ....  230

ORBITAL ENERGIES
----------------

  NO   OCC          E(Eh)            E(eV)
   0   2.0000     -89.201019     -2427.2831
   1   2.0000     -24.886105      -677.1853
   2   2.0000     -19.249728      -523.8117
   3   2.0000     -19.248544      -523.7795
   4   2.0000     -10.331830      -281.1434
   5   2.0000      -8.263896      -224.8720
   6   2.0000      -6.221354      -169.2917
   7   2.0000      -6.215418      -169.1301
   8   2.0000      -6.214264      -169.0987
   9   2.0000      -1.463454       -39.8226
  10   2.0000      -1.236189       -33.6384
  11   2.0000      -1.145201       -31.1625
  12   2.0000      -0.915980       -24.9251
  13   2.0000      -0.808350       -21.9963
  14   2.0000      -0.690890       -18.8001
  15   2.0000      -0.667485       -18.1632
  16   2.0000      -0.658078       -17.9072
  17   2.0000      -0.580172       -15.7873
  18   2.0000      -0.579735       -15.7754
  19   2.0000      -0.564407       -15.3583
  20   2.0000      -0.544614       -14.8197
  21   2.0000      -0.494411       -13.4536
  22   2.0000      -0.443219       -12.0606
  23   2.0000      -0.438451       -11.9309
  24   2.0000      -0.422433       -11.4950
  25   0.0000       0.050594         1.3767
  26   0.0000       0.064038         1.7426
  27   0.0000       0.070732         1.9247
  28   0.0000       0.072060         1.9609
  29   0.0000       0.106835         2.9071

MULLIKEN ATOMIC CHARGES
-----------------------
   0 C :   -0.921965
   1 S :    1.239745
   2 O :   -0.567164
   3 O :   -0.566751
   4 F :   -0.169259
   5 H :    0.321805
   6 H :    0.331546
   7 H :    0.332043
Sum of atomic charges:    0.0000000

LOEWDIN ATOMIC CHARGES
----------------------
   0 C :   -0.120872
   1 S :    0.577866
   2 O :   -0.280507
   3 O :   -0.280201
   4 F :   -0.094204
   5 H :    0.072319
   6 H :    0.063005
   7 H :    0.062594

  Mayer bond orders larger than 0.100000
B(  0-C ,  1-S ) :   0.8139 B(  0-C ,  2-O ) :   0.1041 B(  0-C ,  3-O ) :   0.1050
B(  0-C ,  5-H ) :   0.9179 B(  0-C ,  6-H ) :   0.9044 B(  0-C ,  7-H ) :   0.9043
B(  1-S ,  2-O ) :   1.7016 B(  1-S ,  3-O ) :   1.6995 B(  1-S ,  4-F ) :   0.9537

Dispersion correction           -0.001529323
FINAL SINGLE POINT ENERGY      -688.442516371623

DIPOLE MOMENT
-------------
                                X             Y             Z
Electronic contribution:      1.32068      -5.16923      -0.58973
Nuclear contribution   :     -1.03036       6.05593       1.81567
                        -----------------------------------------
Total Dipole Moment    :      0.29031       0.88670       1.22594
                        -----------------------------------------
Magnitude (a.u.)       :      1.54060
Magnitude (Debye)      :      3.91589

Rotational constants in cm-1:     0.164224     0.152173     0.148737
Rotational constants in MHz :  4923.310232  4562.031098  4459.033187

                             ****ORCA TERMINATED NORMALLY****
TOTAL RUN TIME: 0 days 0 hours 0 minutes 19 seconds 506 msec
