                         Program Version 5.0.0 -  RELEASE  -
|  1> !wB97X-D3 RIJCOSX def2-TZVPD def2/J TightSCF
|  2> *xyz 0 1
|  3> C          1.96337       -1.74915       -1.89689
|  4> N          2.73849       -2.01517       -3.09711
|  5> C          4.04974       -2.15472       -3.15204
|  6> N          4.65821       -1.98629       -4.31866
|  7> C          4.76423       -2.45444       -2.05049
|  8> H          4.28736       -2.77626       -1.21750
|  9> H          5.75082       -2.65835       -2.12599
| 10> H          2.34518       -1.69027       -3.97145
| 11> H          4.10900       -1.59268       -5.07176
| 12> H          5.64910       -2.15646       -4.42724
| 13> H          0.92556       -1.68522       -2.14942
| 14> H          2.28268       -0.82430       -1.46378
| 15> H          2.11118       -2.54207       -1.19381
| 16> *
| 17> %MaxCore 64000
| 18>
| 19> %pal nprocs 8
| 20> end
| 21>
| 22> %scf
| 23>   MaxIter 150
| 24> end
| 25>
| 26>
| 27>                          ****END OF INPUT****

CARTESIAN COORDINATES (ANGSTROEM)
---------------------------------
  C      1.963370   -1.749150   -1.896890
  N      2.738490   -2.015170   -3.097110
  C      4.049740   -2.154720   -3.152040
  N      4.658210   -1.986290   -4.318660
  C      4.764230   -2.454440   -2.050490
  H      4.287360   -2.776260   -1.217500
  H      5.750820   -2.658350   -2.125990
  H      2.345180   -1.690270   -3.971450
  H      4.109000   -1.592680   -5.071760
  H      5.649100   -2.156460   -4.427240
  H      0.925560   -1.685220   -2.149420
  H      2.282680   -0.824300   -1.463780
  H      2.111180   -2.542070   -1.193810

 Total Charge           Charge          ....    0
 Multiplicity           Mult            ....    1
 Number of Electrons    NEL             ....   40
 Basis Dimension        Dim             ....  257

ORBITAL ENERGIES
----------------

  NO   OCC          E(Eh)            E(eV)
   0   2.0000     -14.427382      -392.5890
   1   2.0000     -14.423318      -392.4784
   2   2.0000     -10.323188      -280.9082
   3   2.0000     -10.297977      -280.2222
   4   2.0000     -10.185080      -277.1501
   5   2.0000      -1.092309       -29.7232
   6   2.0000      -1.001790       -27.2601
   7   2.0000      -0.834893       -22.7186
   8   2.0000      -0.809364       -22.0239
   9   2.0000      -0.675473       -18.3806
  10   2.0000      -0.648687       -17.6517
  11   2.0000      -0.628442       -17.1008
  12   2.0000      -0.553637       -15.0652
  13   2.0000      -0.547031       -14.8855
  14   2.0000      -0.514673       -14.0050
  15   2.0000      -0.479897       -13.0587
  16   2.0000      -0.471037       -12.8176
  17   2.0000      -0.463770       -12.6198
  18   2.0000      -0.345587        -9.4039
  19   2.0000      -0.253333        -6.8935
  20   0.0000       0.063360         1.7241
  21   0.0000       0.084021         2.2863
  22   0.0000       0.095957         2.6111
  23   0.0000       0.122900         3.3443
  24   0.0000       0.131014         3.5651

MULLIKEN ATOMIC CHARGES
-----------------------
   0 C :   -0.930487
   1 N :   -0.250649
   2 C :    0.999122
   3 N :   -0.424232
   4 C :   -1.492985
   5 H :    0.283045
   6 H :    0.324703
   7 H :    0.205685
   8 H :    0.161415
   9 H :    0.180972
  10 H :    0.328401
  11 H :    0.338678
  12 H :    0.276331
Sum of atomic charges:    0.0000000

LOEWDIN ATOMIC CHARGES
----------------------
   0 C :   -0.074355
   1 N :   -0.039260
   2 C :   -0.578349
   3 N :    0.107187
   4 C :    0.002089
   5 H :   -0.001750
   6 H :    0.004037
   7 H :    0.130105
   8 H :    0.101910
   9 H :    0.115517
  10 H :    0.077448
  11 H :    0.081692
  12 H :    0.073730

  Mayer bond orders larger than 0.100000
B(  0-C ,  1-N ) :   0.8341 B(  0-C ,  4-C ) :   0.1162 B(  0-C , 10-H ) :   0.8660
B(  0-C , 11-H ) :   0.9116 B(  0-C , 12-H ) :   0.9361 B(  1-N ,  2-C ) :   1.1181
B(  1-N ,  7-H ) :   0.9849 B(  2-C ,  3-N ) :   0.9200 B(  2-C ,  4-C ) :   0.9920
B(  3-N ,  4-C ) :   0.1005 B(  3-N ,  8-H ) :   1.0378 B(  3-N ,  9-H ) :   1.0213
B(  4-C ,  5-H ) :   0.9998 B(  4-C ,  6-H ) :   1.0233

Dispersion correction           -0.002385497
FINAL SINGLE POINT ENERGY      -228.618821597200

DIPOLE MOMENT
-------------
                                X             Y             Z
Electronic contribution:      0.77495      -0.12434      -2.55709
Nuclear contribution   :     -1.37336       0.51269       1.66180
                        -----------------------------------------
Total Dipole Moment    :     -0.59841       0.38834      -0.89528
                        -----------------------------------------
Magnitude (a.u.)       :      1.14474
Magnitude (Debye)      :      2.90971

Rotational constants in cm-1:     0.331915     0.135033     0.098638
Rotational constants in MHz :  9950.555862  4048.179255  2957.099162

                             ****ORCA TERMINATED NORMALLY****
TOTAL RUN TIME: 0 days 0 hours 0 minutes 28 seconds 379 msec
