                         Program Version 5.0.0 -  RELEASE  -
|  1> !wB97X-D3 RIJCOSX def2-TZVPD def2/J TightSCF xyzfile
|  2>
|  3> *xyzfile 0 1 D2.xyz
|  4>
|  5> %MaxCore 64000
|  6>
|  7> %pal nprocs 18
|  8> end
|  9>
| 10> %scf
| 11>   MaxIter 150
| 12> end
| 13>
| 14>
| 15>                          ****END OF INPUT****

CARTESIAN COORDINATES (ANGSTROEM)
---------------------------------
  C      1.963365   -1.749150   -1.896887
  N      2.738490   -2.015170   -3.097113
  C      0.611877    1.657634   -4.500288
  C      1.694991    1.541794   -5.570447
  H      2.697326    1.734659   -5.183996
  H      1.506656    2.272239   -6.358076
  S      1.780287   -0.033128   -6.428739
  C      4.049736   -2.154717   -3.152044
  C      4.658206   -1.986293   -4.318655
  N      4.764231   -2.454435   -2.050491
  H      4.287363   -2.776259   -1.217496
  H      5.750825   -2.658351   -2.125988
  H      2.345176   -1.690274   -3.971447
  H      4.109004   -1.592677   -5.071760
  H      5.649095   -2.156462   -4.427237
  F      2.569287    0.213657   -7.607360
  O      0.416880   -0.462969   -6.618595
  C      2.088520   -0.300912   -1.415204
  H      2.231272   -2.451616   -1.102643
  H      0.930249   -1.977801   -2.155438
  C      0.680356    0.655418   -3.348038
  H     -0.356865    1.549231   -4.991128
  H      0.650228    2.675438   -4.096000
  C      1.968993    0.733582   -2.535654
  H      3.051356   -0.168602   -0.911868
  H      1.316501   -0.136231   -0.657252
  O      2.505129   -0.933263   -5.482570
  H      2.824195    0.624726   -3.208464
  H      2.058919    1.730331   -2.093112
  H      0.542252   -0.344731   -3.766662
  H     -0.174219    0.829692   -2.685182

 Total Charge           Charge          ....    0
 Multiplicity           Mult            ....    1
 Number of Electrons    NEL             ....  120
 Basis Dimension        Dim             ....  689

ORBITAL ENERGIES
----------------

  NO   OCC          E(Eh)            E(eV)
   0   2.0000     -89.209329     -2427.5093
   1   2.0000     -24.920100      -678.1104
   2   2.0000     -19.257732      -524.0295
   3   2.0000     -19.241721      -523.5938
   4   2.0000     -14.402453      -391.9107
   5   2.0000     -14.388240      -391.5239
   6   2.0000     -10.343073      -281.4493
   7   2.0000     -10.307719      -280.4873
   8   2.0000     -10.298221      -280.2288
   9   2.0000     -10.297444      -280.2077
  10   2.0000     -10.282184      -279.7925
  11   2.0000     -10.272353      -279.5249
  12   2.0000     -10.267553      -279.3943
  13   2.0000     -10.152868      -276.2736
  14   2.0000      -8.273186      -225.1248
  15   2.0000      -6.230260      -169.5340
  16   2.0000      -6.224172      -169.3683
  17   2.0000      -6.224027      -169.3644
  18   2.0000      -1.514329       -41.2070
  19   2.0000      -1.234415       -33.5901
  20   2.0000      -1.134386       -30.8682
  21   2.0000      -1.063586       -28.9416
  22   2.0000      -0.980258       -26.6742
  23   2.0000      -0.960359       -26.1327
  24   2.0000      -0.910192       -24.7676
  25   2.0000      -0.875090       -23.8124
  26   2.0000      -0.835961       -22.7476
  27   2.0000      -0.810462       -22.0538
  28   2.0000      -0.772244       -21.0138
  29   2.0000      -0.737612       -20.0714
  30   2.0000      -0.712016       -19.3749
  31   2.0000      -0.702575       -19.1180
  32   2.0000      -0.694750       -18.9051
  33   2.0000      -0.672692       -18.3049
  34   2.0000      -0.663283       -18.0489
  35   2.0000      -0.619795       -16.8655
  36   2.0000      -0.605175       -16.4676
  37   2.0000      -0.602102       -16.3840
  38   2.0000      -0.579529       -15.7698
  39   2.0000      -0.575330       -15.6555
  40   2.0000      -0.565015       -15.3748
  41   2.0000      -0.557738       -15.1768
  42   2.0000      -0.540876       -14.7180
  43   2.0000      -0.530347       -14.4315
  44   2.0000      -0.514380       -13.9970
  45   2.0000      -0.499064       -13.5802
  46   2.0000      -0.485155       -13.2017
  47   2.0000      -0.480298       -13.0696
  48   2.0000      -0.468362       -12.7448
  49   2.0000      -0.461191       -12.5496
  50   2.0000      -0.450688       -12.2638
  51   2.0000      -0.449902       -12.2425
  52   2.0000      -0.442313       -12.0359
  53   2.0000      -0.427725       -11.6390
  54   2.0000      -0.423302       -11.5186
  55   2.0000      -0.415709       -11.3120
  56   2.0000      -0.411887       -11.2080
  57   2.0000      -0.397551       -10.8179
  58   2.0000      -0.325257        -8.8507
  59   2.0000      -0.226340        -6.1590
  60   0.0000       0.041199         1.1211
  61   0.0000       0.059649         1.6231
  62   0.0000       0.062524         1.7014
  63   0.0000       0.069918         1.9026
  64   0.0000       0.082841         2.2542

MULLIKEN ATOMIC CHARGES
-----------------------
   0 C :   -1.063268
   1 N :   -0.018383
   2 C :   -0.709814
   3 C :   -0.720198
   4 H :    0.411677
   5 H :    0.418668
   6 S :    1.034621
   7 C :    1.004409
   8 C :   -1.815492
   9 N :   -0.382939
  10 H :    0.173646
  11 H :    0.179961
  12 H :    0.327374
  13 H :    0.573744
  14 H :    0.354214
  15 F :   -0.116384
  16 O :   -0.635590
  17 C :   -0.401754
  18 H :    0.343845
  19 H :    0.350253
  20 C :   -0.520044
  21 H :    0.298986
  22 H :    0.314424
  23 C :   -0.500076
  24 H :    0.287567
  25 H :    0.339583
  26 O :   -0.727996
  27 H :    0.305405
  28 H :    0.331790
  29 H :    0.221195
  30 H :    0.340574
Sum of atomic charges:   -0.0000000

LOEWDIN ATOMIC CHARGES
----------------------
   0 C :   -0.188589
   1 N :    0.022075
   2 C :   -0.213904
   3 C :   -0.222705
   4 H :    0.109391
   5 H :    0.103775
   6 S :    0.663362
   7 C :   -0.552131
   8 C :   -0.000074
   9 N :    0.116527
  10 H :    0.088746
  11 H :    0.106840
  12 H :    0.077252
  13 H :   -0.026777
  14 H :    0.010328
  15 F :   -0.029799
  16 O :   -0.251241
  17 C :   -0.184939
  18 H :    0.106819
  19 H :    0.113973
  20 C :   -0.210407
  21 H :    0.113557
  22 H :    0.123694
  23 C :   -0.206656
  24 H :    0.108304
  25 H :    0.108851
  26 O :   -0.331309
  27 H :    0.103973
  28 H :    0.117033
  29 H :    0.100365
  30 H :    0.123666

  Mayer bond orders larger than 0.100000
B(  0-C ,  1-N ) :   1.0307 B(  0-C ,  7-C ) :  -0.1149 B(  0-C ,  9-N ) :   0.1256
B(  0-C , 12-H ) :  -0.1381 B(  0-C , 17-C ) :   0.6793 B(  0-C , 18-H ) :   0.8465
B(  0-C , 19-H ) :   0.9119 B(  0-C , 20-C ) :   0.1792 B(  1-N ,  7-C ) :   1.0469
B(  1-N , 12-H ) :   0.7736 B(  2-C ,  3-C ) :   1.0216 B(  2-C ,  6-S ) :   0.1306
B(  2-C , 20-C ) :   1.0060 B(  2-C , 21-H ) :   0.9149 B(  2-C , 22-H ) :   0.9066
B(  2-C , 23-C ) :   0.3204 B(  3-C ,  4-H ) :   0.8218 B(  3-C ,  5-H ) :   0.7868
B(  3-C ,  6-S ) :   0.7445 B(  3-C , 15-F ) :   0.1050 B(  3-C , 16-O ) :   0.1082
B(  3-C , 23-C ) :   0.1724 B(  6-S , 15-F ) :   0.9285 B(  6-S , 16-O ) :   1.6511
B(  6-S , 26-O ) :   1.8552 B(  7-C ,  8-C ) :   0.7695 B(  7-C ,  9-N ) :   1.0020
B(  7-C , 14-H ) :  -0.1733 B(  8-C , 13-H ) :   0.7179 B(  8-C , 14-H ) :   1.0259
B(  8-C , 26-O ) :   0.1850 B(  9-N , 10-H ) :   0.9880 B(  9-N , 11-H ) :   1.0206
B( 13-H , 26-O ) :  -0.2214 B( 17-C , 20-C ) :   0.2984 B( 17-C , 23-C ) :   1.0694
B( 17-C , 24-H ) :   0.9177 B( 17-C , 25-H ) :   0.9500 B( 20-C , 23-C ) :   0.2959
B( 20-C , 29-H ) :   1.0279 B( 20-C , 30-H ) :   0.8318 B( 23-C , 27-H ) :   1.0143
B( 23-C , 28-H ) :   0.8425 B( 23-C , 29-H ) :  -0.1208

Dispersion correction           -0.016478967
FINAL SINGLE POINT ENERGY     -1073.102480847801

DIPOLE MOMENT
-------------
                                X             Y             Z
Electronic contribution:     -0.90289      -0.79760     -22.50949
Nuclear contribution   :      0.43347       2.59110      22.83150
                        -----------------------------------------
Total Dipole Moment    :     -0.46943       1.79350       0.32201
                        -----------------------------------------
Magnitude (a.u.)       :      1.88168
Magnitude (Debye)      :      4.78284

Rotational constants in cm-1:     0.029257     0.014415     0.010996
Rotational constants in MHz :   877.098782   432.159206   329.643335

                             ****ORCA TERMINATED NORMALLY****
TOTAL RUN TIME: 0 days 0 hours 2 minutes 37 seconds 891 msec
