                         Program Version 5.0.0 -  RELEASE  -
|  1> !wB97X-D3 RIJCOSX def2-TZVPD def2/J TightSCF xyzfile
|  2>
|  3> *xyzfile 0 1 D6.xyz
|  4>
|  5> %MaxCore 64000
|  6>
|  7> %pal nprocs 18
|  8> end
|  9>
| 10> %scf
| 11>   MaxIter 150
| 12> end
| 13>
| 14>
| 15>                          ****END OF INPUT****

CARTESIAN COORDINATES (ANGSTROEM)
---------------------------------
  C      1.963365   -1.749150   -1.896887
  N      2.738490   -2.015170   -3.097113
  C      0.611877    1.657634   -4.500288
  C      1.694991    1.541794   -5.570447
  H      2.697326    1.734659   -5.183996
  H      1.506656    2.272239   -6.358076
  S      1.780287   -0.033128   -6.428739
  C      4.049736   -2.154717   -3.152044
  N      4.658206   -1.986293   -4.318655
  C      4.764231   -2.454435   -2.050491
  H      4.287363   -2.776259   -1.217496
  H      5.750825   -2.658351   -2.125988
  H      2.345176   -1.690274   -3.971447
  H      4.109004   -1.592677   -5.071760
  H      5.649095   -2.156462   -4.427237
  O      2.569287    0.213657   -7.607360
  F      0.416880   -0.462969   -6.618595
  C      2.088520   -0.300912   -1.415204
  H      2.231272   -2.451616   -1.102643
  H      0.930249   -1.977801   -2.155438
  C      0.680356    0.655418   -3.348038
  H     -0.356865    1.549231   -4.991128
  H      0.650228    2.675438   -4.096000
  C      1.968993    0.733582   -2.535654
  H      3.051356   -0.168602   -0.911868
  H      1.316501   -0.136231   -0.657252
  O      2.505129   -0.933263   -5.482570
  H      2.824195    0.624726   -3.208464
  H      2.058919    1.730331   -2.093112
  H      0.542252   -0.344731   -3.766662
  H     -0.174219    0.829692   -2.685182

 Total Charge           Charge          ....    0
 Multiplicity           Mult            ....    1
 Number of Electrons    NEL             ....  120
 Basis Dimension        Dim             ....  689

ORBITAL ENERGIES
----------------

  NO   OCC          E(Eh)            E(eV)
   0   2.0000     -89.225556     -2427.9508
   1   2.0000     -24.934083      -678.4909
   2   2.0000     -19.271681      -524.4091
   3   2.0000     -19.263267      -524.1802
   4   2.0000     -14.390461      -391.5843
   5   2.0000     -14.388411      -391.5286
   6   2.0000     -10.353671      -281.7377
   7   2.0000     -10.318547      -280.7819
   8   2.0000     -10.299567      -280.2655
   9   2.0000     -10.294554      -280.1291
  10   2.0000     -10.293749      -280.1071
  11   2.0000     -10.277640      -279.6688
  12   2.0000     -10.265224      -279.3309
  13   2.0000     -10.161815      -276.5170
  14   2.0000      -8.289359      -225.5649
  15   2.0000      -6.246707      -169.9815
  16   2.0000      -6.240588      -169.8150
  17   2.0000      -6.239730      -169.7917
  18   2.0000      -1.527393       -41.5625
  19   2.0000      -1.251489       -34.0547
  20   2.0000      -1.153096       -31.3773
  21   2.0000      -1.065195       -28.9854
  22   2.0000      -0.980711       -26.6865
  23   2.0000      -0.971680       -26.4408
  24   2.0000      -0.915023       -24.8990
  25   2.0000      -0.873559       -23.7708
  26   2.0000      -0.842297       -22.9201
  27   2.0000      -0.804794       -21.8996
  28   2.0000      -0.793273       -21.5861
  29   2.0000      -0.751765       -20.4566
  30   2.0000      -0.724946       -19.7268
  31   2.0000      -0.721221       -19.6254
  32   2.0000      -0.695904       -18.9365
  33   2.0000      -0.681166       -18.5355
  34   2.0000      -0.642275       -17.4772
  35   2.0000      -0.628158       -17.0931
  36   2.0000      -0.613641       -16.6980
  37   2.0000      -0.611367       -16.6362
  38   2.0000      -0.600105       -16.3297
  39   2.0000      -0.586878       -15.9698
  40   2.0000      -0.567661       -15.4469
  41   2.0000      -0.558524       -15.1982
  42   2.0000      -0.542205       -14.7541
  43   2.0000      -0.532740       -14.4966
  44   2.0000      -0.524524       -14.2730
  45   2.0000      -0.508909       -13.8481
  46   2.0000      -0.493162       -13.4196
  47   2.0000      -0.488567       -13.2946
  48   2.0000      -0.473515       -12.8850
  49   2.0000      -0.465817       -12.6755
  50   2.0000      -0.457565       -12.4510
  51   2.0000      -0.456667       -12.4265
  52   2.0000      -0.444422       -12.0933
  53   2.0000      -0.435632       -11.8541
  54   2.0000      -0.430605       -11.7174
  55   2.0000      -0.424831       -11.5602
  56   2.0000      -0.422766       -11.5041
  57   2.0000      -0.410228       -11.1629
  58   2.0000      -0.317593        -8.6421
  59   2.0000      -0.228972        -6.2306
  60   0.0000       0.035482         0.9655
  61   0.0000       0.050903         1.3851
  62   0.0000       0.058038         1.5793
  63   0.0000       0.066115         1.7991
  64   0.0000       0.077823         2.1177

MULLIKEN ATOMIC CHARGES
-----------------------
   0 C :   -1.066248
   1 N :   -0.054187
   2 C :   -0.740662
   3 C :   -0.639016
   4 H :    0.396129
   5 H :    0.367311
   6 S :    1.037286
   7 C :    0.996021
   8 N :   -0.315533
   9 C :   -1.761220
  10 H :    0.324977
  11 H :    0.383656
  12 H :    0.461743
  13 H :    0.300814
  14 H :    0.122609
  15 O :   -0.612779
  16 F :   -0.150401
  17 C :   -0.427059
  18 H :    0.336850
  19 H :    0.345367
  20 C :   -0.390985
  21 H :    0.306608
  22 H :    0.323178
  23 C :   -0.488984
  24 H :    0.294581
  25 H :    0.348089
  26 O :   -0.769140
  27 H :    0.265673
  28 H :    0.329729
  29 H :    0.144637
  30 H :    0.330957
Sum of atomic charges:   -0.0000000

LOEWDIN ATOMIC CHARGES
----------------------
   0 C :   -0.185261
   1 N :    0.016609
   2 C :   -0.223268
   3 C :   -0.212407
   4 H :    0.118649
   5 H :    0.108352
   6 S :    0.665330
   7 C :   -0.557794
   8 N :    0.121416
   9 C :   -0.004719
  10 H :   -0.003959
  11 H :    0.000185
  12 H :    0.067784
  13 H :    0.058600
  14 H :    0.116255
  15 O :   -0.249175
  16 F :   -0.025299
  17 C :   -0.180527
  18 H :    0.112282
  19 H :    0.111783
  20 C :   -0.215837
  21 H :    0.109914
  22 H :    0.123767
  23 C :   -0.205588
  24 H :    0.109429
  25 H :    0.110498
  26 O :   -0.329332
  27 H :    0.104173
  28 H :    0.118450
  29 H :    0.095491
  30 H :    0.124198

  Mayer bond orders larger than 0.100000
B(  0-C ,  1-N ) :   0.9606 B(  0-C ,  9-C ) :   0.1546 B(  0-C , 12-H ) :  -0.1779
B(  0-C , 17-C ) :   0.7194 B(  0-C , 18-H ) :   0.8662 B(  0-C , 19-H ) :   0.8693
B(  0-C , 20-C ) :   0.1831 B(  1-N ,  7-C ) :   1.0108 B(  1-N , 12-H ) :   0.7188
B(  2-C ,  3-C ) :   0.9445 B(  2-C ,  6-S ) :   0.1234 B(  2-C , 20-C ) :   0.9208
B(  2-C , 21-H ) :   0.9469 B(  2-C , 22-H ) :   0.9068 B(  2-C , 23-C ) :   0.3377
B(  3-C ,  4-H ) :   0.8358 B(  3-C ,  5-H ) :   0.8864 B(  3-C ,  6-S ) :   0.7498
B(  3-C , 15-O ) :   0.1376 B(  3-C , 23-C ) :   0.1636 B(  6-S , 15-O ) :   1.5678
B(  6-S , 16-F ) :   0.9786 B(  6-S , 26-O ) :   1.8546 B(  7-C ,  8-N ) :   0.9552
B(  7-C ,  9-C ) :   0.7706 B(  7-C , 11-H ) :  -0.1076 B(  8-N ,  9-C ) :   0.1225
B(  8-N , 13-H ) :   0.8991 B(  8-N , 14-H ) :   1.0614 B(  9-C , 10-H ) :   0.9325
B(  9-C , 11-H ) :   0.9716 B( 17-C , 20-C ) :   0.2929 B( 17-C , 23-C ) :   1.0948
B( 17-C , 24-H ) :   0.9122 B( 17-C , 25-H ) :   0.9194 B( 20-C , 23-C ) :   0.3693
B( 20-C , 29-H ) :   1.0282 B( 20-C , 30-H ) :   0.8542 B( 23-C , 27-H ) :   1.0410
B( 23-C , 28-H ) :   0.8380 B( 23-C , 29-H ) :  -0.1053

Dispersion correction           -0.016353093
FINAL SINGLE POINT ENERGY     -1073.113824299801

DIPOLE MOMENT
-------------
                                X             Y             Z
Electronic contribution:     -4.89518      -1.37916     -22.76902
Nuclear contribution   :      2.90585       3.30398      21.99296
                        -----------------------------------------
Total Dipole Moment    :     -1.98933       1.92482      -0.77606
                        -----------------------------------------
Magnitude (a.u.)       :      2.87483
Magnitude (Debye)      :      7.30724

Rotational constants in cm-1:     0.029065     0.014689     0.011200
Rotational constants in MHz :   871.338526   440.374927   335.770911

                             ****ORCA TERMINATED NORMALLY****
TOTAL RUN TIME: 0 days 0 hours 3 minutes 5 seconds 332 msec
