                         Program Version 5.0.0 -  RELEASE  -
|  1> !wB97X-D3 RIJCOSX def2-TZVPD def2/J TightSCF xyzfile
|  2>
|  3> *xyzfile 0 1 D8.xyz
|  4>
|  5> %MaxCore 64000
|  6>
|  7> %pal nprocs 18
|  8> end
|  9>
| 10> %scf
| 11>   MaxIter 150
| 12> end
| 13>
| 14>
| 15>                          ****END OF INPUT****

CARTESIAN COORDINATES (ANGSTROEM)
---------------------------------
  C      1.963365   -1.749150   -1.896887
  N      2.738490   -2.015170   -3.097113
  C      0.611877    1.657634   -4.500288
  C      1.694991    1.541794   -5.570447
  H      2.697326    1.734659   -5.183996
  H      1.506656    2.272239   -6.358076
  S      1.780287   -0.033128   -6.428739
  C      4.049736   -2.154717   -3.152044
  C      4.658206   -1.986293   -4.318655
  N      4.764231   -2.454435   -2.050491
  H      4.287363   -2.776259   -1.217496
  H      5.750825   -2.658351   -2.125988
  H      2.345176   -1.690274   -3.971447
  H      4.109004   -1.592677   -5.071760
  H      5.649095   -2.156462   -4.427237
  O      2.569287    0.213657   -7.607360
  O      0.416880   -0.462969   -6.618595
  C      2.088520   -0.300912   -1.415204
  H      2.231272   -2.451616   -1.102643
  H      0.930249   -1.977801   -2.155438
  C      0.680356    0.655418   -3.348038
  H     -0.356865    1.549231   -4.991128
  H      0.650228    2.675438   -4.096000
  C      1.968993    0.733582   -2.535654
  H      3.051356   -0.168602   -0.911868
  H      1.316501   -0.136231   -0.657252
  F      2.505129   -0.933263   -5.482570
  H      2.824195    0.624726   -3.208464
  H      2.058919    1.730331   -2.093112
  H      0.542252   -0.344731   -3.766662
  H     -0.174219    0.829692   -2.685182

 Total Charge           Charge          ....    0
 Multiplicity           Mult            ....    1
 Number of Electrons    NEL             ....  120
 Basis Dimension        Dim             ....  689

ORBITAL ENERGIES
----------------

  NO   OCC          E(Eh)            E(eV)
   0   2.0000     -89.197964     -2427.2000
   1   2.0000     -24.893820      -677.3953
   2   2.0000     -19.251184      -523.8514
   3   2.0000     -19.249248      -523.7987
   4   2.0000     -14.422238      -392.4491
   5   2.0000     -14.418148      -392.3378
   6   2.0000     -10.337342      -281.2934
   7   2.0000     -10.322306      -280.8842
   8   2.0000     -10.316637      -280.7300
   9   2.0000     -10.305553      -280.4284
  10   2.0000     -10.292759      -280.0802
  11   2.0000     -10.285740      -279.8892
  12   2.0000     -10.281751      -279.7807
  13   2.0000     -10.181057      -277.0406
  14   2.0000      -8.261980      -224.8199
  15   2.0000      -6.219685      -169.2462
  16   2.0000      -6.213050      -169.0657
  17   2.0000      -6.212198      -169.0425
  18   2.0000      -1.476114       -40.1671
  19   2.0000      -1.238594       -33.7039
  20   2.0000      -1.146380       -31.1946
  21   2.0000      -1.088722       -29.6256
  22   2.0000      -1.002454       -27.2782
  23   2.0000      -0.962759       -26.1980
  24   2.0000      -0.918338       -24.9892
  25   2.0000      -0.881263       -23.9804
  26   2.0000      -0.835016       -22.7219
  27   2.0000      -0.824206       -22.4278
  28   2.0000      -0.786056       -21.3897
  29   2.0000      -0.746975       -20.3262
  30   2.0000      -0.705746       -19.2043
  31   2.0000      -0.703303       -19.1378
  32   2.0000      -0.681742       -18.5511
  33   2.0000      -0.676865       -18.4184
  34   2.0000      -0.657636       -17.8952
  35   2.0000      -0.636724       -17.3261
  36   2.0000      -0.607415       -16.5286
  37   2.0000      -0.601933       -16.3794
  38   2.0000      -0.590613       -16.0714
  39   2.0000      -0.584266       -15.8987
  40   2.0000      -0.572394       -15.5756
  41   2.0000      -0.564278       -15.3548
  42   2.0000      -0.546995       -14.8845
  43   2.0000      -0.537632       -14.6297
  44   2.0000      -0.523818       -14.2538
  45   2.0000      -0.506730       -13.7888
  46   2.0000      -0.500381       -13.6161
  47   2.0000      -0.492698       -13.4070
  48   2.0000      -0.482116       -13.1190
  49   2.0000      -0.472970       -12.8702
  50   2.0000      -0.466318       -12.6892
  51   2.0000      -0.461363       -12.5543
  52   2.0000      -0.445016       -12.1095
  53   2.0000      -0.440417       -11.9844
  54   2.0000      -0.434086       -11.8121
  55   2.0000      -0.425337       -11.5740
  56   2.0000      -0.424636       -11.5549
  57   2.0000      -0.422137       -11.4869
  58   2.0000      -0.348323        -9.4784
  59   2.0000      -0.251403        -6.8410
  60   0.0000       0.053484         1.4554
  61   0.0000       0.060717         1.6522
  62   0.0000       0.065233         1.7751
  63   0.0000       0.069335         1.8867
  64   0.0000       0.081315         2.2127

MULLIKEN ATOMIC CHARGES
-----------------------
   0 C :   -1.061982
   1 N :   -0.049522
   2 C :   -0.653501
   3 C :   -0.672689
   4 H :    0.404073
   5 H :    0.382773
   6 S :    1.039071
   7 C :    1.014966
   8 C :   -1.887802
   9 N :   -0.390533
  10 H :    0.176317
  11 H :    0.181637
  12 H :    0.371486
  13 H :    0.624174
  14 H :    0.348192
  15 O :   -0.613089
  16 O :   -0.623755
  17 C :   -0.397739
  18 H :    0.345119
  19 H :    0.342977
  20 C :   -0.520657
  21 H :    0.298009
  22 H :    0.328485
  23 C :   -0.456780
  24 H :    0.290621
  25 H :    0.343377
  26 F :   -0.289853
  27 H :    0.272225
  28 H :    0.335324
  29 H :    0.200049
  30 H :    0.319027
Sum of atomic charges:   -0.0000000

LOEWDIN ATOMIC CHARGES
----------------------
   0 C :   -0.185598
   1 N :    0.022539
   2 C :   -0.221720
   3 C :   -0.218861
   4 H :    0.107901
   5 H :    0.114496
   6 S :    0.625920
   7 C :   -0.547614
   8 C :    0.009060
   9 N :    0.124214
  10 H :    0.092612
  11 H :    0.110930
  12 H :    0.094974
  13 H :   -0.008782
  14 H :    0.017328
  15 O :   -0.258097
  16 O :   -0.255687
  17 C :   -0.183480
  18 H :    0.109677
  19 H :    0.115732
  20 C :   -0.213090
  21 H :    0.113724
  22 H :    0.121921
  23 C :   -0.207261
  24 H :    0.109460
  25 H :    0.111347
  26 F :   -0.145358
  27 H :    0.102015
  28 H :    0.119867
  29 H :    0.097113
  30 H :    0.124718

  Mayer bond orders larger than 0.100000
B(  0-C ,  1-N ) :   1.0394 B(  0-C ,  7-C ) :  -0.1226 B(  0-C ,  9-N ) :   0.1298
B(  0-C , 12-H ) :  -0.1489 B(  0-C , 17-C ) :   0.6694 B(  0-C , 18-H ) :   0.8448
B(  0-C , 19-H ) :   0.9172 B(  0-C , 20-C ) :   0.1531 B(  1-N ,  7-C ) :   1.0484
B(  1-N , 12-H ) :   0.7329 B(  2-C ,  3-C ) :   0.9474 B(  2-C ,  6-S ) :   0.1435
B(  2-C , 20-C ) :   1.0360 B(  2-C , 21-H ) :   0.9349 B(  2-C , 22-H ) :   0.9062
B(  2-C , 23-C ) :   0.2797 B(  3-C ,  4-H ) :   0.8315 B(  3-C ,  5-H ) :   0.8355
B(  3-C ,  6-S ) :   0.7634 B(  3-C , 15-O ) :   0.1403 B(  3-C , 20-C ) :   0.1152
B(  3-C , 23-C ) :   0.1748 B(  6-S , 15-O ) :   1.5077 B(  6-S , 16-O ) :   1.6018
B(  6-S , 26-F ) :   1.2250 B(  7-C ,  8-C ) :   0.7822 B(  7-C ,  9-N ) :   1.0018
B(  7-C , 14-H ) :  -0.1710 B(  8-C , 13-H ) :   0.6122 B(  8-C , 14-H ) :   1.0403
B(  8-C , 26-F ) :   0.2166 B(  9-N , 10-H ) :   0.9882 B(  9-N , 11-H ) :   1.0206
B( 13-H , 26-F ) :  -0.1193 B( 17-C , 20-C ) :   0.3026 B( 17-C , 23-C ) :   1.0918
B( 17-C , 24-H ) :   0.9224 B( 17-C , 25-H ) :   0.9533 B( 20-C , 23-C ) :   0.2064
B( 20-C , 29-H ) :   1.0689 B( 20-C , 30-H ) :   0.8347 B( 23-C , 27-H ) :   1.0679
B( 23-C , 28-H ) :   0.8281 B( 23-C , 29-H ) :  -0.1951

Dispersion correction           -0.016408015
FINAL SINGLE POINT ENERGY     -1073.119524561271

DIPOLE MOMENT
-------------
                                X             Y             Z
Electronic contribution:     -0.87383      -2.93465     -18.32833
Nuclear contribution   :      0.50676       3.90127      20.40426
                        -----------------------------------------
Total Dipole Moment    :     -0.36707       0.96662       2.07594
                        -----------------------------------------
Magnitude (a.u.)       :      2.31918
Magnitude (Debye)      :      5.89490

Rotational constants in cm-1:     0.029548     0.014706     0.011197
Rotational constants in MHz :   885.834387   440.871746   335.667619

                             ****ORCA TERMINATED NORMALLY****
TOTAL RUN TIME: 0 days 0 hours 3 minutes 4 seconds 888 msec
