                         Program Version 5.0.0 -  RELEASE  -
|  1> !B3LYP D3BJ RIJCOSX def2-SVP def2/J TightSCF
|  2> *xyz -1 1
|  3> C          0.61188        1.65763       -4.50029
|  4> C          1.69499        1.54179       -5.57045
|  5> H          2.69733        1.73466       -5.18400
|  6> H          1.50666        2.27224       -6.35808
|  7> S          1.78029       -0.03313       -6.42874
|  8> O          2.56929        0.21366       -7.60736
|  9> O          0.41688       -0.46297       -6.61859
| 10> O          2.50513       -0.93326       -5.48257
| 11> H         -0.34424        1.45871       -4.93752
| 12> H          0.61845        2.64655       -4.09174
| 13> H          0.80247        0.94882       -3.72173
| 14> *
| 15> %MaxCore 64000
| 16>
| 17> %pal nprocs 4
| 18> end
| 19>
| 20> %scf
| 21>   MaxIter 150
| 22> end
| 23>
| 24>
| 25>                          ****END OF INPUT****

CARTESIAN COORDINATES (ANGSTROEM)
---------------------------------
  C      0.611880    1.657630   -4.500290
  C      1.694990    1.541790   -5.570450
  H      2.697330    1.734660   -5.184000
  H      1.506660    2.272240   -6.358080
  S      1.780290   -0.033130   -6.428740
  O      2.569290    0.213660   -7.607360
  O      0.416880   -0.462970   -6.618590
  O      2.505130   -0.933260   -5.482570
  H     -0.344240    1.458710   -4.937520
  H      0.618450    2.646550   -4.091740
  H      0.802470    0.948820   -3.721730

 Total Charge           Charge          ....   -1
 Multiplicity           Mult            ....    1
 Number of Electrons    NEL             ....   58
 Basis Dimension        Dim             ....  113

ORBITAL ENERGIES
----------------

  NO   OCC          E(Eh)            E(eV)
   0   2.0000     -88.837557     -2417.3928
   1   2.0000     -18.881869      -513.8018
   2   2.0000     -18.880041      -513.7520
   3   2.0000     -18.858254      -513.1592
   4   2.0000     -10.033299      -273.0200
   5   2.0000     -10.026513      -272.8353
   6   2.0000      -7.898342      -214.9248
   7   2.0000      -5.866799      -159.6437
   8   2.0000      -5.866496      -159.6355
   9   2.0000      -5.866317      -159.6306
  10   2.0000      -0.898442       -24.4478
  11   2.0000      -0.762770       -20.7560
  12   2.0000      -0.725750       -19.7487
  13   2.0000      -0.613893       -16.7049
  14   2.0000      -0.489904       -13.3310
  15   2.0000      -0.357498        -9.7280
  16   2.0000      -0.305872        -8.3232
  17   2.0000      -0.292643        -7.9632
  18   2.0000      -0.257684        -7.0120
  19   2.0000      -0.236338        -6.4311
  20   2.0000      -0.233356        -6.3499
  21   2.0000      -0.212967        -5.7951
  22   2.0000      -0.199855        -5.4383
  23   2.0000      -0.117002        -3.1838
  24   2.0000      -0.116272        -3.1639
  25   2.0000      -0.086319        -2.3489
  26   2.0000      -0.080332        -2.1859
  27   2.0000      -0.060079        -1.6348
  28   2.0000      -0.028369        -0.7720
  29   0.0000       0.203124         5.5273
  30   0.0000       0.254783         6.9330
  31   0.0000       0.261033         7.1031
  32   0.0000       0.267815         7.2876
  33   0.0000       0.294399         8.0110

MULLIKEN ATOMIC CHARGES
-----------------------
   0 C :    0.063802
   1 C :   -0.069491
   2 H :   -0.012039
   3 H :   -0.024402
   4 S :    0.870204
   5 O :   -0.569560
   6 O :   -0.569323
   7 O :   -0.631347
   8 H :   -0.003759
   9 H :   -0.046641
  10 H :   -0.007443
Sum of atomic charges:   -1.0000000

LOEWDIN ATOMIC CHARGES
----------------------
   0 C :   -0.065160
   1 C :   -0.182309
   2 H :    0.005262
   3 H :   -0.001433
   4 S :    1.102852
   5 O :   -0.606684
   6 O :   -0.606372
   7 O :   -0.669619
   8 H :    0.012974
   9 H :   -0.002003
  10 H :    0.012492

  Mayer bond orders larger than 0.100000
B(  0-C ,  1-C ) :   1.0691 B(  0-C ,  8-H ) :   0.9627 B(  0-C ,  9-H ) :   0.9556
B(  0-C , 10-H ) :   0.9649 B(  1-C ,  2-H ) :   0.9400 B(  1-C ,  3-H ) :   0.9345
B(  1-C ,  4-S ) :   0.8869 B(  4-S ,  5-O ) :   1.6362 B(  4-S ,  6-O ) :   1.6265
B(  4-S ,  7-O ) :   1.5720

Dispersion correction           -0.016673731
FINAL SINGLE POINT ENERGY      -702.524268696477

DIPOLE MOMENT
-------------
                                X             Y             Z
Electronic contribution:      2.26530      -5.77225      -5.09976
Nuclear contribution   :     -2.69163       7.29476       5.86550
                        -----------------------------------------
Total Dipole Moment    :     -0.42633       1.52251       0.76574
                        -----------------------------------------
Magnitude (a.u.)       :      1.75675
Magnitude (Debye)      :      4.46530

Rotational constants in cm-1:     0.163060     0.082831     0.081111
Rotational constants in MHz :  4888.419330  2483.225008  2431.646841

                             ****ORCA TERMINATED NORMALLY****
TOTAL RUN TIME: 0 days 0 hours 0 minutes 8 seconds 402 msec
