                         Program Version 5.0.0 -  RELEASE  -
|  1> !B3LYP D3BJ RIJCOSX def2-SVP def2/J TightSCF
|  2> *xyz 1 1
|  3> C          1.96337       -1.74915       -1.89689
|  4> N          2.73849       -2.01517       -3.09711
|  5> C          4.04974       -2.15472       -3.15204
|  6> N          4.65821       -1.98629       -4.31866
|  7> N          4.76423       -2.45444       -2.05049
|  8> H          4.28736       -2.77626       -1.21750
|  9> H          5.75082       -2.65835       -2.12599
| 10> H          2.34518       -1.69027       -3.97145
| 11> H          4.10900       -1.59268       -5.07176
| 12> H          5.64910       -2.15646       -4.42724
| 13> C          2.08852       -0.30091       -1.41520
| 14> H          2.23127       -2.45162       -1.10264
| 15> H          0.93025       -1.97780       -2.15544
| 16> H          1.82118        0.36368       -2.21003
| 17> H          3.09792       -0.11068       -1.11551
| 18> H          1.43391       -0.14382       -0.58352
| 19> *
| 20> %MaxCore 64000
| 21>
| 22> %pal nprocs 4
| 23> end
| 24>
| 25> %scf
| 26>   MaxIter 150
| 27> end
| 28>
| 29>
| 30>                          ****END OF INPUT****

CARTESIAN COORDINATES (ANGSTROEM)
---------------------------------
  C      1.963370   -1.749150   -1.896890
  N      2.738490   -2.015170   -3.097110
  C      4.049740   -2.154720   -3.152040
  N      4.658210   -1.986290   -4.318660
  N      4.764230   -2.454440   -2.050490
  H      4.287360   -2.776260   -1.217500
  H      5.750820   -2.658350   -2.125990
  H      2.345180   -1.690270   -3.971450
  H      4.109000   -1.592680   -5.071760
  H      5.649100   -2.156460   -4.427240
  C      2.088520   -0.300910   -1.415200
  H      2.231270   -2.451620   -1.102640
  H      0.930250   -1.977800   -2.155440
  H      1.821180    0.363680   -2.210030
  H      3.097920   -0.110680   -1.115510
  H      1.433910   -0.143820   -0.583520

 Total Charge           Charge          ....    1
 Multiplicity           Mult            ....    1
 Number of Electrons    NEL             ....   48
 Basis Dimension        Dim             ....  134

ORBITAL ENERGIES
----------------

  NO   OCC          E(Eh)            E(eV)
   0   2.0000     -14.551923      -395.9780
   1   2.0000     -14.548903      -395.8958
   2   2.0000     -14.547799      -395.8657
   3   2.0000     -10.514347      -286.1099
   4   2.0000     -10.388515      -282.6859
   5   2.0000     -10.318922      -280.7921
   6   2.0000      -1.205815       -32.8119
   7   2.0000      -1.094653       -29.7870
   8   2.0000      -1.081388       -29.4261
   9   2.0000      -0.921430       -25.0734
  10   2.0000      -0.834792       -22.7158
  11   2.0000      -0.799191       -21.7471
  12   2.0000      -0.780945       -21.2506
  13   2.0000      -0.741535       -20.1782
  14   2.0000      -0.693541       -18.8722
  15   2.0000      -0.685373       -18.6500
  16   2.0000      -0.654583       -17.8121
  17   2.0000      -0.624404       -16.9909
  18   2.0000      -0.597886       -16.2693
  19   2.0000      -0.560852       -15.2616
  20   2.0000      -0.529534       -14.4094
  21   2.0000      -0.510639       -13.8952
  22   2.0000      -0.473844       -12.8940
  23   2.0000      -0.447571       -12.1790
  24   0.0000      -0.157834        -4.2949
  25   0.0000      -0.140960        -3.8357
  26   0.0000      -0.107567        -2.9271
  27   0.0000      -0.096086        -2.6146
  28   0.0000      -0.073299        -1.9946

MULLIKEN ATOMIC CHARGES
-----------------------
   0 C :    0.033278
   1 N :   -0.086375
   2 C :    0.006547
   3 N :    0.004688
   4 N :   -0.027493
   5 H :    0.164239
   6 H :    0.163628
   7 H :    0.151222
   8 H :    0.164482
   9 H :    0.169804
  10 C :    0.034499
  11 H :    0.046097
  12 H :    0.061074
  13 H :    0.030793
  14 H :    0.024661
  15 H :    0.058856
Sum of atomic charges:    1.0000000

LOEWDIN ATOMIC CHARGES
----------------------
   0 C :    0.044222
   1 N :    0.036643
   2 C :    0.141402
   3 N :    0.054856
   4 N :    0.043111
   5 H :    0.106605
   6 H :    0.109070
   7 H :    0.101770
   8 H :    0.108710
   9 H :    0.112120
  10 C :   -0.041210
  11 H :    0.032347
  12 H :    0.047439
  13 H :    0.030467
  14 H :    0.025542
  15 H :    0.046904

  Mayer bond orders larger than 0.100000
B(  0-C ,  1-N ) :   0.9478 B(  0-C , 10-C ) :   1.0980 B(  0-C , 11-H ) :   0.9495
B(  0-C , 12-H ) :   0.9458 B(  1-N ,  2-C ) :   1.3774 B(  1-N ,  7-H ) :   0.9088
B(  2-C ,  3-N ) :   1.4009 B(  2-C ,  4-N ) :   1.3837 B(  3-N ,  8-H ) :   0.9236
B(  3-N ,  9-H ) :   0.9251 B(  4-N ,  5-H ) :   0.9241 B(  4-N ,  6-H ) :   0.9270
B( 10-C , 13-H ) :   0.9679 B( 10-C , 14-H ) :   0.9661 B( 10-C , 15-H ) :   0.9615

Dispersion correction           -0.020346086
FINAL SINGLE POINT ENERGY      -284.033425930080

DIPOLE MOMENT
-------------
                                X             Y             Z
Electronic contribution:      3.08615      -2.73943      -3.14318
Nuclear contribution   :     -2.17768       2.37118       2.44574
                        -----------------------------------------
Total Dipole Moment    :      0.90847      -0.36825      -0.69744
                        -----------------------------------------
Magnitude (a.u.)       :      1.20306
Magnitude (Debye)      :      3.05793

Rotational constants in cm-1:     0.215650     0.075183     0.066454
Rotational constants in MHz :  6465.033740  2253.919004  1992.232519

                             ****ORCA TERMINATED NORMALLY****
TOTAL RUN TIME: 0 days 0 hours 0 minutes 11 seconds 602 msec
