                         Program Version 5.0.0 -  RELEASE  -
|  1> !B3LYP D3BJ RIJCOSX def2-TZVP def2/J TightSCF xyzfile
|  2>
|  3> *xyzfile 0 1 B.xyz
|  4>
|  5> %MaxCore 64000
|  6>
|  7> %pal nprocs 18
|  8> end
|  9>
| 10> %scf
| 11>   MaxIter 150
| 12> end
| 13>
| 14>
| 15>                          ****END OF INPUT****

CARTESIAN COORDINATES (ANGSTROEM)
---------------------------------
  C      1.963365   -1.749150   -1.896887
  N      2.738490   -2.015170   -3.097113
  C      0.611877    1.657634   -4.500288
  C      1.694991    1.541794   -5.570447
  H      2.697326    1.734659   -5.183996
  H      1.506656    2.272239   -6.358076
  S      1.780287   -0.033128   -6.428739
  C      4.049736   -2.154717   -3.152044
  N      4.658206   -1.986293   -4.318655
  N      4.764231   -2.454435   -2.050491
  H      4.287363   -2.776259   -1.217496
  H      5.750825   -2.658351   -2.125988
  H      2.345176   -1.690274   -3.971447
  H      4.109004   -1.592677   -5.071760
  H      5.649095   -2.156462   -4.427237
  O      2.569287    0.213657   -7.607360
  O      0.416880   -0.462969   -6.618595
  C      2.088520   -0.300912   -1.415204
  H      2.231272   -2.451616   -1.102643
  H      0.930249   -1.977801   -2.155438
  C      0.680356    0.655418   -3.348038
  H     -0.356865    1.549231   -4.991128
  H      0.650228    2.675438   -4.096000
  C      1.968993    0.733582   -2.535654
  H      3.051356   -0.168602   -0.911868
  H      1.316501   -0.136231   -0.657252
  O      2.505129   -0.933263   -5.482570
  H      2.824195    0.624726   -3.208464
  H      2.058919    1.730331   -2.093112
  H      0.542252   -0.344731   -3.766662
  H     -0.174219    0.829692   -2.685182

 Total Charge           Charge          ....    0
 Multiplicity           Mult            ....    1
 Number of Electrons    NEL             ....  120
 Basis Dimension        Dim             ....  542

ORBITAL ENERGIES
----------------

  NO   OCC          E(Eh)            E(eV)
   0   2.0000     -88.981487     -2421.3094
   1   2.0000     -19.061087      -518.6786
   2   2.0000     -19.039921      -518.1026
   3   2.0000     -19.038361      -518.0601
   4   2.0000     -14.400525      -391.8582
   5   2.0000     -14.371665      -391.0729
   6   2.0000     -14.367439      -390.9579
   7   2.0000     -10.348795      -281.6050
   8   2.0000     -10.240169      -278.6492
   9   2.0000     -10.190115      -277.2871
  10   2.0000     -10.170482      -276.7529
  11   2.0000     -10.158391      -276.4239
  12   2.0000     -10.154721      -276.3240
  13   2.0000     -10.154206      -276.3100
  14   2.0000      -8.025069      -218.3732
  15   2.0000      -5.989044      -162.9702
  16   2.0000      -5.987701      -162.9336
  17   2.0000      -5.986641      -162.9048
  18   2.0000      -1.069871       -29.1127
  19   2.0000      -1.062112       -28.9015
  20   2.0000      -0.956442       -26.0261
  21   2.0000      -0.942337       -25.6423
  22   2.0000      -0.932411       -25.3722
  23   2.0000      -0.931456       -25.3462
  24   2.0000      -0.820001       -22.3134
  25   2.0000      -0.780494       -21.2383
  26   2.0000      -0.733255       -19.9529
  27   2.0000      -0.695441       -18.9239
  28   2.0000      -0.668681       -18.1957
  29   2.0000      -0.634176       -17.2568
  30   2.0000      -0.627134       -17.0652
  31   2.0000      -0.594330       -16.1725
  32   2.0000      -0.572344       -15.5743
  33   2.0000      -0.554196       -15.0804
  34   2.0000      -0.541805       -14.7433
  35   2.0000      -0.518517       -14.1096
  36   2.0000      -0.502386       -13.6706
  37   2.0000      -0.480736       -13.0815
  38   2.0000      -0.475239       -12.9319
  39   2.0000      -0.467206       -12.7133
  40   2.0000      -0.451654       -12.2901
  41   2.0000      -0.436240       -11.8707
  42   2.0000      -0.423899       -11.5349
  43   2.0000      -0.415416       -11.3041
  44   2.0000      -0.398693       -10.8490
  45   2.0000      -0.391931       -10.6650
  46   2.0000      -0.377213       -10.2645
  47   2.0000      -0.369421       -10.0525
  48   2.0000      -0.363689        -9.8965
  49   2.0000      -0.336328        -9.1520
  50   2.0000      -0.333546        -9.0762
  51   2.0000      -0.328548        -8.9402
  52   2.0000      -0.314156        -8.5486
  53   2.0000      -0.303647        -8.2627
  54   2.0000      -0.295770        -8.0483
  55   2.0000      -0.294383        -8.0106
  56   2.0000      -0.261406        -7.1132
  57   2.0000      -0.250462        -6.8154
  58   2.0000      -0.244561        -6.6548
  59   2.0000      -0.216986        -5.9045
  60   0.0000      -0.029489        -0.8024
  61   0.0000      -0.017739        -0.4827
  62   0.0000       0.003823         0.1040
  63   0.0000       0.036442         0.9916
  64   0.0000       0.042971         1.1693

MULLIKEN ATOMIC CHARGES
-----------------------
   0 C :   -0.218879
   1 N :   -0.204239
   2 C :   -0.124163
   3 C :   -0.264599
   4 H :    0.092499
   5 H :    0.120995
   6 S :    0.887073
   7 C :    0.378452
   8 N :   -0.380959
   9 N :   -0.425192
  10 H :    0.255257
  11 H :    0.244151
  12 H :    0.288922
  13 H :    0.305636
  14 H :    0.231777
  15 O :   -0.514013
  16 O :   -0.506662
  17 C :   -0.107637
  18 H :    0.105312
  19 H :    0.158564
  20 C :   -0.210599
  21 H :    0.110191
  22 H :    0.075671
  23 C :   -0.215569
  24 H :    0.092164
  25 H :    0.097343
  26 O :   -0.671798
  27 H :    0.109198
  28 H :    0.093000
  29 H :    0.118388
  30 H :    0.079717
Sum of atomic charges:    0.0000000

LOEWDIN ATOMIC CHARGES
----------------------
   0 C :   -0.272953
   1 N :    0.177965
   2 C :   -0.282414
   3 C :   -0.386080
   4 H :    0.121869
   5 H :    0.135214
   6 S :    0.462019
   7 C :   -0.416817
   8 N :    0.061385
   9 N :    0.024357
  10 H :    0.181823
  11 H :    0.179422
  12 H :    0.182795
  13 H :    0.177023
  14 H :    0.176366
  15 O :   -0.333645
  16 O :   -0.331362
  17 C :   -0.263780
  18 H :    0.124558
  19 H :    0.145703
  20 C :   -0.268078
  21 H :    0.143595
  22 H :    0.132659
  23 C :   -0.265769
  24 H :    0.131624
  25 H :    0.139745
  26 O :   -0.418088
  27 H :    0.136260
  28 H :    0.136379
  29 H :    0.135521
  30 H :    0.132702

  Mayer bond orders larger than 0.100000
B(  0-C ,  1-N ) :   0.9146 B(  0-C , 17-C ) :   0.9237 B(  0-C , 18-H ) :   0.9833
B(  0-C , 19-H ) :   0.9687 B(  1-N ,  7-C ) :   1.4360 B(  1-N , 12-H ) :   0.8083
B(  2-C ,  3-C ) :   0.9547 B(  2-C , 20-C ) :   0.9867 B(  2-C , 21-H ) :   0.9578
B(  2-C , 22-H ) :   0.9552 B(  3-C ,  4-H ) :   0.9611 B(  3-C ,  5-H ) :   0.9576
B(  3-C ,  6-S ) :   0.8942 B(  6-S , 15-O ) :   1.8832 B(  6-S , 16-O ) :   1.8252
B(  6-S , 26-O ) :   1.3954 B(  7-C ,  8-N ) :   1.3915 B(  7-C ,  9-N ) :   1.2471
B(  8-N , 13-H ) :   0.8059 B(  8-N , 14-H ) :   0.9177 B(  9-N , 10-H ) :   0.9019
B(  9-N , 11-H ) :   0.9156 B( 12-H , 26-O ) :   0.1265 B( 13-H , 26-O ) :   0.1192
B( 17-C , 23-C ) :   0.9679 B( 17-C , 24-H ) :   0.9711 B( 17-C , 25-H ) :   0.9680
B( 20-C , 23-C ) :   0.9553 B( 20-C , 29-H ) :   0.9546 B( 20-C , 30-H ) :   0.9660
B( 23-C , 27-H ) :   0.9704 B( 23-C , 28-H ) :   0.9686

Dispersion correction           -0.061795612
FINAL SINGLE POINT ENERGY     -1065.042967760206

DIPOLE MOMENT
-------------
                                X             Y             Z
Electronic contribution:      2.28789      -5.00778     -14.26345
Nuclear contribution   :      0.44641       3.59123      19.13564
                        -----------------------------------------
Total Dipole Moment    :      2.73430      -1.41654       4.87219
                        -----------------------------------------
Magnitude (a.u.)       :      5.76379
Magnitude (Debye)      :     14.65039

Rotational constants in cm-1:     0.029186     0.014646     0.011115
Rotational constants in MHz :   874.975540   439.070287   333.231642

                             ****ORCA TERMINATED NORMALLY****
TOTAL RUN TIME: 0 days 0 hours 0 minutes 56 seconds 383 msec
