                         Program Version 5.0.0 -  RELEASE  -
|  1> !B3LYP D3BJ RIJCOSX def2-SVP def2/J TightSCF
|  2> *xyz 0 1
|  3> C          0.61188        1.65763       -4.50029
|  4> C          1.69499        1.54179       -5.57045
|  5> H          2.69733        1.73466       -5.18400
|  6> H          1.50666        2.27224       -6.35808
|  7> S          1.78029       -0.03313       -6.42874
|  8> F          2.56929        0.21366       -7.60736
|  9> O          0.41688       -0.46297       -6.61859
| 10> O          2.50513       -0.93326       -5.48257
| 11> H         -0.34424        1.45871       -4.93752
| 12> H          0.61845        2.64655       -4.09174
| 13> H          0.80247        0.94882       -3.72173
| 14> *
| 15> %MaxCore 64000
| 16>
| 17> %pal nprocs 4
| 18> end
| 19>
| 20> %scf
| 21>   MaxIter 150
| 22> end
| 23>
| 24>
| 25>                          ****END OF INPUT****

CARTESIAN COORDINATES (ANGSTROEM)
---------------------------------
  C      0.611880    1.657630   -4.500290
  C      1.694990    1.541790   -5.570450
  H      2.697330    1.734660   -5.184000
  H      1.506660    2.272240   -6.358080
  S      1.780290   -0.033130   -6.428740
  F      2.569290    0.213660   -7.607360
  O      0.416880   -0.462970   -6.618590
  O      2.505130   -0.933260   -5.482570
  H     -0.344240    1.458710   -4.937520
  H      0.618450    2.646550   -4.091740
  H      0.802470    0.948820   -3.721730

 Total Charge           Charge          ....    0
 Multiplicity           Mult            ....    1
 Number of Electrons    NEL             ....   58
 Basis Dimension        Dim             ....  113

ORBITAL ENERGIES
----------------

  NO   OCC          E(Eh)            E(eV)
   0   2.0000     -89.111963     -2424.8598
   1   2.0000     -24.798629      -674.8050
   2   2.0000     -19.133741      -520.6556
   3   2.0000     -19.111930      -520.0620
   4   2.0000     -10.239542      -278.6321
   5   2.0000     -10.202549      -277.6255
   6   2.0000      -8.175168      -222.4576
   7   2.0000      -6.147552      -167.2834
   8   2.0000      -6.141070      -167.1070
   9   2.0000      -6.139808      -167.0727
  10   2.0000      -1.368663       -37.2432
  11   2.0000      -1.092682       -29.7334
  12   2.0000      -0.981654       -26.7122
  13   2.0000      -0.813957       -22.1489
  14   2.0000      -0.728697       -19.8288
  15   2.0000      -0.669877       -18.2283
  16   2.0000      -0.581567       -15.8252
  17   2.0000      -0.580163       -15.7870
  18   2.0000      -0.545154       -14.8344
  19   2.0000      -0.491246       -13.3675
  20   2.0000      -0.473209       -12.8767
  21   2.0000      -0.430320       -11.7096
  22   2.0000      -0.426354       -11.6017
  23   2.0000      -0.406422       -11.0593
  24   2.0000      -0.387135       -10.5345
  25   2.0000      -0.370689       -10.0870
  26   2.0000      -0.322630        -8.7792
  27   2.0000      -0.302317        -8.2265
  28   2.0000      -0.286455        -7.7948
  29   0.0000       0.037499         1.0204
  30   0.0000       0.045677         1.2429
  31   0.0000       0.083685         2.2772
  32   0.0000       0.086655         2.3580
  33   0.0000       0.096774         2.6334

MULLIKEN ATOMIC CHARGES
-----------------------
   0 C :    0.048331
   1 C :   -0.107722
   2 H :    0.059446
   3 H :    0.039956
   4 S :    0.944705
   5 F :   -0.169015
   6 O :   -0.432535
   7 O :   -0.490981
   8 H :    0.039343
   9 H :    0.027735
  10 H :    0.040738
Sum of atomic charges:    0.0000000

LOEWDIN ATOMIC CHARGES
----------------------
   0 C :   -0.038432
   1 C :   -0.146644
   2 H :    0.035163
   3 H :    0.024911
   4 S :    1.159881
   5 F :   -0.116467
   6 O :   -0.478691
   7 O :   -0.539155
   8 H :    0.032041
   9 H :    0.033905
  10 H :    0.033490

  Mayer bond orders larger than 0.100000
B(  0-C ,  1-C ) :   1.0847 B(  0-C ,  8-H ) :   0.9664 B(  0-C ,  9-H ) :   0.9597
B(  0-C , 10-H ) :   0.9713 B(  1-C ,  2-H ) :   0.9311 B(  1-C ,  3-H ) :   0.9272
B(  1-C ,  4-S ) :   0.9177 B(  4-S ,  5-F ) :   1.0221 B(  4-S ,  6-O ) :   1.7773
B(  4-S ,  7-O ) :   1.7257

Dispersion correction           -0.015930762
FINAL SINGLE POINT ENERGY      -727.026866443279

DIPOLE MOMENT
-------------
                                X             Y             Z
Electronic contribution:      3.87899      -5.69482      -7.58972
Nuclear contribution   :     -3.66946       7.33549       7.42434
                        -----------------------------------------
Total Dipole Moment    :      0.20953       1.64067      -0.16538
                        -----------------------------------------
Magnitude (a.u.)       :      1.66224
Magnitude (Debye)      :      4.22508

Rotational constants in cm-1:     0.158379     0.080294     0.077843
Rotational constants in MHz :  4748.076444  2407.152850  2333.668303

                             ****ORCA TERMINATED NORMALLY****
TOTAL RUN TIME: 0 days 0 hours 0 minutes 8 seconds 759 msec
