                         Program Version 5.0.0 -  RELEASE  -
|  1> !B3LYP D3BJ RIJCOSX def2-SVP def2/J TightSCF
|  2> *xyz 0 1
|  3> C          1.96337       -1.74915       -1.89689
|  4> C          2.73849       -2.01517       -3.09711
|  5> C          4.04974       -2.15472       -3.15204
|  6> N          4.65821       -1.98629       -4.31866
|  7> N          4.76423       -2.45444       -2.05049
|  8> H          4.28736       -2.77626       -1.21750
|  9> H          5.75082       -2.65835       -2.12599
| 10> H          2.34518       -1.69027       -3.97145
| 11> H          4.10900       -1.59268       -5.07176
| 12> H          5.64910       -2.15646       -4.42724
| 13> C          2.08852       -0.30091       -1.41520
| 14> H          2.23127       -2.45162       -1.10264
| 15> H          0.93025       -1.97780       -2.15544
| 16> H          1.82118        0.36368       -2.21003
| 17> H          3.09792       -0.11068       -1.11551
| 18> H          1.43391       -0.14382       -0.58352
| 19> *
| 20> %MaxCore 64000
| 21>
| 22> %pal nprocs 4
| 23> end
| 24>
| 25> %scf
| 26>   MaxIter 150
| 27> end
| 28>
| 29>
| 30>                          ****END OF INPUT****

CARTESIAN COORDINATES (ANGSTROEM)
---------------------------------
  C      1.963370   -1.749150   -1.896890
  C      2.738490   -2.015170   -3.097110
  C      4.049740   -2.154720   -3.152040
  N      4.658210   -1.986290   -4.318660
  N      4.764230   -2.454440   -2.050490
  H      4.287360   -2.776260   -1.217500
  H      5.750820   -2.658350   -2.125990
  H      2.345180   -1.690270   -3.971450
  H      4.109000   -1.592680   -5.071760
  H      5.649100   -2.156460   -4.427240
  C      2.088520   -0.300910   -1.415200
  H      2.231270   -2.451620   -1.102640
  H      0.930250   -1.977800   -2.155440
  H      1.821180    0.363680   -2.210030
  H      3.097920   -0.110680   -1.115510
  H      1.433910   -0.143820   -0.583520

 Total Charge           Charge          ....    0
 Multiplicity           Mult            ....    1
 Number of Electrons    NEL             ....   48
 Basis Dimension        Dim             ....  134

ORBITAL ENERGIES
----------------

  NO   OCC          E(Eh)            E(eV)
   0   2.0000     -14.320685      -389.6857
   1   2.0000     -14.318139      -389.6164
   2   2.0000     -10.215708      -277.9835
   3   2.0000     -10.149572      -276.1839
   4   2.0000     -10.142316      -275.9865
   5   2.0000     -10.089904      -274.5602
   6   2.0000      -0.939933       -25.5769
   7   2.0000      -0.851645       -23.1745
   8   2.0000      -0.755491       -20.5580
   9   2.0000      -0.677493       -18.4355
  10   2.0000      -0.603004       -16.4086
  11   2.0000      -0.567769       -15.4498
  12   2.0000      -0.532764       -14.4972
  13   2.0000      -0.499236       -13.5849
  14   2.0000      -0.465257       -12.6603
  15   2.0000      -0.429642       -11.6912
  16   2.0000      -0.409822       -11.1518
  17   2.0000      -0.374885       -10.2011
  18   2.0000      -0.371385       -10.1059
  19   2.0000      -0.346556        -9.4303
  20   2.0000      -0.319645        -8.6980
  21   2.0000      -0.310250        -8.4423
  22   2.0000      -0.253609        -6.9011
  23   2.0000      -0.145649        -3.9633
  24   0.0000       0.043769         1.1910
  25   0.0000       0.076096         2.0707
  26   0.0000       0.087165         2.3719
  27   0.0000       0.106246         2.8911
  28   0.0000       0.110744         3.0135

MULLIKEN ATOMIC CHARGES
-----------------------
   0 C :    0.068879
   1 C :   -0.135681
   2 C :   -0.092987
   3 N :   -0.031250
   4 N :   -0.064080
   5 H :    0.111974
   6 H :    0.093169
   7 H :   -0.121783
   8 H :    0.114661
   9 H :    0.092271
  10 C :    0.082113
  11 H :   -0.040600
  12 H :   -0.026521
  13 H :   -0.017147
  14 H :   -0.012634
  15 H :   -0.020385
Sum of atomic charges:   -0.0000000

LOEWDIN ATOMIC CHARGES
----------------------
   0 C :   -0.033653
   1 C :   -0.223636
   2 C :    0.026771
   3 N :   -0.016749
   4 N :   -0.026438
   5 H :    0.077186
   6 H :    0.062586
   7 H :   -0.015918
   8 H :    0.081497
   9 H :    0.062866
  10 C :   -0.048017
  11 H :    0.003423
  12 H :    0.018636
  13 H :    0.012956
  14 H :    0.011297
  15 H :    0.007193

  Mayer bond orders larger than 0.100000
B(  0-C ,  1-C ) :   1.0951 B(  0-C , 10-C ) :   1.0904 B(  0-C , 11-H ) :   0.9271
B(  0-C , 12-H ) :   0.9152 B(  1-C ,  2-C ) :   1.6909 B(  1-C ,  7-H ) :   0.9133
B(  2-C ,  3-N ) :   1.2491 B(  2-C ,  4-N ) :   1.2476 B(  3-N ,  8-H ) :   0.9340
B(  3-N ,  9-H ) :   0.9476 B(  4-N ,  5-H ) :   0.9418 B(  4-N ,  6-H ) :   0.9481
B( 10-C , 13-H ) :   0.9646 B( 10-C , 14-H ) :   0.9700 B( 10-C , 15-H ) :   0.9585

Dispersion correction           -0.021273183
FINAL SINGLE POINT ENERGY      -267.555936983127

DIPOLE MOMENT
-------------
                                X             Y             Z
Electronic contribution:      3.48841      -2.48995      -2.56769
Nuclear contribution   :     -2.31778       2.31977       2.35294
                        -----------------------------------------
Total Dipole Moment    :      1.17063      -0.17018      -0.21475
                        -----------------------------------------
Magnitude (a.u.)       :      1.20227
Magnitude (Debye)      :      3.05593

Rotational constants in cm-1:     0.219415     0.075373     0.066689
Rotational constants in MHz :  6577.897266  2259.621393  1999.290981

                             ****ORCA TERMINATED NORMALLY****
TOTAL RUN TIME: 0 days 0 hours 0 minutes 11 seconds 828 msec
