                         Program Version 5.0.0 -  RELEASE  -
|  1> !B3LYP D3BJ RIJCOSX def2-SVP def2/J TightSCF
|  2> *xyz 0 1
|  3> C          0.61188        1.65763       -4.50029
|  4> C          1.69499        1.54179       -5.57045
|  5> H          2.69733        1.73466       -5.18400
|  6> H          1.50666        2.27224       -6.35808
|  7> S          1.78029       -0.03313       -6.42874
|  8> O          2.56929        0.21366       -7.60736
|  9> F          0.41688       -0.46297       -6.61859
| 10> O          2.50513       -0.93326       -5.48257
| 11> H         -0.34424        1.45871       -4.93752
| 12> H          0.61845        2.64655       -4.09174
| 13> H          0.80247        0.94882       -3.72173
| 14> *
| 15> %MaxCore 64000
| 16>
| 17> %pal nprocs 4
| 18> end
| 19>
| 20> %scf
| 21>   MaxIter 150
| 22> end
| 23>
| 24>
| 25>                          ****END OF INPUT****

CARTESIAN COORDINATES (ANGSTROEM)
---------------------------------
  C      0.611880    1.657630   -4.500290
  C      1.694990    1.541790   -5.570450
  H      2.697330    1.734660   -5.184000
  H      1.506660    2.272240   -6.358080
  S      1.780290   -0.033130   -6.428740
  O      2.569290    0.213660   -7.607360
  F      0.416880   -0.462970   -6.618590
  O      2.505130   -0.933260   -5.482570
  H     -0.344240    1.458710   -4.937520
  H      0.618450    2.646550   -4.091740
  H      0.802470    0.948820   -3.721730

 Total Charge           Charge          ....    0
 Multiplicity           Mult            ....    1
 Number of Electrons    NEL             ....   58
 Basis Dimension        Dim             ....  113

ORBITAL ENERGIES
----------------

  NO   OCC          E(Eh)            E(eV)
   0   2.0000     -89.111477     -2424.8466
   1   2.0000     -24.798601      -674.8043
   2   2.0000     -19.132871      -520.6319
   3   2.0000     -19.112210      -520.0697
   4   2.0000     -10.239186      -278.6224
   5   2.0000     -10.208357      -277.7835
   6   2.0000      -8.174734      -222.4458
   7   2.0000      -6.147263      -167.2755
   8   2.0000      -6.140544      -167.0927
   9   2.0000      -6.139326      -167.0596
  10   2.0000      -1.367254       -37.2049
  11   2.0000      -1.093537       -29.7566
  12   2.0000      -0.981395       -26.7051
  13   2.0000      -0.817980       -22.2584
  14   2.0000      -0.724973       -19.7275
  15   2.0000      -0.674761       -18.3612
  16   2.0000      -0.592949       -16.1350
  17   2.0000      -0.578715       -15.7476
  18   2.0000      -0.535201       -14.5636
  19   2.0000      -0.492414       -13.3993
  20   2.0000      -0.470096       -12.7920
  21   2.0000      -0.444616       -12.0986
  22   2.0000      -0.426717       -11.6116
  23   2.0000      -0.410375       -11.1669
  24   2.0000      -0.392986       -10.6937
  25   2.0000      -0.369631       -10.0582
  26   2.0000      -0.322011        -8.7624
  27   2.0000      -0.302220        -8.2238
  28   2.0000      -0.286560        -7.7977
  29   0.0000       0.024571         0.6686
  30   0.0000       0.057942         1.5767
  31   0.0000       0.081590         2.2202
  32   0.0000       0.090904         2.4736
  33   0.0000       0.097046         2.6408

MULLIKEN ATOMIC CHARGES
-----------------------
   0 C :    0.029036
   1 C :   -0.109114
   2 H :    0.083827
   3 H :    0.051913
   4 S :    0.943565
   5 O :   -0.427285
   6 F :   -0.172257
   7 O :   -0.490140
   8 H :    0.019428
   9 H :    0.032400
  10 H :    0.038627
Sum of atomic charges:    0.0000000

LOEWDIN ATOMIC CHARGES
----------------------
   0 C :   -0.054074
   1 C :   -0.142513
   2 H :    0.051028
   3 H :    0.030438
   4 S :    1.160352
   5 O :   -0.475840
   6 F :   -0.118507
   7 O :   -0.538662
   8 H :    0.022400
   9 H :    0.035220
  10 H :    0.030157

  Mayer bond orders larger than 0.100000
B(  0-C ,  1-C ) :   1.0605 B(  0-C ,  8-H ) :   0.9715 B(  0-C ,  9-H ) :   0.9597
B(  0-C , 10-H ) :   0.9701 B(  1-C ,  2-H ) :   0.9360 B(  1-C ,  3-H ) :   0.9327
B(  1-C ,  4-S ) :   0.9220 B(  4-S ,  5-O ) :   1.7846 B(  4-S ,  6-F ) :   1.0150
B(  4-S ,  7-O ) :   1.7252

Dispersion correction           -0.015832068
FINAL SINGLE POINT ENERGY      -727.026590455413

DIPOLE MOMENT
-------------
                                X             Y             Z
Electronic contribution:      0.25617      -6.82748      -5.89775
Nuclear contribution   :     -1.42658       8.04056       6.39401
                        -----------------------------------------
Total Dipole Moment    :     -1.17042       1.21308       0.49627
                        -----------------------------------------
Magnitude (a.u.)       :      1.75719
Magnitude (Debye)      :      4.46641

Rotational constants in cm-1:     0.153659     0.082363     0.078978
Rotational constants in MHz :  4606.587369  2469.179541  2367.702074

                             ****ORCA TERMINATED NORMALLY****
TOTAL RUN TIME: 0 days 0 hours 0 minutes 9 seconds 137 msec
