                         Program Version 5.0.0 -  RELEASE  -
|  1> !B3LYP D3BJ RIJCOSX def2-SVP def2/J TightSCF
|  2> *xyz 0 1
|  3> C          1.96337       -1.74915       -1.89689
|  4> N          2.73849       -2.01517       -3.09711
|  5> C          4.04974       -2.15472       -3.15204
|  6> C          4.65821       -1.98629       -4.31866
|  7> N          4.76423       -2.45444       -2.05049
|  8> H          4.28736       -2.77626       -1.21750
|  9> H          5.75082       -2.65835       -2.12599
| 10> H          2.34518       -1.69027       -3.97145
| 11> H          4.10900       -1.59268       -5.07176
| 12> H          5.64910       -2.15646       -4.42724
| 13> C          2.08852       -0.30091       -1.41520
| 14> H          2.23127       -2.45162       -1.10264
| 15> H          0.93025       -1.97780       -2.15544
| 16> H          1.82118        0.36368       -2.21003
| 17> H          3.09792       -0.11068       -1.11551
| 18> H          1.43391       -0.14382       -0.58352
| 19> *
| 20> %MaxCore 64000
| 21>
| 22> %pal nprocs 4
| 23> end
| 24>
| 25> %scf
| 26>   MaxIter 150
| 27> end
| 28>
| 29>
| 30>                          ****END OF INPUT****

CARTESIAN COORDINATES (ANGSTROEM)
---------------------------------
  C      1.963370   -1.749150   -1.896890
  N      2.738490   -2.015170   -3.097110
  C      4.049740   -2.154720   -3.152040
  C      4.658210   -1.986290   -4.318660
  N      4.764230   -2.454440   -2.050490
  H      4.287360   -2.776260   -1.217500
  H      5.750820   -2.658350   -2.125990
  H      2.345180   -1.690270   -3.971450
  H      4.109000   -1.592680   -5.071760
  H      5.649100   -2.156460   -4.427240
  C      2.088520   -0.300910   -1.415200
  H      2.231270   -2.451620   -1.102640
  H      0.930250   -1.977800   -2.155440
  H      1.821180    0.363680   -2.210030
  H      3.097920   -0.110680   -1.115510
  H      1.433910   -0.143820   -0.583520

 Total Charge           Charge          ....    0
 Multiplicity           Mult            ....    1
 Number of Electrons    NEL             ....   48
 Basis Dimension        Dim             ....  134

ORBITAL ENERGIES
----------------

  NO   OCC          E(Eh)            E(eV)
   0   2.0000     -14.319527      -389.6541
   1   2.0000     -14.317319      -389.5941
   2   2.0000     -10.219144      -278.0771
   3   2.0000     -10.217079      -278.0209
   4   2.0000     -10.170531      -276.7542
   5   2.0000     -10.088047      -274.5097
   6   2.0000      -0.950339       -25.8600
   7   2.0000      -0.865334       -23.5469
   8   2.0000      -0.757695       -20.6179
   9   2.0000      -0.686681       -18.6855
  10   2.0000      -0.618483       -16.8298
  11   2.0000      -0.588331       -16.0093
  12   2.0000      -0.526689       -14.3319
  13   2.0000      -0.488252       -13.2860
  14   2.0000      -0.472870       -12.8674
  15   2.0000      -0.432162       -11.7597
  16   2.0000      -0.425587       -11.5808
  17   2.0000      -0.395265       -10.7557
  18   2.0000      -0.375387       -10.2148
  19   2.0000      -0.369110       -10.0440
  20   2.0000      -0.354896        -9.6572
  21   2.0000      -0.349898        -9.5212
  22   2.0000      -0.243755        -6.6329
  23   2.0000      -0.151638        -4.1263
  24   0.0000       0.043703         1.1892
  25   0.0000       0.071741         1.9522
  26   0.0000       0.085878         2.3369
  27   0.0000       0.101328         2.7573
  28   0.0000       0.109448         2.9782

MULLIKEN ATOMIC CHARGES
-----------------------
   0 C :    0.071274
   1 N :   -0.104565
   2 C :   -0.067532
   3 C :   -0.039108
   4 N :   -0.074600
   5 H :    0.093676
   6 H :    0.113407
   7 H :    0.109068
   8 H :   -0.081079
   9 H :   -0.080625
  10 C :    0.053635
  11 H :   -0.002223
  12 H :   -0.000202
  13 H :    0.001287
  14 H :    0.010375
  15 H :   -0.002788
Sum of atomic charges:   -0.0000000

LOEWDIN ATOMIC CHARGES
----------------------
   0 C :    0.032823
   1 N :   -0.021589
   2 C :    0.032896
   3 C :   -0.247632
   4 N :   -0.025655
   5 H :    0.060553
   6 H :    0.080762
   7 H :    0.080957
   8 H :   -0.013313
   9 H :   -0.012894
  10 C :   -0.057482
  11 H :    0.012829
  12 H :    0.020308
  13 H :    0.018723
  14 H :    0.020491
  15 H :    0.018223

  Mayer bond orders larger than 0.100000
B(  0-C ,  1-N ) :   1.0344 B(  0-C , 10-C ) :   1.0847 B(  0-C , 11-H ) :   0.9481
B(  0-C , 12-H ) :   0.9511 B(  1-N ,  2-C ) :   1.2144 B(  1-N ,  7-H ) :   0.9217
B(  2-C ,  3-C ) :   1.7506 B(  2-C ,  4-N ) :   1.2184 B(  3-C ,  8-H ) :   0.9167
B(  3-C ,  9-H ) :   0.9321 B(  4-N ,  5-H ) :   0.9489 B(  4-N ,  6-H ) :   0.9438
B( 10-C , 13-H ) :   0.9668 B( 10-C , 14-H ) :   0.9650 B( 10-C , 15-H ) :   0.9584

Dispersion correction           -0.021038298
FINAL SINGLE POINT ENERGY      -267.553562450318

DIPOLE MOMENT
-------------
                                X             Y             Z
Electronic contribution:      1.44072      -2.39041      -1.18100
Nuclear contribution   :     -1.91052       2.32590       2.09379
                        -----------------------------------------
Total Dipole Moment    :     -0.46980      -0.06452       0.91280
                        -----------------------------------------
Magnitude (a.u.)       :      1.02862
Magnitude (Debye)      :      2.61455

Rotational constants in cm-1:     0.219448     0.077923     0.068804
Rotational constants in MHz :  6578.886179  2336.083179  2062.700476

                             ****ORCA TERMINATED NORMALLY****
TOTAL RUN TIME: 0 days 0 hours 0 minutes 11 seconds 298 msec
