                         Program Version 5.0.0 -  RELEASE  -
|  1> !B3LYP D3BJ RIJCOSX def2-SVP def2/J TightSCF
|  2> *xyz 0 1
|  3> C          0.61188        1.65763       -4.50029
|  4> C          1.69499        1.54179       -5.57045
|  5> H          2.69733        1.73466       -5.18400
|  6> H          1.50666        2.27224       -6.35808
|  7> S          1.78029       -0.03313       -6.42874
|  8> O          2.56929        0.21366       -7.60736
|  9> O          0.41688       -0.46297       -6.61859
| 10> F          2.50513       -0.93326       -5.48257
| 11> H         -0.34424        1.45871       -4.93752
| 12> H          0.61845        2.64655       -4.09174
| 13> H          0.80247        0.94882       -3.72173
| 14> *
| 15> %MaxCore 64000
| 16>
| 17> %pal nprocs 4
| 18> end
| 19>
| 20> %scf
| 21>   MaxIter 150
| 22> end
| 23>
| 24>
| 25>                          ****END OF INPUT****

CARTESIAN COORDINATES (ANGSTROEM)
---------------------------------
  C      0.611880    1.657630   -4.500290
  C      1.694990    1.541790   -5.570450
  H      2.697330    1.734660   -5.184000
  H      1.506660    2.272240   -6.358080
  S      1.780290   -0.033130   -6.428740
  O      2.569290    0.213660   -7.607360
  O      0.416880   -0.462970   -6.618590
  F      2.505130   -0.933260   -5.482570
  H     -0.344240    1.458710   -4.937520
  H      0.618450    2.646550   -4.091740
  H      0.802470    0.948820   -3.721730

 Total Charge           Charge          ....    0
 Multiplicity           Mult            ....    1
 Number of Electrons    NEL             ....   58
 Basis Dimension        Dim             ....  113

ORBITAL ENERGIES
----------------

  NO   OCC          E(Eh)            E(eV)
   0   2.0000     -89.110660     -2424.8243
   1   2.0000     -24.770187      -674.0311
   2   2.0000     -19.134752      -520.6831
   3   2.0000     -19.133065      -520.6372
   4   2.0000     -10.238291      -278.5980
   5   2.0000     -10.203299      -277.6459
   6   2.0000      -8.173608      -222.4152
   7   2.0000      -6.145756      -167.2345
   8   2.0000      -6.139841      -167.0736
   9   2.0000      -6.138520      -167.0376
  10   2.0000      -1.321910       -35.9710
  11   2.0000      -1.106121       -30.0991
  12   2.0000      -1.012121       -27.5412
  13   2.0000      -0.814553       -22.1651
  14   2.0000      -0.710285       -19.3278
  15   2.0000      -0.661060       -17.9883
  16   2.0000      -0.568306       -15.4644
  17   2.0000      -0.546856       -14.8807
  18   2.0000      -0.535823       -14.5805
  19   2.0000      -0.489010       -13.3066
  20   2.0000      -0.472308       -12.8522
  21   2.0000      -0.447510       -12.1774
  22   2.0000      -0.427391       -11.6299
  23   2.0000      -0.403169       -10.9708
  24   2.0000      -0.397531       -10.8174
  25   2.0000      -0.374779       -10.1982
  26   2.0000      -0.329435        -8.9644
  27   2.0000      -0.323503        -8.8030
  28   2.0000      -0.309546        -8.4232
  29   0.0000       0.032186         0.8758
  30   0.0000       0.056509         1.5377
  31   0.0000       0.085506         2.3267
  32   0.0000       0.089045         2.4230
  33   0.0000       0.097059         2.6411

MULLIKEN ATOMIC CHARGES
-----------------------
   0 C :    0.040159
   1 C :   -0.120652
   2 H :    0.053523
   3 H :    0.075378
   4 S :    0.958143
   5 O :   -0.435804
   6 O :   -0.438349
   7 F :   -0.224085
   8 H :    0.043421
   9 H :    0.026361
  10 H :    0.021905
Sum of atomic charges:    0.0000000

LOEWDIN ATOMIC CHARGES
----------------------
   0 C :   -0.050361
   1 C :   -0.148283
   2 H :    0.031630
   3 H :    0.046541
   4 S :    1.168418
   5 O :   -0.482379
   6 O :   -0.482519
   7 F :   -0.173084
   8 H :    0.032083
   9 H :    0.032804
  10 H :    0.025150

  Mayer bond orders larger than 0.100000
B(  0-C ,  1-C ) :   1.0636 B(  0-C ,  8-H ) :   0.9669 B(  0-C ,  9-H ) :   0.9584
B(  0-C , 10-H ) :   0.9728 B(  1-C ,  2-H ) :   0.9334 B(  1-C ,  3-H ) :   0.9360
B(  1-C ,  4-S ) :   0.9156 B(  4-S ,  5-O ) :   1.7906 B(  4-S ,  6-O ) :   1.7837
B(  4-S ,  7-F ) :   0.9603

Dispersion correction           -0.015877426
FINAL SINGLE POINT ENERGY      -727.052291583429

DIPOLE MOMENT
-------------
                                X             Y             Z
Electronic contribution:      3.78964      -7.65013      -3.97712
Nuclear contribution   :     -3.60260       8.53062       5.21025
                        -----------------------------------------
Total Dipole Moment    :      0.18703       0.88048       1.23312
                        -----------------------------------------
Magnitude (a.u.)       :      1.52670
Magnitude (Debye)      :      3.88057

Rotational constants in cm-1:     0.154011     0.080858     0.079602
Rotational constants in MHz :  4617.134198  2424.070332  2386.404775

                             ****ORCA TERMINATED NORMALLY****
TOTAL RUN TIME: 0 days 0 hours 0 minutes 7 seconds 995 msec
