                         Program Version 5.0.0 -  RELEASE  -
|  1> !B3LYP D3BJ RIJCOSX def2-SVP def2/J TightSCF
|  2> *xyz 0 1
|  3> C          1.96337       -1.74915       -1.89689
|  4> N          2.73849       -2.01517       -3.09711
|  5> C          4.04974       -2.15472       -3.15204
|  6> N          4.65821       -1.98629       -4.31866
|  7> C          4.76423       -2.45444       -2.05049
|  8> H          4.28736       -2.77626       -1.21750
|  9> H          5.75082       -2.65835       -2.12599
| 10> H          2.34518       -1.69027       -3.97145
| 11> H          4.10900       -1.59268       -5.07176
| 12> H          5.64910       -2.15646       -4.42724
| 13> C          2.08852       -0.30091       -1.41520
| 14> H          2.23127       -2.45162       -1.10264
| 15> H          0.93025       -1.97780       -2.15544
| 16> H          1.82118        0.36368       -2.21003
| 17> H          3.09792       -0.11068       -1.11551
| 18> H          1.43391       -0.14382       -0.58352
| 19> *
| 20> %MaxCore 64000
| 21>
| 22> %pal nprocs 4
| 23> end
| 24>
| 25> %scf
| 26>   MaxIter 150
| 27> end
| 28>
| 29>
| 30>                          ****END OF INPUT****

CARTESIAN COORDINATES (ANGSTROEM)
---------------------------------
  C      1.963370   -1.749150   -1.896890
  N      2.738490   -2.015170   -3.097110
  C      4.049740   -2.154720   -3.152040
  N      4.658210   -1.986290   -4.318660
  C      4.764230   -2.454440   -2.050490
  H      4.287360   -2.776260   -1.217500
  H      5.750820   -2.658350   -2.125990
  H      2.345180   -1.690270   -3.971450
  H      4.109000   -1.592680   -5.071760
  H      5.649100   -2.156460   -4.427240
  C      2.088520   -0.300910   -1.415200
  H      2.231270   -2.451620   -1.102640
  H      0.930250   -1.977800   -2.155440
  H      1.821180    0.363680   -2.210030
  H      3.097920   -0.110680   -1.115510
  H      1.433910   -0.143820   -0.583520

 Total Charge           Charge          ....    0
 Multiplicity           Mult            ....    1
 Number of Electrons    NEL             ....   48
 Basis Dimension        Dim             ....  134

ORBITAL ENERGIES
----------------

  NO   OCC          E(Eh)            E(eV)
   0   2.0000     -14.321726      -389.7140
   1   2.0000     -14.321217      -389.7001
   2   2.0000     -10.218873      -278.0697
   3   2.0000     -10.211616      -277.8722
   4   2.0000     -10.163017      -276.5498
   5   2.0000     -10.086221      -274.4600
   6   2.0000      -0.955927       -26.0121
   7   2.0000      -0.869335       -23.6558
   8   2.0000      -0.740673       -20.1547
   9   2.0000      -0.690063       -18.7776
  10   2.0000      -0.631651       -17.1881
  11   2.0000      -0.551423       -15.0050
  12   2.0000      -0.538195       -14.6450
  13   2.0000      -0.515106       -14.0167
  14   2.0000      -0.461226       -12.5506
  15   2.0000      -0.433469       -11.7953
  16   2.0000      -0.410184       -11.1617
  17   2.0000      -0.390546       -10.6273
  18   2.0000      -0.374065       -10.1788
  19   2.0000      -0.359479        -9.7819
  20   2.0000      -0.354399        -9.6437
  21   2.0000      -0.342462        -9.3189
  22   2.0000      -0.241922        -6.5830
  23   2.0000      -0.151143        -4.1128
  24   0.0000       0.041915         1.1406
  25   0.0000       0.074415         2.0249
  26   0.0000       0.090850         2.4722
  27   0.0000       0.099287         2.7017
  28   0.0000       0.117117         3.1869

MULLIKEN ATOMIC CHARGES
-----------------------
   0 C :    0.099012
   1 N :   -0.122530
   2 C :   -0.063980
   3 N :   -0.050447
   4 C :   -0.067189
   5 H :   -0.068165
   6 H :   -0.084571
   7 H :    0.083994
   8 H :    0.089699
   9 H :    0.118924
  10 C :    0.047046
  11 H :    0.020733
  12 H :   -0.007366
  13 H :   -0.013556
  14 H :    0.020356
  15 H :   -0.001960
Sum of atomic charges:    0.0000000

LOEWDIN ATOMIC CHARGES
----------------------
   0 C :    0.046881
   1 N :   -0.020605
   2 C :    0.030691
   3 N :   -0.014319
   4 C :   -0.262549
   5 H :   -0.012047
   6 H :   -0.014706
   7 H :    0.059286
   8 H :    0.060235
   9 H :    0.083455
  10 C :   -0.055441
  11 H :    0.025858
  12 H :    0.016611
  13 H :    0.012202
  14 H :    0.025254
  15 H :    0.019192

  Mayer bond orders larger than 0.100000
B(  0-C ,  1-N ) :   1.0203 B(  0-C , 10-C ) :   1.1058 B(  0-C , 11-H ) :   0.9423
B(  0-C , 12-H ) :   0.9526 B(  1-N ,  2-C ) :   1.1931 B(  1-N ,  7-H ) :   0.9329
B(  2-C ,  3-N ) :   1.2395 B(  2-C ,  4-C ) :   1.7462 B(  3-N ,  8-H ) :   0.9481
B(  3-N ,  9-H ) :   0.9414 B(  4-C ,  5-H ) :   0.9266 B(  4-C ,  6-H ) :   0.9288
B( 10-C , 13-H ) :   0.9653 B( 10-C , 14-H ) :   0.9633 B( 10-C , 15-H ) :   0.9606

Dispersion correction           -0.021175432
FINAL SINGLE POINT ENERGY      -267.552058764063

DIPOLE MOMENT
-------------
                                X             Y             Z
Electronic contribution:      1.35384      -1.82372      -3.55752
Nuclear contribution   :     -1.88803       2.22658       2.57497
                        -----------------------------------------
Total Dipole Moment    :     -0.53419       0.40287      -0.98255
                        -----------------------------------------
Magnitude (a.u.)       :      1.18872
Magnitude (Debye)      :      3.02149

Rotational constants in cm-1:     0.226509     0.075782     0.067928
Rotational constants in MHz :  6790.555051  2271.890226  2036.439218

                             ****ORCA TERMINATED NORMALLY****
TOTAL RUN TIME: 0 days 0 hours 0 minutes 11 seconds 795 msec
