                         Program Version 5.0.0 -  RELEASE  -
|  1> !B3LYP D3BJ RIJCOSX def2-TZVP def2/J TightSCF xyzfile
|  2>
|  3> *xyzfile 0 1 D2.xyz
|  4>
|  5> %MaxCore 64000
|  6>
|  7> %pal nprocs 18
|  8> end
|  9>
| 10> %scf
| 11>   MaxIter 150
| 12> end
| 13>
| 14>
| 15>                          ****END OF INPUT****

CARTESIAN COORDINATES (ANGSTROEM)
---------------------------------
  C      1.963365   -1.749150   -1.896887
  N      2.738490   -2.015170   -3.097113
  C      0.611877    1.657634   -4.500288
  C      1.694991    1.541794   -5.570447
  H      2.697326    1.734659   -5.183996
  H      1.506656    2.272239   -6.358076
  S      1.780287   -0.033128   -6.428739
  C      4.049736   -2.154717   -3.152044
  C      4.658206   -1.986293   -4.318655
  N      4.764231   -2.454435   -2.050491
  H      4.287363   -2.776259   -1.217496
  H      5.750825   -2.658351   -2.125988
  H      2.345176   -1.690274   -3.971447
  H      4.109004   -1.592677   -5.071760
  H      5.649095   -2.156462   -4.427237
  F      2.569287    0.213657   -7.607360
  O      0.416880   -0.462969   -6.618595
  C      2.088520   -0.300912   -1.415204
  H      2.231272   -2.451616   -1.102643
  H      0.930249   -1.977801   -2.155438
  C      0.680356    0.655418   -3.348038
  H     -0.356865    1.549231   -4.991128
  H      0.650228    2.675438   -4.096000
  C      1.968993    0.733582   -2.535654
  H      3.051356   -0.168602   -0.911868
  H      1.316501   -0.136231   -0.657252
  O      2.505129   -0.933263   -5.482570
  H      2.824195    0.624726   -3.208464
  H      2.058919    1.730331   -2.093112
  H      0.542252   -0.344731   -3.766662
  H     -0.174219    0.829692   -2.685182

 Total Charge           Charge          ....    0
 Multiplicity           Mult            ....    1
 Number of Electrons    NEL             ....  120
 Basis Dimension        Dim             ....  542

ORBITAL ENERGIES
----------------

  NO   OCC          E(Eh)            E(eV)
   0   2.0000     -89.109555     -2424.7943
   1   2.0000     -24.812542      -675.1836
   2   2.0000     -19.148751      -521.0640
   3   2.0000     -19.133208      -520.6411
   4   2.0000     -14.293099      -388.9350
   5   2.0000     -14.279394      -388.5621
   6   2.0000     -10.233928      -278.4793
   7   2.0000     -10.199404      -277.5399
   8   2.0000     -10.189812      -277.2789
   9   2.0000     -10.186007      -277.1753
  10   2.0000     -10.174004      -276.8487
  11   2.0000     -10.164099      -276.5792
  12   2.0000     -10.159281      -276.4481
  13   2.0000     -10.047078      -273.3949
  14   2.0000      -8.153639      -221.8718
  15   2.0000      -6.120154      -166.5379
  16   2.0000      -6.114124      -166.3738
  17   2.0000      -6.113818      -166.3654
  18   2.0000      -1.395817       -37.9821
  19   2.0000      -1.115928       -30.3659
  20   2.0000      -1.017878       -27.6979
  21   2.0000      -0.943048       -25.6616
  22   2.0000      -0.862453       -23.4685
  23   2.0000      -0.840489       -22.8709
  24   2.0000      -0.791801       -21.5460
  25   2.0000      -0.759033       -20.6543
  26   2.0000      -0.722567       -19.6620
  27   2.0000      -0.695543       -18.9267
  28   2.0000      -0.658407       -17.9162
  29   2.0000      -0.625650       -17.0248
  30   2.0000      -0.603691       -16.4273
  31   2.0000      -0.593174       -16.1411
  32   2.0000      -0.587458       -15.9855
  33   2.0000      -0.564371       -15.3573
  34   2.0000      -0.556093       -15.1321
  35   2.0000      -0.514559       -14.0019
  36   2.0000      -0.500438       -13.6176
  37   2.0000      -0.497804       -13.5459
  38   2.0000      -0.475657       -12.9433
  39   2.0000      -0.472767       -12.8646
  40   2.0000      -0.464456       -12.6385
  41   2.0000      -0.456627       -12.4255
  42   2.0000      -0.438570       -11.9341
  43   2.0000      -0.430727       -11.7207
  44   2.0000      -0.415517       -11.3068
  45   2.0000      -0.399776       -10.8785
  46   2.0000      -0.386181       -10.5085
  47   2.0000      -0.383427       -10.4336
  48   2.0000      -0.371819       -10.1177
  49   2.0000      -0.361262        -9.8304
  50   2.0000      -0.355159        -9.6644
  51   2.0000      -0.353415        -9.6169
  52   2.0000      -0.346190        -9.4203
  53   2.0000      -0.332406        -9.0452
  54   2.0000      -0.328765        -8.9461
  55   2.0000      -0.323198        -8.7947
  56   2.0000      -0.320116        -8.7108
  57   2.0000      -0.302420        -8.2293
  58   2.0000      -0.230263        -6.2658
  59   2.0000      -0.137877        -3.7518
  60   0.0000       0.010750         0.2925
  61   0.0000       0.018497         0.5033
  62   0.0000       0.035160         0.9568
  63   0.0000       0.048457         1.3186
  64   0.0000       0.055008         1.4968

MULLIKEN ATOMIC CHARGES
-----------------------
   0 C :   -0.218354
   1 N :   -0.240670
   2 C :   -0.140188
   3 C :   -0.274548
   4 H :    0.155536
   5 H :    0.139615
   6 S :    0.888964
   7 C :    0.324721
   8 C :   -0.530412
   9 N :   -0.479437
  10 H :    0.204922
  11 H :    0.222331
  12 H :    0.233156
  13 H :    0.115295
  14 H :    0.061972
  15 F :   -0.100239
  16 O :   -0.405148
  17 C :   -0.070784
  18 H :    0.096238
  19 H :    0.122168
  20 C :   -0.240530
  21 H :    0.122566
  22 H :    0.107553
  23 C :   -0.229548
  24 H :    0.090723
  25 H :    0.069447
  26 O :   -0.467343
  27 H :    0.135219
  28 H :    0.084322
  29 H :    0.130140
  30 H :    0.092310
Sum of atomic charges:    0.0000000

LOEWDIN ATOMIC CHARGES
----------------------
   0 C :   -0.297100
   1 N :    0.126040
   2 C :   -0.269759
   3 C :   -0.365859
   4 H :    0.142366
   5 H :    0.137308
   6 S :    0.565089
   7 C :   -0.465228
   8 C :   -0.356548
   9 N :   -0.023580
  10 H :    0.154867
  11 H :    0.169661
  12 H :    0.175614
  13 H :    0.093519
  14 H :    0.086788
  15 F :    0.106729
  16 O :   -0.252798
  17 C :   -0.265921
  18 H :    0.123286
  19 H :    0.130623
  20 C :   -0.264287
  21 H :    0.145032
  22 H :    0.145940
  23 C :   -0.266867
  24 H :    0.134837
  25 H :    0.129996
  26 O :   -0.288669
  27 H :    0.140992
  28 H :    0.132637
  29 H :    0.137523
  30 H :    0.137769

  Mayer bond orders larger than 0.100000
B(  0-C ,  1-N ) :   0.9878 B(  0-C , 17-C ) :   0.9047 B(  0-C , 18-H ) :   0.9851
B(  0-C , 19-H ) :   0.9874 B(  1-N ,  7-C ) :   1.2355 B(  1-N , 12-H ) :   0.8913
B(  2-C ,  3-C ) :   0.9611 B(  2-C , 20-C ) :   0.9782 B(  2-C , 21-H ) :   0.9646
B(  2-C , 22-H ) :   0.9513 B(  3-C ,  4-H ) :   0.9399 B(  3-C ,  5-H ) :   0.9412
B(  3-C ,  6-S ) :   0.9173 B(  6-S , 15-F ) :   1.1489 B(  6-S , 16-O ) :   1.9235
B(  6-S , 26-O ) :   1.7334 B(  7-C ,  8-C ) :   1.6291 B(  7-C ,  9-N ) :   1.1087
B(  8-C , 13-H ) :   0.9855 B(  8-C , 14-H ) :   0.9993 B(  9-N , 10-H ) :   0.9220
B(  9-N , 11-H ) :   0.9293 B( 17-C , 23-C ) :   0.9783 B( 17-C , 24-H ) :   0.9600
B( 17-C , 25-H ) :   0.9628 B( 20-C , 23-C ) :   0.9410 B( 20-C , 29-H ) :   0.9723
B( 20-C , 30-H ) :   0.9674 B( 23-C , 27-H ) :   0.9653 B( 23-C , 28-H ) :   0.9640

Dispersion correction           -0.061940682
FINAL SINGLE POINT ENERGY     -1072.898819154833

DIPOLE MOMENT
-------------
                                X             Y             Z
Electronic contribution:     -0.86324      -0.85080     -22.51082
Nuclear contribution   :      0.43347       2.59110      22.83150
                        -----------------------------------------
Total Dipole Moment    :     -0.42978       1.74030       0.32068
                        -----------------------------------------
Magnitude (a.u.)       :      1.82104
Magnitude (Debye)      :      4.62871

Rotational constants in cm-1:     0.029257     0.014415     0.010996
Rotational constants in MHz :   877.098782   432.159206   329.643335

                             ****ORCA TERMINATED NORMALLY****
TOTAL RUN TIME: 0 days 0 hours 1 minutes 4 seconds 567 msec
