                         Program Version 5.0.0 -  RELEASE  -
|  1> !B3LYP D3BJ RIJCOSX def2-TZVP def2/J TightSCF xyzfile
|  2>
|  3> *xyzfile 0 1 D3.xyz
|  4>
|  5> %MaxCore 64000
|  6>
|  7> %pal nprocs 18
|  8> end
|  9>
| 10> %scf
| 11>   MaxIter 150
| 12> end
| 13>
| 14>
| 15>                          ****END OF INPUT****

CARTESIAN COORDINATES (ANGSTROEM)
---------------------------------
  C      1.963365   -1.749150   -1.896887
  N      2.738490   -2.015170   -3.097113
  C      0.611877    1.657634   -4.500288
  C      1.694991    1.541794   -5.570447
  H      2.697326    1.734659   -5.183996
  H      1.506656    2.272239   -6.358076
  S      1.780287   -0.033128   -6.428739
  C      4.049736   -2.154717   -3.152044
  N      4.658206   -1.986293   -4.318655
  C      4.764231   -2.454435   -2.050491
  H      4.287363   -2.776259   -1.217496
  H      5.750825   -2.658351   -2.125988
  H      2.345176   -1.690274   -3.971447
  H      4.109004   -1.592677   -5.071760
  H      5.649095   -2.156462   -4.427237
  F      2.569287    0.213657   -7.607360
  O      0.416880   -0.462969   -6.618595
  C      2.088520   -0.300912   -1.415204
  H      2.231272   -2.451616   -1.102643
  H      0.930249   -1.977801   -2.155438
  C      0.680356    0.655418   -3.348038
  H     -0.356865    1.549231   -4.991128
  H      0.650228    2.675438   -4.096000
  C      1.968993    0.733582   -2.535654
  H      3.051356   -0.168602   -0.911868
  H      1.316501   -0.136231   -0.657252
  O      2.505129   -0.933263   -5.482570
  H      2.824195    0.624726   -3.208464
  H      2.058919    1.730331   -2.093112
  H      0.542252   -0.344731   -3.766662
  H     -0.174219    0.829692   -2.685182

 Total Charge           Charge          ....    0
 Multiplicity           Mult            ....    1
 Number of Electrons    NEL             ....  120
 Basis Dimension        Dim             ....  542

ORBITAL ENERGIES
----------------

  NO   OCC          E(Eh)            E(eV)
   0   2.0000     -89.126393     -2425.2524
   1   2.0000     -24.827665      -675.5951
   2   2.0000     -19.163714      -521.4712
   3   2.0000     -19.155425      -521.2456
   4   2.0000     -14.280657      -388.5964
   5   2.0000     -14.279685      -388.5700
   6   2.0000     -10.245113      -278.7837
   7   2.0000     -10.205797      -277.7139
   8   2.0000     -10.187257      -277.2093
   9   2.0000     -10.183096      -277.0961
  10   2.0000     -10.177153      -276.9344
  11   2.0000     -10.164947      -276.6023
  12   2.0000     -10.153705      -276.2964
  13   2.0000     -10.055135      -273.6141
  14   2.0000      -8.170420      -222.3284
  15   2.0000      -6.137028      -166.9970
  16   2.0000      -6.131044      -166.8342
  17   2.0000      -6.130403      -166.8167
  18   2.0000      -1.411119       -38.3985
  19   2.0000      -1.132639       -30.8207
  20   2.0000      -1.037211       -28.2239
  21   2.0000      -0.944063       -25.6892
  22   2.0000      -0.860676       -23.4202
  23   2.0000      -0.848367       -23.0852
  24   2.0000      -0.795658       -21.6510
  25   2.0000      -0.760676       -20.6990
  26   2.0000      -0.724495       -19.7145
  27   2.0000      -0.687592       -18.7103
  28   2.0000      -0.676711       -18.4142
  29   2.0000      -0.637656       -17.3515
  30   2.0000      -0.615755       -16.7555
  31   2.0000      -0.604369       -16.4457
  32   2.0000      -0.589719       -16.0471
  33   2.0000      -0.570581       -15.5263
  34   2.0000      -0.538591       -14.6558
  35   2.0000      -0.522093       -14.2069
  36   2.0000      -0.515575       -14.0295
  37   2.0000      -0.506470       -13.7817
  38   2.0000      -0.495228       -13.4758
  39   2.0000      -0.478543       -13.0218
  40   2.0000      -0.461934       -12.5699
  41   2.0000      -0.454382       -12.3644
  42   2.0000      -0.439221       -11.9518
  43   2.0000      -0.424856       -11.5609
  44   2.0000      -0.421011       -11.4563
  45   2.0000      -0.414387       -11.2760
  46   2.0000      -0.389681       -10.6038
  47   2.0000      -0.385476       -10.4893
  48   2.0000      -0.369243       -10.0476
  49   2.0000      -0.366818        -9.9816
  50   2.0000      -0.363169        -9.8823
  51   2.0000      -0.351074        -9.5532
  52   2.0000      -0.349141        -9.5006
  53   2.0000      -0.341444        -9.2912
  54   2.0000      -0.334646        -9.1062
  55   2.0000      -0.329560        -8.9678
  56   2.0000      -0.326350        -8.8804
  57   2.0000      -0.315276        -8.5791
  58   2.0000      -0.222769        -6.0619
  59   2.0000      -0.139408        -3.7935
  60   0.0000      -0.003046        -0.0829
  61   0.0000       0.010830         0.2947
  62   0.0000       0.039177         1.0661
  63   0.0000       0.043560         1.1853
  64   0.0000       0.046120         1.2550

MULLIKEN ATOMIC CHARGES
-----------------------
   0 C :   -0.168252
   1 N :   -0.255892
   2 C :   -0.140932
   3 C :   -0.274999
   4 H :    0.156030
   5 H :    0.145139
   6 S :    0.896975
   7 C :    0.311192
   8 N :   -0.460005
   9 C :   -0.524753
  10 H :    0.071347
  11 H :    0.061438
  12 H :    0.222796
  13 H :    0.227039
  14 H :    0.216497
  15 F :   -0.098503
  16 O :   -0.393290
  17 C :   -0.084185
  18 H :    0.112646
  19 H :    0.114834
  20 C :   -0.241935
  21 H :    0.124724
  22 H :    0.111093
  23 C :   -0.231125
  24 H :    0.107068
  25 H :    0.073805
  26 O :   -0.503612
  27 H :    0.113607
  28 H :    0.085254
  29 H :    0.129597
  30 H :    0.096398
Sum of atomic charges:   -0.0000000

LOEWDIN ATOMIC CHARGES
----------------------
   0 C :   -0.278004
   1 N :    0.124784
   2 C :   -0.269218
   3 C :   -0.364384
   4 H :    0.142300
   5 H :    0.139123
   6 S :    0.569668
   7 C :   -0.467563
   8 N :   -0.015828
   9 C :   -0.369808
  10 H :    0.091660
  11 H :    0.087576
  12 H :    0.163275
  13 H :    0.147427
  14 H :    0.167360
  15 F :    0.107410
  16 O :   -0.242983
  17 C :   -0.262439
  18 H :    0.134071
  19 H :    0.127805
  20 C :   -0.264388
  21 H :    0.145365
  22 H :    0.147446
  23 C :   -0.267706
  24 H :    0.141329
  25 H :    0.131106
  26 O :   -0.310433
  27 H :    0.136022
  28 H :    0.132764
  29 H :    0.136911
  30 H :    0.139354

  Mayer bond orders larger than 0.100000
B(  0-C ,  1-N ) :   0.9729 B(  0-C , 17-C ) :   0.9349 B(  0-C , 18-H ) :   0.9705
B(  0-C , 19-H ) :   0.9856 B(  1-N ,  7-C ) :   1.2172 B(  1-N , 12-H ) :   0.8959
B(  2-C ,  3-C ) :   0.9579 B(  2-C , 20-C ) :   0.9750 B(  2-C , 21-H ) :   0.9651
B(  2-C , 22-H ) :   0.9495 B(  3-C ,  4-H ) :   0.9380 B(  3-C ,  5-H ) :   0.9404
B(  3-C ,  6-S ) :   0.9196 B(  6-S , 15-F ) :   1.1513 B(  6-S , 16-O ) :   1.9372
B(  6-S , 26-O ) :   1.6970 B(  7-C ,  8-N ) :   1.1588 B(  7-C ,  9-C ) :   1.6224
B(  8-N , 13-H ) :   0.8890 B(  8-N , 14-H ) :   0.9291 B(  9-C , 10-H ) :   0.9999
B(  9-C , 11-H ) :   0.9960 B( 17-C , 23-C ) :   0.9844 B( 17-C , 24-H ) :   0.9541
B( 17-C , 25-H ) :   0.9695 B( 20-C , 23-C ) :   0.9362 B( 20-C , 29-H ) :   0.9755
B( 20-C , 30-H ) :   0.9685 B( 23-C , 27-H ) :   0.9682 B( 23-C , 28-H ) :   0.9635

Dispersion correction           -0.061861517
FINAL SINGLE POINT ENERGY     -1072.909950762382

DIPOLE MOMENT
-------------
                                X             Y             Z
Electronic contribution:     -1.10982      -0.24040     -24.59981
Nuclear contribution   :      0.44707       2.53104      23.12246
                        -----------------------------------------
Total Dipole Moment    :     -0.66276       2.29064      -1.47735
                        -----------------------------------------
Magnitude (a.u.)       :      2.80515
Magnitude (Debye)      :      7.13012

Rotational constants in cm-1:     0.028906     0.014696     0.011110
Rotational constants in MHz :   866.591909   440.585554   333.081943

                             ****ORCA TERMINATED NORMALLY****
TOTAL RUN TIME: 0 days 0 hours 1 minutes 4 seconds 66 msec
