                         Program Version 5.0.0 -  RELEASE  -
|  1> !B3LYP D3BJ RIJCOSX def2-TZVP def2/J TightSCF xyzfile
|  2>
|  3> *xyzfile 0 1 D7.xyz
|  4>
|  5> %MaxCore 64000
|  6>
|  7> %pal nprocs 18
|  8> end
|  9>
| 10> %scf
| 11>   MaxIter 150
| 12> end
| 13>
| 14>
| 15>                          ****END OF INPUT****

CARTESIAN COORDINATES (ANGSTROEM)
---------------------------------
  C      1.963365   -1.749150   -1.896887
  C      2.738490   -2.015170   -3.097113
  C      0.611877    1.657634   -4.500288
  C      1.694991    1.541794   -5.570447
  H      2.697326    1.734659   -5.183996
  H      1.506656    2.272239   -6.358076
  S      1.780287   -0.033128   -6.428739
  C      4.049736   -2.154717   -3.152044
  N      4.658206   -1.986293   -4.318655
  N      4.764231   -2.454435   -2.050491
  H      4.287363   -2.776259   -1.217496
  H      5.750825   -2.658351   -2.125988
  H      2.345176   -1.690274   -3.971447
  H      4.109004   -1.592677   -5.071760
  H      5.649095   -2.156462   -4.427237
  O      2.569287    0.213657   -7.607360
  O      0.416880   -0.462969   -6.618595
  C      2.088520   -0.300912   -1.415204
  H      2.231272   -2.451616   -1.102643
  H      0.930249   -1.977801   -2.155438
  C      0.680356    0.655418   -3.348038
  H     -0.356865    1.549231   -4.991128
  H      0.650228    2.675438   -4.096000
  C      1.968993    0.733582   -2.535654
  H      3.051356   -0.168602   -0.911868
  H      1.316501   -0.136231   -0.657252
  F      2.505129   -0.933263   -5.482570
  H      2.824195    0.624726   -3.208464
  H      2.058919    1.730331   -2.093112
  H      0.542252   -0.344731   -3.766662
  H     -0.174219    0.829692   -2.685182

 Total Charge           Charge          ....    0
 Multiplicity           Mult            ....    1
 Number of Electrons    NEL             ....  120
 Basis Dimension        Dim             ....  542

ORBITAL ENERGIES
----------------

  NO   OCC          E(Eh)            E(eV)
   0   2.0000     -89.096545     -2424.4402
   1   2.0000     -24.785005      -674.4343
   2   2.0000     -19.140250      -520.8327
   3   2.0000     -19.139967      -520.8250
   4   2.0000     -14.315064      -389.5327
   5   2.0000     -14.309876      -389.3915
   6   2.0000     -10.224710      -278.2285
   7   2.0000     -10.210045      -277.8294
   8   2.0000     -10.188690      -277.2483
   9   2.0000     -10.169122      -276.7159
  10   2.0000     -10.160664      -276.4857
  11   2.0000     -10.151036      -276.2237
  12   2.0000     -10.143077      -276.0072
  13   2.0000     -10.080560      -274.3060
  14   2.0000      -8.140920      -221.5257
  15   2.0000      -6.108012      -166.2075
  16   2.0000      -6.101219      -166.0226
  17   2.0000      -6.100771      -166.0104
  18   2.0000      -1.356808       -36.9206
  19   2.0000      -1.119010       -30.4498
  20   2.0000      -1.028897       -27.9977
  21   2.0000      -0.959289       -26.1036
  22   2.0000      -0.871855       -23.7244
  23   2.0000      -0.834482       -22.7074
  24   2.0000      -0.797820       -21.7098
  25   2.0000      -0.753510       -20.5041
  26   2.0000      -0.732064       -19.9205
  27   2.0000      -0.694993       -18.9117
  28   2.0000      -0.664424       -18.0799
  29   2.0000      -0.624720       -16.9995
  30   2.0000      -0.588741       -16.0205
  31   2.0000      -0.578882       -15.7522
  32   2.0000      -0.574651       -15.6370
  33   2.0000      -0.564087       -15.3496
  34   2.0000      -0.543874       -14.7996
  35   2.0000      -0.540212       -14.6999
  36   2.0000      -0.505730       -13.7616
  37   2.0000      -0.491454       -13.3731
  38   2.0000      -0.486781       -13.2460
  39   2.0000      -0.470809       -12.8114
  40   2.0000      -0.467019       -12.7082
  41   2.0000      -0.455726       -12.4009
  42   2.0000      -0.443760       -12.0753
  43   2.0000      -0.430373       -11.7110
  44   2.0000      -0.419693       -11.4204
  45   2.0000      -0.396267       -10.7830
  46   2.0000      -0.395207       -10.7541
  47   2.0000      -0.392139       -10.6706
  48   2.0000      -0.382130       -10.3983
  49   2.0000      -0.365812        -9.9542
  50   2.0000      -0.355376        -9.6703
  51   2.0000      -0.344143        -9.3646
  52   2.0000      -0.340275        -9.2593
  53   2.0000      -0.332524        -9.0484
  54   2.0000      -0.325971        -8.8701
  55   2.0000      -0.322610        -8.7787
  56   2.0000      -0.312692        -8.5088
  57   2.0000      -0.308189        -8.3863
  58   2.0000      -0.264796        -7.2055
  59   2.0000      -0.158841        -4.3223
  60   0.0000       0.011758         0.3200
  61   0.0000       0.023300         0.6340
  62   0.0000       0.034168         0.9298
  63   0.0000       0.043747         1.1904
  64   0.0000       0.052420         1.4264

MULLIKEN ATOMIC CHARGES
-----------------------
   0 C :   -0.265311
   1 C :   -0.284650
   2 C :   -0.114037
   3 C :   -0.290741
   4 H :    0.145159
   5 H :    0.159471
   6 S :    0.881765
   7 C :    0.279134
   8 N :   -0.454540
   9 N :   -0.458797
  10 H :    0.231621
  11 H :    0.205410
  12 H :    0.107896
  13 H :    0.231875
  14 H :    0.207179
  15 O :   -0.427356
  16 O :   -0.413321
  17 C :   -0.096828
  18 H :    0.070778
  19 H :    0.097873
  20 C :   -0.284605
  21 H :    0.122994
  22 H :    0.098740
  23 C :   -0.148227
  24 H :    0.078660
  25 H :    0.069494
  26 F :   -0.153817
  27 H :    0.093822
  28 H :    0.083557
  29 H :    0.132749
  30 H :    0.094055
Sum of atomic charges:    0.0000000

LOEWDIN ATOMIC CHARGES
----------------------
   0 C :   -0.286201
   1 C :   -0.291502
   2 C :   -0.278429
   3 C :   -0.363717
   4 H :    0.136854
   5 H :    0.150480
   6 S :    0.561930
   7 C :   -0.457481
   8 N :   -0.014051
   9 N :   -0.016994
  10 H :    0.172909
  11 H :    0.157967
  12 H :    0.112389
  13 H :    0.163656
  14 H :    0.159125
  15 O :   -0.265713
  16 O :   -0.255790
  17 C :   -0.255137
  18 H :    0.126397
  19 H :    0.139361
  20 C :   -0.264713
  21 H :    0.144366
  22 H :    0.142407
  23 C :   -0.266164
  24 H :    0.132140
  25 H :    0.127279
  26 F :    0.048381
  27 H :    0.131809
  28 H :    0.131856
  29 H :    0.137584
  30 H :    0.139001

  Mayer bond orders larger than 0.100000
B(  0-C ,  1-C ) :   1.0030 B(  0-C , 17-C ) :   0.9364 B(  0-C , 18-H ) :   0.9806
B(  0-C , 19-H ) :   0.9877 B(  1-C ,  7-C ) :   1.6614 B(  1-C , 12-H ) :   1.0230
B(  2-C ,  3-C ) :   0.9443 B(  2-C , 20-C ) :   0.9622 B(  2-C , 21-H ) :   0.9653
B(  2-C , 22-H ) :   0.9490 B(  3-C ,  4-H ) :   0.9466 B(  3-C ,  5-H ) :   0.9464
B(  3-C ,  6-S ) :   0.9082 B(  6-S , 15-O ) :   1.9416 B(  6-S , 16-O ) :   1.9128
B(  6-S , 26-F ) :   1.0190 B(  7-C ,  8-N ) :   1.1816 B(  7-C ,  9-N ) :   1.1603
B(  8-N , 13-H ) :   0.9043 B(  8-N , 14-H ) :   0.9283 B(  9-N , 10-H ) :   0.9181
B(  9-N , 11-H ) :   0.9285 B( 17-C , 23-C ) :   0.9863 B( 17-C , 24-H ) :   0.9633
B( 17-C , 25-H ) :   0.9695 B( 20-C , 23-C ) :   0.9243 B( 20-C , 29-H ) :   0.9856
B( 20-C , 30-H ) :   0.9667 B( 23-C , 27-H ) :   0.9728 B( 23-C , 28-H ) :   0.9674

Dispersion correction           -0.061570486
FINAL SINGLE POINT ENERGY     -1072.917903435910

DIPOLE MOMENT
-------------
                                X             Y             Z
Electronic contribution:      0.87452      -3.16904     -19.44711
Nuclear contribution   :      0.26049       3.89757      20.56096
                        -----------------------------------------
Total Dipole Moment    :      1.13501       0.72853       1.11385
                        -----------------------------------------
Magnitude (a.u.)       :      1.74919
Magnitude (Debye)      :      4.44610

Rotational constants in cm-1:     0.029090     0.014735     0.011139
Rotational constants in MHz :   872.086433   441.731892   333.928051

                             ****ORCA TERMINATED NORMALLY****
TOTAL RUN TIME: 0 days 0 hours 0 minutes 58 seconds 799 msec
