                         Program Version 5.0.0 -  RELEASE  -
|  1> !B3LYP D3BJ RIJCOSX def2-TZVP def2/J TightSCF xyzfile
|  2>
|  3> *xyzfile 0 1 D8.xyz
|  4>
|  5> %MaxCore 64000
|  6>
|  7> %pal nprocs 18
|  8> end
|  9>
| 10> %scf
| 11>   MaxIter 150
| 12> end
| 13>
| 14>
| 15>                          ****END OF INPUT****

CARTESIAN COORDINATES (ANGSTROEM)
---------------------------------
  C      1.963365   -1.749150   -1.896887
  N      2.738490   -2.015170   -3.097113
  C      0.611877    1.657634   -4.500288
  C      1.694991    1.541794   -5.570447
  H      2.697326    1.734659   -5.183996
  H      1.506656    2.272239   -6.358076
  S      1.780287   -0.033128   -6.428739
  C      4.049736   -2.154717   -3.152044
  C      4.658206   -1.986293   -4.318655
  N      4.764231   -2.454435   -2.050491
  H      4.287363   -2.776259   -1.217496
  H      5.750825   -2.658351   -2.125988
  H      2.345176   -1.690274   -3.971447
  H      4.109004   -1.592677   -5.071760
  H      5.649095   -2.156462   -4.427237
  O      2.569287    0.213657   -7.607360
  O      0.416880   -0.462969   -6.618595
  C      2.088520   -0.300912   -1.415204
  H      2.231272   -2.451616   -1.102643
  H      0.930249   -1.977801   -2.155438
  C      0.680356    0.655418   -3.348038
  H     -0.356865    1.549231   -4.991128
  H      0.650228    2.675438   -4.096000
  C      1.968993    0.733582   -2.535654
  H      3.051356   -0.168602   -0.911868
  H      1.316501   -0.136231   -0.657252
  F      2.505129   -0.933263   -5.482570
  H      2.824195    0.624726   -3.208464
  H      2.058919    1.730331   -2.093112
  H      0.542252   -0.344731   -3.766662
  H     -0.174219    0.829692   -2.685182

 Total Charge           Charge          ....    0
 Multiplicity           Mult            ....    1
 Number of Electrons    NEL             ....  120
 Basis Dimension        Dim             ....  542

ORBITAL ENERGIES
----------------

  NO   OCC          E(Eh)            E(eV)
   0   2.0000     -89.098360     -2424.4896
   1   2.0000     -24.786382      -674.4717
   2   2.0000     -19.142437      -520.8922
   3   2.0000     -19.140392      -520.8365
   4   2.0000     -14.313041      -389.4776
   5   2.0000     -14.309117      -389.3709
   6   2.0000     -10.228297      -278.3261
   7   2.0000     -10.210855      -277.8515
   8   2.0000     -10.208190      -277.7790
   9   2.0000     -10.197197      -277.4798
  10   2.0000     -10.184435      -277.1326
  11   2.0000     -10.177410      -276.9414
  12   2.0000     -10.173447      -276.8336
  13   2.0000     -10.075343      -274.1640
  14   2.0000      -8.142651      -221.5728
  15   2.0000      -6.109737      -166.2544
  16   2.0000      -6.103043      -166.0723
  17   2.0000      -6.102444      -166.0560
  18   2.0000      -1.357938       -36.9514
  19   2.0000      -1.120257       -30.4837
  20   2.0000      -1.030071       -28.0297
  21   2.0000      -0.968159       -26.3450
  22   2.0000      -0.884758       -24.0755
  23   2.0000      -0.842598       -22.9283
  24   2.0000      -0.799539       -21.7566
  25   2.0000      -0.764839       -20.8123
  26   2.0000      -0.720771       -19.6132
  27   2.0000      -0.710507       -19.3339
  28   2.0000      -0.672217       -18.2920
  29   2.0000      -0.634714       -17.2715
  30   2.0000      -0.595679       -16.2092
  31   2.0000      -0.595368       -16.2008
  32   2.0000      -0.574533       -15.6338
  33   2.0000      -0.569399       -15.4941
  34   2.0000      -0.550887       -14.9904
  35   2.0000      -0.531836       -14.4720
  36   2.0000      -0.502366       -13.6701
  37   2.0000      -0.497130       -13.5276
  38   2.0000      -0.487776       -13.2731
  39   2.0000      -0.482428       -13.1275
  40   2.0000      -0.471027       -12.8173
  41   2.0000      -0.462270       -12.5790
  42   2.0000      -0.445447       -12.1212
  43   2.0000      -0.438322       -11.9273
  44   2.0000      -0.425043       -11.5660
  45   2.0000      -0.405708       -11.0399
  46   2.0000      -0.401188       -10.9169
  47   2.0000      -0.394796       -10.7429
  48   2.0000      -0.385110       -10.4794
  49   2.0000      -0.376629       -10.2486
  50   2.0000      -0.370042       -10.0694
  51   2.0000      -0.364234        -9.9113
  52   2.0000      -0.348968        -9.4959
  53   2.0000      -0.345522        -9.4021
  54   2.0000      -0.340019        -9.2524
  55   2.0000      -0.333047        -9.0627
  56   2.0000      -0.332076        -9.0363
  57   2.0000      -0.325796        -8.8654
  58   2.0000      -0.253272        -6.8919
  59   2.0000      -0.162659        -4.4262
  60   0.0000       0.011882         0.3233
  61   0.0000       0.021582         0.5873
  62   0.0000       0.031041         0.8447
  63   0.0000       0.041634         1.1329
  64   0.0000       0.047294         1.2869

MULLIKEN ATOMIC CHARGES
-----------------------
   0 C :   -0.217363
   1 N :   -0.251303
   2 C :   -0.114527
   3 C :   -0.297091
   4 H :    0.153522
   5 H :    0.161187
   6 S :    0.891271
   7 C :    0.350838
   8 C :   -0.548732
   9 N :   -0.473851
  10 H :    0.211012
  11 H :    0.228715
  12 H :    0.213417
  13 H :    0.106785
  14 H :    0.077690
  15 O :   -0.418143
  16 O :   -0.420730
  17 C :   -0.069555
  18 H :    0.104923
  19 H :    0.130348
  20 C :   -0.273698
  21 H :    0.126003
  22 H :    0.102851
  23 C :   -0.235398
  24 H :    0.096074
  25 H :    0.079142
  26 F :   -0.152340
  27 H :    0.124930
  28 H :    0.094878
  29 H :    0.119638
  30 H :    0.099504
Sum of atomic charges:   -0.0000000

LOEWDIN ATOMIC CHARGES
----------------------
   0 C :   -0.292675
   1 N :    0.122360
   2 C :   -0.277321
   3 C :   -0.362870
   4 H :    0.139247
   5 H :    0.151445
   6 S :    0.563534
   7 C :   -0.462884
   8 C :   -0.350037
   9 N :   -0.015333
  10 H :    0.158079
  11 H :    0.173238
  12 H :    0.174356
  13 H :    0.091585
  14 H :    0.092735
  15 O :   -0.256297
  16 O :   -0.260540
  17 C :   -0.264663
  18 H :    0.126204
  19 H :    0.132823
  20 C :   -0.268619
  21 H :    0.145438
  22 H :    0.143591
  23 C :   -0.267628
  24 H :    0.136083
  25 H :    0.133145
  26 F :    0.050867
  27 H :    0.136580
  28 H :    0.136482
  29 H :    0.131151
  30 H :    0.139923

  Mayer bond orders larger than 0.100000
B(  0-C ,  1-N ) :   0.9661 B(  0-C , 17-C ) :   0.9056 B(  0-C , 18-H ) :   0.9848
B(  0-C , 19-H ) :   0.9854 B(  1-N ,  7-C ) :   1.2318 B(  1-N , 12-H ) :   0.9169
B(  2-C ,  3-C ) :   0.9423 B(  2-C , 20-C ) :   0.9660 B(  2-C , 21-H ) :   0.9647
B(  2-C , 22-H ) :   0.9500 B(  3-C ,  4-H ) :   0.9476 B(  3-C ,  5-H ) :   0.9461
B(  3-C ,  6-S ) :   0.9076 B(  6-S , 15-O ) :   1.9484 B(  6-S , 16-O ) :   1.9038
B(  6-S , 26-F ) :   1.0157 B(  7-C ,  8-C ) :   1.5962 B(  7-C ,  9-N ) :   1.1248
B(  8-C , 13-H ) :   1.0008 B(  8-C , 14-H ) :   1.0044 B(  9-N , 10-H ) :   0.9203
B(  9-N , 11-H ) :   0.9268 B( 17-C , 23-C ) :   0.9699 B( 17-C , 24-H ) :   0.9612
B( 17-C , 25-H ) :   0.9641 B( 20-C , 23-C ) :   0.9289 B( 20-C , 29-H ) :   0.9841
B( 20-C , 30-H ) :   0.9671 B( 23-C , 27-H ) :   0.9705 B( 23-C , 28-H ) :   0.9662

Dispersion correction           -0.061166922
FINAL SINGLE POINT ENERGY     -1072.915948069392

DIPOLE MOMENT
-------------
                                X             Y             Z
Electronic contribution:     -0.84231      -2.97307     -18.35196
Nuclear contribution   :      0.50676       3.90127      20.40426
                        -----------------------------------------
Total Dipole Moment    :     -0.33556       0.92821       2.05230
                        -----------------------------------------
Magnitude (a.u.)       :      2.27730
Magnitude (Debye)      :      5.78845

Rotational constants in cm-1:     0.029548     0.014706     0.011197
Rotational constants in MHz :   885.834387   440.871746   335.667619

                             ****ORCA TERMINATED NORMALLY****
TOTAL RUN TIME: 0 days 0 hours 1 minutes 6 seconds 239 msec
