                         Program Version 5.0.0 -  RELEASE  -
|  1> !B3LYP D3BJ RIJCOSX def2-TZVP def2/J TightSCF xyzfile
|  2>
|  3> *xyzfile 0 1 D9.xyz
|  4>
|  5> %MaxCore 64000
|  6>
|  7> %pal nprocs 18
|  8> end
|  9>
| 10> %scf
| 11>   MaxIter 150
| 12> end
| 13>
| 14>
| 15>                          ****END OF INPUT****

CARTESIAN COORDINATES (ANGSTROEM)
---------------------------------
  C      1.963365   -1.749150   -1.896887
  N      2.738490   -2.015170   -3.097113
  C      0.611877    1.657634   -4.500288
  C      1.694991    1.541794   -5.570447
  H      2.697326    1.734659   -5.183996
  H      1.506656    2.272239   -6.358076
  S      1.780287   -0.033128   -6.428739
  C      4.049736   -2.154717   -3.152044
  N      4.658206   -1.986293   -4.318655
  C      4.764231   -2.454435   -2.050491
  H      4.287363   -2.776259   -1.217496
  H      5.750825   -2.658351   -2.125988
  H      2.345176   -1.690274   -3.971447
  H      4.109004   -1.592677   -5.071760
  H      5.649095   -2.156462   -4.427237
  O      2.569287    0.213657   -7.607360
  O      0.416880   -0.462969   -6.618595
  C      2.088520   -0.300912   -1.415204
  H      2.231272   -2.451616   -1.102643
  H      0.930249   -1.977801   -2.155438
  C      0.680356    0.655418   -3.348038
  H     -0.356865    1.549231   -4.991128
  H      0.650228    2.675438   -4.096000
  C      1.968993    0.733582   -2.535654
  H      3.051356   -0.168602   -0.911868
  H      1.316501   -0.136231   -0.657252
  F      2.505129   -0.933263   -5.482570
  H      2.824195    0.624726   -3.208464
  H      2.058919    1.730331   -2.093112
  H      0.542252   -0.344731   -3.766662
  H     -0.174219    0.829692   -2.685182

 Total Charge           Charge          ....    0
 Multiplicity           Mult            ....    1
 Number of Electrons    NEL             ....  120
 Basis Dimension        Dim             ....  542

ORBITAL ENERGIES
----------------

  NO   OCC          E(Eh)            E(eV)
   0   2.0000     -89.112329     -2424.8698
   1   2.0000     -24.808874      -675.0838
   2   2.0000     -19.155505      -521.2478
   3   2.0000     -19.154956      -521.2328
   4   2.0000     -14.310462      -389.4075
   5   2.0000     -14.309716      -389.3872
   6   2.0000     -10.238546      -278.6050
   7   2.0000     -10.210415      -277.8395
   8   2.0000     -10.202792      -277.6321
   9   2.0000     -10.201460      -277.5959
  10   2.0000     -10.186950      -277.2010
  11   2.0000     -10.177957      -276.9563
  12   2.0000     -10.167775      -276.6792
  13   2.0000     -10.076604      -274.1983
  14   2.0000      -8.156823      -221.9585
  15   2.0000      -6.124120      -166.6458
  16   2.0000      -6.116981      -166.4515
  17   2.0000      -6.116524      -166.4391
  18   2.0000      -1.379866       -37.5481
  19   2.0000      -1.134546       -30.8726
  20   2.0000      -1.043707       -28.4007
  21   2.0000      -0.972140       -26.4533
  22   2.0000      -0.886509       -24.1231
  23   2.0000      -0.848713       -23.0947
  24   2.0000      -0.800604       -21.7855
  25   2.0000      -0.763779       -20.7835
  26   2.0000      -0.734758       -19.9938
  27   2.0000      -0.698090       -18.9960
  28   2.0000      -0.692704       -18.8494
  29   2.0000      -0.639796       -17.4097
  30   2.0000      -0.607558       -16.5325
  31   2.0000      -0.601884       -16.3781
  32   2.0000      -0.585925       -15.9438
  33   2.0000      -0.567526       -15.4432
  34   2.0000      -0.549029       -14.9398
  35   2.0000      -0.539382       -14.6773
  36   2.0000      -0.518977       -14.1221
  37   2.0000      -0.506909       -13.7937
  38   2.0000      -0.500730       -13.6256
  39   2.0000      -0.483812       -13.1652
  40   2.0000      -0.473442       -12.8830
  41   2.0000      -0.463399       -12.6097
  42   2.0000      -0.446890       -12.1605
  43   2.0000      -0.439371       -11.9559
  44   2.0000      -0.429116       -11.6768
  45   2.0000      -0.411654       -11.2017
  46   2.0000      -0.401803       -10.9336
  47   2.0000      -0.399925       -10.8825
  48   2.0000      -0.383138       -10.4257
  49   2.0000      -0.373406       -10.1609
  50   2.0000      -0.371825       -10.1179
  51   2.0000      -0.366184        -9.9644
  52   2.0000      -0.358624        -9.7587
  53   2.0000      -0.348900        -9.4940
  54   2.0000      -0.344292        -9.3687
  55   2.0000      -0.341408        -9.2902
  56   2.0000      -0.337752        -9.1907
  57   2.0000      -0.329195        -8.9578
  58   2.0000      -0.248970        -6.7748
  59   2.0000      -0.161698        -4.4000
  60   0.0000      -0.000643        -0.0175
  61   0.0000       0.021329         0.5804
  62   0.0000       0.032204         0.8763
  63   0.0000       0.037444         1.0189
  64   0.0000       0.046722         1.2714

MULLIKEN ATOMIC CHARGES
-----------------------
   0 C :   -0.168561
   1 N :   -0.265752
   2 C :   -0.113261
   3 C :   -0.297642
   4 H :    0.153168
   5 H :    0.165819
   6 S :    0.886160
   7 C :    0.314835
   8 N :   -0.461958
   9 C :   -0.508538
  10 H :    0.078615
  11 H :    0.070392
  12 H :    0.197238
  13 H :    0.218801
  14 H :    0.232334
  15 O :   -0.415328
  16 O :   -0.408564
  17 C :   -0.082333
  18 H :    0.120656
  19 H :    0.123563
  20 C :   -0.276451
  21 H :    0.127653
  22 H :    0.106029
  23 C :   -0.236254
  24 H :    0.112561
  25 H :    0.082824
  26 F :   -0.176332
  27 H :    0.102041
  28 H :    0.095513
  29 H :    0.119731
  30 H :    0.103040
Sum of atomic charges:    0.0000000

LOEWDIN ATOMIC CHARGES
----------------------
   0 C :   -0.274204
   1 N :    0.120238
   2 C :   -0.276733
   3 C :   -0.362139
   4 H :    0.138736
   5 H :    0.152881
   6 S :    0.561640
   7 C :   -0.471056
   8 N :   -0.012247
   9 C :   -0.350093
  10 H :    0.094431
  11 H :    0.090869
  12 H :    0.160280
  13 H :    0.149344
  14 H :    0.175246
  15 O :   -0.255725
  16 O :   -0.252043
  17 C :   -0.261256
  18 H :    0.136782
  19 H :    0.130170
  20 C :   -0.268880
  21 H :    0.145712
  22 H :    0.144899
  23 C :   -0.268673
  24 H :    0.142353
  25 H :    0.134097
  26 F :    0.035625
  27 H :    0.131207
  28 H :    0.136551
  29 H :    0.130679
  30 H :    0.141310

  Mayer bond orders larger than 0.100000
B(  0-C ,  1-N ) :   0.9536 B(  0-C , 17-C ) :   0.9346 B(  0-C , 18-H ) :   0.9700
B(  0-C , 19-H ) :   0.9838 B(  1-N ,  7-C ) :   1.1994 B(  1-N , 12-H ) :   0.9218
B(  2-C ,  3-C ) :   0.9402 B(  2-C , 20-C ) :   0.9622 B(  2-C , 21-H ) :   0.9651
B(  2-C , 22-H ) :   0.9488 B(  3-C ,  4-H ) :   0.9455 B(  3-C ,  5-H ) :   0.9451
B(  3-C ,  6-S ) :   0.9096 B(  6-S , 15-O ) :   1.9513 B(  6-S , 16-O ) :   1.9156
B(  6-S , 26-F ) :   0.9865 B(  7-C ,  8-N ) :   1.1426 B(  7-C ,  9-C ) :   1.6428
B(  8-N , 13-H ) :   0.9112 B(  8-N , 14-H ) :   0.9233 B(  9-C , 10-H ) :   0.9985
B(  9-C , 11-H ) :   0.9953 B( 17-C , 23-C ) :   0.9755 B( 17-C , 24-H ) :   0.9560
B( 17-C , 25-H ) :   0.9700 B( 20-C , 23-C ) :   0.9254 B( 20-C , 29-H ) :   0.9867
B( 20-C , 30-H ) :   0.9680 B( 23-C , 27-H ) :   0.9727 B( 23-C , 28-H ) :   0.9656

Dispersion correction           -0.061102030
FINAL SINGLE POINT ENERGY     -1072.918468244938

DIPOLE MOMENT
-------------
                                X             Y             Z
Electronic contribution:     -1.03688      -2.39427     -20.40291
Nuclear contribution   :      0.52036       3.84122      20.69523
                        -----------------------------------------
Total Dipole Moment    :     -0.51652       1.44695       0.29232
                        -----------------------------------------
Magnitude (a.u.)       :      1.56394
Magnitude (Debye)      :      3.97523

Rotational constants in cm-1:     0.029184     0.014996     0.011314
Rotational constants in MHz :   874.907122   449.569665   339.178205

                             ****ORCA TERMINATED NORMALLY****
TOTAL RUN TIME: 0 days 0 hours 1 minutes 2 seconds 926 msec
