                         Program Version 5.0.0 -  RELEASE  -
|  1> !B3LYP D3BJ RIJCOSX def2-TZVP def2/J TightSCF
|  2> *xyz -1 1
|  3> C         -1.91658       -2.48508       -3.64367
|  4> C         -1.36353       -1.98134       -2.29361
|  5> O         -0.35039       -2.74969       -1.79601
|  6> H         -2.22622       -1.90839       -1.60204
|  7> H         -1.05135       -0.91567       -2.44333
|  8> H         -1.11522       -2.57167       -4.34739
|  9> H         -2.64227       -1.79099       -4.01314
| 10> H         -2.37564       -3.44180       -3.50640
| 11> *
| 12>
| 13> %MaxCore 64000
| 14> %pal nprocs 4
| 15> end
| 16>
| 17> %scf
| 18>   MaxIter 150
| 19> end
| 20>
| 21>
| 22>                          ****END OF INPUT****

CARTESIAN COORDINATES (ANGSTROEM)
---------------------------------
  C     -1.916580   -2.485080   -3.643670
  C     -1.363530   -1.981340   -2.293610
  O     -0.350390   -2.749690   -1.796010
  H     -2.226220   -1.908390   -1.602040
  H     -1.051350   -0.915670   -2.443330
  H     -1.115220   -2.571670   -4.347390
  H     -2.642270   -1.790990   -4.013140
  H     -2.375640   -3.441800   -3.506400

 Total Charge           Charge          ....   -1
 Multiplicity           Mult            ....    1
 Number of Electrons    NEL             ....   26
 Basis Dimension        Dim             ....  123

ORBITAL ENERGIES
----------------

  NO   OCC          E(Eh)            E(eV)
   0   2.0000     -18.772180      -510.8170
   1   2.0000      -9.973198      -271.3845
   2   2.0000      -9.951811      -270.8026
   3   2.0000      -0.666382       -18.1332
   4   2.0000      -0.517795       -14.0899
   5   2.0000      -0.363114        -9.8808
   6   2.0000      -0.241413        -6.5692
   7   2.0000      -0.220630        -6.0037
   8   2.0000      -0.164183        -4.4677
   9   2.0000      -0.148316        -4.0359
  10   2.0000      -0.101103        -2.7512
  11   2.0000       0.043326         1.1790
  12   2.0000       0.046197         1.2571
  13   0.0000       0.216148         5.8817
  14   0.0000       0.251490         6.8434
  15   0.0000       0.276025         7.5110
  16   0.0000       0.281795         7.6680
  17   0.0000       0.313392         8.5278

MULLIKEN ATOMIC CHARGES
-----------------------
   0 C :   -0.105663
   1 C :    0.071999
   2 O :   -0.768386
   3 H :   -0.082445
   4 H :   -0.086198
   5 H :    0.009790
   6 H :   -0.049009
   7 H :    0.009912
Sum of atomic charges:   -1.0000000

LOEWDIN ATOMIC CHARGES
----------------------
   0 C :   -0.358636
   1 C :   -0.549246
   2 O :   -0.419245
   3 H :    0.048034
   4 H :    0.046014
   5 H :    0.082553
   6 H :    0.068369
   7 H :    0.082156

  Mayer bond orders larger than 0.100000
B(  0-C ,  1-C ) :   0.8643 B(  0-C ,  2-O ) :  -0.2849 B(  0-C ,  5-H ) :   0.9614
B(  0-C ,  6-H ) :   0.9172 B(  0-C ,  7-H ) :   0.9652 B(  1-C ,  2-O ) :   1.6283
B(  1-C ,  3-H ) :   0.9116 B(  1-C ,  4-H ) :   0.9156 B(  2-O ,  6-H ) :   0.1089

Dispersion correction           -0.006227196
FINAL SINGLE POINT ENERGY      -154.397481348296

DIPOLE MOMENT
-------------
                                X             Y             Z
Electronic contribution:      2.22217      -1.00603       1.93930
Nuclear contribution   :     -3.14382       1.30299      -2.83231
                        -----------------------------------------
Total Dipole Moment    :     -0.92165       0.29696      -0.89300
                        -----------------------------------------
Magnitude (a.u.)       :      1.31722
Magnitude (Debye)      :      3.34812

Rotational constants in cm-1:     1.288206     0.322942     0.285188
Rotational constants in MHz : 38619.437223  9681.562038  8549.712012

                             ****ORCA TERMINATED NORMALLY****
TOTAL RUN TIME: 0 days 0 hours 0 minutes 11 seconds 765 msec
