                         Program Version 5.0.0 -  RELEASE  -
|  1> !B3LYP D3BJ RIJCOSX def2-TZVP def2/J TightSCF
|  2> *xyz 1 1
|  3> C          1.64703       -2.34528       -5.02041
|  4> C          2.20996       -2.81239       -3.66571
|  5> C          2.48901       -1.66851       -2.73754
|  6> N          3.59631       -0.94761       -2.95225
|  7> N          1.66394       -1.41369       -1.77781
|  8> H          0.81164       -1.96318       -1.70275
|  9> H          1.84550       -0.63508       -1.15875
| 10> H          4.20535       -1.17600       -3.73383
| 11> H          3.81723       -0.12585       -2.40604
| 12> H          3.14311       -3.36280       -3.81152
| 13> H          1.48768       -3.45893       -3.16521
| 14> H          1.46566       -3.19589       -5.64368
| 15> H          2.35406       -1.69850       -5.49654
| 16> H          0.73014       -1.81680       -4.86253
| 17> *
| 18>
| 19> %MaxCore 64000
| 20> %pal nprocs 4
| 21> end
| 22>
| 23> %scf
| 24>   MaxIter 150
| 25> end
| 26>
| 27>
| 28>                          ****END OF INPUT****

CARTESIAN COORDINATES (ANGSTROEM)
---------------------------------
  C      1.647030   -2.345280   -5.020410
  C      2.209960   -2.812390   -3.665710
  C      2.489010   -1.668510   -2.737540
  N      3.596310   -0.947610   -2.952250
  N      1.663940   -1.413690   -1.777810
  H      0.811640   -1.963180   -1.702750
  H      1.845500   -0.635080   -1.158750
  H      4.205350   -1.176000   -3.733830
  H      3.817230   -0.125850   -2.406040
  H      3.143110   -3.362800   -3.811520
  H      1.487680   -3.458930   -3.165210
  H      1.465660   -3.195890   -5.643680
  H      2.354060   -1.698500   -5.496540
  H      0.730140   -1.816800   -4.862530

 Total Charge           Charge          ....    1
 Multiplicity           Mult            ....    1
 Number of Electrons    NEL             ....   40
 Basis Dimension        Dim             ....  209

ORBITAL ENERGIES
----------------

  NO   OCC          E(Eh)            E(eV)
   0   2.0000     -14.565599      -396.3501
   1   2.0000     -14.556348      -396.0984
   2   2.0000     -10.489487      -285.4334
   3   2.0000     -10.367181      -282.1053
   4   2.0000     -10.322782      -280.8972
   5   2.0000      -1.204801       -32.7843
   6   2.0000      -1.109982       -30.2042
   7   2.0000      -0.967555       -26.3285
   8   2.0000      -0.860874       -23.4256
   9   2.0000      -0.816989       -22.2314
  10   2.0000      -0.775765       -21.1096
  11   2.0000      -0.751477       -20.4487
  12   2.0000      -0.705561       -19.1993
  13   2.0000      -0.647429       -17.6174
  14   2.0000      -0.622758       -16.9461
  15   2.0000      -0.612755       -16.6739
  16   2.0000      -0.544725       -14.8227
  17   2.0000      -0.536461       -14.5979
  18   2.0000      -0.531554       -14.4643
  19   2.0000      -0.493037       -13.4162
  20   0.0000      -0.207557        -5.6479
  21   0.0000      -0.163349        -4.4449
  22   0.0000      -0.116927        -3.1818
  23   0.0000      -0.115095        -3.1319
  24   0.0000      -0.084562        -2.3010

MULLIKEN ATOMIC CHARGES
-----------------------
   0 C :   -0.309668
   1 C :   -0.234482
   2 C :    0.327776
   3 N :   -0.347064
   4 N :   -0.286013
   5 H :    0.294305
   6 H :    0.273113
   7 H :    0.292729
   8 H :    0.271925
   9 H :    0.163019
  10 H :    0.130503
  11 H :    0.165709
  12 H :    0.125734
  13 H :    0.132413
Sum of atomic charges:    1.0000000

LOEWDIN ATOMIC CHARGES
----------------------
   0 C :   -0.254559
   1 C :   -0.214504
   2 C :   -0.289571
   3 N :    0.097083
   4 N :    0.135856
   5 H :    0.215109
   6 H :    0.202012
   7 H :    0.207650
   8 H :    0.193399
   9 H :    0.164376
  10 H :    0.156267
  11 H :    0.137252
  12 H :    0.122917
  13 H :    0.126713

  Mayer bond orders larger than 0.100000
B(  0-C ,  1-C ) :   0.9478 B(  0-C , 11-H ) :   0.9659 B(  0-C , 12-H ) :   0.9698
B(  0-C , 13-H ) :   0.9615 B(  1-C ,  2-C ) :   0.9668 B(  1-C ,  9-H ) :   0.9494
B(  1-C , 10-H ) :   0.9663 B(  2-C ,  3-N ) :   1.4143 B(  2-C ,  4-N ) :   1.4982
B(  3-N ,  7-H ) :   0.8903 B(  3-N ,  8-H ) :   0.8957 B(  4-N ,  5-H ) :   0.8828
B(  4-N ,  6-H ) :   0.8910

Dispersion correction           -0.016679363
FINAL SINGLE POINT ENERGY      -228.992716641450

DIPOLE MOMENT
-------------
                                X             Y             Z
Electronic contribution:      1.19523       1.65825       3.62496
Nuclear contribution   :     -0.98617      -1.03178      -2.77619
                        -----------------------------------------
Total Dipole Moment    :      0.20906       0.62647       0.84877
                        -----------------------------------------
Magnitude (a.u.)       :      1.07545
Magnitude (Debye)      :      2.73357

Rotational constants in cm-1:     0.257311     0.127495     0.099037
Rotational constants in MHz :  7713.982239  3822.189706  2969.039713

                             ****ORCA TERMINATED NORMALLY****
TOTAL RUN TIME: 0 days 0 hours 0 minutes 23 seconds 333 msec
