                         Program Version 5.0.0 -  RELEASE  -
|  1> !B3LYP D3BJ RIJCOSX def2-TZVP def2/J TightSCF xyzfile
|  2>
|  3> *xyzfile 0 1 B.xyz
|  4>
|  5> %MaxCore 64000
|  6>
|  7> %pal nprocs 18
|  8> end
|  9>
| 10> %scf
| 11>   MaxIter 150
| 12> end
| 13>
| 14>
| 15>                          ****END OF INPUT****

CARTESIAN COORDINATES (ANGSTROEM)
---------------------------------
  C      1.647032   -2.345276   -5.020411
  C      0.217628   -1.814022   -4.924389
  C      2.209964   -2.812388   -3.665708
  C     -0.811356   -2.908780   -4.607625
  C     -1.916579   -2.485081   -3.643665
  H     -2.554525   -1.712428   -4.091993
  C     -1.363531   -1.981337   -2.293608
  H     -2.553448   -3.355667   -3.458815
  O     -0.350395   -2.749689   -1.796006
  H      2.308385   -1.588704   -5.457128
  H      1.674286   -3.203478   -5.697392
  C      2.489007   -1.668510   -2.737538
  N      3.596314   -0.947608   -2.952247
  N      1.663936   -1.413685   -1.777806
  H      0.811642   -1.963178   -1.702755
  H      1.845503   -0.635078   -1.158749
  H      4.205351   -1.176003   -3.733825
  H      3.817230   -0.125845   -2.406041
  H     -1.244829   -3.280884   -5.541040
  H     -0.306331   -3.757746   -4.142734
  H     -0.036244   -1.318555   -5.865303
  H      0.175004   -1.035382   -4.158095
  H      3.143106   -3.362803   -3.811524
  H      1.487683   -3.458935   -3.165211
  H     -2.226220   -1.908386   -1.602039
  H     -1.051353   -0.915671   -2.443331

 Total Charge           Charge          ....    0
 Multiplicity           Mult            ....    1
 Number of Electrons    NEL             ....   80
 Basis Dimension        Dim             ....  406

ORBITAL ENERGIES
----------------

  NO   OCC          E(Eh)            E(eV)
   0   2.0000     -18.976972      -516.3897
   1   2.0000     -14.390243      -391.5784
   2   2.0000     -14.345040      -390.3484
   3   2.0000     -10.305353      -280.4229
   4   2.0000     -10.192767      -277.3593
   5   2.0000     -10.180342      -277.0212
   6   2.0000     -10.150407      -276.2066
   7   2.0000     -10.140413      -275.9347
   8   2.0000     -10.130720      -275.6709
   9   2.0000     -10.113401      -275.1996
  10   2.0000      -1.020593       -27.7717
  11   2.0000      -0.928854       -25.2754
  12   2.0000      -0.875252       -23.8168
  13   2.0000      -0.814252       -22.1569
  14   2.0000      -0.752494       -20.4764
  15   2.0000      -0.702833       -19.1251
  16   2.0000      -0.650281       -17.6950
  17   2.0000      -0.629239       -17.1225
  18   2.0000      -0.596752       -16.2384
  19   2.0000      -0.587315       -15.9816
  20   2.0000      -0.561729       -15.2854
  21   2.0000      -0.522058       -14.2059
  22   2.0000      -0.499190       -13.5837
  23   2.0000      -0.482556       -13.1310
  24   2.0000      -0.462892       -12.5959
  25   2.0000      -0.438487       -11.9318
  26   2.0000      -0.427147       -11.6233
  27   2.0000      -0.401344       -10.9211
  28   2.0000      -0.389071       -10.5872
  29   2.0000      -0.386180       -10.5085
  30   2.0000      -0.355016        -9.6605
  31   2.0000      -0.346534        -9.4297
  32   2.0000      -0.337121        -9.1735
  33   2.0000      -0.317564        -8.6413
  34   2.0000      -0.309809        -8.4303
  35   2.0000      -0.297660        -8.0997
  36   2.0000      -0.289208        -7.8697
  37   2.0000      -0.282542        -7.6884
  38   2.0000      -0.166435        -4.5289
  39   2.0000      -0.158757        -4.3200
  40   0.0000      -0.030363        -0.8262
  41   0.0000      -0.015815        -0.4304
  42   0.0000       0.023309         0.6343
  43   0.0000       0.048660         1.3241
  44   0.0000       0.061267         1.6672

MULLIKEN ATOMIC CHARGES
-----------------------
   0 C :   -0.167050
   1 C :   -0.175512
   2 C :   -0.229538
   3 C :   -0.141950
   4 C :   -0.083227
   5 H :    0.039372
   6 C :   -0.007254
   7 H :    0.060371
   8 O :   -0.694137
   9 H :    0.076391
  10 H :    0.101472
  11 C :    0.266121
  12 N :   -0.390512
  13 N :   -0.287330
  14 H :    0.307342
  15 H :    0.203529
  16 H :    0.253850
  17 H :    0.236410
  18 H :    0.071077
  19 H :    0.076112
  20 H :    0.082283
  21 H :    0.089840
  22 H :    0.116651
  23 H :    0.173463
  24 H :    0.031236
  25 H :   -0.009011
Sum of atomic charges:    0.0000000

LOEWDIN ATOMIC CHARGES
----------------------
   0 C :   -0.253322
   1 C :   -0.255366
   2 C :   -0.206746
   3 C :   -0.269348
   4 C :   -0.281218
   5 H :    0.119753
   6 C :   -0.482245
   7 H :    0.126885
   8 O :   -0.276602
   9 H :    0.125012
  10 H :    0.140625
  11 C :   -0.312755
  12 N :    0.039845
  13 N :    0.148922
  14 H :    0.102532
  15 H :    0.170411
  16 H :    0.185704
  17 H :    0.173598
  18 H :    0.124696
  19 H :    0.136851
  20 H :    0.129698
  21 H :    0.135069
  22 H :    0.144095
  23 H :    0.164956
  24 H :    0.095940
  25 H :    0.073011

  Mayer bond orders larger than 0.100000
B(  0-C ,  1-C ) :   0.9671 B(  0-C ,  2-C ) :   0.9469 B(  0-C ,  9-H ) :   0.9682
B(  0-C , 10-H ) :   0.9588 B(  1-C ,  3-C ) :   0.9553 B(  1-C , 20-H ) :   0.9619
B(  1-C , 21-H ) :   0.9809 B(  2-C , 11-C ) :   0.9604 B(  2-C , 22-H ) :   0.9569
B(  2-C , 23-H ) :   0.9481 B(  3-C ,  4-C ) :   0.9809 B(  3-C , 18-H ) :   0.9613
B(  3-C , 19-H ) :   0.9619 B(  4-C ,  5-H ) :   0.9526 B(  4-C ,  6-C ) :   0.9343
B(  4-C ,  7-H ) :   0.9525 B(  4-C ,  8-O ) :  -0.1172 B(  6-C ,  8-O ) :   1.2491
B(  6-C , 24-H ) :   0.9543 B(  6-C , 25-H ) :   0.9597 B(  8-O , 14-H ) :   0.3853
B( 11-C , 12-N ) :   1.2893 B( 11-C , 13-N ) :   1.6745 B( 12-N , 16-H ) :   0.9049
B( 12-N , 17-H ) :   0.9086 B( 13-N , 14-H ) :   0.6247 B( 13-N , 15-H ) :   0.9109

Dispersion correction           -0.043698642
FINAL SINGLE POINT ENERGY      -460.999041997910

DIPOLE MOMENT
-------------
                                X             Y             Z
Electronic contribution:      5.60551       0.86061       4.35957
Nuclear contribution   :     -2.25948       0.71378      -5.15247
                        -----------------------------------------
Total Dipole Moment    :      3.34602       1.57439      -0.79290
                        -----------------------------------------
Magnitude (a.u.)       :      3.78196
Magnitude (Debye)      :      9.61299

Rotational constants in cm-1:     0.063973     0.031829     0.024059
Rotational constants in MHz :  1917.874550   954.201145   721.285252

                             ****ORCA TERMINATED NORMALLY****
TOTAL RUN TIME: 0 days 0 hours 0 minutes 44 seconds 755 msec
