                         Program Version 5.0.0 -  RELEASE  -
|  1> !B3LYP D3BJ RIJCOSX def2-TZVP def2/J TightSCF
|  2> *xyz 0 1
|  3> C         -1.91658       -2.48508       -3.64367
|  4> C         -1.36353       -1.98134       -2.29361
|  5> F         -0.35039       -2.74969       -1.79601
|  6> H         -2.22622       -1.90839       -1.60204
|  7> H         -1.05135       -0.91567       -2.44333
|  8> H         -1.11522       -2.57167       -4.34739
|  9> H         -2.64227       -1.79099       -4.01314
| 10> H         -2.37564       -3.44180       -3.50640
| 11> *
| 12>
| 13> %MaxCore 64000
| 14> %pal nprocs 4
| 15> end
| 16>
| 17> %scf
| 18>   MaxIter 150
| 19> end
| 20>
| 21>
| 22>                          ****END OF INPUT****

CARTESIAN COORDINATES (ANGSTROEM)
---------------------------------
  C     -1.916580   -2.485080   -3.643670
  C     -1.363530   -1.981340   -2.293610
  F     -0.350390   -2.749690   -1.796010
  H     -2.226220   -1.908390   -1.602040
  H     -1.051350   -0.915670   -2.443330
  H     -1.115220   -2.571670   -4.347390
  H     -2.642270   -1.790990   -4.013140
  H     -2.375640   -3.441800   -3.506400

 Total Charge           Charge          ....    0
 Multiplicity           Mult            ....    1
 Number of Electrons    NEL             ....   26
 Basis Dimension        Dim             ....  123

ORBITAL ENERGIES
----------------

  NO   OCC          E(Eh)            E(eV)
   0   2.0000     -24.667471      -671.2360
   1   2.0000     -10.247691      -278.8538
   2   2.0000     -10.163200      -276.5547
   3   2.0000      -1.199849       -32.6496
   4   2.0000      -0.762521       -20.7492
   5   2.0000      -0.631425       -17.1819
   6   2.0000      -0.508913       -13.8482
   7   2.0000      -0.493741       -13.4354
   8   2.0000      -0.458363       -12.4727
   9   2.0000      -0.406281       -11.0555
  10   2.0000      -0.402331       -10.9480
  11   2.0000      -0.335648        -9.1334
  12   2.0000      -0.329924        -8.9777
  13   0.0000       0.040547         1.1033
  14   0.0000       0.078811         2.1446
  15   0.0000       0.096419         2.6237
  16   0.0000       0.097401         2.6504
  17   0.0000       0.112775         3.0688

MULLIKEN ATOMIC CHARGES
-----------------------
   0 C :   -0.300731
   1 C :    0.061448
   2 F :   -0.242870
   3 H :    0.081757
   4 H :    0.081080
   5 H :    0.110047
   6 H :    0.100483
   7 H :    0.108786
Sum of atomic charges:    0.0000000

LOEWDIN ATOMIC CHARGES
----------------------
   0 C :   -0.304844
   1 C :   -0.368409
   2 F :    0.097382
   3 H :    0.113604
   4 H :    0.115044
   5 H :    0.114624
   6 H :    0.119008
   7 H :    0.113591

  Mayer bond orders larger than 0.100000
B(  0-C ,  1-C ) :   0.9721 B(  0-C ,  5-H ) :   0.9708 B(  0-C ,  6-H ) :   0.9584
B(  0-C ,  7-H ) :   0.9720 B(  1-C ,  2-F ) :   0.9890 B(  1-C ,  3-H ) :   0.9683
B(  1-C ,  4-H ) :   0.9702

Dispersion correction           -0.005734777
FINAL SINGLE POINT ENERGY      -179.047172721636

DIPOLE MOMENT
-------------
                                X             Y             Z
Electronic contribution:      3.63177      -1.36684       3.43565
Nuclear contribution   :     -4.15401       1.70894      -3.75000
                        -----------------------------------------
Total Dipole Moment    :     -0.52225       0.34209      -0.31435
                        -----------------------------------------
Magnitude (a.u.)       :      0.69899
Magnitude (Debye)      :      1.77669

Rotational constants in cm-1:     1.266842     0.300492     0.266603
Rotational constants in MHz : 37978.968232  9008.526876  7992.551454

                             ****ORCA TERMINATED NORMALLY****
TOTAL RUN TIME: 0 days 0 hours 0 minutes 10 seconds 896 msec
