                         Program Version 5.0.0 -  RELEASE  -
|  1> !B3LYP D3BJ RIJCOSX def2-TZVP def2/J TightSCF
|  2> *xyz 0 1
|  3> C          1.64703       -2.34528       -5.02041
|  4> C          2.20996       -2.81239       -3.66571
|  5> C          2.48901       -1.66851       -2.73754
|  6> C          3.59631       -0.94761       -2.95225
|  7> N          1.66394       -1.41369       -1.77781
|  8> H          0.81164       -1.96318       -1.70275
|  9> H          1.84550       -0.63508       -1.15875
| 10> H          4.20535       -1.17600       -3.73383
| 11> H          3.81723       -0.12585       -2.40604
| 12> H          3.14311       -3.36280       -3.81152
| 13> H          1.48768       -3.45893       -3.16521
| 14> H          1.46566       -3.19589       -5.64368
| 15> H          2.35406       -1.69850       -5.49654
| 16> H          0.73014       -1.81680       -4.86253
| 17> *
| 18>
| 19> %MaxCore 64000
| 20> %pal nprocs 4
| 21> end
| 22>
| 23> %scf
| 24>   MaxIter 150
| 25> end
| 26>
| 27>
| 28>                          ****END OF INPUT****

CARTESIAN COORDINATES (ANGSTROEM)
---------------------------------
  C      1.647030   -2.345280   -5.020410
  C      2.209960   -2.812390   -3.665710
  C      2.489010   -1.668510   -2.737540
  C      3.596310   -0.947610   -2.952250
  N      1.663940   -1.413690   -1.777810
  H      0.811640   -1.963180   -1.702750
  H      1.845500   -0.635080   -1.158750
  H      4.205350   -1.176000   -3.733830
  H      3.817230   -0.125850   -2.406040
  H      3.143110   -3.362800   -3.811520
  H      1.487680   -3.458930   -3.165210
  H      1.465660   -3.195890   -5.643680
  H      2.354060   -1.698500   -5.496540
  H      0.730140   -1.816800   -4.862530

 Total Charge           Charge          ....    0
 Multiplicity           Mult            ....    1
 Number of Electrons    NEL             ....   40
 Basis Dimension        Dim             ....  209

ORBITAL ENERGIES
----------------

  NO   OCC          E(Eh)            E(eV)
   0   2.0000     -14.318330      -389.6216
   1   2.0000     -10.185782      -277.1692
   2   2.0000     -10.167196      -276.6635
   3   2.0000     -10.150668      -276.2137
   4   2.0000     -10.094761      -274.6924
   5   2.0000      -0.938304       -25.5326
   6   2.0000      -0.777148       -21.1473
   7   2.0000      -0.706548       -19.2261
   8   2.0000      -0.637276       -17.3412
   9   2.0000      -0.567717       -15.4484
  10   2.0000      -0.531666       -14.4674
  11   2.0000      -0.478518       -13.0211
  12   2.0000      -0.440761       -11.9937
  13   2.0000      -0.410916       -11.1816
  14   2.0000      -0.392723       -10.6865
  15   2.0000      -0.380406       -10.3514
  16   2.0000      -0.351775        -9.5723
  17   2.0000      -0.334444        -9.1007
  18   2.0000      -0.333200        -9.0668
  19   2.0000      -0.181964        -4.9515
  20   0.0000       0.023085         0.6282
  21   0.0000       0.046561         1.2670
  22   0.0000       0.067190         1.8283
  23   0.0000       0.073758         2.0071
  24   0.0000       0.090847         2.4721

MULLIKEN ATOMIC CHARGES
-----------------------
   0 C :   -0.296405
   1 C :   -0.191174
   2 C :    0.227214
   3 C :   -0.427707
   4 N :   -0.401147
   5 H :    0.218049
   6 H :    0.221083
   7 H :    0.088212
   8 H :    0.076838
   9 H :    0.110315
  10 H :    0.063819
  11 H :    0.101293
  12 H :    0.113031
  13 H :    0.096579
Sum of atomic charges:    0.0000000

LOEWDIN ATOMIC CHARGES
----------------------
   0 C :   -0.285172
   1 C :   -0.232223
   2 C :   -0.373856
   3 C :   -0.289314
   4 N :    0.021271
   5 H :    0.172628
   6 H :    0.175634
   7 H :    0.102812
   8 H :    0.091653
   9 H :    0.146379
  10 H :    0.128570
  11 H :    0.110885
  12 H :    0.117116
  13 H :    0.113618

  Mayer bond orders larger than 0.100000
B(  0-C ,  1-C ) :   0.9577 B(  0-C , 11-H ) :   0.9741 B(  0-C , 12-H ) :   0.9771
B(  0-C , 13-H ) :   0.9764 B(  1-C ,  2-C ) :   0.9308 B(  1-C ,  9-H ) :   0.9831
B(  1-C , 10-H ) :   0.9758 B(  2-C ,  3-C ) :   1.7190 B(  2-C ,  4-N ) :   1.2112
B(  3-C ,  7-H ) :   0.9972 B(  3-C ,  8-H ) :   0.9877 B(  4-N ,  5-H ) :   0.9215
B(  4-N ,  6-H ) :   0.9170

Dispersion correction           -0.017439377
FINAL SINGLE POINT ENERGY      -212.519558090941

DIPOLE MOMENT
-------------
                                X             Y             Z
Electronic contribution:     -0.07351       0.65496       3.04538
Nuclear contribution   :     -0.69146      -0.83112      -2.71336
                        -----------------------------------------
Total Dipole Moment    :     -0.76497      -0.17616       0.33202
                        -----------------------------------------
Magnitude (a.u.)       :      0.85232
Magnitude (Debye)      :      2.16642

Rotational constants in cm-1:     0.270661     0.129240     0.102040
Rotational constants in MHz :  8114.202941  3874.518141  3059.074383

                             ****ORCA TERMINATED NORMALLY****
TOTAL RUN TIME: 0 days 0 hours 0 minutes 24 seconds 647 msec
