                         Program Version 5.0.0 -  RELEASE  -
|  1> !B3LYP D3BJ RIJCOSX def2-TZVP def2/J TightSCF
|  2> *xyz 0 1
|  3> C          1.64703       -2.34528       -5.02041
|  4> C          2.20996       -2.81239       -3.66571
|  5> C          2.48901       -1.66851       -2.73754
|  6> N          3.59631       -0.94761       -2.95225
|  7> C          1.66394       -1.41369       -1.77781
|  8> H          0.81164       -1.96318       -1.70275
|  9> H          1.84550       -0.63508       -1.15875
| 10> H          4.20535       -1.17600       -3.73383
| 11> H          3.81723       -0.12585       -2.40604
| 12> H          3.14311       -3.36280       -3.81152
| 13> H          1.48768       -3.45893       -3.16521
| 14> H          1.46566       -3.19589       -5.64368
| 15> H          2.35406       -1.69850       -5.49654
| 16> H          0.73014       -1.81680       -4.86253
| 17> *
| 18>
| 19> %MaxCore 64000
| 20> %pal nprocs 4
| 21> end
| 22>
| 23> %scf
| 24>   MaxIter 150
| 25> end
| 26>
| 27>
| 28>                          ****END OF INPUT****

CARTESIAN COORDINATES (ANGSTROEM)
---------------------------------
  C      1.647030   -2.345280   -5.020410
  C      2.209960   -2.812390   -3.665710
  C      2.489010   -1.668510   -2.737540
  N      3.596310   -0.947610   -2.952250
  C      1.663940   -1.413690   -1.777810
  H      0.811640   -1.963180   -1.702750
  H      1.845500   -0.635080   -1.158750
  H      4.205350   -1.176000   -3.733830
  H      3.817230   -0.125850   -2.406040
  H      3.143110   -3.362800   -3.811520
  H      1.487680   -3.458930   -3.165210
  H      1.465660   -3.195890   -5.643680
  H      2.354060   -1.698500   -5.496540
  H      0.730140   -1.816800   -4.862530

 Total Charge           Charge          ....    0
 Multiplicity           Mult            ....    1
 Number of Electrons    NEL             ....   40
 Basis Dimension        Dim             ....  209

ORBITAL ENERGIES
----------------

  NO   OCC          E(Eh)            E(eV)
   0   2.0000     -14.311395      -389.4328
   1   2.0000     -10.182794      -277.0879
   2   2.0000     -10.165489      -276.6170
   3   2.0000     -10.151767      -276.2436
   4   2.0000     -10.097742      -274.7735
   5   2.0000      -0.919397       -25.0181
   6   2.0000      -0.777521       -21.1574
   7   2.0000      -0.720607       -19.6087
   8   2.0000      -0.632832       -17.2202
   9   2.0000      -0.563520       -15.3342
  10   2.0000      -0.519540       -14.1374
  11   2.0000      -0.478636       -13.0243
  12   2.0000      -0.433846       -11.8055
  13   2.0000      -0.421672       -11.4743
  14   2.0000      -0.397026       -10.8036
  15   2.0000      -0.382049       -10.3961
  16   2.0000      -0.351658        -9.5691
  17   2.0000      -0.333444        -9.0735
  18   2.0000      -0.324368        -8.8265
  19   2.0000      -0.193315        -5.2604
  20   0.0000       0.024298         0.6612
  21   0.0000       0.050184         1.3656
  22   0.0000       0.070241         1.9113
  23   0.0000       0.078378         2.1328
  24   0.0000       0.087587         2.3834

MULLIKEN ATOMIC CHARGES
-----------------------
   0 C :   -0.300883
   1 C :   -0.199878
   2 C :    0.266839
   3 N :   -0.462319
   4 C :   -0.391852
   5 H :    0.088324
   6 H :    0.074664
   7 H :    0.219173
   8 H :    0.216527
   9 H :    0.084271
  10 H :    0.096884
  11 H :    0.105406
  12 H :    0.091091
  13 H :    0.111754
Sum of atomic charges:   -0.0000000

LOEWDIN ATOMIC CHARGES
----------------------
   0 C :   -0.288778
   1 C :   -0.232299
   2 C :   -0.360882
   3 N :   -0.013150
   4 C :   -0.263210
   5 H :    0.109156
   6 H :    0.099304
   7 H :    0.166690
   8 H :    0.166155
   9 H :    0.133029
  10 H :    0.144255
  11 H :    0.112231
  12 H :    0.110305
  13 H :    0.117194

  Mayer bond orders larger than 0.100000
B(  0-C ,  1-C ) :   0.9502 B(  0-C , 11-H ) :   0.9758 B(  0-C , 12-H ) :   0.9758
B(  0-C , 13-H ) :   0.9786 B(  1-C ,  2-C ) :   0.9513 B(  1-C ,  9-H ) :   0.9708
B(  1-C , 10-H ) :   0.9836 B(  2-C ,  3-N ) :   1.1317 B(  2-C ,  4-C ) :   1.7705
B(  3-N ,  7-H ) :   0.9285 B(  3-N ,  8-H ) :   0.9232 B(  4-C ,  5-H ) :   0.9934
B(  4-C ,  6-H ) :   0.9903

Dispersion correction           -0.017414842
FINAL SINGLE POINT ENERGY      -212.523764042552

DIPOLE MOMENT
-------------
                                X             Y             Z
Electronic contribution:      1.67317       1.08803       1.99206
Nuclear contribution   :     -1.13902      -0.93906      -2.44135
                        -----------------------------------------
Total Dipole Moment    :      0.53415       0.14897      -0.44929
                        -----------------------------------------
Magnitude (a.u.)       :      0.71370
Magnitude (Debye)      :      1.81408

Rotational constants in cm-1:     0.267243     0.130607     0.102304
Rotational constants in MHz :  8011.748167  3915.504600  3066.999841

                             ****ORCA TERMINATED NORMALLY****
TOTAL RUN TIME: 0 days 0 hours 0 minutes 24 seconds 693 msec
