                         Program Version 5.0.0 -  RELEASE  -
|  1> !B3LYP D3BJ RIJCOSX def2-TZVP def2/J TightSCF xyzfile
|  2>
|  3> *xyzfile 0 1 D1.xyz
|  4>
|  5> %MaxCore 64000
|  6>
|  7> %pal nprocs 18
|  8> end
|  9>
| 10> %scf
| 11>   MaxIter 150
| 12> end
| 13>
| 14>
| 15>                          ****END OF INPUT****

CARTESIAN COORDINATES (ANGSTROEM)
---------------------------------
  C      1.647032   -2.345276   -5.020411
  C      0.217628   -1.814022   -4.924389
  C      2.209964   -2.812388   -3.665708
  C     -0.811356   -2.908780   -4.607625
  C     -1.916579   -2.485081   -3.643665
  H     -2.554525   -1.712428   -4.091993
  C     -1.363531   -1.981337   -2.293608
  H     -2.553448   -3.355667   -3.458815
  F     -0.350395   -2.749689   -1.796006
  H      2.308385   -1.588704   -5.457128
  H      1.674286   -3.203478   -5.697392
  C      2.489007   -1.668510   -2.737538
  C      3.596314   -0.947608   -2.952247
  N      1.663936   -1.413685   -1.777806
  H      0.811642   -1.963178   -1.702755
  H      1.845503   -0.635078   -1.158749
  H      4.205351   -1.176003   -3.733825
  H      3.817230   -0.125845   -2.406041
  H     -1.244829   -3.280884   -5.541040
  H     -0.306331   -3.757746   -4.142734
  H     -0.036244   -1.318555   -5.865303
  H      0.175004   -1.035382   -4.158095
  H      3.143106   -3.362803   -3.811524
  H      1.487683   -3.458935   -3.165211
  H     -2.226220   -1.908386   -1.602039
  H     -1.051353   -0.915671   -2.443331

 Total Charge           Charge          ....    0
 Multiplicity           Mult            ....    1
 Number of Electrons    NEL             ....   80
 Basis Dimension        Dim             ....  406

ORBITAL ENERGIES
----------------

  NO   OCC          E(Eh)            E(eV)
   0   2.0000     -24.715818      -672.5516
   1   2.0000     -14.282674      -388.6513
   2   2.0000     -10.267125      -279.3827
   3   2.0000     -10.185794      -277.1696
   4   2.0000     -10.169916      -276.7375
   5   2.0000     -10.169361      -276.7224
   6   2.0000     -10.160906      -276.4923
   7   2.0000     -10.157567      -276.4014
   8   2.0000     -10.153723      -276.2968
   9   2.0000     -10.079740      -274.2837
  10   2.0000      -1.257262       -34.2118
  11   2.0000      -0.916419       -24.9370
  12   2.0000      -0.819968       -22.3125
  13   2.0000      -0.778714       -21.1899
  14   2.0000      -0.734874       -19.9969
  15   2.0000      -0.691141       -18.8069
  16   2.0000      -0.665603       -18.1120
  17   2.0000      -0.612103       -16.6562
  18   2.0000      -0.588779       -16.0215
  19   2.0000      -0.575327       -15.6554
  20   2.0000      -0.535209       -14.5638
  21   2.0000      -0.530818       -14.4443
  22   2.0000      -0.511038       -13.9060
  23   2.0000      -0.485715       -13.2170
  24   2.0000      -0.465154       -12.6575
  25   2.0000      -0.457589       -12.4516
  26   2.0000      -0.438889       -11.9428
  27   2.0000      -0.418942       -11.4000
  28   2.0000      -0.417499       -11.3607
  29   2.0000      -0.387871       -10.5545
  30   2.0000      -0.370553       -10.0833
  31   2.0000      -0.363224        -9.8838
  32   2.0000      -0.360065        -9.7979
  33   2.0000      -0.355306        -9.6684
  34   2.0000      -0.338828        -9.2200
  35   2.0000      -0.331503        -9.0207
  36   2.0000      -0.320802        -8.7295
  37   2.0000      -0.309323        -8.4171
  38   2.0000      -0.308590        -8.3972
  39   2.0000      -0.165288        -4.4977
  40   0.0000       0.027861         0.7581
  41   0.0000       0.040485         1.1017
  42   0.0000       0.049793         1.3549
  43   0.0000       0.061026         1.6606
  44   0.0000       0.062411         1.6983

MULLIKEN ATOMIC CHARGES
-----------------------
   0 C :   -0.124285
   1 C :   -0.192458
   2 C :   -0.210624
   3 C :   -0.181757
   4 C :   -0.175459
   5 H :    0.099015
   6 C :   -0.033525
   7 H :    0.100427
   8 F :   -0.218292
   9 H :    0.096789
  10 H :    0.074725
  11 C :    0.205570
  12 C :   -0.442709
  13 N :   -0.447938
  14 H :    0.279121
  15 H :    0.200052
  16 H :    0.080993
  17 H :    0.070819
  18 H :    0.098109
  19 H :    0.101832
  20 H :    0.089507
  21 H :    0.097779
  22 H :    0.108347
  23 H :    0.090019
  24 H :    0.113339
  25 H :    0.120603
Sum of atomic charges:   -0.0000000

LOEWDIN ATOMIC CHARGES
----------------------
   0 C :   -0.250180
   1 C :   -0.256022
   2 C :   -0.210813
   3 C :   -0.264852
   4 C :   -0.270550
   5 H :    0.141707
   6 C :   -0.348038
   7 H :    0.135346
   8 F :    0.167172
   9 H :    0.137041
  10 H :    0.131205
  11 C :   -0.375859
  12 C :   -0.303474
  13 N :    0.020705
  14 H :    0.120126
  15 H :    0.166277
  16 H :    0.099697
  17 H :    0.089506
  18 H :    0.134699
  19 H :    0.138264
  20 H :    0.131629
  21 H :    0.136228
  22 H :    0.147047
  23 H :    0.132664
  24 H :    0.125009
  25 H :    0.125464

  Mayer bond orders larger than 0.100000
B(  0-C ,  1-C ) :   0.9820 B(  0-C ,  2-C ) :   0.9526 B(  0-C ,  9-H ) :   0.9585
B(  0-C , 10-H ) :   0.9590 B(  1-C ,  3-C ) :   0.9361 B(  1-C , 20-H ) :   0.9629
B(  1-C , 21-H ) :   0.9807 B(  2-C , 11-C ) :   0.9253 B(  2-C , 22-H ) :   0.9759
B(  2-C , 23-H ) :   0.9921 B(  3-C ,  4-C ) :   0.9637 B(  3-C , 18-H ) :   0.9660
B(  3-C , 19-H ) :   0.9771 B(  4-C ,  5-H ) :   0.9501 B(  4-C ,  6-C ) :   0.9815
B(  4-C ,  7-H ) :   0.9683 B(  6-C ,  8-F ) :   0.9046 B(  6-C , 24-H ) :   0.9685
B(  6-C , 25-H ) :   0.9786 B(  8-F , 14-H ) :   0.1119 B( 11-C , 12-C ) :   1.6979
B( 11-C , 13-N ) :   1.2513 B( 12-C , 16-H ) :   0.9955 B( 12-C , 17-H ) :   0.9895
B( 13-N , 14-H ) :   0.8417 B( 13-N , 15-H ) :   0.9246

Dispersion correction           -0.043321770
FINAL SINGLE POINT ENERGY      -468.958085829835

DIPOLE MOMENT
-------------
                                X             Y             Z
Electronic contribution:     -1.30071      -1.74350       6.94912
Nuclear contribution   :     -0.37390       1.73388      -6.94752
                        -----------------------------------------
Total Dipole Moment    :     -1.67461      -0.00962       0.00160
                        -----------------------------------------
Magnitude (a.u.)       :      1.67464
Magnitude (Debye)      :      4.25660

Rotational constants in cm-1:     0.062220     0.032742     0.024374
Rotational constants in MHz :  1865.297979   981.573941   730.711364

                             ****ORCA TERMINATED NORMALLY****
TOTAL RUN TIME: 0 days 0 hours 0 minutes 44 seconds 114 msec
