                         Program Version 5.0.0 -  RELEASE  -
|  1> !B3LYP D3BJ RIJCOSX def2-TZVP def2/J TightSCF xyzfile
|  2>
|  3> *xyzfile 0 1 D2.xyz
|  4>
|  5> %MaxCore 64000
|  6>
|  7> %pal nprocs 18
|  8> end
|  9>
| 10> %scf
| 11>   MaxIter 150
| 12> end
| 13>
| 14>
| 15>                          ****END OF INPUT****

CARTESIAN COORDINATES (ANGSTROEM)
---------------------------------
  C      1.647032   -2.345276   -5.020411
  C      0.217628   -1.814022   -4.924389
  C      2.209964   -2.812388   -3.665708
  C     -0.811356   -2.908780   -4.607625
  C     -1.916579   -2.485081   -3.643665
  H     -2.554525   -1.712428   -4.091993
  C     -1.363531   -1.981337   -2.293608
  H     -2.553448   -3.355667   -3.458815
  F     -0.350395   -2.749689   -1.796006
  H      2.308385   -1.588704   -5.457128
  H      1.674286   -3.203478   -5.697392
  C      2.489007   -1.668510   -2.737538
  N      3.596314   -0.947608   -2.952247
  C      1.663936   -1.413685   -1.777806
  H      0.811642   -1.963178   -1.702755
  H      1.845503   -0.635078   -1.158749
  H      4.205351   -1.176003   -3.733825
  H      3.817230   -0.125845   -2.406041
  H     -1.244829   -3.280884   -5.541040
  H     -0.306331   -3.757746   -4.142734
  H     -0.036244   -1.318555   -5.865303
  H      0.175004   -1.035382   -4.158095
  H      3.143106   -3.362803   -3.811524
  H      1.487683   -3.458935   -3.165211
  H     -2.226220   -1.908386   -1.602039
  H     -1.051353   -0.915671   -2.443331

 Total Charge           Charge          ....    0
 Multiplicity           Mult            ....    1
 Number of Electrons    NEL             ....   80
 Basis Dimension        Dim             ....  406

ORBITAL ENERGIES
----------------

  NO   OCC          E(Eh)            E(eV)
   0   2.0000     -24.681933      -671.6295
   1   2.0000     -14.297593      -389.0573
   2   2.0000     -10.247606      -278.8515
   3   2.0000     -10.173427      -276.8330
   4   2.0000     -10.165648      -276.6213
   5   2.0000     -10.161373      -276.5050
   6   2.0000     -10.158329      -276.4222
   7   2.0000     -10.154474      -276.3173
   8   2.0000     -10.153025      -276.2778
   9   2.0000     -10.064756      -273.8759
  10   2.0000      -1.225659       -33.3519
  11   2.0000      -0.905597       -24.6426
  12   2.0000      -0.810324       -22.0500
  13   2.0000      -0.775507       -21.1026
  14   2.0000      -0.725987       -19.7551
  15   2.0000      -0.699376       -19.0310
  16   2.0000      -0.655815       -17.8456
  17   2.0000      -0.602849       -16.4044
  18   2.0000      -0.568903       -15.4806
  19   2.0000      -0.565365       -15.3844
  20   2.0000      -0.525688       -14.3047
  21   2.0000      -0.511761       -13.9257
  22   2.0000      -0.496785       -13.5182
  23   2.0000      -0.486234       -13.2311
  24   2.0000      -0.460633       -12.5345
  25   2.0000      -0.444147       -12.0859
  26   2.0000      -0.440480       -11.9861
  27   2.0000      -0.429464       -11.6863
  28   2.0000      -0.400626       -10.9016
  29   2.0000      -0.381902       -10.3921
  30   2.0000      -0.367650       -10.0043
  31   2.0000      -0.357718        -9.7340
  32   2.0000      -0.350013        -9.5243
  33   2.0000      -0.336340        -9.1523
  34   2.0000      -0.326033        -8.8718
  35   2.0000      -0.323225        -8.7954
  36   2.0000      -0.311559        -8.4780
  37   2.0000      -0.305215        -8.3053
  38   2.0000      -0.293798        -7.9946
  39   2.0000      -0.177062        -4.8181
  40   0.0000       0.032690         0.8895
  41   0.0000       0.040284         1.0962
  42   0.0000       0.048992         1.3331
  43   0.0000       0.065549         1.7837
  44   0.0000       0.073077         1.9885

MULLIKEN ATOMIC CHARGES
-----------------------
   0 C :   -0.138291
   1 C :   -0.173744
   2 C :   -0.226759
   3 C :   -0.175632
   4 C :   -0.172454
   5 H :    0.091229
   6 C :   -0.023022
   7 H :    0.094300
   8 F :   -0.202882
   9 H :    0.080095
  10 H :    0.081376
  11 C :    0.258866
  12 N :   -0.466498
  13 C :   -0.524862
  14 H :    0.217784
  15 H :    0.060337
  16 H :    0.211533
  17 H :    0.211948
  18 H :    0.092944
  19 H :    0.094827
  20 H :    0.083980
  21 H :    0.107315
  22 H :    0.088777
  23 H :    0.111389
  24 H :    0.103350
  25 H :    0.114095
Sum of atomic charges:    0.0000000

LOEWDIN ATOMIC CHARGES
----------------------
   0 C :   -0.256457
   1 C :   -0.255760
   2 C :   -0.212820
   3 C :   -0.264499
   4 C :   -0.271769
   5 H :    0.138853
   6 C :   -0.346937
   7 H :    0.133682
   8 F :    0.167572
   9 H :    0.129615
  10 H :    0.132242
  11 C :   -0.369403
  12 N :   -0.019726
  13 C :   -0.265409
  14 H :    0.075124
  15 H :    0.093360
  16 H :    0.162417
  17 H :    0.163336
  18 H :    0.132688
  19 H :    0.138174
  20 H :    0.129612
  21 H :    0.138761
  22 H :    0.134075
  23 H :    0.145283
  24 H :    0.121759
  25 H :    0.126227

  Mayer bond orders larger than 0.100000
B(  0-C ,  1-C ) :   0.9806 B(  0-C ,  2-C ) :   0.9408 B(  0-C ,  9-H ) :   0.9595
B(  0-C , 10-H ) :   0.9654 B(  1-C ,  3-C ) :   0.9465 B(  1-C , 20-H ) :   0.9618
B(  1-C , 21-H ) :   0.9794 B(  2-C , 11-C ) :   0.9508 B(  2-C , 22-H ) :   0.9694
B(  2-C , 23-H ) :   0.9991 B(  3-C ,  4-C ) :   0.9695 B(  3-C , 18-H ) :   0.9660
B(  3-C , 19-H ) :   0.9742 B(  4-C ,  5-H ) :   0.9513 B(  4-C ,  6-C ) :   0.9831
B(  4-C ,  7-H ) :   0.9670 B(  6-C ,  8-F ) :   0.9297 B(  6-C , 24-H ) :   0.9685
B(  6-C , 25-H ) :   0.9780 B( 11-C , 12-N ) :   1.1054 B( 11-C , 13-C ) :   1.7392
B( 12-N , 16-H ) :   0.9296 B( 12-N , 17-H ) :   0.9254 B( 13-C , 14-H ) :   0.9537
B( 13-C , 15-H ) :   0.9835

Dispersion correction           -0.043577515
FINAL SINGLE POINT ENERGY      -468.940981036461

DIPOLE MOMENT
-------------
                                X             Y             Z
Electronic contribution:      0.45264      -1.30611       6.08110
Nuclear contribution   :     -0.73748       1.64619      -6.72655
                        -----------------------------------------
Total Dipole Moment    :     -0.28485       0.34008      -0.64545
                        -----------------------------------------
Magnitude (a.u.)       :      0.78320
Magnitude (Debye)      :      1.99073

Rotational constants in cm-1:     0.063169     0.031711     0.023958
Rotational constants in MHz :  1893.751676   950.657187   718.229932

                             ****ORCA TERMINATED NORMALLY****
TOTAL RUN TIME: 0 days 0 hours 0 minutes 42 seconds 670 msec
