                         Program Version 5.0.0 -  RELEASE  -
|  1> !B3LYP D3BJ RIJCOSX def2-SVPD def2/J TightSCF
|  2> *xyz -1 1
|  3> C          3.90595        2.81985       -3.75292
|  4> C          3.80351        1.37472       -3.26081
|  5> C          3.93993        0.32036       -4.36773
|  6> H          4.10504       -0.65508       -3.90773
|  7> H          3.02280        0.28052       -4.95712
|  8> C          5.10585        0.66802       -5.30546
|  9> H          4.57483        1.21516       -2.50044
| 10> H          2.84351        1.26085       -2.75146
| 11> O          4.80913        1.15019       -6.41436
| 12> O          6.26737        0.56500       -4.81948
| 13> H          3.15892        2.99660       -4.49832
| 14> H          4.87575        2.98549       -4.17357
| 15> H          3.75481        3.48808       -2.93101
| 16> *
| 17>
| 18> %MaxCore 64000
| 19>
| 20> %pal nprocs 4
| 21> end
| 22>
| 23> %scf
| 24>   MaxIter 150
| 25> end
| 26>
| 27>
| 28>                          ****END OF INPUT****

CARTESIAN COORDINATES (ANGSTROEM)
---------------------------------
  C      3.905950    2.819850   -3.752920
  C      3.803510    1.374720   -3.260810
  C      3.939930    0.320360   -4.367730
  H      4.105040   -0.655080   -3.907730
  H      3.022800    0.280520   -4.957120
  C      5.105850    0.668020   -5.305460
  H      4.574830    1.215160   -2.500440
  H      2.843510    1.260850   -2.751460
  O      4.809130    1.150190   -6.414360
  O      6.267370    0.565000   -4.819480
  H      3.158920    2.996600   -4.498320
  H      4.875750    2.985490   -4.173570
  H      3.754810    3.488080   -2.931010

 Total Charge           Charge          ....   -1
 Multiplicity           Mult            ....    1
 Number of Electrons    NEL             ....   48
 Basis Dimension        Dim             ....  182

ORBITAL ENERGIES
----------------

  NO   OCC          E(Eh)            E(eV)
   0   2.0000     -18.883469      -513.8453
   1   2.0000     -18.879930      -513.7490
   2   2.0000     -10.071674      -274.0642
   3   2.0000     -10.035242      -273.0728
   4   2.0000     -10.023258      -272.7467
   5   2.0000     -10.008831      -272.3541
   6   2.0000      -0.816360       -22.2143
   7   2.0000      -0.724371       -19.7111
   8   2.0000      -0.628415       -17.1000
   9   2.0000      -0.532417       -14.4878
  10   2.0000      -0.437978       -11.9180
  11   2.0000      -0.324136        -8.8202
  12   2.0000      -0.302315        -8.2264
  13   2.0000      -0.288864        -7.8604
  14   2.0000      -0.250796        -6.8245
  15   2.0000      -0.234623        -6.3844
  16   2.0000      -0.211482        -5.7547
  17   2.0000      -0.206314        -5.6141
  18   2.0000      -0.197783        -5.3819
  19   2.0000      -0.175842        -4.7849
  20   2.0000      -0.167499        -4.5579
  21   2.0000      -0.056191        -1.5290
  22   2.0000      -0.045245        -1.2312
  23   2.0000      -0.034601        -0.9415
  24   0.0000       0.146611         3.9895
  25   0.0000       0.171276         4.6606
  26   0.0000       0.186348         5.0708
  27   0.0000       0.199800         5.4368
  28   0.0000       0.220486         5.9997

MULLIKEN ATOMIC CHARGES
-----------------------
   0 C :    0.878258
   1 C :   -0.279508
   2 C :    0.400657
   3 H :   -0.131489
   4 H :   -0.084229
   5 C :    0.357944
   6 H :   -0.098277
   7 H :   -0.267788
   8 O :   -0.642090
   9 O :   -0.718205
  10 H :   -0.120003
  11 H :   -0.069586
  12 H :   -0.225684
Sum of atomic charges:   -1.0000000

LOEWDIN ATOMIC CHARGES
----------------------
   0 C :    0.119666
   1 C :   -0.079979
   2 C :    0.006292
   3 H :   -0.001049
   4 H :   -0.002428
   5 C :   -0.315277
   6 H :    0.009605
   7 H :   -0.008433
   8 O :   -0.314121
   9 O :   -0.328323
  10 H :   -0.022890
  11 H :   -0.020707
  12 H :   -0.042355

  Mayer bond orders larger than 0.100000
B(  0-C ,  1-C ) :   1.3199 B(  0-C ,  7-H ) :   0.1210 B(  0-C , 10-H ) :   0.7335
B(  0-C , 11-H ) :   0.7748 B(  0-C , 12-H ) :   0.7008 B(  1-C ,  2-C ) :   1.1941
B(  1-C ,  3-H ) :   0.1612 B(  1-C ,  4-H ) :   0.1695 B(  1-C ,  6-H ) :   0.8843
B(  1-C ,  7-H ) :   0.9186 B(  1-C , 10-H ) :   0.2294 B(  1-C , 11-H ) :   0.2363
B(  1-C , 12-H ) :   0.2526 B(  2-C ,  3-H ) :   0.7983 B(  2-C ,  4-H ) :   0.8288
B(  2-C ,  5-C ) :   0.9857 B(  2-C ,  6-H ) :   0.1154 B(  3-H ,  5-C ) :   0.1372
B(  4-H ,  5-C ) :   0.2007 B(  5-C ,  8-O ) :   1.4996 B(  5-C ,  9-O ) :   1.4673

Dispersion correction           -0.016742419
FINAL SINGLE POINT ENERGY      -306.788997396072

DIPOLE MOMENT
-------------
                                X             Y             Z
Electronic contribution:      4.15745      -2.84518      -4.82439
Nuclear contribution   :     -5.80393       3.20473       6.46101
                        -----------------------------------------
Total Dipole Moment    :     -1.64648       0.35954       1.63662
                        -----------------------------------------
Magnitude (a.u.)       :      2.34918
Magnitude (Debye)      :      5.97115

Rotational constants in cm-1:     0.184459     0.088019     0.082330
Rotational constants in MHz :  5529.929668  2638.753248  2468.201746

                             ****ORCA TERMINATED NORMALLY****
TOTAL RUN TIME: 0 days 0 hours 0 minutes 17 seconds 904 msec
