                         Program Version 5.0.0 -  RELEASE  -
|  1> !B3LYP D3BJ RIJCOSX def2-SVPD def2/J TightSCF
|  2> *xyz 1 1
|  3> C          3.90595        2.81985       -3.75292
|  4> N          5.29562        3.13151       -4.10533
|  5> C          3.80351        1.37472       -3.26081
|  6> C          3.93993        0.32036       -4.36773
|  7> C          5.70862        3.46889       -5.32419
|  8> N          6.90470        3.03895       -5.71708
|  9> N          4.98188        4.29357       -6.09746
| 10> H          5.00055        4.10131       -7.08776
| 11> H          4.08469        4.59690       -5.73965
| 12> H          5.96336        2.52611       -3.64239
| 13> H          7.04716        2.06686       -5.47360
| 14> H          7.19815        3.30799       -6.64523
| 15> H          3.28202        2.94919       -4.64026
| 16> H          3.56525        3.51457       -2.98252
| 17> H          4.57483        1.21516       -2.50044
| 18> H          2.84351        1.26085       -2.75146
| 19> H          3.18417        0.48061       -5.10803
| 20> H          3.82485       -0.65632       -3.94614
| 21> H          4.90589        0.40174       -4.82073
| 22> *
| 23>
| 24> %MaxCore 64000
| 25>
| 26> %pal nprocs 4
| 27> end
| 28>
| 29> %scf
| 30>   MaxIter 150
| 31> end
| 32>
| 33>
| 34>                          ****END OF INPUT****

CARTESIAN COORDINATES (ANGSTROEM)
---------------------------------
  C      3.905950    2.819850   -3.752920
  N      5.295620    3.131510   -4.105330
  C      3.803510    1.374720   -3.260810
  C      3.939930    0.320360   -4.367730
  C      5.708620    3.468890   -5.324190
  N      6.904700    3.038950   -5.717080
  N      4.981880    4.293570   -6.097460
  H      5.000550    4.101310   -7.087760
  H      4.084690    4.596900   -5.739650
  H      5.963360    2.526110   -3.642390
  H      7.047160    2.066860   -5.473600
  H      7.198150    3.307990   -6.645230
  H      3.282020    2.949190   -4.640260
  H      3.565250    3.514570   -2.982520
  H      4.574830    1.215160   -2.500440
  H      2.843510    1.260850   -2.751460
  H      3.184170    0.480610   -5.108030
  H      3.824850   -0.656320   -3.946140
  H      4.905890    0.401740   -4.820730

 Total Charge           Charge          ....    1
 Multiplicity           Mult            ....    1
 Number of Electrons    NEL             ....   56
 Basis Dimension        Dim             ....  236

ORBITAL ENERGIES
----------------

  NO   OCC          E(Eh)            E(eV)
   0   2.0000     -14.556544      -396.1037
   1   2.0000     -14.555175      -396.0665
   2   2.0000     -14.554008      -396.0347
   3   2.0000     -10.517780      -286.2033
   4   2.0000     -10.389078      -282.7012
   5   2.0000     -10.334542      -281.2172
   6   2.0000     -10.310475      -280.5623
   7   2.0000      -1.211452       -32.9653
   8   2.0000      -1.099399       -29.9162
   9   2.0000      -1.091528       -29.7020
  10   2.0000      -0.938669       -25.5425
  11   2.0000      -0.860414       -23.4131
  12   2.0000      -0.818520       -22.2731
  13   2.0000      -0.780841       -21.2478
  14   2.0000      -0.763161       -20.7667
  15   2.0000      -0.735110       -20.0034
  16   2.0000      -0.700031       -19.0488
  17   2.0000      -0.688284       -18.7292
  18   2.0000      -0.646397       -17.5894
  19   2.0000      -0.632456       -17.2100
  20   2.0000      -0.590016       -16.0551
  21   2.0000      -0.584400       -15.9023
  22   2.0000      -0.559146       -15.2151
  23   2.0000      -0.514901       -14.0112
  24   2.0000      -0.496626       -13.5139
  25   2.0000      -0.496394       -13.5076
  26   2.0000      -0.487469       -13.2647
  27   2.0000      -0.457150       -12.4397
  28   0.0000      -0.194357        -5.2887
  29   0.0000      -0.155628        -4.2348
  30   0.0000      -0.125893        -3.4257
  31   0.0000      -0.109330        -2.9750
  32   0.0000      -0.094571        -2.5734

MULLIKEN ATOMIC CHARGES
-----------------------
   0 C :    0.902428
   1 N :   -0.293045
   2 C :   -0.133311
   3 C :    1.085025
   4 C :    0.737331
   5 N :    0.166690
   6 N :    0.131100
   7 H :   -0.060329
   8 H :   -0.015293
   9 H :   -0.122049
  10 H :   -0.055335
  11 H :   -0.027545
  12 H :   -0.094939
  13 H :   -0.402811
  14 H :   -0.118234
  15 H :   -0.188878
  16 H :   -0.028752
  17 H :   -0.113118
  18 H :   -0.368935
Sum of atomic charges:    1.0000000

LOEWDIN ATOMIC CHARGES
----------------------
   0 C :    0.077843
   1 N :    0.065760
   2 C :   -0.038771
   3 C :    0.153887
   4 C :   -0.058245
   5 N :    0.280041
   6 N :    0.289763
   7 H :    0.035288
   8 H :    0.022361
   9 H :    0.041544
  10 H :    0.029026
  11 H :    0.034962
  12 H :    0.021843
  13 H :    0.034746
  14 H :    0.025888
  15 H :    0.035758
  16 H :   -0.011138
  17 H :   -0.003169
  18 H :   -0.037387

  Mayer bond orders larger than 0.100000
B(  0-C ,  1-N ) :   0.9064 B(  0-C ,  2-C ) :   1.1437 B(  0-C , 12-H ) :   0.7184
B(  0-C , 13-H ) :   0.8666 B(  0-C , 15-H ) :   0.1685 B(  1-N ,  2-C ) :   0.1171
B(  1-N ,  4-C ) :   1.1981 B(  1-N ,  5-N ) :   0.1899 B(  1-N ,  9-H ) :   1.1058
B(  1-N , 12-H ) :   0.1298 B(  1-N , 13-H ) :   0.1247 B(  2-C ,  3-C ) :   1.2244
B(  2-C , 14-H ) :   0.8896 B(  2-C , 15-H ) :   0.9212 B(  2-C , 16-H ) :   0.2292
B(  2-C , 17-H ) :   0.2352 B(  2-C , 18-H ) :   0.2533 B(  3-C , 16-H ) :   0.6941
B(  3-C , 17-H ) :   0.7056 B(  3-C , 18-H ) :   0.7227 B(  4-C ,  5-N ) :   1.0236
B(  4-C ,  6-N ) :   1.0293 B(  4-C ,  9-H ) :  -0.1799 B(  5-N ,  6-N ) :   0.1209
B(  5-N , 10-H ) :   1.0261 B(  5-N , 11-H ) :   0.9951 B(  6-N ,  7-H ) :   1.1391
B(  6-N ,  8-H ) :   0.9613 B(  7-H ,  8-H ) :  -0.1217 B( 12-H , 13-H ) :  -0.1302
B( 16-H , 18-H ) :   0.1245

Dispersion correction           -0.025918017
FINAL SINGLE POINT ENERGY      -323.310676563029

DIPOLE MOMENT
-------------
                                X             Y             Z
Electronic contribution:      4.01853       5.69970      -2.04315
Nuclear contribution   :     -3.60155      -5.39511       0.90505
                        -----------------------------------------
Total Dipole Moment    :      0.41698       0.30459      -1.13809
                        -----------------------------------------
Magnitude (a.u.)       :      1.24976
Magnitude (Debye)      :      3.17665

Rotational constants in cm-1:     0.145371     0.050507     0.045444
Rotational constants in MHz :  4358.114605  1514.164418  1362.368391

                             ****ORCA TERMINATED NORMALLY****
TOTAL RUN TIME: 0 days 0 hours 0 minutes 31 seconds 187 msec
