                         Program Version 5.0.0 -  RELEASE  -
|  1> !B3LYP D3BJ RIJCOSX def2-SVPD def2/J TightSCF
|  2> *xyz 0 1
|  3> C          3.90595        2.81985       -3.75292
|  4> C          3.80351        1.37472       -3.26081
|  5> C          3.93993        0.32036       -4.36773
|  6> H          4.10504       -0.65508       -3.90773
|  7> H          3.02280        0.28052       -4.95712
|  8> C          5.10585        0.66802       -5.30546
|  9> H          4.57483        1.21516       -2.50044
| 10> H          2.84351        1.26085       -2.75146
| 11> F          4.80913        1.15019       -6.41436
| 12> O          6.26737        0.56500       -4.81948
| 13> H          3.15892        2.99660       -4.49832
| 14> H          4.87575        2.98549       -4.17357
| 15> H          3.75481        3.48808       -2.93101
| 16> *
| 17>
| 18> %MaxCore 64000
| 19>
| 20> %pal nprocs 4
| 21> end
| 22>
| 23> %scf
| 24>   MaxIter 150
| 25> end
| 26>
| 27>
| 28>                          ****END OF INPUT****

CARTESIAN COORDINATES (ANGSTROEM)
---------------------------------
  C      3.905950    2.819850   -3.752920
  C      3.803510    1.374720   -3.260810
  C      3.939930    0.320360   -4.367730
  H      4.105040   -0.655080   -3.907730
  H      3.022800    0.280520   -4.957120
  C      5.105850    0.668020   -5.305460
  H      4.574830    1.215160   -2.500440
  H      2.843510    1.260850   -2.751460
  F      4.809130    1.150190   -6.414360
  O      6.267370    0.565000   -4.819480
  H      3.158920    2.996600   -4.498320
  H      4.875750    2.985490   -4.173570
  H      3.754810    3.488080   -2.931010

 Total Charge           Charge          ....    0
 Multiplicity           Mult            ....    1
 Number of Electrons    NEL             ....   48
 Basis Dimension        Dim             ....  182

ORBITAL ENERGIES
----------------

  NO   OCC          E(Eh)            E(eV)
   0   2.0000     -24.774815      -674.1570
   1   2.0000     -19.149034      -521.0717
   2   2.0000     -10.367780      -282.1216
   3   2.0000     -10.213765      -277.9307
   4   2.0000     -10.200467      -277.5688
   5   2.0000     -10.178883      -276.9815
   6   2.0000      -1.316391       -35.8208
   7   2.0000      -1.022504       -27.8237
   8   2.0000      -0.808886       -22.0109
   9   2.0000      -0.724204       -19.7066
  10   2.0000      -0.667892       -18.1743
  11   2.0000      -0.611587       -16.6421
  12   2.0000      -0.558138       -15.1877
  13   2.0000      -0.538297       -14.6478
  14   2.0000      -0.509192       -13.8558
  15   2.0000      -0.467687       -12.7264
  16   2.0000      -0.458286       -12.4706
  17   2.0000      -0.420561       -11.4441
  18   2.0000      -0.406682       -11.0664
  19   2.0000      -0.377124       -10.2621
  20   2.0000      -0.360368        -9.8061
  21   2.0000      -0.350568        -9.5394
  22   2.0000      -0.347662        -9.4604
  23   2.0000      -0.294214        -8.0060
  24   0.0000      -0.039209        -1.0669
  25   0.0000       0.013278         0.3613
  26   0.0000       0.042083         1.1451
  27   0.0000       0.046065         1.2535
  28   0.0000       0.058054         1.5797

MULLIKEN ATOMIC CHARGES
-----------------------
   0 C :    0.884827
   1 C :   -0.200106
   2 C :    0.330582
   3 H :   -0.092274
   4 H :   -0.059790
   5 C :    0.741659
   6 H :   -0.088504
   7 H :   -0.229978
   8 F :   -0.355027
   9 O :   -0.514236
  10 H :   -0.126810
  11 H :   -0.102509
  12 H :   -0.187834
Sum of atomic charges:   -0.0000000

LOEWDIN ATOMIC CHARGES
----------------------
   0 C :    0.136219
   1 C :   -0.052416
   2 C :    0.051751
   3 H :    0.032625
   4 H :    0.020219
   5 C :   -0.023063
   6 H :    0.027569
   7 H :    0.019120
   8 F :   -0.022710
   9 O :   -0.136156
  10 H :   -0.015321
  11 H :   -0.020798
  12 H :   -0.017039

  Mayer bond orders larger than 0.100000
B(  0-C ,  1-C ) :   1.3388 B(  0-C ,  7-H ) :   0.1135 B(  0-C , 10-H ) :   0.7407
B(  0-C , 11-H ) :   0.7789 B(  0-C , 12-H ) :   0.7205 B(  1-C ,  2-C ) :   1.2082
B(  1-C ,  3-H ) :   0.1513 B(  1-C ,  4-H ) :   0.1598 B(  1-C ,  6-H ) :   0.8843
B(  1-C ,  7-H ) :   0.9143 B(  1-C , 10-H ) :   0.2132 B(  1-C , 11-H ) :   0.2200
B(  1-C , 12-H ) :   0.2345 B(  2-C ,  3-H ) :   0.8071 B(  2-C ,  4-H ) :   0.8455
B(  2-C ,  5-C ) :   1.0470 B(  2-C ,  6-H ) :   0.1067 B(  3-H ,  5-C ) :   0.1138
B(  5-C ,  8-F ) :   0.7212 B(  5-C ,  9-O ) :   1.7886 B(  8-F ,  9-O ) :   0.1218

Dispersion correction           -0.016025538
FINAL SINGLE POINT ENERGY      -331.315156258864

DIPOLE MOMENT
-------------
                                X             Y             Z
Electronic contribution:      4.80174      -3.19574      -8.23330
Nuclear contribution   :     -5.98367       3.22001       8.44002
                        -----------------------------------------
Total Dipole Moment    :     -1.18193       0.02427       0.20672
                        -----------------------------------------
Magnitude (a.u.)       :      1.20012
Magnitude (Debye)      :      3.05046

Rotational constants in cm-1:     0.177409     0.085514     0.078973
Rotational constants in MHz :  5318.577687  2563.657993  2367.557452

                             ****ORCA TERMINATED NORMALLY****
TOTAL RUN TIME: 0 days 0 hours 0 minutes 16 seconds 768 msec
