                         Program Version 5.0.0 -  RELEASE  -
|  1> !B3LYP D3BJ RIJCOSX def2-SVPD def2/J TightSCF
|  2> *xyz 0 1
|  3> C          3.90595        2.81985       -3.75292
|  4> C          5.29562        3.13151       -4.10533
|  5> C          3.80351        1.37472       -3.26081
|  6> C          3.93993        0.32036       -4.36773
|  7> C          5.70862        3.46889       -5.32419
|  8> N          6.90470        3.03895       -5.71708
|  9> N          4.98188        4.29357       -6.09746
| 10> H          5.00055        4.10131       -7.08776
| 11> H          4.08469        4.59690       -5.73965
| 12> H          5.96336        2.52611       -3.64239
| 13> H          7.04716        2.06686       -5.47360
| 14> H          7.19815        3.30799       -6.64523
| 15> H          3.28202        2.94919       -4.64026
| 16> H          3.56525        3.51457       -2.98252
| 17> H          4.57483        1.21516       -2.50044
| 18> H          2.84351        1.26085       -2.75146
| 19> H          3.18417        0.48061       -5.10803
| 20> H          3.82485       -0.65632       -3.94614
| 21> H          4.90589        0.40174       -4.82073
| 22> *
| 23>
| 24> %MaxCore 64000
| 25>
| 26> %pal nprocs 4
| 27> end
| 28>
| 29> %scf
| 30>   MaxIter 150
| 31> end
| 32>
| 33>
| 34>                          ****END OF INPUT****

CARTESIAN COORDINATES (ANGSTROEM)
---------------------------------
  C      3.905950    2.819850   -3.752920
  C      5.295620    3.131510   -4.105330
  C      3.803510    1.374720   -3.260810
  C      3.939930    0.320360   -4.367730
  C      5.708620    3.468890   -5.324190
  N      6.904700    3.038950   -5.717080
  N      4.981880    4.293570   -6.097460
  H      5.000550    4.101310   -7.087760
  H      4.084690    4.596900   -5.739650
  H      5.963360    2.526110   -3.642390
  H      7.047160    2.066860   -5.473600
  H      7.198150    3.307990   -6.645230
  H      3.282020    2.949190   -4.640260
  H      3.565250    3.514570   -2.982520
  H      4.574830    1.215160   -2.500440
  H      2.843510    1.260850   -2.751460
  H      3.184170    0.480610   -5.108030
  H      3.824850   -0.656320   -3.946140
  H      4.905890    0.401740   -4.820730

 Total Charge           Charge          ....    0
 Multiplicity           Mult            ....    1
 Number of Electrons    NEL             ....   56
 Basis Dimension        Dim             ....  236

ORBITAL ENERGIES
----------------

  NO   OCC          E(Eh)            E(eV)
   0   2.0000     -14.335684      -390.0938
   1   2.0000     -14.332600      -390.0099
   2   2.0000     -10.225665      -278.2545
   3   2.0000     -10.166164      -276.6354
   4   2.0000     -10.160644      -276.4852
   5   2.0000     -10.159968      -276.4668
   6   2.0000     -10.110409      -275.1182
   7   2.0000      -0.958290       -26.0764
   8   2.0000      -0.870007       -23.6741
   9   2.0000      -0.783413       -21.3177
  10   2.0000      -0.717688       -19.5293
  11   2.0000      -0.655894       -17.8478
  12   2.0000      -0.591058       -16.0835
  13   2.0000      -0.566980       -15.4283
  14   2.0000      -0.535574       -14.5737
  15   2.0000      -0.512126       -13.9357
  16   2.0000      -0.480068       -13.0633
  17   2.0000      -0.447058       -12.1651
  18   2.0000      -0.437367       -11.9014
  19   2.0000      -0.415391       -11.3034
  20   2.0000      -0.386131       -10.5072
  21   2.0000      -0.372278       -10.1302
  22   2.0000      -0.352515        -9.5924
  23   2.0000      -0.334198        -9.0940
  24   2.0000      -0.321493        -8.7483
  25   2.0000      -0.316055        -8.6003
  26   2.0000      -0.276004        -7.5104
  27   2.0000      -0.172021        -4.6809
  28   0.0000       0.007537         0.2051
  29   0.0000       0.035172         0.9571
  30   0.0000       0.038951         1.0599
  31   0.0000       0.050026         1.3613
  32   0.0000       0.060440         1.6447

MULLIKEN ATOMIC CHARGES
-----------------------
   0 C :    0.519268
   1 C :    0.078880
   2 C :   -0.057236
   3 C :    1.113590
   4 C :    0.168707
   5 N :    0.227451
   6 N :    0.119589
   7 H :   -0.140844
   8 H :   -0.019552
   9 H :   -0.334617
  10 H :   -0.058947
  11 H :   -0.149504
  12 H :   -0.254354
  13 H :   -0.292768
  14 H :   -0.143676
  15 H :   -0.233365
  16 H :   -0.052865
  17 H :   -0.120925
  18 H :   -0.368833
Sum of atomic charges:    0.0000000

LOEWDIN ATOMIC CHARGES
----------------------
   0 C :   -0.061417
   1 C :   -0.010506
   2 C :   -0.070437
   3 C :    0.136831
   4 C :   -0.242627
   5 N :    0.197916
   6 N :    0.205805
   7 H :   -0.015316
   8 H :   -0.008784
   9 H :   -0.058375
  10 H :   -0.004791
  11 H :   -0.014262
  12 H :   -0.000200
  13 H :    0.004942
  14 H :    0.015229
  15 H :    0.009556
  16 H :   -0.022701
  17 H :   -0.025206
  18 H :   -0.035655

  Mayer bond orders larger than 0.100000
B(  0-C ,  1-C ) :   0.9294 B(  0-C ,  2-C ) :   1.1894 B(  0-C ,  9-H ) :   0.2307
B(  0-C , 12-H ) :   0.7218 B(  0-C , 13-H ) :   0.8053 B(  0-C , 14-H ) :   0.1610
B(  0-C , 15-H ) :   0.2090 B(  1-C ,  2-C ) :   0.1063 B(  1-C ,  4-C ) :   1.8226
B(  1-C ,  5-N ) :   0.3144 B(  1-C ,  6-N ) :   0.1753 B(  1-C ,  9-H ) :   0.4337
B(  1-C , 12-H ) :   0.1287 B(  1-C , 13-H ) :   0.1678 B(  2-C ,  3-C ) :   1.2009
B(  2-C , 14-H ) :   0.8784 B(  2-C , 15-H ) :   0.8568 B(  2-C , 16-H ) :   0.2378
B(  2-C , 17-H ) :   0.2295 B(  2-C , 18-H ) :   0.2738 B(  3-C , 16-H ) :   0.6952
B(  3-C , 17-H ) :   0.6770 B(  3-C , 18-H ) :   0.7336 B(  4-C ,  5-N ) :   0.9761
B(  4-C ,  6-N ) :   1.0311 B(  4-C ,  9-H ) :   0.3960 B(  5-N ,  6-N ) :   0.1026
B(  5-N , 10-H ) :   1.0092 B(  5-N , 11-H ) :   0.9336 B(  6-N ,  7-H ) :   1.1002
B(  6-N ,  8-H ) :   0.9773 B( 16-H , 18-H ) :   0.1189

Dispersion correction           -0.026964593
FINAL SINGLE POINT ENERGY      -306.843328255872

DIPOLE MOMENT
-------------
                                X             Y             Z
Electronic contribution:      3.42048       4.94134      -2.10626
Nuclear contribution   :     -3.52450      -5.28471       1.03374
                        -----------------------------------------
Total Dipole Moment    :     -0.10403      -0.34338      -1.07251
                        -----------------------------------------
Magnitude (a.u.)       :      1.13094
Magnitude (Debye)      :      2.87461

Rotational constants in cm-1:     0.147126     0.050704     0.045476
Rotational constants in MHz :  4410.719889  1520.080198  1363.327077

                             ****ORCA TERMINATED NORMALLY****
TOTAL RUN TIME: 0 days 0 hours 0 minutes 32 seconds 374 msec
