                         Program Version 5.0.0 -  RELEASE  -
|  1> !B3LYP D3BJ RIJCOSX def2-SVPD def2/J TightSCF
|  2> *xyz 0 1
|  3> C          3.90595        2.81985       -3.75292
|  4> C          3.80351        1.37472       -3.26081
|  5> C          3.93993        0.32036       -4.36773
|  6> H          4.10504       -0.65508       -3.90773
|  7> H          3.02280        0.28052       -4.95712
|  8> C          5.10585        0.66802       -5.30546
|  9> H          4.57483        1.21516       -2.50044
| 10> H          2.84351        1.26085       -2.75146
| 11> O          4.80913        1.15019       -6.41436
| 12> F          6.26737        0.56500       -4.81948
| 13> H          3.15892        2.99660       -4.49832
| 14> H          4.87575        2.98549       -4.17357
| 15> H          3.75481        3.48808       -2.93101
| 16> *
| 17>
| 18> %MaxCore 64000
| 19>
| 20> %pal nprocs 4
| 21> end
| 22>
| 23> %scf
| 24>   MaxIter 150
| 25> end
| 26>
| 27>
| 28>                          ****END OF INPUT****

CARTESIAN COORDINATES (ANGSTROEM)
---------------------------------
  C      3.905950    2.819850   -3.752920
  C      3.803510    1.374720   -3.260810
  C      3.939930    0.320360   -4.367730
  H      4.105040   -0.655080   -3.907730
  H      3.022800    0.280520   -4.957120
  C      5.105850    0.668020   -5.305460
  H      4.574830    1.215160   -2.500440
  H      2.843510    1.260850   -2.751460
  O      4.809130    1.150190   -6.414360
  F      6.267370    0.565000   -4.819480
  H      3.158920    2.996600   -4.498320
  H      4.875750    2.985490   -4.173570
  H      3.754810    3.488080   -2.931010

 Total Charge           Charge          ....    0
 Multiplicity           Mult            ....    1
 Number of Electrons    NEL             ....   48
 Basis Dimension        Dim             ....  182

ORBITAL ENERGIES
----------------

  NO   OCC          E(Eh)            E(eV)
   0   2.0000     -24.768295      -673.9796
   1   2.0000     -19.151795      -521.1468
   2   2.0000     -10.365721      -282.0656
   3   2.0000     -10.213152      -277.9140
   4   2.0000     -10.202524      -277.6248
   5   2.0000     -10.177388      -276.9408
   6   2.0000      -1.302822       -35.4516
   7   2.0000      -1.033587       -28.1253
   8   2.0000      -0.809967       -22.0403
   9   2.0000      -0.722314       -19.6552
  10   2.0000      -0.660232       -17.9658
  11   2.0000      -0.610756       -16.6195
  12   2.0000      -0.552084       -15.0230
  13   2.0000      -0.538038       -14.6408
  14   2.0000      -0.498454       -13.5636
  15   2.0000      -0.474140       -12.9020
  16   2.0000      -0.458172       -12.4675
  17   2.0000      -0.421154       -11.4602
  18   2.0000      -0.403354       -10.9758
  19   2.0000      -0.376531       -10.2459
  20   2.0000      -0.367521       -10.0008
  21   2.0000      -0.355649        -9.6777
  22   2.0000      -0.349938        -9.5223
  23   2.0000      -0.294722        -8.0198
  24   0.0000      -0.035034        -0.9533
  25   0.0000       0.011120         0.3026
  26   0.0000       0.042819         1.1652
  27   0.0000       0.048847         1.3292
  28   0.0000       0.054524         1.4837

MULLIKEN ATOMIC CHARGES
-----------------------
   0 C :    0.905741
   1 C :   -0.238094
   2 C :    0.357337
   3 H :   -0.098074
   4 H :   -0.067905
   5 C :    0.738330
   6 H :   -0.111146
   7 H :   -0.228033
   8 O :   -0.453858
   9 F :   -0.407170
  10 H :   -0.102807
  11 H :   -0.092304
  12 H :   -0.202017
Sum of atomic charges:    0.0000000

LOEWDIN ATOMIC CHARGES
----------------------
   0 C :    0.137721
   1 C :   -0.057905
   2 C :    0.054332
   3 H :    0.024543
   4 H :    0.032024
   5 C :   -0.023760
   6 H :    0.021202
   7 H :    0.019776
   8 O :   -0.125200
   9 F :   -0.033690
  10 H :   -0.009405
  11 H :   -0.021414
  12 H :   -0.018223

  Mayer bond orders larger than 0.100000
B(  0-C ,  1-C ) :   1.3399 B(  0-C ,  7-H ) :   0.1115 B(  0-C , 10-H ) :   0.7413
B(  0-C , 11-H ) :   0.7767 B(  0-C , 12-H ) :   0.7054 B(  1-C ,  2-C ) :   1.1881
B(  1-C ,  3-H ) :   0.1555 B(  1-C ,  4-H ) :   0.1556 B(  1-C ,  6-H ) :   0.8852
B(  1-C ,  7-H ) :   0.9130 B(  1-C , 10-H ) :   0.2204 B(  1-C , 11-H ) :   0.2197
B(  1-C , 12-H ) :   0.2428 B(  2-C ,  3-H ) :   0.8125 B(  2-C ,  4-H ) :   0.8557
B(  2-C ,  5-C ) :   1.0166 B(  2-C ,  6-H ) :   0.1028 B(  4-H ,  5-C ) :   0.1416
B(  5-C ,  8-O ) :   1.8234 B(  5-C ,  9-F ) :   0.6746 B(  8-O ,  9-F ) :   0.1274

Dispersion correction           -0.016017237
FINAL SINGLE POINT ENERGY      -331.320343849278

DIPOLE MOMENT
-------------
                                X             Y             Z
Electronic contribution:      7.25585      -4.18471      -5.54083
Nuclear contribution   :     -7.63086       3.88103       6.63849
                        -----------------------------------------
Total Dipole Moment    :     -0.37501      -0.30368       1.09766
                        -----------------------------------------
Magnitude (a.u.)       :      1.19905
Magnitude (Debye)      :      3.04774

Rotational constants in cm-1:     0.177064     0.085023     0.079676
Rotational constants in MHz :  5308.232158  2548.918275  2388.614336

                             ****ORCA TERMINATED NORMALLY****
TOTAL RUN TIME: 0 days 0 hours 0 minutes 17 seconds 407 msec
