                         Program Version 5.0.0 -  RELEASE  -
|  1> !B3LYP D3BJ RIJCOSX def2-SVPD def2/J TightSCF
|  2> *xyz 0 1
|  3> C          3.90595        2.81985       -3.75292
|  4> N          5.29562        3.13151       -4.10533
|  5> C          3.80351        1.37472       -3.26081
|  6> C          3.93993        0.32036       -4.36773
|  7> C          5.70862        3.46889       -5.32419
|  8> C          6.90470        3.03895       -5.71708
|  9> N          4.98188        4.29357       -6.09746
| 10> H          5.00055        4.10131       -7.08776
| 11> H          4.08469        4.59690       -5.73965
| 12> H          5.96336        2.52611       -3.64239
| 13> H          7.04716        2.06686       -5.47360
| 14> H          7.19815        3.30799       -6.64523
| 15> H          3.28202        2.94919       -4.64026
| 16> H          3.56525        3.51457       -2.98252
| 17> H          4.57483        1.21516       -2.50044
| 18> H          2.84351        1.26085       -2.75146
| 19> H          3.18417        0.48061       -5.10803
| 20> H          3.82485       -0.65632       -3.94614
| 21> H          4.90589        0.40174       -4.82073
| 22> *
| 23>
| 24> %MaxCore 64000
| 25>
| 26> %pal nprocs 4
| 27> end
| 28>
| 29> %scf
| 30>   MaxIter 150
| 31> end
| 32>
| 33>
| 34>                          ****END OF INPUT****

CARTESIAN COORDINATES (ANGSTROEM)
---------------------------------
  C      3.905950    2.819850   -3.752920
  N      5.295620    3.131510   -4.105330
  C      3.803510    1.374720   -3.260810
  C      3.939930    0.320360   -4.367730
  C      5.708620    3.468890   -5.324190
  C      6.904700    3.038950   -5.717080
  N      4.981880    4.293570   -6.097460
  H      5.000550    4.101310   -7.087760
  H      4.084690    4.596900   -5.739650
  H      5.963360    2.526110   -3.642390
  H      7.047160    2.066860   -5.473600
  H      7.198150    3.307990   -6.645230
  H      3.282020    2.949190   -4.640260
  H      3.565250    3.514570   -2.982520
  H      4.574830    1.215160   -2.500440
  H      2.843510    1.260850   -2.751460
  H      3.184170    0.480610   -5.108030
  H      3.824850   -0.656320   -3.946140
  H      4.905890    0.401740   -4.820730

 Total Charge           Charge          ....    0
 Multiplicity           Mult            ....    1
 Number of Electrons    NEL             ....   56
 Basis Dimension        Dim             ....  236

ORBITAL ENERGIES
----------------

  NO   OCC          E(Eh)            E(eV)
   0   2.0000     -14.334681      -390.0665
   1   2.0000     -14.331366      -389.9763
   2   2.0000     -10.229940      -278.3708
   3   2.0000     -10.221002      -278.1276
   4   2.0000     -10.192934      -277.3638
   5   2.0000     -10.176415      -276.9143
   6   2.0000     -10.096913      -274.7510
   7   2.0000      -0.962574       -26.1930
   8   2.0000      -0.881201       -23.9787
   9   2.0000      -0.785304       -21.3692
  10   2.0000      -0.722602       -19.6630
  11   2.0000      -0.669176       -18.2092
  12   2.0000      -0.601360       -16.3638
  13   2.0000      -0.592858       -16.1325
  14   2.0000      -0.535300       -14.5662
  15   2.0000      -0.498382       -13.5617
  16   2.0000      -0.476455       -12.9650
  17   2.0000      -0.465305       -12.6616
  18   2.0000      -0.446207       -12.1419
  19   2.0000      -0.409431       -11.1412
  20   2.0000      -0.398167       -10.8347
  21   2.0000      -0.389834       -10.6079
  22   2.0000      -0.367378        -9.9969
  23   2.0000      -0.355824        -9.6825
  24   2.0000      -0.353967        -9.6319
  25   2.0000      -0.336355        -9.1527
  26   2.0000      -0.262013        -7.1297
  27   2.0000      -0.174916        -4.7597
  28   0.0000       0.010341         0.2814
  29   0.0000       0.028634         0.7792
  30   0.0000       0.038345         1.0434
  31   0.0000       0.044848         1.2204
  32   0.0000       0.052811         1.4370

MULLIKEN ATOMIC CHARGES
-----------------------
   0 C :    0.893651
   1 N :   -0.301782
   2 C :   -0.148199
   3 C :    1.097963
   4 C :    0.175114
   5 C :    0.691643
   6 N :    0.174117
   7 H :   -0.077526
   8 H :   -0.108334
   9 H :   -0.086107
  10 H :   -0.409591
  11 H :   -0.431333
  12 H :   -0.121164
  13 H :   -0.447213
  14 H :   -0.136522
  15 H :   -0.230601
  16 H :   -0.037011
  17 H :   -0.133152
  18 H :   -0.363951
Sum of atomic charges:   -0.0000000

LOEWDIN ATOMIC CHARGES
----------------------
   0 C :    0.046776
   1 N :    0.004465
   2 C :   -0.059738
   3 C :    0.142904
   4 C :   -0.247983
   5 C :    0.153067
   6 N :    0.209258
   7 H :    0.001764
   8 H :   -0.022288
   9 H :    0.015044
  10 H :   -0.112933
  11 H :   -0.108528
  12 H :    0.008541
  13 H :    0.009462
  14 H :    0.015599
  15 H :    0.014444
  16 H :   -0.020074
  17 H :   -0.021211
  18 H :   -0.028570

  Mayer bond orders larger than 0.100000
B(  0-C ,  1-N ) :   0.9033 B(  0-C ,  2-C ) :   1.1419 B(  0-C , 12-H ) :   0.7175
B(  0-C , 13-H ) :   0.8380 B(  0-C , 15-H ) :   0.1724 B(  1-N ,  2-C ) :   0.1099
B(  1-N ,  4-C ) :   1.1739 B(  1-N ,  5-C ) :   0.2223 B(  1-N ,  9-H ) :   1.0438
B(  1-N , 12-H ) :   0.1409 B(  1-N , 13-H ) :   0.1256 B(  2-C ,  3-C ) :   1.2209
B(  2-C , 14-H ) :   0.8785 B(  2-C , 15-H ) :   0.9168 B(  2-C , 16-H ) :   0.2358
B(  2-C , 17-H ) :   0.2460 B(  2-C , 18-H ) :   0.2693 B(  3-C , 16-H ) :   0.6720
B(  3-C , 17-H ) :   0.6788 B(  3-C , 18-H ) :   0.7301 B(  4-C ,  5-C ) :   1.7620
B(  4-C ,  6-N ) :   0.9741 B(  4-C ,  9-H ) :  -0.1430 B(  4-C , 10-H ) :   0.2353
B(  4-C , 11-H ) :   0.3885 B(  5-C ,  6-N ) :   0.2478 B(  5-C , 10-H ) :   0.7781
B(  5-C , 11-H ) :   0.4154 B(  6-N ,  7-H ) :   1.0950 B(  6-N ,  8-H ) :   0.9076
B(  6-N , 11-H ) :   0.1182 B(  7-H ,  8-H ) :  -0.1225 B( 10-H , 11-H ) :   0.1446
B( 12-H , 13-H ) :  -0.1340 B( 16-H , 18-H ) :   0.1612

Dispersion correction           -0.026670787
FINAL SINGLE POINT ENERGY      -306.832411575955

DIPOLE MOMENT
-------------
                                X             Y             Z
Electronic contribution:      1.78055       4.88163      -0.58956
Nuclear contribution   :     -3.17203      -5.30499       0.68068
                        -----------------------------------------
Total Dipole Moment    :     -1.39148      -0.42336       0.09112
                        -----------------------------------------
Magnitude (a.u.)       :      1.45731
Magnitude (Debye)      :      3.70419

Rotational constants in cm-1:     0.149640     0.051631     0.046708
Rotational constants in MHz :  4486.107270  1547.846261  1400.277765

                             ****ORCA TERMINATED NORMALLY****
TOTAL RUN TIME: 0 days 0 hours 0 minutes 35 seconds 274 msec
