                         Program Version 5.0.0 -  RELEASE  -
|  1> !B3LYP D3BJ RIJCOSX def2-SVPD def2/J TightSCF
|  2> *xyz 0 1
|  3> C          3.90595        2.81985       -3.75292
|  4> N          5.29562        3.13151       -4.10533
|  5> C          3.80351        1.37472       -3.26081
|  6> C          3.93993        0.32036       -4.36773
|  7> C          5.70862        3.46889       -5.32419
|  8> N          6.90470        3.03895       -5.71708
|  9> C          4.98188        4.29357       -6.09746
| 10> H          5.00055        4.10131       -7.08776
| 11> H          4.08469        4.59690       -5.73965
| 12> H          5.96336        2.52611       -3.64239
| 13> H          7.04716        2.06686       -5.47360
| 14> H          7.19815        3.30799       -6.64523
| 15> H          3.28202        2.94919       -4.64026
| 16> H          3.56525        3.51457       -2.98252
| 17> H          4.57483        1.21516       -2.50044
| 18> H          2.84351        1.26085       -2.75146
| 19> H          3.18417        0.48061       -5.10803
| 20> H          3.82485       -0.65632       -3.94614
| 21> H          4.90589        0.40174       -4.82073
| 22> *
| 23>
| 24> %MaxCore 64000
| 25>
| 26> %pal nprocs 4
| 27> end
| 28>
| 29> %scf
| 30>   MaxIter 150
| 31> end
| 32>
| 33>
| 34>                          ****END OF INPUT****

CARTESIAN COORDINATES (ANGSTROEM)
---------------------------------
  C      3.905950    2.819850   -3.752920
  N      5.295620    3.131510   -4.105330
  C      3.803510    1.374720   -3.260810
  C      3.939930    0.320360   -4.367730
  C      5.708620    3.468890   -5.324190
  N      6.904700    3.038950   -5.717080
  C      4.981880    4.293570   -6.097460
  H      5.000550    4.101310   -7.087760
  H      4.084690    4.596900   -5.739650
  H      5.963360    2.526110   -3.642390
  H      7.047160    2.066860   -5.473600
  H      7.198150    3.307990   -6.645230
  H      3.282020    2.949190   -4.640260
  H      3.565250    3.514570   -2.982520
  H      4.574830    1.215160   -2.500440
  H      2.843510    1.260850   -2.751460
  H      3.184170    0.480610   -5.108030
  H      3.824850   -0.656320   -3.946140
  H      4.905890    0.401740   -4.820730

 Total Charge           Charge          ....    0
 Multiplicity           Mult            ....    1
 Number of Electrons    NEL             ....   56
 Basis Dimension        Dim             ....  236

ORBITAL ENERGIES
----------------

  NO   OCC          E(Eh)            E(eV)
   0   2.0000     -14.333619      -390.0376
   1   2.0000     -14.333572      -390.0363
   2   2.0000     -10.229029      -278.3460
   3   2.0000     -10.215566      -277.9797
   4   2.0000     -10.191344      -277.3206
   5   2.0000     -10.178129      -276.9610
   6   2.0000     -10.102389      -274.9000
   7   2.0000      -0.967584       -26.3293
   8   2.0000      -0.883125       -24.0310
   9   2.0000      -0.780434       -21.2367
  10   2.0000      -0.709150       -19.2969
  11   2.0000      -0.687389       -18.7048
  12   2.0000      -0.606384       -16.5005
  13   2.0000      -0.566173       -15.4063
  14   2.0000      -0.535857       -14.5814
  15   2.0000      -0.517406       -14.0793
  16   2.0000      -0.472520       -12.8579
  17   2.0000      -0.467460       -12.7202
  18   2.0000      -0.434765       -11.8306
  19   2.0000      -0.416589       -11.3360
  20   2.0000      -0.397365       -10.8129
  21   2.0000      -0.385701       -10.4955
  22   2.0000      -0.369337       -10.0502
  23   2.0000      -0.356818        -9.7095
  24   2.0000      -0.351364        -9.5611
  25   2.0000      -0.337329        -9.1792
  26   2.0000      -0.259945        -7.0735
  27   2.0000      -0.178207        -4.8493
  28   0.0000       0.006476         0.1762
  29   0.0000       0.031584         0.8594
  30   0.0000       0.040749         1.1088
  31   0.0000       0.045573         1.2401
  32   0.0000       0.053910         1.4670

MULLIKEN ATOMIC CHARGES
-----------------------
   0 C :    0.887468
   1 N :   -0.203707
   2 C :   -0.096341
   3 C :    1.082990
   4 C :    0.094486
   5 N :    0.138387
   6 C :    0.603916
   7 H :   -0.487146
   8 H :   -0.197352
   9 H :   -0.221277
  10 H :   -0.118117
  11 H :   -0.019285
  12 H :   -0.060155
  13 H :   -0.497488
  14 H :   -0.159383
  15 H :   -0.213540
  16 H :   -0.046094
  17 H :   -0.127854
  18 H :   -0.359508
Sum of atomic charges:    0.0000000

LOEWDIN ATOMIC CHARGES
----------------------
   0 C :    0.058302
   1 N :    0.005446
   2 C :   -0.060394
   3 C :    0.140070
   4 C :   -0.259779
   5 N :    0.198317
   6 C :    0.170086
   7 H :   -0.108568
   8 H :   -0.112958
   9 H :    0.004843
  10 H :   -0.018739
  11 H :    0.001034
  12 H :    0.014233
  13 H :    0.014381
  14 H :    0.012172
  15 H :    0.015842
  16 H :   -0.017866
  17 H :   -0.021696
  18 H :   -0.034726

  Mayer bond orders larger than 0.100000
B(  0-C ,  1-N ) :   0.9530 B(  0-C ,  2-C ) :   1.1293 B(  0-C , 12-H ) :   0.7453
B(  0-C , 13-H ) :   0.8524 B(  0-C , 15-H ) :   0.1837 B(  1-N ,  2-C ) :   0.1159
B(  1-N ,  4-C ) :   1.1809 B(  1-N ,  5-N ) :   0.1585 B(  1-N ,  6-C ) :   0.2135
B(  1-N ,  9-H ) :   0.9848 B(  1-N , 12-H ) :   0.1400 B(  1-N , 13-H ) :   0.1106
B(  2-C ,  3-C ) :   1.2185 B(  2-C , 14-H ) :   0.8816 B(  2-C , 15-H ) :   0.9012
B(  2-C , 16-H ) :   0.2366 B(  2-C , 17-H ) :   0.2437 B(  2-C , 18-H ) :   0.2629
B(  3-C , 16-H ) :   0.6953 B(  3-C , 17-H ) :   0.6813 B(  3-C , 18-H ) :   0.7391
B(  4-C ,  5-N ) :   1.0452 B(  4-C ,  6-C ) :   1.8416 B(  4-C ,  7-H ) :   0.2223
B(  4-C ,  8-H ) :   0.3382 B(  5-N ,  6-C ) :   0.1518 B(  5-N , 10-H ) :   0.9420
B(  5-N , 11-H ) :   0.9880 B(  6-C ,  7-H ) :   0.7554 B(  6-C ,  8-H ) :   0.4531
B(  7-H ,  8-H ) :   0.2871 B( 12-H , 13-H ) :  -0.1182 B( 16-H , 18-H ) :   0.1285

Dispersion correction           -0.026717120
FINAL SINGLE POINT ENERGY      -306.836780919737

DIPOLE MOMENT
-------------
                                X             Y             Z
Electronic contribution:      3.61094       3.72172      -0.29089
Nuclear contribution   :     -3.59323      -5.03016       0.59736
                        -----------------------------------------
Total Dipole Moment    :      0.01771      -1.30844       0.30647
                        -----------------------------------------
Magnitude (a.u.)       :      1.34397
Magnitude (Debye)      :      3.41609

Rotational constants in cm-1:     0.148888     0.051791     0.046487
Rotational constants in MHz :  4463.542717  1552.665696  1393.643356

                             ****ORCA TERMINATED NORMALLY****
TOTAL RUN TIME: 0 days 0 hours 0 minutes 33 seconds 231 msec
