                         Program Version 5.0.0 -  RELEASE  -
|  1> !B3LYP D3BJ RIJCOSX def2-SVPD def2/J TightSCF xyzfile
|  2>
|  3> *xyzfile 0 1 D1.xyz
|  4>
|  5> %MaxCore 64000
|  6>
|  7> %pal nprocs 4
|  8> end
|  9>
| 10> %scf
| 11>   MaxIter 150
| 12> end
| 13>
| 14>
| 15>                          ****END OF INPUT****

CARTESIAN COORDINATES (ANGSTROEM)
---------------------------------
  C      3.905947    2.819855   -3.752920
  C      5.295615    3.131515   -4.105334
  C      3.803511    1.374716   -3.260807
  C      3.939934    0.320362   -4.367729
  H      4.105043   -0.655085   -3.907733
  H      3.022801    0.280517   -4.957117
  C      5.105846    0.668022   -5.305463
  C      5.708619    3.468885   -5.324190
  N      6.904696    3.038954   -5.717084
  N      4.981884    4.293570   -6.097457
  H      5.000546    4.101311   -7.087761
  H      4.084693    4.596899   -5.739652
  H      5.963358    2.526112   -3.642391
  H      7.047164    2.066861   -5.473604
  H      7.198145    3.307994   -6.645225
  H      3.282025    2.949187   -4.640259
  H      3.565254    3.514574   -2.982523
  H      4.574833    1.215157   -2.500443
  H      2.843514    1.260845   -2.751465
  F      4.809132    1.150187   -6.414361
  O      6.267366    0.564999   -4.819481

 Total Charge           Charge          ....    0
 Multiplicity           Mult            ....    1
 Number of Electrons    NEL             ....   78
 Basis Dimension        Dim             ....  294

ORBITAL ENERGIES
----------------

  NO   OCC          E(Eh)            E(eV)
   0   2.0000     -24.778959      -674.2698
   1   2.0000     -19.150892      -521.1223
   2   2.0000     -14.335354      -390.0848
   3   2.0000     -14.313719      -389.4961
   4   2.0000     -10.372934      -282.2619
   5   2.0000     -10.225267      -278.2437
   6   2.0000     -10.212141      -277.8865
   7   2.0000     -10.190776      -277.3051
   8   2.0000     -10.173372      -276.8315
   9   2.0000     -10.111703      -275.1534
  10   2.0000      -1.321226       -35.9524
  11   2.0000      -1.031882       -28.0789
  12   2.0000      -0.952994       -25.9323
  13   2.0000      -0.863387       -23.4939
  14   2.0000      -0.811963       -22.0946
  15   2.0000      -0.746992       -20.3267
  16   2.0000      -0.692398       -18.8411
  17   2.0000      -0.660758       -17.9801
  18   2.0000      -0.607481       -16.5304
  19   2.0000      -0.579632       -15.7726
  20   2.0000      -0.562894       -15.3171
  21   2.0000      -0.544557       -14.8182
  22   2.0000      -0.535123       -14.5614
  23   2.0000      -0.519911       -14.1475
  24   2.0000      -0.502460       -13.6726
  25   2.0000      -0.469939       -12.7877
  26   2.0000      -0.461726       -12.5642
  27   2.0000      -0.443642       -12.0721
  28   2.0000      -0.432766       -11.7762
  29   2.0000      -0.402510       -10.9529
  30   2.0000      -0.388652       -10.5758
  31   2.0000      -0.370794       -10.0898
  32   2.0000      -0.365546        -9.9470
  33   2.0000      -0.350537        -9.5386
  34   2.0000      -0.338134        -9.2011
  35   2.0000      -0.325205        -8.8493
  36   2.0000      -0.302582        -8.2337
  37   2.0000      -0.266846        -7.2612
  38   2.0000      -0.173703        -4.7267
  39   0.0000      -0.042993        -1.1699
  40   0.0000       0.008807         0.2397
  41   0.0000       0.028898         0.7864
  42   0.0000       0.038691         1.0528
  43   0.0000       0.046422         1.2632

MULLIKEN ATOMIC CHARGES
-----------------------
   0 C :    0.541542
   1 C :    0.102746
   2 C :    0.361968
   3 C :    0.454366
   4 H :   -0.162731
   5 H :   -0.088668
   6 C :    0.801225
   7 C :    0.093310
   8 N :    0.356256
   9 N :    0.106192
  10 H :   -0.096332
  11 H :   -0.036298
  12 H :   -0.345988
  13 H :   -0.140352
  14 H :   -0.086694
  15 H :   -0.230112
  16 H :   -0.323088
  17 H :   -0.019262
  18 H :   -0.272841
  19 F :   -0.404606
  20 O :   -0.610634
Sum of atomic charges:   -0.0000000

LOEWDIN ATOMIC CHARGES
----------------------
   0 C :   -0.042341
   1 C :   -0.005791
   2 C :   -0.008267
   3 C :    0.071879
   4 H :    0.034116
   5 H :    0.021537
   6 C :    0.007785
   7 C :   -0.248027
   8 N :    0.226623
   9 N :    0.213306
  10 H :   -0.013700
  11 H :   -0.009057
  12 H :   -0.055468
  13 H :   -0.075623
  14 H :   -0.005883
  15 H :    0.003856
  16 H :    0.008258
  17 H :    0.030640
  18 H :    0.017922
  19 F :   -0.020943
  20 O :   -0.150820

  Mayer bond orders larger than 0.100000
B(  0-C ,  1-C ) :   0.9937 B(  0-C ,  2-C ) :   1.2055 B(  0-C , 12-H ) :   0.2408
B(  0-C , 15-H ) :   0.7102 B(  0-C , 16-H ) :   0.7432 B(  0-C , 18-H ) :   0.2365
B(  1-C ,  2-C ) :   0.1620 B(  1-C ,  7-C ) :   1.7198 B(  1-C ,  8-N ) :   0.3421
B(  1-C ,  9-N ) :   0.1750 B(  1-C , 12-H ) :   0.3410 B(  1-C , 15-H ) :   0.1304
B(  1-C , 16-H ) :   0.1859 B(  2-C ,  3-C ) :   1.1845 B(  2-C ,  4-H ) :   0.1979
B(  2-C ,  5-H ) :   0.1388 B(  2-C , 17-H ) :   0.7852 B(  2-C , 18-H ) :   0.7970
B(  3-C ,  4-H ) :   0.7519 B(  3-C ,  5-H ) :   0.8321 B(  3-C ,  6-C ) :   1.0867
B(  3-C , 17-H ) :   0.1047 B(  4-H ,  6-C ) :   0.1334 B(  5-H ,  6-C ) :   0.1359
B(  6-C , 19-F ) :   0.6511 B(  6-C , 20-O ) :   1.6179 B(  7-C ,  8-N ) :   0.9104
B(  7-C ,  9-N ) :   1.0013 B(  7-C , 12-H ) :   0.3495 B(  7-C , 14-H ) :   0.1914
B(  8-N ,  9-N ) :   0.1430 B(  8-N , 13-H ) :   0.9061 B(  8-N , 14-H ) :   0.8179
B(  9-N , 10-H ) :   1.0603 B(  9-N , 11-H ) :   0.9798 B( 10-H , 11-H ) :  -0.1070
B( 12-H , 15-H ) :   0.1017 B( 13-H , 20-O ) :   0.1248 B( 15-H , 16-H ) :  -0.1325
B( 17-H , 18-H ) :  -0.1133

Dispersion correction           -0.037840045
FINAL SINGLE POINT ENERGY      -519.181494466922

DIPOLE MOMENT
-------------
                                X             Y             Z
Electronic contribution:      3.40885      -3.60146      -6.43838
Nuclear contribution   :     -4.60158       3.22721       5.56005
                        -----------------------------------------
Total Dipole Moment    :     -1.19273      -0.37425      -0.87833
                        -----------------------------------------
Magnitude (a.u.)       :      1.52779
Magnitude (Debye)      :      3.88333

Rotational constants in cm-1:     0.061224     0.042534     0.033552
Rotational constants in MHz :  1835.464095  1275.135177  1005.856966

                             ****ORCA TERMINATED NORMALLY****
TOTAL RUN TIME: 0 days 0 hours 1 minutes 10 seconds 560 msec
