                         Program Version 5.0.0 -  RELEASE  -
|  1> !TPSS D3BJ RIJCOSX def2-TZVPD def2/J TightSCF
|  2> *xyz -1 1
|  3> C          0.96805        1.63064       -3.71575
|  4> C         -0.50835        1.72268       -4.12430
|  5> S         -1.32861        0.14674       -4.43578
|  6> H         -0.59151        2.29496       -5.04722
|  7> H         -1.11411        2.23561       -3.37436
|  8> O         -2.57135        0.47573       -5.06834
|  9> O         -1.51496       -0.40051       -3.06342
| 10> O         -0.37793       -0.62756       -5.20114
| 11> H          1.51840        1.12197       -4.47946
| 12> H          1.05062        1.08971       -2.79625
| 13> H          1.36450        2.61606       -3.58668
| 14> *
| 15> %MaxCore 64000
| 16>
| 17> %pal nprocs 4
| 18> end
| 19>
| 20> %scf
| 21>   MaxIter 150
| 22> end
| 23>
| 24>
| 25>                          ****END OF INPUT****

CARTESIAN COORDINATES (ANGSTROEM)
---------------------------------
  C      0.968050    1.630640   -3.715750
  C     -0.508350    1.722680   -4.124300
  S     -1.328610    0.146740   -4.435780
  H     -0.591510    2.294960   -5.047220
  H     -1.114110    2.235610   -3.374360
  O     -2.571350    0.475730   -5.068340
  O     -1.514960   -0.400510   -3.063420
  O     -0.377930   -0.627560   -5.201140
  H      1.518400    1.121970   -4.479460
  H      1.050620    1.089710   -2.796250
  H      1.364500    2.616060   -3.586680

 Total Charge           Charge          ....   -1
 Multiplicity           Mult            ....    1
 Number of Electrons    NEL             ....   58
 Basis Dimension        Dim             ....  285

ORBITAL ENERGIES
----------------

  NO   OCC          E(Eh)            E(eV)
   0   2.0000     -88.325228     -2403.4517
   1   2.0000     -18.666548      -507.9426
   2   2.0000     -18.663249      -507.8528
   3   2.0000     -18.648468      -507.4506
   4   2.0000      -9.840271      -267.7674
   5   2.0000      -9.837707      -267.6976
   6   2.0000      -7.674229      -208.8264
   7   2.0000      -5.653742      -153.8461
   8   2.0000      -5.652910      -153.8235
   9   2.0000      -5.652691      -153.8175
  10   2.0000      -0.849552       -23.1175
  11   2.0000      -0.730331       -19.8733
  12   2.0000      -0.701223       -19.0813
  13   2.0000      -0.569450       -15.4955
  14   2.0000      -0.451371       -12.2824
  15   2.0000      -0.328766        -8.9462
  16   2.0000      -0.270875        -7.3709
  17   2.0000      -0.265723        -7.2307
  18   2.0000      -0.227315        -6.1856
  19   2.0000      -0.213446        -5.8082
  20   2.0000      -0.209217        -5.6931
  21   2.0000      -0.185040        -5.0352
  22   2.0000      -0.173727        -4.7273
  23   2.0000      -0.107041        -2.9127
  24   2.0000      -0.105731        -2.8771
  25   2.0000      -0.076491        -2.0814
  26   2.0000      -0.068645        -1.8679
  27   2.0000      -0.054581        -1.4852
  28   2.0000      -0.021947        -0.5972
  29   0.0000       0.116141         3.1603
  30   0.0000       0.138220         3.7612
  31   0.0000       0.143983         3.9180
  32   0.0000       0.151458         4.1214
  33   0.0000       0.169291         4.6066

MULLIKEN ATOMIC CHARGES
-----------------------
   0 C :   -0.958899
   1 C :   -0.328358
   2 S :    1.332685
   3 H :    0.227754
   4 H :    0.208776
   5 O :   -0.721694
   6 O :   -0.793087
   7 O :   -0.750192
   8 H :    0.277090
   9 H :    0.274186
  10 H :    0.231738
Sum of atomic charges:   -1.0000000

LOEWDIN ATOMIC CHARGES
----------------------
   0 C :   -0.140945
   1 C :   -0.324959
   2 S :    0.320395
   3 H :    0.071580
   4 H :    0.076876
   5 O :   -0.369259
   6 O :   -0.412045
   7 O :   -0.373139
   8 H :    0.051948
   9 H :    0.056814
  10 H :    0.042734

  Mayer bond orders larger than 0.100000
B(  0-C ,  1-C ) :   0.9552 B(  0-C ,  8-H ) :   0.9423 B(  0-C ,  9-H ) :   0.9475
B(  0-C , 10-H ) :   0.9430 B(  1-C ,  2-S ) :   0.8529 B(  1-C ,  3-H ) :   0.9310
B(  1-C ,  4-H ) :   0.9397 B(  1-C ,  5-O ) :   0.1652 B(  1-C ,  6-O ) :   0.1418
B(  1-C ,  7-O ) :   0.1294 B(  2-S ,  5-O ) :   1.4269 B(  2-S ,  6-O ) :   1.3683
B(  2-S ,  7-O ) :   1.4111

Dispersion correction           -0.012099658
FINAL SINGLE POINT ENERGY      -703.378683561888

DIPOLE MOMENT
-------------
                                X             Y             Z
Electronic contribution:     -5.63980      -5.37746      -1.94462
Nuclear contribution   :      6.64523       6.80157       2.07300
                        -----------------------------------------
Total Dipole Moment    :      1.00543       1.42411       0.12838
                        -----------------------------------------
Magnitude (a.u.)       :      1.74799
Magnitude (Debye)      :      4.44303

Rotational constants in cm-1:     0.163070     0.082807     0.081541
Rotational constants in MHz :  4888.719902  2482.497026  2444.541148

                             ****ORCA TERMINATED NORMALLY****
TOTAL RUN TIME: 0 days 0 hours 0 minutes 26 seconds 512 msec
