                         Program Version 5.0.0 -  RELEASE  -
|  1> !TPSS D3BJ RIJCOSX def2-TZVPD def2/J TightSCF
|  2> *xyz 1 1
|  3> C          1.36401        0.46874       -2.81376
|  4> N          0.42884        0.32140       -1.65531
|  5> C          0.96805        1.63064       -3.71575
|  6> H          0.74858       -0.40054       -1.00134
|  7> H         -0.46105        0.02333       -2.07773
|  8> H          0.31026        1.20137       -1.13495
|  9> H          1.29485       -0.46874       -3.36468
| 10> H          2.37622        0.59740       -2.43149
| 11> H          1.65923        1.70213       -4.52942
| 12> H          0.98421        2.54058       -3.15304
| 13> H         -0.01744        1.46536       -4.09838
| 14> *
| 15> %MaxCore 64000
| 16>
| 17> %pal nprocs 4
| 18> end
| 19>
| 20> %scf
| 21>   MaxIter 150
| 22> end
| 23>
| 24>
| 25>                          ****END OF INPUT****

CARTESIAN COORDINATES (ANGSTROEM)
---------------------------------
  C      1.364010    0.468740   -2.813760
  N      0.428840    0.321400   -1.655310
  C      0.968050    1.630640   -3.715750
  H      0.748580   -0.400540   -1.001340
  H     -0.461050    0.023330   -2.077730
  H      0.310260    1.201370   -1.134950
  H      1.294850   -0.468740   -3.364680
  H      2.376220    0.597400   -2.431490
  H      1.659230    1.702130   -4.529420
  H      0.984210    2.540580   -3.153040
  H     -0.017440    1.465360   -4.098380

 Total Charge           Charge          ....    1
 Multiplicity           Mult            ....    1
 Number of Electrons    NEL             ....   26
 Basis Dimension        Dim             ....  183

ORBITAL ENERGIES
----------------

  NO   OCC          E(Eh)            E(eV)
   0   2.0000     -14.435130      -392.7999
   1   2.0000     -10.239724      -278.6371
   2   2.0000     -10.162567      -276.5375
   3   2.0000      -1.154486       -31.4152
   4   2.0000      -0.911705       -24.8088
   5   2.0000      -0.794981       -21.6325
   6   2.0000      -0.758779       -20.6474
   7   2.0000      -0.743362       -20.2279
   8   2.0000      -0.652358       -17.7516
   9   2.0000      -0.605564       -16.4782
  10   2.0000      -0.547313       -14.8932
  11   2.0000      -0.531408       -14.4604
  12   2.0000      -0.519107       -14.1256
  13   0.0000      -0.213856        -5.8193
  14   0.0000      -0.155355        -4.2274
  15   0.0000      -0.151410        -4.1201
  16   0.0000      -0.142959        -3.8901
  17   0.0000      -0.111606        -3.0370

MULLIKEN ATOMIC CHARGES
-----------------------
   0 C :   -0.160107
   1 N :   -0.244760
   2 C :   -0.848454
   3 H :    0.314568
   4 H :    0.334216
   5 H :    0.314498
   6 H :    0.222615
   7 H :    0.213147
   8 H :    0.221592
   9 H :    0.311493
  10 H :    0.321191
Sum of atomic charges:    1.0000000

LOEWDIN ATOMIC CHARGES
----------------------
   0 C :   -0.191165
   1 N :    0.186912
   2 C :   -0.046943
   3 H :    0.177223
   4 H :    0.178197
   5 H :    0.179595
   6 H :    0.132253
   7 H :    0.131979
   8 H :    0.091547
   9 H :    0.080276
  10 H :    0.080125

  Mayer bond orders larger than 0.100000
B(  0-C ,  1-N ) :   0.9565 B(  0-C ,  2-C ) :   0.9320 B(  0-C ,  6-H ) :   0.9241
B(  0-C ,  7-H ) :   0.9406 B(  1-N ,  3-H ) :   0.8830 B(  1-N ,  4-H ) :   0.8599
B(  1-N ,  5-H ) :   0.8796 B(  2-C ,  8-H ) :   0.9968 B(  2-C ,  9-H ) :   0.9081
B(  2-C , 10-H ) :   0.8967

Dispersion correction           -0.007456270
FINAL SINGLE POINT ENERGY      -135.614340028980

DIPOLE MOMENT
-------------
                                X             Y             Z
Electronic contribution:     -0.33457      -0.93215       1.54393
Nuclear contribution   :     -0.20470       0.31427      -0.31587
                        -----------------------------------------
Total Dipole Moment    :     -0.53926      -0.61789       1.22806
                        -----------------------------------------
Magnitude (a.u.)       :      1.47673
Magnitude (Debye)      :      3.75355

Rotational constants in cm-1:     1.011480     0.279280     0.248378
Rotational constants in MHz : 30323.408050  8372.602834  7446.185305

                             ****ORCA TERMINATED NORMALLY****
TOTAL RUN TIME: 0 days 0 hours 0 minutes 12 seconds 97 msec
