                         Program Version 5.0.0 -  RELEASE  -
|  1> !TPSS D3BJ RIJCOSX def2-TZVPD def2/J TightSCF xyzfile
|  2>
|  3> *xyzfile 0 1 B.xyz
|  4>
|  5> %MaxCore 64000
|  6>
|  7> %pal nprocs 4
|  8> end
|  9>
| 10> %scf
| 11>   MaxIter 150
| 12> end
| 13>
| 14>
| 15>                          ****END OF INPUT****

CARTESIAN COORDINATES (ANGSTROEM)
---------------------------------
  C      1.364014    0.468742   -2.813764
  N      0.428844    0.321402   -1.655312
  C      0.968045    1.630639   -3.715749
  C     -0.508347    1.722679   -4.124300
  S     -1.328608    0.146737   -4.435781
  H     -0.591511    2.294958   -5.047219
  H     -1.114114    2.235610   -3.374362
  H      0.748578   -0.400542   -1.001345
  H     -0.461053    0.023332   -2.077731
  H      0.310258    1.201375   -1.134948
  O     -2.571347    0.475733   -5.068341
  O     -1.514963   -0.400512   -3.063420
  H      1.294847   -0.468742   -3.364684
  H      2.376216    0.597400   -2.431495
  H      1.578688    1.520652   -4.612733
  H      1.266653    2.575988   -3.250448
  O     -0.377928   -0.627558   -5.201141

 Total Charge           Charge          ....    0
 Multiplicity           Mult            ....    1
 Number of Electrons    NEL             ....   74
 Basis Dimension        Dim             ....  395

ORBITAL ENERGIES
----------------

  NO   OCC          E(Eh)            E(eV)
   0   2.0000     -88.493103     -2408.0198
   1   2.0000     -18.838282      -512.6157
   2   2.0000     -18.823196      -512.2052
   3   2.0000     -18.821352      -512.1550
   4   2.0000     -14.233282      -387.3073
   5   2.0000     -10.076031      -274.1827
   6   2.0000     -10.027313      -272.8571
   7   2.0000     -10.004528      -272.2370
   8   2.0000      -7.842317      -213.4003
   9   2.0000      -5.822277      -158.4322
  10   2.0000      -5.821262      -158.4046
  11   2.0000      -5.819999      -158.3702
  12   2.0000      -1.018711       -27.7205
  13   2.0000      -0.968361       -26.3504
  14   2.0000      -0.888986       -24.1905
  15   2.0000      -0.887095       -24.1391
  16   2.0000      -0.768178       -20.9032
  17   2.0000      -0.684719       -18.6321
  18   2.0000      -0.603806       -16.4304
  19   2.0000      -0.575360       -15.6563
  20   2.0000      -0.566788       -15.4231
  21   2.0000      -0.497211       -13.5298
  22   2.0000      -0.480235       -13.0679
  23   2.0000      -0.446349       -12.1458
  24   2.0000      -0.428618       -11.6633
  25   2.0000      -0.414185       -11.2705
  26   2.0000      -0.383477       -10.4349
  27   2.0000      -0.374810       -10.1991
  28   2.0000      -0.364179        -9.9098
  29   2.0000      -0.350823        -9.5464
  30   2.0000      -0.339568        -9.2401
  31   2.0000      -0.277761        -7.5583
  32   2.0000      -0.269438        -7.3318
  33   2.0000      -0.244294        -6.6476
  34   2.0000      -0.233012        -6.3406
  35   2.0000      -0.228293        -6.2122
  36   2.0000      -0.193851        -5.2750
  37   0.0000      -0.062377        -1.6974
  38   0.0000      -0.018882        -0.5138
  39   0.0000      -0.014081        -0.3832
  40   0.0000       0.011456         0.3117
  41   0.0000       0.023223         0.6319

MULLIKEN ATOMIC CHARGES
-----------------------
   0 C :   -0.555366
   1 N :   -0.114214
   2 C :   -0.044900
   3 C :   -0.570291
   4 S :    1.428615
   5 H :    0.141277
   6 H :    0.287888
   7 H :    0.312166
   8 H :    0.283711
   9 H :    0.307057
  10 O :   -0.685035
  11 O :   -0.898978
  12 H :    0.387331
  13 H :    0.153005
  14 H :    0.152408
  15 H :    0.131268
  16 O :   -0.715943
Sum of atomic charges:   -0.0000000

LOEWDIN ATOMIC CHARGES
----------------------
   0 C :   -0.163439
   1 N :    0.157168
   2 C :   -0.200016
   3 C :   -0.241688
   4 S :    0.405873
   5 H :    0.097566
   6 H :    0.092872
   7 H :    0.164344
   8 H :    0.027451
   9 H :    0.167321
  10 O :   -0.298714
  11 O :   -0.358745
  12 H :    0.119836
  13 H :    0.119870
  14 H :    0.118649
  15 H :    0.108285
  16 O :   -0.316632

  Mayer bond orders larger than 0.100000
B(  0-C ,  1-N ) :   1.0011 B(  0-C ,  2-C ) :   1.0002 B(  0-C , 12-H ) :   0.8450
B(  0-C , 13-H ) :   0.9157 B(  1-N ,  7-H ) :   0.8641 B(  1-N ,  8-H ) :   0.8222
B(  1-N ,  9-H ) :   0.8562 B(  1-N , 11-O ) :  -0.1009 B(  2-C ,  3-C ) :   1.0681
B(  2-C , 14-H ) :   0.8686 B(  2-C , 15-H ) :   0.9216 B(  3-C ,  4-S ) :   0.8588
B(  3-C ,  5-H ) :   0.9977 B(  3-C ,  6-H ) :   0.8722 B(  3-C , 10-O ) :   0.1864
B(  3-C , 11-O ) :   0.1513 B(  3-C , 16-O ) :   0.1086 B(  4-S , 10-O ) :   1.4152
B(  4-S , 11-O ) :   1.1953 B(  4-S , 16-O ) :   1.4015 B(  8-H , 11-O ) :   0.1106

Dispersion correction           -0.022815834
FINAL SINGLE POINT ENERGY      -798.619859017087

DIPOLE MOMENT
-------------
                                X             Y             Z
Electronic contribution:     -6.99521      -4.21403      -4.37011
Nuclear contribution   :      9.95459       5.57517       7.68169
                        -----------------------------------------
Total Dipole Moment    :      2.95938       1.36114       3.31158
                        -----------------------------------------
Magnitude (a.u.)       :      4.64512
Magnitude (Debye)      :     11.80697

Rotational constants in cm-1:     0.102119     0.045768     0.041299
Rotational constants in MHz :  3061.441288  1372.093000  1238.124534

                             ****ORCA TERMINATED NORMALLY****
TOTAL RUN TIME: 0 days 0 hours 0 minutes 45 seconds 94 msec
