                         Program Version 5.0.0 -  RELEASE  -
|  1> !TPSS D3BJ RIJCOSX def2-TZVPD def2/J TightSCF
|  2> *xyz 0 1
|  3> C          0.96805        1.63064       -3.71575
|  4> C         -0.50835        1.72268       -4.12430
|  5> S         -1.32861        0.14674       -4.43578
|  6> H         -0.59151        2.29496       -5.04722
|  7> H         -1.11411        2.23561       -3.37436
|  8> F         -2.57135        0.47573       -5.06834
|  9> O         -1.51496       -0.40051       -3.06342
| 10> O         -0.37793       -0.62756       -5.20114
| 11> H          1.51840        1.12197       -4.47946
| 12> H          1.05062        1.08971       -2.79625
| 13> H          1.36450        2.61606       -3.58668
| 14> *
| 15> %MaxCore 64000
| 16>
| 17> %pal nprocs 4
| 18> end
| 19>
| 20> %scf
| 21>   MaxIter 150
| 22> end
| 23>
| 24>
| 25>                          ****END OF INPUT****

CARTESIAN COORDINATES (ANGSTROEM)
---------------------------------
  C      0.968050    1.630640   -3.715750
  C     -0.508350    1.722680   -4.124300
  S     -1.328610    0.146740   -4.435780
  H     -0.591510    2.294960   -5.047220
  H     -1.114110    2.235610   -3.374360
  F     -2.571350    0.475730   -5.068340
  O     -1.514960   -0.400510   -3.063420
  O     -0.377930   -0.627560   -5.201140
  H      1.518400    1.121970   -4.479460
  H      1.050620    1.089710   -2.796250
  H      1.364500    2.616060   -3.586680

 Total Charge           Charge          ....    0
 Multiplicity           Mult            ....    1
 Number of Electrons    NEL             ....   58
 Basis Dimension        Dim             ....  285

ORBITAL ENERGIES
----------------

  NO   OCC          E(Eh)            E(eV)
   0   2.0000     -88.584748     -2410.5136
   1   2.0000     -24.531849      -667.5455
   2   2.0000     -18.896698      -514.2053
   3   2.0000     -18.881900      -513.8026
   4   2.0000     -10.041804      -273.2514
   5   2.0000     -10.002409      -272.1794
   6   2.0000      -7.934393      -215.9058
   7   2.0000      -5.917598      -161.0260
   8   2.0000      -5.910819      -160.8416
   9   2.0000      -5.910610      -160.8359
  10   2.0000      -1.309056       -35.6212
  11   2.0000      -1.029163       -28.0050
  12   2.0000      -0.933813       -25.4103
  13   2.0000      -0.758742       -20.6464
  14   2.0000      -0.680173       -18.5084
  15   2.0000      -0.622281       -16.9331
  16   2.0000      -0.534601       -14.5472
  17   2.0000      -0.531973       -14.4757
  18   2.0000      -0.504420       -13.7260
  19   2.0000      -0.448258       -12.1977
  20   2.0000      -0.434135       -11.8134
  21   2.0000      -0.395758       -10.7691
  22   2.0000      -0.387159       -10.5351
  23   2.0000      -0.368030       -10.0146
  24   2.0000      -0.351139        -9.5550
  25   2.0000      -0.338826        -9.2199
  26   2.0000      -0.292521        -7.9599
  27   2.0000      -0.277104        -7.5404
  28   2.0000      -0.261521        -7.1164
  29   0.0000      -0.024920        -0.6781
  30   0.0000      -0.004434        -0.1206
  31   0.0000       0.011687         0.3180
  32   0.0000       0.018638         0.5072
  33   0.0000       0.025535         0.6948

MULLIKEN ATOMIC CHARGES
-----------------------
   0 C :   -0.943104
   1 C :   -0.255984
   2 S :    1.176137
   3 H :    0.258093
   4 H :    0.244185
   5 F :   -0.103060
   6 O :   -0.612877
   7 O :   -0.584391
   8 H :    0.304197
   9 H :    0.296522
  10 H :    0.220282
Sum of atomic charges:   -0.0000000

LOEWDIN ATOMIC CHARGES
----------------------
   0 C :   -0.093400
   1 C :   -0.281542
   2 S :    0.564174
   3 H :    0.089364
   4 H :    0.095656
   5 F :   -0.036367
   6 O :   -0.291888
   7 O :   -0.258814
   8 H :    0.068404
   9 H :    0.073553
  10 H :    0.070859

  Mayer bond orders larger than 0.100000
B(  0-C ,  1-C ) :   1.0261 B(  0-C ,  8-H ) :   0.9132 B(  0-C ,  9-H ) :   0.9227
B(  0-C , 10-H ) :   0.9546 B(  1-C ,  2-S ) :   0.8494 B(  1-C ,  3-H ) :   0.8769
B(  1-C ,  4-H ) :   0.9025 B(  1-C ,  6-O ) :   0.1044 B(  1-C ,  7-O ) :   0.1070
B(  2-S ,  5-F ) :   1.0250 B(  2-S ,  6-O ) :   1.5998 B(  2-S ,  7-O ) :   1.6456
B(  6-O ,  7-O ) :   0.1223

Dispersion correction           -0.011574661
FINAL SINGLE POINT ENERGY      -727.896889618583

DIPOLE MOMENT
-------------
                                X             Y             Z
Electronic contribution:     -8.31130      -5.21487      -3.21461
Nuclear contribution   :      8.31000       6.74109       2.87442
                        -----------------------------------------
Total Dipole Moment    :     -0.00130       1.52622      -0.34018
                        -----------------------------------------
Magnitude (a.u.)       :      1.56367
Magnitude (Debye)      :      3.97453

Rotational constants in cm-1:     0.158705     0.080192     0.078179
Rotational constants in MHz :  4757.865601  2404.095079  2343.752507

                             ****ORCA TERMINATED NORMALLY****
TOTAL RUN TIME: 0 days 0 hours 0 minutes 21 seconds 350 msec
