                         Program Version 5.0.0 -  RELEASE  -
|  1> !TPSS D3BJ RIJCOSX def2-TZVPD def2/J TightSCF
|  2> *xyz 0 1
|  3> C          1.36401        0.46874       -2.81376
|  4> C          0.42884        0.32140       -1.65531
|  5> C          0.96805        1.63064       -3.71575
|  6> H          0.74858       -0.40054       -1.00134
|  7> H         -0.46105        0.02333       -2.07773
|  8> H          0.31026        1.20137       -1.13495
|  9> H          1.29485       -0.46874       -3.36468
| 10> H          2.37622        0.59740       -2.43149
| 11> H          1.65923        1.70213       -4.52942
| 12> H          0.98421        2.54058       -3.15304
| 13> H         -0.01744        1.46536       -4.09838
| 14> *
| 15> %MaxCore 64000
| 16>
| 17> %pal nprocs 4
| 18> end
| 19>
| 20> %scf
| 21>   MaxIter 150
| 22> end
| 23>
| 24>
| 25>                          ****END OF INPUT****

CARTESIAN COORDINATES (ANGSTROEM)
---------------------------------
  C      1.364010    0.468740   -2.813760
  C      0.428840    0.321400   -1.655310
  C      0.968050    1.630640   -3.715750
  H      0.748580   -0.400540   -1.001340
  H     -0.461050    0.023330   -2.077730
  H      0.310260    1.201370   -1.134950
  H      1.294850   -0.468740   -3.364680
  H      2.376220    0.597400   -2.431490
  H      1.659230    1.702130   -4.529420
  H      0.984210    2.540580   -3.153040
  H     -0.017440    1.465360   -4.098380

 Total Charge           Charge          ....    0
 Multiplicity           Mult            ....    1
 Number of Electrons    NEL             ....   26
 Basis Dimension        Dim             ....  183

ORBITAL ENERGIES
----------------

  NO   OCC          E(Eh)            E(eV)
   0   2.0000      -9.970885      -271.3216
   1   2.0000      -9.963283      -271.1147
   2   2.0000      -9.945635      -270.6345
   3   2.0000      -0.733665       -19.9640
   4   2.0000      -0.638034       -17.3618
   5   2.0000      -0.537246       -14.6192
   6   2.0000      -0.428724       -11.6662
   7   2.0000      -0.403153       -10.9703
   8   2.0000      -0.363055        -9.8792
   9   2.0000      -0.352908        -9.6031
  10   2.0000      -0.299179        -8.1411
  11   2.0000      -0.296844        -8.0775
  12   2.0000      -0.293381        -7.9833
  13   0.0000       0.004320         0.1176
  14   0.0000       0.029650         0.8068
  15   0.0000       0.032874         0.8946
  16   0.0000       0.049491         1.3467
  17   0.0000       0.070818         1.9271

MULLIKEN ATOMIC CHARGES
-----------------------
   0 C :    0.118807
   1 C :   -1.002966
   2 C :   -0.901352
   3 H :    0.227870
   4 H :    0.269386
   5 H :    0.281289
   6 H :    0.138193
   7 H :    0.141137
   8 H :    0.198217
   9 H :    0.264149
  10 H :    0.265271
Sum of atomic charges:    0.0000000

LOEWDIN ATOMIC CHARGES
----------------------
   0 C :   -0.307996
   1 C :   -0.116940
   2 C :   -0.109816
   3 H :    0.047525
   4 H :    0.053040
   5 H :    0.052599
   6 H :    0.099301
   7 H :    0.097875
   8 H :    0.057898
   9 H :    0.063005
  10 H :    0.063508

  Mayer bond orders larger than 0.100000
B(  0-C ,  1-C ) :   0.8181 B(  0-C ,  2-C ) :   0.8089 B(  0-C ,  6-H ) :   0.9546
B(  0-C ,  7-H ) :   0.9573 B(  1-C ,  2-C ) :   0.1694 B(  1-C ,  3-H ) :   0.9987
B(  1-C ,  4-H ) :   0.9682 B(  1-C ,  5-H ) :   0.9370 B(  2-C ,  8-H ) :   1.0083
B(  2-C ,  9-H ) :   0.9585 B(  2-C , 10-H ) :   0.9533

Dispersion correction           -0.007480986
FINAL SINGLE POINT ENERGY      -119.198616803859

DIPOLE MOMENT
-------------
                                X             Y             Z
Electronic contribution:      0.36716      -0.18367      -0.01592
Nuclear contribution   :     -0.35842       0.15752       0.02695
                        -----------------------------------------
Total Dipole Moment    :      0.00874      -0.02614       0.01103
                        -----------------------------------------
Magnitude (a.u.)       :      0.02969
Magnitude (Debye)      :      0.07547

Rotational constants in cm-1:     1.019891     0.293671     0.260247
Rotational constants in MHz : 30575.551403  8804.039097  7802.009261

                             ****ORCA TERMINATED NORMALLY****
TOTAL RUN TIME: 0 days 0 hours 0 minutes 13 seconds 759 msec
