                         Program Version 5.0.0 -  RELEASE  -
|  1> !TPSS D3BJ RIJCOSX def2-TZVPD def2/J TightSCF
|  2> *xyz 0 1
|  3> C          0.96805        1.63064       -3.71575
|  4> C         -0.50835        1.72268       -4.12430
|  5> S         -1.32861        0.14674       -4.43578
|  6> H         -0.59151        2.29496       -5.04722
|  7> H         -1.11411        2.23561       -3.37436
|  8> O         -2.57135        0.47573       -5.06834
|  9> F         -1.51496       -0.40051       -3.06342
| 10> O         -0.37793       -0.62756       -5.20114
| 11> H          1.51840        1.12197       -4.47946
| 12> H          1.05062        1.08971       -2.79625
| 13> H          1.36450        2.61606       -3.58668
| 14> *
| 15> %MaxCore 64000
| 16>
| 17> %pal nprocs 4
| 18> end
| 19>
| 20> %scf
| 21>   MaxIter 150
| 22> end
| 23>
| 24>
| 25>                          ****END OF INPUT****

CARTESIAN COORDINATES (ANGSTROEM)
---------------------------------
  C      0.968050    1.630640   -3.715750
  C     -0.508350    1.722680   -4.124300
  S     -1.328610    0.146740   -4.435780
  H     -0.591510    2.294960   -5.047220
  H     -1.114110    2.235610   -3.374360
  O     -2.571350    0.475730   -5.068340
  F     -1.514960   -0.400510   -3.063420
  O     -0.377930   -0.627560   -5.201140
  H      1.518400    1.121970   -4.479460
  H      1.050620    1.089710   -2.796250
  H      1.364500    2.616060   -3.586680

 Total Charge           Charge          ....    0
 Multiplicity           Mult            ....    1
 Number of Electrons    NEL             ....   58
 Basis Dimension        Dim             ....  285

ORBITAL ENERGIES
----------------

  NO   OCC          E(Eh)            E(eV)
   0   2.0000     -88.581623     -2410.4285
   1   2.0000     -24.503752      -666.7810
   2   2.0000     -18.899763      -514.2887
   3   2.0000     -18.896518      -514.2004
   4   2.0000     -10.040906      -273.2270
   5   2.0000     -10.003166      -272.2000
   6   2.0000      -7.931431      -215.8252
   7   2.0000      -5.914724      -160.9478
   8   2.0000      -5.907919      -160.7627
   9   2.0000      -5.907643      -160.7551
  10   2.0000      -1.263526       -34.3823
  11   2.0000      -1.044088       -28.4111
  12   2.0000      -0.958911       -26.0933
  13   2.0000      -0.760260       -20.6877
  14   2.0000      -0.662743       -18.0342
  15   2.0000      -0.614833       -16.7305
  16   2.0000      -0.521019       -14.1776
  17   2.0000      -0.500417       -13.6170
  18   2.0000      -0.494813       -13.4645
  19   2.0000      -0.448111       -12.1937
  20   2.0000      -0.429294       -11.6817
  21   2.0000      -0.408933       -11.1276
  22   2.0000      -0.390818       -10.6347
  23   2.0000      -0.365147        -9.9361
  24   2.0000      -0.362537        -9.8651
  25   2.0000      -0.342421        -9.3177
  26   2.0000      -0.300790        -8.1849
  27   2.0000      -0.292832        -7.9684
  28   2.0000      -0.280714        -7.6386
  29   0.0000      -0.025054        -0.6818
  30   0.0000       0.002364         0.0643
  31   0.0000       0.013971         0.3802
  32   0.0000       0.015470         0.4210
  33   0.0000       0.026319         0.7162

MULLIKEN ATOMIC CHARGES
-----------------------
   0 C :   -0.936762
   1 C :   -0.234927
   2 S :    1.182935
   3 H :    0.237018
   4 H :    0.257724
   5 O :   -0.565827
   6 F :   -0.172002
   7 O :   -0.587729
   8 H :    0.301443
   9 H :    0.300098
  10 H :    0.218030
Sum of atomic charges:    0.0000000

LOEWDIN ATOMIC CHARGES
----------------------
   0 C :   -0.104436
   1 C :   -0.272136
   2 S :    0.564690
   3 H :    0.101722
   4 H :    0.095071
   5 O :   -0.251966
   6 F :   -0.079680
   7 O :   -0.256698
   8 H :    0.067140
   9 H :    0.067658
  10 H :    0.068635

  Mayer bond orders larger than 0.100000
B(  0-C ,  1-C ) :   0.9886 B(  0-C ,  8-H ) :   0.9359 B(  0-C ,  9-H ) :   0.9050
B(  0-C , 10-H ) :   0.9664 B(  1-C ,  2-S ) :   0.8441 B(  1-C ,  3-H ) :   0.9120
B(  1-C ,  4-H ) :   0.8927 B(  1-C ,  5-O ) :   0.1275 B(  2-S ,  5-O ) :   1.6592
B(  2-S ,  6-F ) :   0.9562 B(  2-S ,  7-O ) :   1.6453 B(  5-O ,  7-O ) :   0.1174

Dispersion correction           -0.011522931
FINAL SINGLE POINT ENERGY      -727.920136420654

DIPOLE MOMENT
-------------
                                X             Y             Z
Electronic contribution:     -6.56858      -6.67603       0.13180
Nuclear contribution   :      7.20921       7.65416       0.78523
                        -----------------------------------------
Total Dipole Moment    :      0.64063       0.97813       0.91703
                        -----------------------------------------
Magnitude (a.u.)       :      1.48597
Magnitude (Debye)      :      3.77703

Rotational constants in cm-1:     0.153780     0.081282     0.079816
Rotational constants in MHz :  4610.199589  2436.778679  2392.820729

                             ****ORCA TERMINATED NORMALLY****
TOTAL RUN TIME: 0 days 0 hours 0 minutes 22 seconds 473 msec
