                         Program Version 5.0.0 -  RELEASE  -
|  1> !TPSS D3BJ RIJCOSX def2-TZVPD def2/J TightSCF
|  2> *xyz 0 1
|  3> C          0.96805        1.63064       -3.71575
|  4> C         -0.50835        1.72268       -4.12430
|  5> S         -1.32861        0.14674       -4.43578
|  6> H         -0.59151        2.29496       -5.04722
|  7> H         -1.11411        2.23561       -3.37436
|  8> O         -2.57135        0.47573       -5.06834
|  9> O         -1.51496       -0.40051       -3.06342
| 10> F         -0.37793       -0.62756       -5.20114
| 11> H          1.51840        1.12197       -4.47946
| 12> H          1.05062        1.08971       -2.79625
| 13> H          1.36450        2.61606       -3.58668
| 14> *
| 15> %MaxCore 64000
| 16>
| 17> %pal nprocs 4
| 18> end
| 19>
| 20> %scf
| 21>   MaxIter 150
| 22> end
| 23>
| 24>
| 25>                          ****END OF INPUT****

CARTESIAN COORDINATES (ANGSTROEM)
---------------------------------
  C      0.968050    1.630640   -3.715750
  C     -0.508350    1.722680   -4.124300
  S     -1.328610    0.146740   -4.435780
  H     -0.591510    2.294960   -5.047220
  H     -1.114110    2.235610   -3.374360
  O     -2.571350    0.475730   -5.068340
  O     -1.514960   -0.400510   -3.063420
  F     -0.377930   -0.627560   -5.201140
  H      1.518400    1.121970   -4.479460
  H      1.050620    1.089710   -2.796250
  H      1.364500    2.616060   -3.586680

 Total Charge           Charge          ....    0
 Multiplicity           Mult            ....    1
 Number of Electrons    NEL             ....   58
 Basis Dimension        Dim             ....  285

ORBITAL ENERGIES
----------------

  NO   OCC          E(Eh)            E(eV)
   0   2.0000     -88.584078     -2410.4953
   1   2.0000     -24.526016      -667.3868
   2   2.0000     -18.900270      -514.3025
   3   2.0000     -18.882070      -513.8072
   4   2.0000     -10.041733      -273.2495
   5   2.0000     -10.006547      -272.2920
   6   2.0000      -7.933774      -215.8890
   7   2.0000      -5.917113      -161.0128
   8   2.0000      -5.910180      -160.8242
   9   2.0000      -5.909919      -160.8171
  10   2.0000      -1.299045       -35.3488
  11   2.0000      -1.035035       -28.1647
  12   2.0000      -0.936580       -25.4856
  13   2.0000      -0.762347       -20.7445
  14   2.0000      -0.673669       -18.3315
  15   2.0000      -0.625054       -17.0086
  16   2.0000      -0.539507       -14.6807
  17   2.0000      -0.524561       -14.2740
  18   2.0000      -0.496255       -13.5038
  19   2.0000      -0.449650       -12.2356
  20   2.0000      -0.429411       -11.6849
  21   2.0000      -0.405449       -11.0328
  22   2.0000      -0.393691       -10.7129
  23   2.0000      -0.371015       -10.0958
  24   2.0000      -0.357525        -9.7287
  25   2.0000      -0.340045        -9.2531
  26   2.0000      -0.295840        -8.0502
  27   2.0000      -0.277532        -7.5520
  28   2.0000      -0.264275        -7.1913
  29   0.0000      -0.029222        -0.7952
  30   0.0000       0.001391         0.0379
  31   0.0000       0.013108         0.3567
  32   0.0000       0.016474         0.4483
  33   0.0000       0.024153         0.6572

MULLIKEN ATOMIC CHARGES
-----------------------
   0 C :   -0.967708
   1 C :   -0.196283
   2 S :    1.165843
   3 H :    0.257411
   4 H :    0.223073
   5 O :   -0.559130
   6 O :   -0.616107
   7 F :   -0.135004
   8 H :    0.309541
   9 H :    0.301932
  10 H :    0.216432
Sum of atomic charges:    0.0000000

LOEWDIN ATOMIC CHARGES
----------------------
   0 C :   -0.105365
   1 C :   -0.272279
   2 S :    0.562481
   3 H :    0.092403
   4 H :    0.106404
   5 O :   -0.251042
   6 O :   -0.290689
   7 F :   -0.044602
   8 H :    0.063137
   9 H :    0.070413
  10 H :    0.069141

  Mayer bond orders larger than 0.100000
B(  0-C ,  1-C ) :   0.9622 B(  0-C ,  8-H ) :   0.8942 B(  0-C ,  9-H ) :   0.9404
B(  0-C , 10-H ) :   0.9692 B(  1-C ,  2-S ) :   0.8325 B(  1-C ,  3-H ) :   0.9078
B(  1-C ,  4-H ) :   0.9188 B(  1-C ,  5-O ) :   0.1250 B(  2-S ,  5-O ) :   1.6664
B(  2-S ,  6-O ) :   1.6037 B(  2-S ,  7-F ) :   1.0169 B(  5-O ,  6-O ) :   0.1135

Dispersion correction           -0.011502317
FINAL SINGLE POINT ENERGY      -727.901439362517

DIPOLE MOMENT
-------------
                                X             Y             Z
Electronic contribution:     -4.67973      -7.02882      -3.42309
Nuclear contribution   :      6.02439       7.89075       3.01280
                        -----------------------------------------
Total Dipole Moment    :      1.34467       0.86193      -0.41028
                        -----------------------------------------
Magnitude (a.u.)       :      1.64906
Magnitude (Debye)      :      4.19157

Rotational constants in cm-1:     0.153652     0.082400     0.079295
Rotational constants in MHz :  4606.361242  2470.285703  2377.214112

                             ****ORCA TERMINATED NORMALLY****
TOTAL RUN TIME: 0 days 0 hours 0 minutes 22 seconds 342 msec
