                         Program Version 5.0.0 -  RELEASE  -
|  1> !TPSS D3BJ RIJCOSX def2-TZVPD def2/J TightSCF xyzfile
|  2>
|  3> *xyzfile 0 1 D1.xyz
|  4>
|  5> %MaxCore 64000
|  6>
|  7> %pal nprocs 4
|  8> end
|  9>
| 10> %scf
| 11>   MaxIter 150
| 12> end
| 13>
| 14>
| 15>                          ****END OF INPUT****

CARTESIAN COORDINATES (ANGSTROEM)
---------------------------------
  C      1.364014    0.468742   -2.813764
  C      0.428844    0.321402   -1.655312
  C      0.968045    1.630639   -3.715749
  C     -0.508347    1.722679   -4.124300
  S     -1.328608    0.146737   -4.435781
  H     -0.591511    2.294958   -5.047219
  H     -1.114114    2.235610   -3.374362
  H      0.748578   -0.400542   -1.001345
  H     -0.461053    0.023332   -2.077731
  H      0.310258    1.201375   -1.134948
  F     -2.571347    0.475733   -5.068341
  O     -1.514963   -0.400512   -3.063420
  H      1.294847   -0.468742   -3.364684
  H      2.376216    0.597400   -2.431495
  H      1.578688    1.520652   -4.612733
  H      1.266653    2.575988   -3.250448
  O     -0.377928   -0.627558   -5.201141

 Total Charge           Charge          ....    0
 Multiplicity           Mult            ....    1
 Number of Electrons    NEL             ....   74
 Basis Dimension        Dim             ....  395

ORBITAL ENERGIES
----------------

  NO   OCC          E(Eh)            E(eV)
   0   2.0000     -88.589825     -2410.6517
   1   2.0000     -24.534350      -667.6136
   2   2.0000     -18.900925      -514.3203
   3   2.0000     -18.889316      -514.0044
   4   2.0000     -10.042571      -273.2722
   5   2.0000     -10.006122      -272.2804
   6   2.0000      -9.970966      -271.3238
   7   2.0000      -9.915895      -269.8252
   8   2.0000      -7.939721      -216.0508
   9   2.0000      -5.922935      -161.1713
  10   2.0000      -5.916374      -160.9927
  11   2.0000      -5.915700      -160.9744
  12   2.0000      -1.311976       -35.7007
  13   2.0000      -1.037549       -28.2332
  14   2.0000      -0.946883       -25.7660
  15   2.0000      -0.770845       -20.9758
  16   2.0000      -0.716447       -19.4955
  17   2.0000      -0.665215       -18.1014
  18   2.0000      -0.624209       -16.9856
  19   2.0000      -0.555548       -15.1172
  20   2.0000      -0.537485       -14.6257
  21   2.0000      -0.523651       -14.2493
  22   2.0000      -0.500414       -13.6170
  23   2.0000      -0.459335       -12.4991
  24   2.0000      -0.451067       -12.2742
  25   2.0000      -0.414400       -11.2764
  26   2.0000      -0.410923       -11.1818
  27   2.0000      -0.383115       -10.4251
  28   2.0000      -0.365386        -9.9427
  29   2.0000      -0.360473        -9.8090
  30   2.0000      -0.343133        -9.3371
  31   2.0000      -0.317000        -8.6260
  32   2.0000      -0.308052        -8.3825
  33   2.0000      -0.286751        -7.8029
  34   2.0000      -0.283196        -7.7062
  35   2.0000      -0.272184        -7.4065
  36   2.0000      -0.242351        -6.5947
  37   0.0000      -0.025691        -0.6991
  38   0.0000      -0.009340        -0.2541
  39   0.0000       0.009574         0.2605
  40   0.0000       0.015733         0.4281
  41   0.0000       0.024198         0.6585

MULLIKEN ATOMIC CHARGES
-----------------------
   0 C :   -0.283075
   1 C :   -1.024039
   2 C :   -0.109434
   3 C :   -0.462042
   4 S :    1.192741
   5 H :    0.178076
   6 H :    0.303840
   7 H :    0.235669
   8 H :    0.417497
   9 H :    0.283764
  10 F :   -0.095494
  11 O :   -0.643641
  12 H :    0.297337
  13 H :    0.054413
  14 H :    0.133468
  15 H :    0.131679
  16 O :   -0.610757
Sum of atomic charges:    0.0000000

LOEWDIN ATOMIC CHARGES
----------------------
   0 C :   -0.242585
   1 C :   -0.106980
   2 C :   -0.206664
   3 C :   -0.214083
   4 S :    0.608173
   5 H :    0.095094
   6 H :    0.105112
   7 H :    0.059170
   8 H :   -0.033499
   9 H :    0.061980
  10 F :   -0.029708
  11 O :   -0.286813
  12 H :    0.101313
  13 H :    0.106730
  14 H :    0.107907
  15 H :    0.118110
  16 O :   -0.243254

  Mayer bond orders larger than 0.100000
B(  0-C ,  1-C ) :   0.8255 B(  0-C ,  2-C ) :   1.0535 B(  0-C , 12-H ) :   0.8705
B(  0-C , 13-H ) :   0.9598 B(  0-C , 14-H ) :   0.1001 B(  1-C ,  7-H ) :   0.9186
B(  1-C ,  8-H ) :   1.1179 B(  1-C ,  9-H ) :   0.9223 B(  2-C ,  3-C ) :   1.1771
B(  2-C , 14-H ) :   0.8614 B(  2-C , 15-H ) :   0.8957 B(  3-C ,  4-S ) :   0.8580
B(  3-C ,  5-H ) :   0.9049 B(  3-C ,  6-H ) :   0.8189 B(  3-C , 11-O ) :   0.1551
B(  3-C , 16-O ) :   0.1096 B(  4-S , 10-F ) :   0.9979 B(  4-S , 11-O ) :   1.6006
B(  4-S , 16-O ) :   1.6068 B(  7-H ,  8-H ) :   0.1369 B(  8-H , 11-O ) :  -0.2503
B( 11-O , 16-O ) :   0.1242

Dispersion correction           -0.022309584
FINAL SINGLE POINT ENERGY      -806.526879134349

DIPOLE MOMENT
-------------
                                X             Y             Z
Electronic contribution:    -12.45167      -4.14529      -9.68589
Nuclear contribution   :     12.25227       5.48563       9.26621
                        -----------------------------------------
Total Dipole Moment    :     -0.19940       1.34034      -0.41968
                        -----------------------------------------
Magnitude (a.u.)       :      1.41859
Magnitude (Debye)      :      3.60577

Rotational constants in cm-1:     0.103176     0.044975     0.040960
Rotational constants in MHz :  3093.138469  1348.317425  1227.945122

                             ****ORCA TERMINATED NORMALLY****
TOTAL RUN TIME: 0 days 0 hours 0 minutes 44 seconds 486 msec
