                         Program Version 5.0.0 -  RELEASE  -
|  1> !TPSS D3BJ RIJCOSX def2-TZVPD def2/J TightSCF xyzfile
|  2>
|  3> *xyzfile 0 1 D2.xyz
|  4>
|  5> %MaxCore 64000
|  6>
|  7> %pal nprocs 4
|  8> end
|  9>
| 10> %scf
| 11>   MaxIter 150
| 12> end
| 13>
| 14>
| 15>                          ****END OF INPUT****

CARTESIAN COORDINATES (ANGSTROEM)
---------------------------------
  C      1.364014    0.468742   -2.813764
  C      0.428844    0.321402   -1.655312
  C      0.968045    1.630639   -3.715749
  C     -0.508347    1.722679   -4.124300
  S     -1.328608    0.146737   -4.435781
  H     -0.591511    2.294958   -5.047219
  H     -1.114114    2.235610   -3.374362
  H      0.748578   -0.400542   -1.001345
  H     -0.461053    0.023332   -2.077731
  H      0.310258    1.201375   -1.134948
  O     -2.571347    0.475733   -5.068341
  F     -1.514963   -0.400512   -3.063420
  H      1.294847   -0.468742   -3.364684
  H      2.376216    0.597400   -2.431495
  H      1.578688    1.520652   -4.612733
  H      1.266653    2.575988   -3.250448
  O     -0.377928   -0.627558   -5.201141

 Total Charge           Charge          ....    0
 Multiplicity           Mult            ....    1
 Number of Electrons    NEL             ....   74
 Basis Dimension        Dim             ....  395

ORBITAL ENERGIES
----------------

  NO   OCC          E(Eh)            E(eV)
   0   2.0000     -88.584846     -2410.5162
   1   2.0000     -24.509874      -666.9476
   2   2.0000     -18.902210      -514.3553
   3   2.0000     -18.899358      -514.2777
   4   2.0000     -10.040636      -273.2196
   5   2.0000     -10.006796      -272.2987
   6   2.0000      -9.984208      -271.6841
   7   2.0000      -9.944373      -270.6002
   8   2.0000      -7.934947      -215.9209
   9   2.0000      -5.918386      -161.0475
  10   2.0000      -5.911327      -160.8554
  11   2.0000      -5.911026      -160.8472
  12   2.0000      -1.277064       -34.7507
  13   2.0000      -1.048058       -28.5191
  14   2.0000      -0.962025       -26.1780
  15   2.0000      -0.777685       -21.1619
  16   2.0000      -0.721674       -19.6378
  17   2.0000      -0.656870       -17.8743
  18   2.0000      -0.639691       -17.4069
  19   2.0000      -0.549460       -14.9516
  20   2.0000      -0.532993       -14.5035
  21   2.0000      -0.511458       -13.9175
  22   2.0000      -0.499229       -13.5847
  23   2.0000      -0.453718       -12.3463
  24   2.0000      -0.436850       -11.8873
  25   2.0000      -0.430377       -11.7111
  26   2.0000      -0.411777       -11.2050
  27   2.0000      -0.390626       -10.6295
  28   2.0000      -0.373457       -10.1623
  29   2.0000      -0.363104        -9.8806
  30   2.0000      -0.351417        -9.5625
  31   2.0000      -0.318680        -8.6717
  32   2.0000      -0.309776        -8.4294
  33   2.0000      -0.303451        -8.2573
  34   2.0000      -0.295319        -8.0360
  35   2.0000      -0.288138        -7.8406
  36   2.0000      -0.278648        -7.5824
  37   0.0000      -0.021426        -0.5830
  38   0.0000      -0.003294        -0.0896
  39   0.0000       0.007513         0.2044
  40   0.0000       0.010213         0.2779
  41   0.0000       0.020655         0.5621

MULLIKEN ATOMIC CHARGES
-----------------------
   0 C :   -0.297399
   1 C :   -1.088261
   2 C :   -0.045204
   3 C :   -0.439596
   4 S :    1.190975
   5 H :    0.144865
   6 H :    0.298789
   7 H :    0.239438
   8 H :    0.463676
   9 H :    0.293480
  10 O :   -0.602767
  11 F :   -0.183931
  12 H :    0.306179
  13 H :    0.049908
  14 H :    0.126299
  15 H :    0.140816
  16 O :   -0.597268
Sum of atomic charges:   -0.0000000

LOEWDIN ATOMIC CHARGES
----------------------
   0 C :   -0.245998
   1 C :   -0.096513
   2 C :   -0.214508
   3 C :   -0.208915
   4 S :    0.588597
   5 H :    0.106974
   6 H :    0.104384
   7 H :    0.061031
   8 H :   -0.006282
   9 H :    0.065688
  10 O :   -0.242856
  11 F :   -0.103220
  12 H :    0.099263
  13 H :    0.109044
  14 H :    0.108660
  15 H :    0.115257
  16 O :   -0.240606

  Mayer bond orders larger than 0.100000
B(  0-C ,  1-C ) :   0.8352 B(  0-C ,  2-C ) :   1.0099 B(  0-C , 12-H ) :   0.8913
B(  0-C , 13-H ) :   0.9594 B(  1-C ,  3-C ) :   0.1144 B(  1-C ,  7-H ) :   0.9034
B(  1-C ,  8-H ) :   1.0739 B(  1-C ,  9-H ) :   0.8840 B(  1-C , 11-F ) :   0.1078
B(  2-C ,  3-C ) :   1.0880 B(  2-C , 14-H ) :   0.8805 B(  2-C , 15-H ) :   0.9087
B(  3-C ,  4-S ) :   0.8535 B(  3-C ,  5-H ) :   0.9355 B(  3-C ,  6-H ) :   0.8397
B(  3-C , 10-O ) :   0.1319 B(  4-S , 10-O ) :   1.5577 B(  4-S , 11-F ) :   1.0070
B(  4-S , 16-O ) :   1.6207 B(  7-H ,  8-H ) :   0.1337 B(  8-H , 11-F ) :  -0.2039
B( 10-O , 16-O ) :   0.1136

Dispersion correction           -0.022055427
FINAL SINGLE POINT ENERGY      -806.547062827588

DIPOLE MOMENT
-------------
                                X             Y             Z
Electronic contribution:    -10.52803      -5.60848      -6.19855
Nuclear contribution   :     11.08796       6.45140       7.05645
                        -----------------------------------------
Total Dipole Moment    :      0.55993       0.84292       0.85790
                        -----------------------------------------
Magnitude (a.u.)       :      1.32666
Magnitude (Debye)      :      3.37210

Rotational constants in cm-1:     0.100113     0.046890     0.041843
Rotational constants in MHz :  3001.313402  1405.711946  1254.411771

                             ****ORCA TERMINATED NORMALLY****
TOTAL RUN TIME: 0 days 0 hours 0 minutes 41 seconds 364 msec
