                         Program Version 5.0.0 -  RELEASE  -
|  1> !TPSS D3BJ RIJCOSX def2-TZVPD def2/J TightSCF xyzfile
|  2>
|  3> *xyzfile 0 1 D3.xyz
|  4>
|  5> %MaxCore 64000
|  6>
|  7> %pal nprocs 4
|  8> end
|  9>
| 10> %scf
| 11>   MaxIter 150
| 12> end
| 13>
| 14>
| 15>                          ****END OF INPUT****

CARTESIAN COORDINATES (ANGSTROEM)
---------------------------------
  C      1.364014    0.468742   -2.813764
  C      0.428844    0.321402   -1.655312
  C      0.968045    1.630639   -3.715749
  C     -0.508347    1.722679   -4.124300
  S     -1.328608    0.146737   -4.435781
  H     -0.591511    2.294958   -5.047219
  H     -1.114114    2.235610   -3.374362
  H      0.748578   -0.400542   -1.001345
  H     -0.461053    0.023332   -2.077731
  H      0.310258    1.201375   -1.134948
  O     -2.571347    0.475733   -5.068341
  O     -1.514963   -0.400512   -3.063420
  H      1.294847   -0.468742   -3.364684
  H      2.376216    0.597400   -2.431495
  H      1.578688    1.520652   -4.612733
  H      1.266653    2.575988   -3.250448
  F     -0.377928   -0.627558   -5.201141

 Total Charge           Charge          ....    0
 Multiplicity           Mult            ....    1
 Number of Electrons    NEL             ....   74
 Basis Dimension        Dim             ....  395

ORBITAL ENERGIES
----------------

  NO   OCC          E(Eh)            E(eV)
   0   2.0000     -88.589993     -2410.6563
   1   2.0000     -24.530024      -667.4959
   2   2.0000     -18.903933      -514.4022
   3   2.0000     -18.888471      -513.9814
   4   2.0000     -10.042382      -273.2671
   5   2.0000     -10.009269      -272.3660
   6   2.0000      -9.982079      -271.6262
   7   2.0000      -9.919495      -269.9232
   8   2.0000      -7.939846      -216.0542
   9   2.0000      -5.923197      -161.1784
  10   2.0000      -5.916526      -160.9969
  11   2.0000      -5.915693      -160.9742
  12   2.0000      -1.303527       -35.4708
  13   2.0000      -1.042121       -28.3575
  14   2.0000      -0.950348       -25.8603
  15   2.0000      -0.776448       -21.1282
  16   2.0000      -0.716185       -19.4884
  17   2.0000      -0.664798       -18.0901
  18   2.0000      -0.626745       -17.0546
  19   2.0000      -0.560147       -15.2424
  20   2.0000      -0.533785       -14.5250
  21   2.0000      -0.528399       -14.3785
  22   2.0000      -0.497015       -13.5245
  23   2.0000      -0.454917       -12.3789
  24   2.0000      -0.452073       -12.3015
  25   2.0000      -0.423949       -11.5362
  26   2.0000      -0.411966       -11.2102
  27   2.0000      -0.388305       -10.5663
  28   2.0000      -0.371016       -10.0958
  29   2.0000      -0.359104        -9.7717
  30   2.0000      -0.347760        -9.4630
  31   2.0000      -0.326573        -8.8865
  32   2.0000      -0.308359        -8.3909
  33   2.0000      -0.297591        -8.0979
  34   2.0000      -0.290601        -7.9076
  35   2.0000      -0.282302        -7.6818
  36   2.0000      -0.235846        -6.4177
  37   0.0000      -0.028953        -0.7878
  38   0.0000      -0.004038        -0.1099
  39   0.0000       0.005668         0.1542
  40   0.0000       0.015662         0.4262
  41   0.0000       0.020696         0.5632

MULLIKEN ATOMIC CHARGES
-----------------------
   0 C :   -0.225870
   1 C :   -1.010626
   2 C :   -0.134299
   3 C :   -0.385307
   4 S :    1.192766
   5 H :    0.163360
   6 H :    0.276412
   7 H :    0.241084
   8 H :    0.419733
   9 H :    0.289403
  10 O :   -0.594657
  11 O :   -0.633194
  12 H :    0.243129
  13 H :    0.041925
  14 H :    0.132332
  15 H :    0.136951
  16 F :   -0.153142
Sum of atomic charges:    0.0000000

LOEWDIN ATOMIC CHARGES
----------------------
   0 C :   -0.248137
   1 C :   -0.109267
   2 C :   -0.218240
   3 C :   -0.202982
   4 S :    0.606339
   5 H :    0.098015
   6 H :    0.115944
   7 H :    0.059051
   8 H :   -0.035489
   9 H :    0.063421
  10 O :   -0.240648
  11 O :   -0.280511
  12 H :    0.097726
  13 H :    0.107287
  14 H :    0.103663
  15 H :    0.116570
  16 F :   -0.032744

  Mayer bond orders larger than 0.100000
B(  0-C ,  1-C ) :   0.8169 B(  0-C ,  2-C ) :   0.9829 B(  0-C , 11-O ) :   0.1000
B(  0-C , 12-H ) :   0.9055 B(  0-C , 13-H ) :   0.9648 B(  1-C ,  7-H ) :   0.9283
B(  1-C ,  8-H ) :   1.1469 B(  1-C ,  9-H ) :   0.9189 B(  2-C ,  3-C ) :   1.1399
B(  2-C , 14-H ) :   0.9073 B(  2-C , 15-H ) :   0.8954 B(  3-C ,  4-S ) :   0.8244
B(  3-C ,  5-H ) :   0.9585 B(  3-C ,  6-H ) :   0.8446 B(  3-C , 10-O ) :   0.1247
B(  3-C , 11-O ) :   0.1466 B(  4-S , 10-O ) :   1.5883 B(  4-S , 11-O ) :   1.6190
B(  4-S , 16-F ) :   1.0108 B(  7-H ,  8-H ) :   0.1341 B(  8-H , 11-O ) :  -0.2818

Dispersion correction           -0.022129072
FINAL SINGLE POINT ENERGY      -806.530222071623

DIPOLE MOMENT
-------------
                                X             Y             Z
Electronic contribution:     -8.71209      -6.00248      -9.86910
Nuclear contribution   :      9.83476       6.70164       9.41257
                        -----------------------------------------
Total Dipole Moment    :      1.12268       0.69916      -0.45652
                        -----------------------------------------
Magnitude (a.u.)       :      1.39916
Magnitude (Debye)      :      3.55638

Rotational constants in cm-1:     0.099832     0.045916     0.042219
Rotational constants in MHz :  2992.874960  1376.530174  1265.693813

                             ****ORCA TERMINATED NORMALLY****
TOTAL RUN TIME: 0 days 0 hours 0 minutes 40 seconds 611 msec
