                         Program Version 5.0.0 -  RELEASE  -
|  1> !PBE0 D3BJ RIJCOSX def2-SVPD def2/J TightSCF
|  2> *xyz -1 1
|  3> C          3.38093        2.08304       -3.35013
|  4> C          2.49556        1.81615       -2.13636
|  5> C          1.87218        0.42790       -2.07750
|  6> H          2.61427       -0.36583       -2.19889
|  7> H          1.38995        0.27309       -1.11236
|  8> S          0.57902        0.14047       -3.29794
|  9> O          0.22886       -1.24687       -3.12787
| 10> O         -0.43927        1.11897       -3.01455
| 11> O          1.24788        0.40347       -4.59565
| 12> H          1.69700        2.56197       -2.14111
| 13> H          3.08079        1.98744       -1.22584
| 14> H          2.81820        1.91840       -4.24519
| 15> H          4.22171        1.42153       -3.33067
| 16> H          3.72372        3.09635       -3.32565
| 17> *
| 18>
| 19> %MaxCore 64000
| 20>
| 21> %pal nprocs 8
| 22> end
| 23>
| 24> %scf
| 25>   MaxIter 150
| 26> end
| 27>
| 28>
| 29>                          ****END OF INPUT****

CARTESIAN COORDINATES (ANGSTROEM)
---------------------------------
  C      3.380930    2.083040   -3.350130
  C      2.495560    1.816150   -2.136360
  C      1.872180    0.427900   -2.077500
  H      2.614270   -0.365830   -2.198890
  H      1.389950    0.273090   -1.112360
  S      0.579020    0.140470   -3.297940
  O      0.228860   -1.246870   -3.127870
  O     -0.439270    1.118970   -3.014550
  O      1.247880    0.403470   -4.595650
  H      1.697000    2.561970   -2.141110
  H      3.080790    1.987440   -1.225840
  H      2.818200    1.918400   -4.245190
  H      4.221710    1.421530   -3.330670
  H      3.723720    3.096350   -3.325650

 Total Charge           Charge          ....   -1
 Multiplicity           Mult            ....    1
 Number of Electrons    NEL             ....   66
 Basis Dimension        Dim             ....  212

ORBITAL ENERGIES
----------------

  NO   OCC          E(Eh)            E(eV)
   0   2.0000     -89.040059     -2422.9032
   1   2.0000     -19.002182      -517.0757
   2   2.0000     -19.002012      -517.0710
   3   2.0000     -18.988548      -516.7046
   4   2.0000     -10.100440      -274.8469
   5   2.0000     -10.094483      -274.6849
   6   2.0000     -10.078749      -274.2567
   7   2.0000      -7.999451      -217.6761
   8   2.0000      -5.941721      -161.6825
   9   2.0000      -5.941607      -161.6794
  10   2.0000      -5.941103      -161.6656
  11   2.0000      -0.963974       -26.2311
  12   2.0000      -0.825710       -22.4687
  13   2.0000      -0.800080       -21.7713
  14   2.0000      -0.672669       -18.3043
  15   2.0000      -0.580563       -15.7979
  16   2.0000      -0.481164       -13.0932
  17   2.0000      -0.400425       -10.8961
  18   2.0000      -0.349222        -9.5028
  19   2.0000      -0.331760        -9.0276
  20   2.0000      -0.308457        -8.3935
  21   2.0000      -0.294515        -8.0142
  22   2.0000      -0.285332        -7.7643
  23   2.0000      -0.271562        -7.3896
  24   2.0000      -0.230884        -6.2827
  25   2.0000      -0.225473        -6.1354
  26   2.0000      -0.213209        -5.8017
  27   2.0000      -0.171638        -4.6705
  28   2.0000      -0.170626        -4.6430
  29   2.0000      -0.136049        -3.7021
  30   2.0000      -0.125908        -3.4261
  31   2.0000      -0.112748        -3.0680
  32   2.0000      -0.083460        -2.2711
  33   0.0000       0.144415         3.9297
  34   0.0000       0.169311         4.6072
  35   0.0000       0.173788         4.7290
  36   0.0000       0.183101         4.9824
  37   0.0000       0.200427         5.4539

MULLIKEN ATOMIC CHARGES
-----------------------
   0 C :    0.657285
   1 C :   -0.394631
   2 C :   -0.097120
   3 H :    0.041547
   4 H :    0.051093
   5 S :    1.479622
   6 O :   -0.847784
   7 O :   -0.829056
   8 O :   -0.888335
   9 H :    0.044724
  10 H :   -0.079397
  11 H :   -0.162924
  12 H :    0.017473
  13 H :    0.007503
Sum of atomic charges:   -1.0000000

LOEWDIN ATOMIC CHARGES
----------------------
   0 C :    0.109195
   1 C :   -0.097702
   2 C :   -0.098519
   3 H :    0.010345
   4 H :    0.003811
   5 S :    0.875736
   6 O :   -0.574644
   7 O :   -0.571472
   8 O :   -0.582724
   9 H :    0.019593
  10 H :    0.008159
  11 H :   -0.049951
  12 H :   -0.021525
  13 H :   -0.030301

  Mayer bond orders larger than 0.100000
B(  0-C ,  1-C ) :   1.2740 B(  0-C , 11-H ) :   0.8682 B(  0-C , 12-H ) :   0.7681
B(  0-C , 13-H ) :   0.7547 B(  1-C ,  2-C ) :   1.1998 B(  1-C ,  3-H ) :   0.1173
B(  1-C ,  4-H ) :   0.1147 B(  1-C ,  9-H ) :   0.9077 B(  1-C , 10-H ) :   0.9381
B(  1-C , 11-H ) :   0.2442 B(  1-C , 12-H ) :   0.1875 B(  1-C , 13-H ) :   0.1827
B(  2-C ,  3-H ) :   0.9599 B(  2-C ,  4-H ) :   0.9267 B(  2-C ,  5-S ) :   0.9348
B(  2-C ,  9-H ) :   0.1260 B(  5-S ,  6-O ) :   1.3099 B(  5-S ,  7-O ) :   1.2549
B(  5-S ,  8-O ) :   1.2287 B(  8-O , 11-H ) :   0.1044 B( 11-H , 12-H ) :   0.1109

Dispersion correction           -0.011481706
FINAL SINGLE POINT ENERGY      -741.561716921948

DIPOLE MOMENT
-------------
                                X             Y             Z
Electronic contribution:     -8.82567      -5.55615      -2.89203
Nuclear contribution   :     10.42821       6.37804       4.08250
                        -----------------------------------------
Total Dipole Moment    :      1.60254       0.82189       1.19047
                        -----------------------------------------
Magnitude (a.u.)       :      2.15890
Magnitude (Debye)      :      5.48749

Rotational constants in cm-1:     0.136992     0.054831     0.052480
Rotational constants in MHz :  4106.928256  1643.799656  1573.299166

                             ****ORCA TERMINATED NORMALLY****
TOTAL RUN TIME: 0 days 0 hours 0 minutes 14 seconds 149 msec
