                         Program Version 5.0.0 -  RELEASE  -
|  1> !PBE0 D3BJ RIJCOSX def2-SVPD def2/J TightSCF
|  2> *xyz 1 1
|  3> C          3.38093        2.08304       -3.35013
|  4> N          4.53592        1.18245       -3.42852
|  5> C          2.49556        1.81615       -2.13636
|  6> C          1.87218        0.42790       -2.07750
|  7> C          4.67196        0.12227       -4.22060
|  8> N          5.86602       -0.50785       -4.22428
|  9> N          3.69888       -0.31284       -4.98699
| 10> H          2.73141       -0.05009       -4.84900
| 11> H          3.89005       -1.05517       -5.64373
| 12> H          5.25193        1.30346       -2.72101
| 13> H          6.69516       -0.06232       -3.85160
| 14> H          5.97538       -1.39688       -4.69141
| 15> H          1.69700        2.56197       -2.14111
| 16> H          3.08079        1.98744       -1.22584
| 17> H          2.80646        1.98651       -4.26848
| 18> H          3.77871        3.09828       -3.30738
| 19> H          1.29954        0.25615       -2.96490
| 20> H          1.23321        0.35984       -1.22194
| 21> H          2.64581       -0.30765       -2.00430
| 22> *
| 23>
| 24> %MaxCore 64000
| 25>
| 26> %pal nprocs 8
| 27> end
| 28>
| 29> %scf
| 30>   MaxIter 150
| 31> end
| 32>
| 33>
| 34>                          ****END OF INPUT****

CARTESIAN COORDINATES (ANGSTROEM)
---------------------------------
  C      3.380930    2.083040   -3.350130
  N      4.535920    1.182450   -3.428520
  C      2.495560    1.816150   -2.136360
  C      1.872180    0.427900   -2.077500
  C      4.671960    0.122270   -4.220600
  N      5.866020   -0.507850   -4.224280
  N      3.698880   -0.312840   -4.986990
  H      2.731410   -0.050090   -4.849000
  H      3.890050   -1.055170   -5.643730
  H      5.251930    1.303460   -2.721010
  H      6.695160   -0.062320   -3.851600
  H      5.975380   -1.396880   -4.691410
  H      1.697000    2.561970   -2.141110
  H      3.080790    1.987440   -1.225840
  H      2.806460    1.986510   -4.268480
  H      3.778710    3.098280   -3.307380
  H      1.299540    0.256150   -2.964900
  H      1.233210    0.359840   -1.221940
  H      2.645810   -0.307650   -2.004300

 Total Charge           Charge          ....    1
 Multiplicity           Mult            ....    1
 Number of Electrons    NEL             ....   56
 Basis Dimension        Dim             ....  236

ORBITAL ENERGIES
----------------

  NO   OCC          E(Eh)            E(eV)
   0   2.0000     -14.619510      -397.8171
   1   2.0000     -14.617289      -397.7567
   2   2.0000     -14.613150      -397.6440
   3   2.0000     -10.565338      -287.4975
   4   2.0000     -10.434687      -283.9423
   5   2.0000     -10.375066      -282.3199
   6   2.0000     -10.353432      -281.7312
   7   2.0000      -1.230972       -33.4964
   8   2.0000      -1.119655       -30.4674
   9   2.0000      -1.104282       -30.0490
  10   2.0000      -0.957943       -26.0670
  11   2.0000      -0.882132       -24.0040
  12   2.0000      -0.840994       -22.8846
  13   2.0000      -0.802597       -21.8398
  14   2.0000      -0.778633       -21.1877
  15   2.0000      -0.744535       -20.2598
  16   2.0000      -0.710083       -19.3223
  17   2.0000      -0.705270       -19.1914
  18   2.0000      -0.655075       -17.8255
  19   2.0000      -0.646924       -17.6037
  20   2.0000      -0.613567       -16.6960
  21   2.0000      -0.592734       -16.1291
  22   2.0000      -0.567823       -15.4513
  23   2.0000      -0.524110       -14.2617
  24   2.0000      -0.502782       -13.6814
  25   2.0000      -0.494798       -13.4641
  26   2.0000      -0.487644       -13.2695
  27   2.0000      -0.455045       -12.3824
  28   0.0000      -0.161338        -4.3902
  29   0.0000      -0.140974        -3.8361
  30   0.0000      -0.110016        -2.9937
  31   0.0000      -0.099937        -2.7194
  32   0.0000      -0.083363        -2.2684

MULLIKEN ATOMIC CHARGES
-----------------------
   0 C :    0.736441
   1 N :   -0.657182
   2 C :   -0.435540
   3 C :    0.597797
   4 C :    1.797325
   5 N :   -0.250018
   6 N :   -0.148033
   7 H :   -0.069744
   8 H :   -0.083653
   9 H :   -0.224976
  10 H :   -0.043077
  11 H :    0.004363
  12 H :    0.032254
  13 H :    0.010260
  14 H :   -0.014112
  15 H :   -0.176413
  16 H :   -0.006248
  17 H :   -0.102218
  18 H :    0.032776
Sum of atomic charges:    1.0000000

LOEWDIN ATOMIC CHARGES
----------------------
   0 C :    0.081284
   1 N :    0.040811
   2 C :   -0.057422
   3 C :    0.127449
   4 C :   -0.028649
   5 N :    0.253761
   6 N :    0.279307
   7 H :    0.020828
   8 H :    0.043726
   9 H :    0.062439
  10 H :    0.036899
  11 H :    0.033889
  12 H :    0.039504
  13 H :    0.033502
  14 H :    0.027463
  15 H :    0.042433
  16 H :   -0.018402
  17 H :    0.000548
  18 H :   -0.019371

  Mayer bond orders larger than 0.100000
B(  0-C ,  1-N ) :   0.8601 B(  0-C ,  2-C ) :   1.1113 B(  0-C ,  9-H ) :  -0.1976
B(  0-C , 12-H ) :   0.1034 B(  0-C , 13-H ) :   0.1048 B(  0-C , 14-H ) :   0.7822
B(  0-C , 15-H ) :   0.9430 B(  1-N ,  4-C ) :   0.8156 B(  1-N ,  5-N ) :   0.2925
B(  1-N ,  6-N ) :   0.2871 B(  1-N ,  9-H ) :   1.3839 B(  1-N , 14-H ) :   0.1551
B(  1-N , 15-H ) :   0.1442 B(  2-C ,  3-C ) :   1.3358 B(  2-C , 12-H ) :   0.9276
B(  2-C , 13-H ) :   0.9362 B(  2-C , 14-H ) :   0.1047 B(  2-C , 16-H ) :   0.1966
B(  2-C , 17-H ) :   0.1917 B(  2-C , 18-H ) :   0.1984 B(  3-C , 16-H ) :   0.8102
B(  3-C , 17-H ) :   0.8587 B(  3-C , 18-H ) :   0.8009 B(  4-C ,  5-N ) :   0.6666
B(  4-C ,  6-N ) :   0.8048 B(  4-C ,  7-H ) :  -0.1743 B(  4-C ,  8-H ) :  -0.2021
B(  4-C ,  9-H ) :  -0.2626 B(  4-C , 10-H ) :  -0.1718 B(  4-C , 11-H ) :  -0.1077
B(  5-N ,  6-N ) :   0.2052 B(  5-N , 10-H ) :   1.2018 B(  5-N , 11-H ) :   1.1744
B(  6-N ,  7-H ) :   1.1558 B(  6-N ,  8-H ) :   1.3170 B(  7-H ,  8-H ) :  -0.2182
B( 10-H , 11-H ) :  -0.1642 B( 14-H , 15-H ) :  -0.1024

Dispersion correction           -0.013631845
FINAL SINGLE POINT ENERGY      -323.138384386348

DIPOLE MOMENT
-------------
                                X             Y             Z
Electronic contribution:      5.30627      -1.46310      -3.77883
Nuclear contribution   :     -4.20917       0.72396       2.93051
                        -----------------------------------------
Total Dipole Moment    :      1.09709      -0.73914      -0.84831
                        -----------------------------------------
Magnitude (a.u.)       :      1.57149
Magnitude (Debye)      :      3.99441

Rotational constants in cm-1:     0.153116     0.051500     0.046494
Rotational constants in MHz :  4590.307026  1543.937577  1393.864628

                             ****ORCA TERMINATED NORMALLY****
TOTAL RUN TIME: 0 days 0 hours 0 minutes 17 seconds 218 msec
