                         Program Version 5.0.0 -  RELEASE  -
|  1> !PBE0 D3BJ RIJCOSX def2-SVPD def2/J TightSCF
|  2> *xyz 0 1
|  3> C          3.38093        2.08304       -3.35013
|  4> C          2.49556        1.81615       -2.13636
|  5> C          1.87218        0.42790       -2.07750
|  6> H          2.61427       -0.36583       -2.19889
|  7> H          1.38995        0.27309       -1.11236
|  8> S          0.57902        0.14047       -3.29794
|  9> F          0.22886       -1.24687       -3.12787
| 10> O         -0.43927        1.11897       -3.01455
| 11> O          1.24788        0.40347       -4.59565
| 12> H          1.69700        2.56197       -2.14111
| 13> H          3.08079        1.98744       -1.22584
| 14> H          2.81820        1.91840       -4.24519
| 15> H          4.22171        1.42153       -3.33067
| 16> H          3.72372        3.09635       -3.32565
| 17> *
| 18>
| 19> %MaxCore 64000
| 20>
| 21> %pal nprocs 8
| 22> end
| 23>
| 24> %scf
| 25>   MaxIter 150
| 26> end
| 27>
| 28>
| 29>                          ****END OF INPUT****

CARTESIAN COORDINATES (ANGSTROEM)
---------------------------------
  C      3.380930    2.083040   -3.350130
  C      2.495560    1.816150   -2.136360
  C      1.872180    0.427900   -2.077500
  H      2.614270   -0.365830   -2.198890
  H      1.389950    0.273090   -1.112360
  S      0.579020    0.140470   -3.297940
  F      0.228860   -1.246870   -3.127870
  O     -0.439270    1.118970   -3.014550
  O      1.247880    0.403470   -4.595650
  H      1.697000    2.561970   -2.141110
  H      3.080790    1.987440   -1.225840
  H      2.818200    1.918400   -4.245190
  H      4.221710    1.421530   -3.330670
  H      3.723720    3.096350   -3.325650

 Total Charge           Charge          ....    0
 Multiplicity           Mult            ....    1
 Number of Electrons    NEL             ....   66
 Basis Dimension        Dim             ....  212

ORBITAL ENERGIES
----------------

  NO   OCC          E(Eh)            E(eV)
   0   2.0000     -89.298010     -2429.9224
   1   2.0000     -24.906547      -677.7416
   2   2.0000     -19.234562      -523.3991
   3   2.0000     -19.220171      -523.0074
   4   2.0000     -10.294529      -280.1284
   5   2.0000     -10.259934      -279.1870
   6   2.0000     -10.219244      -278.0798
   7   2.0000      -8.258315      -224.7202
   8   2.0000      -6.204568      -168.8349
   9   2.0000      -6.198290      -168.6640
  10   2.0000      -6.196877      -168.6256
  11   2.0000      -1.412981       -38.4492
  12   2.0000      -1.140091       -31.0235
  13   2.0000      -1.032989       -28.1091
  14   2.0000      -0.849143       -23.1064
  15   2.0000      -0.777544       -21.1580
  16   2.0000      -0.728553       -19.8249
  17   2.0000      -0.651278       -17.7222
  18   2.0000      -0.612462       -16.6659
  19   2.0000      -0.598871       -16.2961
  20   2.0000      -0.577010       -15.7012
  21   2.0000      -0.511615       -13.9218
  22   2.0000      -0.502167       -13.6647
  23   2.0000      -0.470051       -12.7907
  24   2.0000      -0.459903       -12.5146
  25   2.0000      -0.447612       -12.1801
  26   2.0000      -0.406664       -11.0659
  27   2.0000      -0.385330       -10.4854
  28   2.0000      -0.384338       -10.4584
  29   2.0000      -0.369490       -10.0543
  30   2.0000      -0.352497        -9.5919
  31   2.0000      -0.328706        -8.9445
  32   2.0000      -0.322900        -8.7866
  33   0.0000       0.002795         0.0760
  34   0.0000       0.024332         0.6621
  35   0.0000       0.039826         1.0837
  36   0.0000       0.044225         1.2034
  37   0.0000       0.054766         1.4903

MULLIKEN ATOMIC CHARGES
-----------------------
   0 C :    0.673794
   1 C :   -0.402969
   2 C :   -0.122354
   3 H :    0.091962
   4 H :    0.109774
   5 S :    1.660368
   6 F :   -0.448408
   7 O :   -0.692166
   8 O :   -0.769003
   9 H :    0.058368
  10 H :   -0.051180
  11 H :   -0.171342
  12 H :    0.032961
  13 H :    0.030194
Sum of atomic charges:   -0.0000000

LOEWDIN ATOMIC CHARGES
----------------------
   0 C :    0.132885
   1 C :   -0.067941
   2 C :   -0.063402
   3 H :    0.027401
   4 H :    0.021211
   5 S :    1.139319
   6 F :   -0.256474
   7 O :   -0.461381
   8 O :   -0.479849
   9 H :    0.032716
  10 H :    0.035410
  11 H :   -0.042540
  12 H :   -0.008350
  13 H :   -0.009006

  Mayer bond orders larger than 0.100000
B(  0-C ,  1-C ) :   1.2958 B(  0-C , 11-H ) :   0.8792 B(  0-C , 12-H ) :   0.7629
B(  0-C , 13-H ) :   0.7532 B(  1-C ,  2-C ) :   1.2524 B(  1-C ,  3-H ) :   0.1153
B(  1-C ,  4-H ) :   0.1233 B(  1-C ,  9-H ) :   0.9032 B(  1-C , 10-H ) :   0.9383
B(  1-C , 11-H ) :   0.2279 B(  1-C , 12-H ) :   0.1843 B(  1-C , 13-H ) :   0.1749
B(  2-C ,  3-H ) :   0.9366 B(  2-C ,  4-H ) :   0.8811 B(  2-C ,  5-S ) :   0.9754
B(  2-C ,  9-H ) :   0.1191 B(  5-S ,  6-F ) :   0.6386 B(  5-S ,  7-O ) :   1.4699
B(  5-S ,  8-O ) :   1.4201 B( 11-H , 12-H ) :   0.1107

Dispersion correction           -0.011101711
FINAL SINGLE POINT ENERGY      -766.030889330569

DIPOLE MOMENT
-------------
                                X             Y             Z
Electronic contribution:    -10.68259      -8.89290      -2.83574
Nuclear contribution   :     11.47400       8.34657       4.07449
                        -----------------------------------------
Total Dipole Moment    :      0.79140      -0.54632       1.23875
                        -----------------------------------------
Magnitude (a.u.)       :      1.56821
Magnitude (Debye)      :      3.98608

Rotational constants in cm-1:     0.134491     0.052696     0.050832
Rotational constants in MHz :  4031.952949  1579.780527  1523.918863

                             ****ORCA TERMINATED NORMALLY****
TOTAL RUN TIME: 0 days 0 hours 0 minutes 13 seconds 475 msec
