                         Program Version 5.0.0 -  RELEASE  -
|  1> !PBE0 D3BJ RIJCOSX def2-SVPD def2/J TightSCF
|  2> *xyz 0 1
|  3> C          3.38093        2.08304       -3.35013
|  4> C          4.53592        1.18245       -3.42852
|  5> C          2.49556        1.81615       -2.13636
|  6> C          1.87218        0.42790       -2.07750
|  7> C          4.67196        0.12227       -4.22060
|  8> N          5.86602       -0.50785       -4.22428
|  9> N          3.69888       -0.31284       -4.98699
| 10> H          2.73141       -0.05009       -4.84900
| 11> H          3.89005       -1.05517       -5.64373
| 12> H          5.25193        1.30346       -2.72101
| 13> H          6.69516       -0.06232       -3.85160
| 14> H          5.97538       -1.39688       -4.69141
| 15> H          1.69700        2.56197       -2.14111
| 16> H          3.08079        1.98744       -1.22584
| 17> H          2.80646        1.98651       -4.26848
| 18> H          3.77871        3.09828       -3.30738
| 19> H          1.29954        0.25615       -2.96490
| 20> H          1.23321        0.35984       -1.22194
| 21> H          2.64581       -0.30765       -2.00430
| 22> *
| 23>
| 24> %MaxCore 64000
| 25>
| 26> %pal nprocs 8
| 27> end
| 28>
| 29> %scf
| 30>   MaxIter 150
| 31> end
| 32>
| 33>
| 34>                          ****END OF INPUT****

CARTESIAN COORDINATES (ANGSTROEM)
---------------------------------
  C      3.380930    2.083040   -3.350130
  C      4.535920    1.182450   -3.428520
  C      2.495560    1.816150   -2.136360
  C      1.872180    0.427900   -2.077500
  C      4.671960    0.122270   -4.220600
  N      5.866020   -0.507850   -4.224280
  N      3.698880   -0.312840   -4.986990
  H      2.731410   -0.050090   -4.849000
  H      3.890050   -1.055170   -5.643730
  H      5.251930    1.303460   -2.721010
  H      6.695160   -0.062320   -3.851600
  H      5.975380   -1.396880   -4.691410
  H      1.697000    2.561970   -2.141110
  H      3.080790    1.987440   -1.225840
  H      2.806460    1.986510   -4.268480
  H      3.778710    3.098280   -3.307380
  H      1.299540    0.256150   -2.964900
  H      1.233210    0.359840   -1.221940
  H      2.645810   -0.307650   -2.004300

 Total Charge           Charge          ....    0
 Multiplicity           Mult            ....    1
 Number of Electrons    NEL             ....   56
 Basis Dimension        Dim             ....  236

ORBITAL ENERGIES
----------------

  NO   OCC          E(Eh)            E(eV)
   0   2.0000     -14.399361      -391.8265
   1   2.0000     -14.392808      -391.6482
   2   2.0000     -10.275421      -279.6084
   3   2.0000     -10.209331      -277.8100
   4   2.0000     -10.205278      -277.6997
   5   2.0000     -10.202609      -277.6271
   6   2.0000     -10.155492      -276.3450
   7   2.0000      -0.979869       -26.6636
   8   2.0000      -0.885596       -24.0983
   9   2.0000      -0.801567       -21.8117
  10   2.0000      -0.736834       -20.0503
  11   2.0000      -0.675195       -18.3730
  12   2.0000      -0.614507       -16.7216
  13   2.0000      -0.578517       -15.7423
  14   2.0000      -0.559095       -15.2138
  15   2.0000      -0.521616       -14.1939
  16   2.0000      -0.495794       -13.4912
  17   2.0000      -0.458026       -12.4635
  18   2.0000      -0.446516       -12.1503
  19   2.0000      -0.428550       -11.6614
  20   2.0000      -0.398075       -10.8322
  21   2.0000      -0.388951       -10.5839
  22   2.0000      -0.362986        -9.8773
  23   2.0000      -0.344616        -9.3775
  24   2.0000      -0.327237        -8.9046
  25   2.0000      -0.321079        -8.7370
  26   2.0000      -0.277034        -7.5385
  27   2.0000      -0.168580        -4.5873
  28   0.0000       0.021422         0.5829
  29   0.0000       0.043132         1.1737
  30   0.0000       0.056058         1.5254
  31   0.0000       0.068398         1.8612
  32   0.0000       0.072161         1.9636

MULLIKEN ATOMIC CHARGES
-----------------------
   0 C :    0.141502
   1 C :   -0.325585
   2 C :   -0.441012
   3 C :    0.586257
   4 C :    1.199694
   5 N :   -0.205422
   6 N :   -0.063713
   7 H :   -0.097751
   8 H :   -0.234123
   9 H :   -0.207967
  10 H :   -0.067984
  11 H :   -0.107668
  12 H :   -0.013588
  13 H :   -0.005427
  14 H :   -0.047643
  15 H :   -0.034485
  16 H :   -0.023902
  17 H :   -0.090105
  18 H :    0.038921
Sum of atomic charges:    0.0000000

LOEWDIN ATOMIC CHARGES
----------------------
   0 C :   -0.062543
   1 C :   -0.032256
   2 C :   -0.087197
   3 C :    0.110964
   4 C :   -0.218944
   5 N :    0.172708
   6 N :    0.196040
   7 H :   -0.008494
   8 H :   -0.004303
   9 H :   -0.044649
  10 H :    0.004207
  11 H :   -0.015337
  12 H :    0.013722
  13 H :    0.022956
  14 H :    0.006181
  15 H :    0.015182
  16 H :   -0.027025
  17 H :   -0.021074
  18 H :   -0.020139

  Mayer bond orders larger than 0.100000
B(  0-C ,  1-C ) :   1.1302 B(  0-C ,  2-C ) :   1.1436 B(  0-C ,  9-H ) :   0.2153
B(  0-C , 12-H ) :   0.1303 B(  0-C , 13-H ) :   0.1396 B(  0-C , 14-H ) :   0.8423
B(  0-C , 15-H ) :   0.8965 B(  1-C ,  4-C ) :   1.6157 B(  1-C ,  5-N ) :   0.4314
B(  1-C ,  6-N ) :   0.2553 B(  1-C ,  9-H ) :   0.9136 B(  1-C , 14-H ) :   0.2064
B(  1-C , 15-H ) :   0.1253 B(  2-C ,  3-C ) :   1.3389 B(  2-C , 12-H ) :   0.9235
B(  2-C , 13-H ) :   0.9285 B(  2-C , 14-H ) :   0.1145 B(  2-C , 16-H ) :   0.2029
B(  2-C , 17-H ) :   0.2009 B(  2-C , 18-H ) :   0.2150 B(  3-C , 12-H ) :   0.1022
B(  3-C , 16-H ) :   0.8202 B(  3-C , 17-H ) :   0.8158 B(  3-C , 18-H ) :   0.7999
B(  4-C ,  5-N ) :   0.6082 B(  4-C ,  6-N ) :   0.8678 B(  4-C ,  8-H ) :  -0.2380
B(  4-C ,  9-H ) :   0.1160 B(  4-C , 10-H ) :  -0.1563 B(  4-C , 14-H ) :  -0.1078
B(  5-N ,  6-N ) :   0.1233 B(  5-N , 10-H ) :   1.2254 B(  5-N , 11-H ) :   1.1944
B(  6-N ,  7-H ) :   1.1238 B(  6-N ,  8-H ) :   1.4129 B(  7-H ,  8-H ) :  -0.2134
B( 10-H , 11-H ) :  -0.1562 B( 16-H , 18-H ) :   0.1007

Dispersion correction           -0.014117605
FINAL SINGLE POINT ENERGY      -306.677504231135

DIPOLE MOMENT
-------------
                                X             Y             Z
Electronic contribution:      4.23971      -1.64804      -3.47596
Nuclear contribution   :     -4.04774       0.83876       2.94666
                        -----------------------------------------
Total Dipole Moment    :      0.19196      -0.80928      -0.52929
                        -----------------------------------------
Magnitude (a.u.)       :      0.98587
Magnitude (Debye)      :      2.50588

Rotational constants in cm-1:     0.155283     0.051523     0.046710
Rotational constants in MHz :  4655.262593  1544.606434  1400.328421

                             ****ORCA TERMINATED NORMALLY****
TOTAL RUN TIME: 0 days 0 hours 0 minutes 17 seconds 531 msec
