                         Program Version 5.0.0 -  RELEASE  -
|  1> !PBE0 D3BJ RIJCOSX def2-SVPD def2/J TightSCF
|  2> *xyz 0 1
|  3> C          3.38093        2.08304       -3.35013
|  4> C          2.49556        1.81615       -2.13636
|  5> C          1.87218        0.42790       -2.07750
|  6> H          2.61427       -0.36583       -2.19889
|  7> H          1.38995        0.27309       -1.11236
|  8> S          0.57902        0.14047       -3.29794
|  9> O          0.22886       -1.24687       -3.12787
| 10> F         -0.43927        1.11897       -3.01455
| 11> O          1.24788        0.40347       -4.59565
| 12> H          1.69700        2.56197       -2.14111
| 13> H          3.08079        1.98744       -1.22584
| 14> H          2.81820        1.91840       -4.24519
| 15> H          4.22171        1.42153       -3.33067
| 16> H          3.72372        3.09635       -3.32565
| 17> *
| 18>
| 19> %MaxCore 64000
| 20>
| 21> %pal nprocs 8
| 22> end
| 23>
| 24> %scf
| 25>   MaxIter 150
| 26> end
| 27>
| 28>
| 29>                          ****END OF INPUT****

CARTESIAN COORDINATES (ANGSTROEM)
---------------------------------
  C      3.380930    2.083040   -3.350130
  C      2.495560    1.816150   -2.136360
  C      1.872180    0.427900   -2.077500
  H      2.614270   -0.365830   -2.198890
  H      1.389950    0.273090   -1.112360
  S      0.579020    0.140470   -3.297940
  O      0.228860   -1.246870   -3.127870
  F     -0.439270    1.118970   -3.014550
  O      1.247880    0.403470   -4.595650
  H      1.697000    2.561970   -2.141110
  H      3.080790    1.987440   -1.225840
  H      2.818200    1.918400   -4.245190
  H      4.221710    1.421530   -3.330670
  H      3.723720    3.096350   -3.325650

 Total Charge           Charge          ....    0
 Multiplicity           Mult            ....    1
 Number of Electrons    NEL             ....   66
 Basis Dimension        Dim             ....  212

ORBITAL ENERGIES
----------------

  NO   OCC          E(Eh)            E(eV)
   0   2.0000     -89.298437     -2429.9340
   1   2.0000     -24.907035      -677.7549
   2   2.0000     -19.234771      -523.4047
   3   2.0000     -19.220742      -523.0230
   4   2.0000     -10.294462      -280.1266
   5   2.0000     -10.263102      -279.2732
   6   2.0000     -10.222302      -278.1630
   7   2.0000      -8.258647      -224.7292
   8   2.0000      -6.204987      -168.8463
   9   2.0000      -6.198580      -168.6719
  10   2.0000      -6.197189      -168.6341
  11   2.0000      -1.413736       -38.4697
  12   2.0000      -1.139453       -31.0061
  13   2.0000      -1.034181       -28.1415
  14   2.0000      -0.852579       -23.1998
  15   2.0000      -0.774685       -21.0803
  16   2.0000      -0.731906       -19.9162
  17   2.0000      -0.650921       -17.7124
  18   2.0000      -0.617379       -16.7997
  19   2.0000      -0.609586       -16.5877
  20   2.0000      -0.568057       -15.4576
  21   2.0000      -0.508910       -13.8481
  22   2.0000      -0.502934       -13.6855
  23   2.0000      -0.473900       -12.8955
  24   2.0000      -0.465155       -12.6575
  25   2.0000      -0.447828       -12.1860
  26   2.0000      -0.407387       -11.0856
  27   2.0000      -0.390816       -10.6346
  28   2.0000      -0.387553       -10.5459
  29   2.0000      -0.372456       -10.1350
  30   2.0000      -0.351492        -9.5646
  31   2.0000      -0.331832        -9.0296
  32   2.0000      -0.321267        -8.7421
  33   0.0000      -0.001323        -0.0360
  34   0.0000       0.028836         0.7847
  35   0.0000       0.039414         1.0725
  36   0.0000       0.040779         1.1096
  37   0.0000       0.048862         1.3296

MULLIKEN ATOMIC CHARGES
-----------------------
   0 C :    0.677850
   1 C :   -0.354219
   2 C :   -0.103302
   3 H :    0.081066
   4 H :    0.096551
   5 S :    1.615305
   6 O :   -0.701447
   7 F :   -0.418761
   8 O :   -0.754703
   9 H :    0.026274
  10 H :   -0.057587
  11 H :   -0.173499
  12 H :    0.035898
  13 H :    0.030574
Sum of atomic charges:    0.0000000

LOEWDIN ATOMIC CHARGES
----------------------
   0 C :    0.130803
   1 C :   -0.083559
   2 C :   -0.052422
   3 H :    0.041748
   4 H :    0.021655
   5 S :    1.136768
   6 O :   -0.461688
   7 F :   -0.253772
   8 O :   -0.475392
   9 H :    0.025418
  10 H :    0.032235
  11 H :   -0.045733
  12 H :   -0.006195
  13 H :   -0.009866

  Mayer bond orders larger than 0.100000
B(  0-C ,  1-C ) :   1.3060 B(  0-C , 11-H ) :   0.8749 B(  0-C , 12-H ) :   0.7656
B(  0-C , 13-H ) :   0.7575 B(  1-C ,  2-C ) :   1.2000 B(  1-C ,  3-H ) :   0.1098
B(  1-C ,  4-H ) :   0.1109 B(  1-C ,  9-H ) :   0.9012 B(  1-C , 10-H ) :   0.9383
B(  1-C , 11-H ) :   0.2334 B(  1-C , 12-H ) :   0.1858 B(  1-C , 13-H ) :   0.1729
B(  2-C ,  3-H ) :   0.9519 B(  2-C ,  4-H ) :   0.9092 B(  2-C ,  5-S ) :   1.0087
B(  2-C ,  9-H ) :   0.1114 B(  5-S ,  6-O ) :   1.5337 B(  5-S ,  7-F ) :   0.6207
B(  5-S ,  8-O ) :   1.4544 B( 11-H , 12-H ) :   0.1097

Dispersion correction           -0.011045732
FINAL SINGLE POINT ENERGY      -766.030548076134

DIPOLE MOMENT
-------------
                                X             Y             Z
Electronic contribution:    -11.80776      -4.84072      -2.64140
Nuclear contribution   :     12.19253       5.80225       3.95262
                        -----------------------------------------
Total Dipole Moment    :      0.38477       0.96153       1.31122
                        -----------------------------------------
Magnitude (a.u.)       :      1.67089
Magnitude (Debye)      :      4.24708

Rotational constants in cm-1:     0.130581     0.053444     0.051914
Rotational constants in MHz :  3914.711139  1602.211061  1556.338643

                             ****ORCA TERMINATED NORMALLY****
TOTAL RUN TIME: 0 days 0 hours 0 minutes 13 seconds 930 msec
