                         Program Version 5.0.0 -  RELEASE  -
|  1> !PBE0 D3BJ RIJCOSX def2-SVPD def2/J TightSCF
|  2> *xyz 0 1
|  3> C          3.38093        2.08304       -3.35013
|  4> N          4.53592        1.18245       -3.42852
|  5> C          2.49556        1.81615       -2.13636
|  6> C          1.87218        0.42790       -2.07750
|  7> C          4.67196        0.12227       -4.22060
|  8> C          5.86602       -0.50785       -4.22428
|  9> N          3.69888       -0.31284       -4.98699
| 10> H          2.73141       -0.05009       -4.84900
| 11> H          3.89005       -1.05517       -5.64373
| 12> H          5.25193        1.30346       -2.72101
| 13> H          6.69516       -0.06232       -3.85160
| 14> H          5.97538       -1.39688       -4.69141
| 15> H          1.69700        2.56197       -2.14111
| 16> H          3.08079        1.98744       -1.22584
| 17> H          2.80646        1.98651       -4.26848
| 18> H          3.77871        3.09828       -3.30738
| 19> H          1.29954        0.25615       -2.96490
| 20> H          1.23321        0.35984       -1.22194
| 21> H          2.64581       -0.30765       -2.00430
| 22> *
| 23>
| 24> %MaxCore 64000
| 25>
| 26> %pal nprocs 8
| 27> end
| 28>
| 29> %scf
| 30>   MaxIter 150
| 31> end
| 32>
| 33>
| 34>                          ****END OF INPUT****

CARTESIAN COORDINATES (ANGSTROEM)
---------------------------------
  C      3.380930    2.083040   -3.350130
  N      4.535920    1.182450   -3.428520
  C      2.495560    1.816150   -2.136360
  C      1.872180    0.427900   -2.077500
  C      4.671960    0.122270   -4.220600
  C      5.866020   -0.507850   -4.224280
  N      3.698880   -0.312840   -4.986990
  H      2.731410   -0.050090   -4.849000
  H      3.890050   -1.055170   -5.643730
  H      5.251930    1.303460   -2.721010
  H      6.695160   -0.062320   -3.851600
  H      5.975380   -1.396880   -4.691410
  H      1.697000    2.561970   -2.141110
  H      3.080790    1.987440   -1.225840
  H      2.806460    1.986510   -4.268480
  H      3.778710    3.098280   -3.307380
  H      1.299540    0.256150   -2.964900
  H      1.233210    0.359840   -1.221940
  H      2.645810   -0.307650   -2.004300

 Total Charge           Charge          ....    0
 Multiplicity           Mult            ....    1
 Number of Electrons    NEL             ....   56
 Basis Dimension        Dim             ....  236

ORBITAL ENERGIES
----------------

  NO   OCC          E(Eh)            E(eV)
   0   2.0000     -14.398124      -391.7929
   1   2.0000     -14.396953      -391.7610
   2   2.0000     -10.278867      -279.7022
   3   2.0000     -10.270807      -279.4829
   4   2.0000     -10.236216      -278.5416
   5   2.0000     -10.222095      -278.1573
   6   2.0000     -10.140511      -275.9373
   7   2.0000      -0.987070       -26.8595
   8   2.0000      -0.904606       -24.6156
   9   2.0000      -0.808329       -21.9958
  10   2.0000      -0.737316       -20.0634
  11   2.0000      -0.685060       -18.6414
  12   2.0000      -0.619206       -16.8495
  13   2.0000      -0.610634       -16.6162
  14   2.0000      -0.560278       -15.2459
  15   2.0000      -0.513756       -13.9800
  16   2.0000      -0.490491       -13.3469
  17   2.0000      -0.476301       -12.9608
  18   2.0000      -0.464319       -12.6348
  19   2.0000      -0.418194       -11.3796
  20   2.0000      -0.409922       -11.1545
  21   2.0000      -0.402696       -10.9579
  22   2.0000      -0.383747       -10.4423
  23   2.0000      -0.364691        -9.9237
  24   2.0000      -0.359137        -9.7726
  25   2.0000      -0.355051        -9.6614
  26   2.0000      -0.265306        -7.2193
  27   2.0000      -0.166949        -4.5429
  28   0.0000       0.018752         0.5103
  29   0.0000       0.041640         1.1331
  30   0.0000       0.049980         1.3600
  31   0.0000       0.055003         1.4967
  32   0.0000       0.076868         2.0917

MULLIKEN ATOMIC CHARGES
-----------------------
   0 C :    0.717614
   1 N :   -0.552497
   2 C :   -0.443490
   3 C :    0.568774
   4 C :    0.866818
   5 C :    0.346880
   6 N :    0.001466
   7 H :   -0.184877
   8 H :   -0.109844
   9 H :   -0.263797
  10 H :   -0.337615
  11 H :   -0.264707
  12 H :    0.016709
  13 H :   -0.006126
  14 H :   -0.042912
  15 H :   -0.232481
  16 H :   -0.004172
  17 H :   -0.135861
  18 H :    0.060118
Sum of atomic charges:   -0.0000000

LOEWDIN ATOMIC CHARGES
----------------------
   0 C :    0.050873
   1 N :   -0.015265
   2 C :   -0.079361
   3 C :    0.116183
   4 C :   -0.238656
   5 C :    0.137590
   6 N :    0.193608
   7 H :   -0.021222
   8 H :    0.013732
   9 H :    0.038836
  10 H :   -0.105396
  11 H :   -0.108406
  12 H :    0.019692
  13 H :    0.022458
  14 H :    0.013783
  15 H :    0.018313
  16 H :   -0.024486
  17 H :   -0.017201
  18 H :   -0.015074

  Mayer bond orders larger than 0.100000
B(  0-C ,  1-N ) :   0.9106 B(  0-C ,  2-C ) :   1.1021 B(  0-C ,  9-H ) :  -0.2085
B(  0-C , 12-H ) :   0.1157 B(  0-C , 13-H ) :   0.1174 B(  0-C , 14-H ) :   0.7888
B(  0-C , 15-H ) :   0.9483 B(  1-N ,  4-C ) :   0.8955 B(  1-N ,  5-C ) :   0.2233
B(  1-N ,  6-N ) :   0.2212 B(  1-N ,  9-H ) :   1.3121 B(  1-N , 14-H ) :   0.1805
B(  1-N , 15-H ) :   0.1475 B(  2-C ,  3-C ) :   1.3286 B(  2-C , 12-H ) :   0.9206
B(  2-C , 13-H ) :   0.9321 B(  2-C , 14-H ) :   0.1078 B(  2-C , 16-H ) :   0.1998
B(  2-C , 17-H ) :   0.1965 B(  2-C , 18-H ) :   0.2000 B(  3-C , 16-H ) :   0.8159
B(  3-C , 17-H ) :   0.8486 B(  3-C , 18-H ) :   0.8039 B(  4-C ,  5-C ) :   1.4580
B(  4-C ,  6-N ) :   0.9397 B(  4-C ,  7-H ) :  -0.1058 B(  4-C ,  8-H ) :  -0.1237
B(  4-C ,  9-H ) :  -0.2243 B(  4-C , 11-H ) :   0.1856 B(  5-C ,  6-N ) :   0.1953
B(  5-C , 10-H ) :   0.9237 B(  5-C , 11-H ) :   0.7930 B(  6-N ,  7-H ) :   1.1667
B(  6-N ,  8-H ) :   1.2733 B(  6-N , 14-H ) :   0.1063 B(  7-H ,  8-H ) :  -0.2052
B( 14-H , 15-H ) :  -0.1072

Dispersion correction           -0.013976913
FINAL SINGLE POINT ENERGY      -306.665080142139

DIPOLE MOMENT
-------------
                                X             Y             Z
Electronic contribution:      2.70226       0.00759      -2.61050
Nuclear contribution   :     -3.75638       0.46849       2.77235
                        -----------------------------------------
Total Dipole Moment    :     -1.05412       0.47609       0.16185
                        -----------------------------------------
Magnitude (a.u.)       :      1.16791
Magnitude (Debye)      :      2.96860

Rotational constants in cm-1:     0.154609     0.053528     0.048030
Rotational constants in MHz :  4635.053294  1604.739826  1439.897073

                             ****ORCA TERMINATED NORMALLY****
TOTAL RUN TIME: 0 days 0 hours 0 minutes 17 seconds 243 msec
