                         Program Version 5.0.0 -  RELEASE  -
|  1> !PBE0 D3BJ RIJCOSX def2-SVPD def2/J TightSCF
|  2> *xyz 0 1
|  3> C          3.38093        2.08304       -3.35013
|  4> C          2.49556        1.81615       -2.13636
|  5> C          1.87218        0.42790       -2.07750
|  6> H          2.61427       -0.36583       -2.19889
|  7> H          1.38995        0.27309       -1.11236
|  8> S          0.57902        0.14047       -3.29794
|  9> O          0.22886       -1.24687       -3.12787
| 10> O         -0.43927        1.11897       -3.01455
| 11> F          1.24788        0.40347       -4.59565
| 12> H          1.69700        2.56197       -2.14111
| 13> H          3.08079        1.98744       -1.22584
| 14> H          2.81820        1.91840       -4.24519
| 15> H          4.22171        1.42153       -3.33067
| 16> H          3.72372        3.09635       -3.32565
| 17> *
| 18>
| 19> %MaxCore 64000
| 20>
| 21> %pal nprocs 8
| 22> end
| 23>
| 24> %scf
| 25>   MaxIter 150
| 26> end
| 27>
| 28>
| 29>                          ****END OF INPUT****

CARTESIAN COORDINATES (ANGSTROEM)
---------------------------------
  C      3.380930    2.083040   -3.350130
  C      2.495560    1.816150   -2.136360
  C      1.872180    0.427900   -2.077500
  H      2.614270   -0.365830   -2.198890
  H      1.389950    0.273090   -1.112360
  S      0.579020    0.140470   -3.297940
  O      0.228860   -1.246870   -3.127870
  O     -0.439270    1.118970   -3.014550
  F      1.247880    0.403470   -4.595650
  H      1.697000    2.561970   -2.141110
  H      3.080790    1.987440   -1.225840
  H      2.818200    1.918400   -4.245190
  H      4.221710    1.421530   -3.330670
  H      3.723720    3.096350   -3.325650

 Total Charge           Charge          ....    0
 Multiplicity           Mult            ....    1
 Number of Electrons    NEL             ....   66
 Basis Dimension        Dim             ....  212

ORBITAL ENERGIES
----------------

  NO   OCC          E(Eh)            E(eV)
   0   2.0000     -89.295134     -2429.8441
   1   2.0000     -24.884419      -677.1395
   2   2.0000     -19.234078      -523.3859
   3   2.0000     -19.233657      -523.3744
   4   2.0000     -10.293103      -280.0896
   5   2.0000     -10.263169      -279.2750
   6   2.0000     -10.237074      -278.5649
   7   2.0000      -8.255393      -224.6407
   8   2.0000      -6.201493      -168.7512
   9   2.0000      -6.195548      -168.5894
  10   2.0000      -6.194144      -168.5512
  11   2.0000      -1.376973       -37.4694
  12   2.0000      -1.149185       -31.2709
  13   2.0000      -1.054264       -28.6880
  14   2.0000      -0.854130       -23.2421
  15   2.0000      -0.771570       -20.9955
  16   2.0000      -0.720756       -19.6128
  17   2.0000      -0.655186       -17.8285
  18   2.0000      -0.596105       -16.2208
  19   2.0000      -0.585768       -15.9395
  20   2.0000      -0.568492       -15.4695
  21   2.0000      -0.510907       -13.9025
  22   2.0000      -0.495165       -13.4741
  23   2.0000      -0.483455       -13.1555
  24   2.0000      -0.473822       -12.8933
  25   2.0000      -0.452489       -12.3128
  26   2.0000      -0.417018       -11.3476
  27   2.0000      -0.400478       -10.8976
  28   2.0000      -0.384388       -10.4597
  29   2.0000      -0.376626       -10.2485
  30   2.0000      -0.359271        -9.7763
  31   2.0000      -0.344377        -9.3710
  32   2.0000      -0.338015        -9.1979
  33   0.0000       0.003239         0.0881
  34   0.0000       0.030615         0.8331
  35   0.0000       0.039446         1.0734
  36   0.0000       0.041198         1.1210
  37   0.0000       0.055005         1.4968

MULLIKEN ATOMIC CHARGES
-----------------------
   0 C :    0.662111
   1 C :   -0.352970
   2 C :   -0.111347
   3 H :    0.092888
   4 H :    0.099197
   5 S :    1.603187
   6 O :   -0.710894
   7 O :   -0.705232
   8 F :   -0.452546
   9 H :    0.056412
  10 H :   -0.048735
  11 H :   -0.199809
  12 H :    0.039520
  13 H :    0.028219
Sum of atomic charges:   -0.0000000

LOEWDIN ATOMIC CHARGES
----------------------
   0 C :    0.129370
   1 C :   -0.081744
   2 C :   -0.051758
   3 H :    0.029664
   4 H :    0.035638
   5 S :    1.125829
   6 O :   -0.462506
   7 O :   -0.460073
   8 F :   -0.275792
   9 H :    0.029711
  10 H :    0.033908
  11 H :   -0.038400
  12 H :   -0.007219
  13 H :   -0.006629

  Mayer bond orders larger than 0.100000
B(  0-C ,  1-C ) :   1.2935 B(  0-C , 11-H ) :   0.8724 B(  0-C , 12-H ) :   0.7732
B(  0-C , 13-H ) :   0.7661 B(  1-C ,  2-C ) :   1.2154 B(  1-C ,  3-H ) :   0.1181
B(  1-C ,  4-H ) :   0.1110 B(  1-C ,  9-H ) :   0.9144 B(  1-C , 10-H ) :   0.9279
B(  1-C , 11-H ) :   0.2187 B(  1-C , 12-H ) :   0.1822 B(  1-C , 13-H ) :   0.1736
B(  2-C ,  3-H ) :   0.9497 B(  2-C ,  4-H ) :   0.9017 B(  2-C ,  5-S ) :   1.0227
B(  2-C ,  9-H ) :   0.1209 B(  5-S ,  6-O ) :   1.5179 B(  5-S ,  7-O ) :   1.4853
B(  5-S ,  8-F ) :   0.5994 B( 11-H , 12-H ) :   0.1026

Dispersion correction           -0.010996984
FINAL SINGLE POINT ENERGY      -766.049528740335

DIPOLE MOMENT
-------------
                                X             Y             Z
Electronic contribution:     -8.87007      -6.01960      -5.31947
Nuclear contribution   :     10.37810       6.57173       5.65300
                        -----------------------------------------
Total Dipole Moment    :      1.50803       0.55213       0.33353
                        -----------------------------------------
Magnitude (a.u.)       :      1.64020
Magnitude (Debye)      :      4.16905

Rotational constants in cm-1:     0.130522     0.054787     0.051463
Rotational constants in MHz :  3912.959799  1642.486768  1542.828917

                             ****ORCA TERMINATED NORMALLY****
TOTAL RUN TIME: 0 days 0 hours 0 minutes 13 seconds 516 msec
