                         Program Version 5.0.0 -  RELEASE  -
|  1> !PBE0 D3BJ RIJCOSX def2-SVPD def2/J TightSCF
|  2> *xyz 0 1
|  3> C          3.38093        2.08304       -3.35013
|  4> N          4.53592        1.18245       -3.42852
|  5> C          2.49556        1.81615       -2.13636
|  6> C          1.87218        0.42790       -2.07750
|  7> C          4.67196        0.12227       -4.22060
|  8> N          5.86602       -0.50785       -4.22428
|  9> C          3.69888       -0.31284       -4.98699
| 10> H          2.73141       -0.05009       -4.84900
| 11> H          3.89005       -1.05517       -5.64373
| 12> H          5.25193        1.30346       -2.72101
| 13> H          6.69516       -0.06232       -3.85160
| 14> H          5.97538       -1.39688       -4.69141
| 15> H          1.69700        2.56197       -2.14111
| 16> H          3.08079        1.98744       -1.22584
| 17> H          2.80646        1.98651       -4.26848
| 18> H          3.77871        3.09828       -3.30738
| 19> H          1.29954        0.25615       -2.96490
| 20> H          1.23321        0.35984       -1.22194
| 21> H          2.64581       -0.30765       -2.00430
| 22> *
| 23>
| 24> %MaxCore 64000
| 25>
| 26> %pal nprocs 8
| 27> end
| 28>
| 29> %scf
| 30>   MaxIter 150
| 31> end
| 32>
| 33>
| 34>                          ****END OF INPUT****

CARTESIAN COORDINATES (ANGSTROEM)
---------------------------------
  C      3.380930    2.083040   -3.350130
  N      4.535920    1.182450   -3.428520
  C      2.495560    1.816150   -2.136360
  C      1.872180    0.427900   -2.077500
  C      4.671960    0.122270   -4.220600
  N      5.866020   -0.507850   -4.224280
  C      3.698880   -0.312840   -4.986990
  H      2.731410   -0.050090   -4.849000
  H      3.890050   -1.055170   -5.643730
  H      5.251930    1.303460   -2.721010
  H      6.695160   -0.062320   -3.851600
  H      5.975380   -1.396880   -4.691410
  H      1.697000    2.561970   -2.141110
  H      3.080790    1.987440   -1.225840
  H      2.806460    1.986510   -4.268480
  H      3.778710    3.098280   -3.307380
  H      1.299540    0.256150   -2.964900
  H      1.233210    0.359840   -1.221940
  H      2.645810   -0.307650   -2.004300

 Total Charge           Charge          ....    0
 Multiplicity           Mult            ....    1
 Number of Electrons    NEL             ....   56
 Basis Dimension        Dim             ....  236

ORBITAL ENERGIES
----------------

  NO   OCC          E(Eh)            E(eV)
   0   2.0000     -14.397946      -391.7880
   1   2.0000     -14.393145      -391.6574
   2   2.0000     -10.276699      -279.6432
   3   2.0000     -10.262712      -279.2626
   4   2.0000     -10.228662      -278.3360
   5   2.0000     -10.209234      -277.8074
   6   2.0000     -10.145131      -276.0630
   7   2.0000      -0.981290       -26.7023
   8   2.0000      -0.896291       -24.3893
   9   2.0000      -0.794660       -21.6238
  10   2.0000      -0.733617       -19.9627
  11   2.0000      -0.701103       -19.0780
  12   2.0000      -0.616927       -16.7874
  13   2.0000      -0.577950       -15.7268
  14   2.0000      -0.557313       -15.1653
  15   2.0000      -0.528458       -14.3801
  16   2.0000      -0.480409       -13.0726
  17   2.0000      -0.470813       -12.8115
  18   2.0000      -0.443749       -12.0750
  19   2.0000      -0.425206       -11.5704
  20   2.0000      -0.401798       -10.9335
  21   2.0000      -0.399194       -10.8626
  22   2.0000      -0.383580       -10.4377
  23   2.0000      -0.357648        -9.7321
  24   2.0000      -0.353913        -9.6305
  25   2.0000      -0.342167        -9.3108
  26   2.0000      -0.258730        -7.0404
  27   2.0000      -0.179785        -4.8922
  28   0.0000       0.022992         0.6257
  29   0.0000       0.042853         1.1661
  30   0.0000       0.052306         1.4233
  31   0.0000       0.062204         1.6926
  32   0.0000       0.076767         2.0889

MULLIKEN ATOMIC CHARGES
-----------------------
   0 C :    0.734953
   1 N :   -0.638973
   2 C :   -0.493877
   3 C :    0.578424
   4 C :    1.122382
   5 N :   -0.118494
   6 C :    0.151041
   7 H :   -0.242090
   8 H :   -0.395049
   9 H :   -0.327492
  10 H :   -0.145931
  11 H :   -0.010440
  12 H :    0.000394
  13 H :   -0.010012
  14 H :    0.059326
  15 H :   -0.204342
  16 H :    0.037216
  17 H :   -0.134393
  18 H :    0.037358
Sum of atomic charges:   -0.0000000

LOEWDIN ATOMIC CHARGES
----------------------
   0 C :    0.059079
   1 N :   -0.024064
   2 C :   -0.077240
   3 C :    0.118492
   4 C :   -0.234761
   5 N :    0.175504
   6 C :    0.151236
   7 H :   -0.107703
   8 H :   -0.094840
   9 H :    0.024047
  10 H :   -0.011863
  11 H :    0.002682
  12 H :    0.019513
  13 H :    0.018574
  14 H :    0.019882
  15 H :    0.018698
  16 H :   -0.019416
  17 H :   -0.020121
  18 H :   -0.017698

  Mayer bond orders larger than 0.100000
B(  0-C ,  1-N ) :   0.8474 B(  0-C ,  2-C ) :   1.0911 B(  0-C ,  9-H ) :  -0.1942
B(  0-C , 12-H ) :   0.1153 B(  0-C , 14-H ) :   0.7706 B(  0-C , 15-H ) :   0.9384
B(  1-N ,  4-C ) :   0.7339 B(  1-N ,  5-N ) :   0.2092 B(  1-N ,  6-C ) :   0.3705
B(  1-N ,  9-H ) :   1.4605 B(  1-N , 14-H ) :   0.1385 B(  1-N , 15-H ) :   0.1457
B(  2-C ,  3-C ) :   1.3239 B(  2-C , 12-H ) :   0.9361 B(  2-C , 13-H ) :   0.9505
B(  2-C , 14-H ) :   0.1119 B(  2-C , 16-H ) :   0.1960 B(  2-C , 17-H ) :   0.1968
B(  2-C , 18-H ) :   0.1957 B(  3-C , 16-H ) :   0.8087 B(  3-C , 17-H ) :   0.8442
B(  3-C , 18-H ) :   0.8202 B(  4-C ,  5-N ) :   0.8171 B(  4-C ,  6-C ) :   1.4825
B(  4-C ,  8-H ) :   0.2451 B(  4-C ,  9-H ) :  -0.3072 B(  4-C , 10-H ) :  -0.1002
B(  5-N ,  6-C ) :   0.3086 B(  5-N , 10-H ) :   1.2149 B(  5-N , 11-H ) :   1.1350
B(  6-C ,  7-H ) :   0.7633 B(  6-C ,  8-H ) :   0.8760 B(  7-H ,  8-H ) :  -0.1130
B( 10-H , 11-H ) :  -0.1626 B( 14-H , 15-H ) :  -0.1062

Dispersion correction           -0.014071138
FINAL SINGLE POINT ENERGY      -306.668946727368

DIPOLE MOMENT
-------------
                                X             Y             Z
Electronic contribution:      4.87898      -0.22953      -1.97059
Nuclear contribution   :     -4.23110       0.51121       2.60527
                        -----------------------------------------
Total Dipole Moment    :      0.64787       0.28169       0.63468
                        -----------------------------------------
Magnitude (a.u.)       :      0.94969
Magnitude (Debye)      :      2.41392

Rotational constants in cm-1:     0.158478     0.052124     0.047173
Rotational constants in MHz :  4751.056263  1562.646208  1414.197352

                             ****ORCA TERMINATED NORMALLY****
TOTAL RUN TIME: 0 days 0 hours 0 minutes 17 seconds 242 msec
