                         Program Version 5.0.0 -  RELEASE  -
|  1> !PBE0 D3BJ RIJCOSX def2-SVPD def2/J TightSCF xyzfile
|  2>
|  3> *xyzfile 0 1 D1.xyz
|  4>
|  5> %MaxCore 64000
|  6>
|  7> %pal nprocs 4
|  8> end
|  9>
| 10> %scf
| 11>   MaxIter 150
| 12> end
| 13>
| 14>
| 15>                          ****END OF INPUT****

CARTESIAN COORDINATES (ANGSTROEM)
---------------------------------
  C      3.380928    2.083045   -3.350127
  C      4.535924    1.182447   -3.428518
  C      2.495557    1.816150   -2.136364
  C      1.872181    0.427903   -2.077497
  H      2.614270   -0.365825   -2.198894
  H      1.389953    0.273087   -1.112360
  S      0.579024    0.140472   -3.297943
  C      4.671956    0.122273   -4.220598
  N      5.866023   -0.507849   -4.224284
  N      3.698881   -0.312844   -4.986988
  H      2.731405   -0.050091   -4.849000
  H      3.890046   -1.055172   -5.643730
  H      5.251933    1.303459   -2.721014
  H      6.695165   -0.062322   -3.851596
  H      5.975383   -1.396884   -4.691414
  F      0.228860   -1.246868   -3.127871
  O     -0.439269    1.118966   -3.014550
  O      1.247881    0.403474   -4.595647
  H      1.697003    2.561969   -2.141109
  H      3.080787    1.987436   -1.225838
  H      2.806463    1.986511   -4.268484
  H      3.778714    3.098282   -3.307383

 Total Charge           Charge          ....    0
 Multiplicity           Mult            ....    1
 Number of Electrons    NEL             ....   96
 Basis Dimension        Dim             ....  324

ORBITAL ENERGIES
----------------

  NO   OCC          E(Eh)            E(eV)
   0   2.0000     -89.307723     -2430.1867
   1   2.0000     -24.913549      -677.9321
   2   2.0000     -19.241701      -523.5933
   3   2.0000     -19.237222      -523.4714
   4   2.0000     -14.390547      -391.5867
   5   2.0000     -14.373342      -391.1185
   6   2.0000     -10.289061      -279.9796
   7   2.0000     -10.273070      -279.5444
   8   2.0000     -10.244957      -278.7794
   9   2.0000     -10.210695      -277.8471
  10   2.0000     -10.155134      -276.3352
  11   2.0000      -8.267617      -224.9733
  12   2.0000      -6.213876      -169.0882
  13   2.0000      -6.207904      -168.9256
  14   2.0000      -6.205922      -168.8717
  15   2.0000      -1.419813       -38.6351
  16   2.0000      -1.151142       -31.3242
  17   2.0000      -1.050611       -28.5886
  18   2.0000      -0.971258       -26.4293
  19   2.0000      -0.876884       -23.8612
  20   2.0000      -0.845909       -23.0183
  21   2.0000      -0.786252       -21.3950
  22   2.0000      -0.748264       -20.3613
  23   2.0000      -0.700821       -19.0703
  24   2.0000      -0.647435       -17.6176
  25   2.0000      -0.622090       -16.9279
  26   2.0000      -0.609243       -16.5784
  27   2.0000      -0.600017       -16.3273
  28   2.0000      -0.570869       -15.5341
  29   2.0000      -0.552518       -15.0348
  30   2.0000      -0.533631       -14.5208
  31   2.0000      -0.508172       -13.8281
  32   2.0000      -0.501773       -13.6539
  33   2.0000      -0.487228       -13.2582
  34   2.0000      -0.469040       -12.7632
  35   2.0000      -0.455827       -12.4037
  36   2.0000      -0.424271       -11.5450
  37   2.0000      -0.419657       -11.4194
  38   2.0000      -0.408482       -11.1154
  39   2.0000      -0.396455       -10.7881
  40   2.0000      -0.372778       -10.1438
  41   2.0000      -0.368181       -10.0187
  42   2.0000      -0.352249        -9.5852
  43   2.0000      -0.349920        -9.5218
  44   2.0000      -0.334320        -9.0973
  45   2.0000      -0.324960        -8.8426
  46   2.0000      -0.267909        -7.2902
  47   2.0000      -0.169078        -4.6009
  48   0.0000      -0.000234        -0.0064
  49   0.0000       0.026316         0.7161
  50   0.0000       0.031044         0.8448
  51   0.0000       0.041268         1.1230
  52   0.0000       0.051068         1.3896

MULLIKEN ATOMIC CHARGES
-----------------------
   0 C :    0.212258
   1 C :   -0.204796
   2 C :    0.047594
   3 C :   -0.108650
   4 H :    0.183446
   5 H :   -0.004885
   6 S :    1.701932
   7 C :    1.122501
   8 N :   -0.190482
   9 N :    0.287093
  10 H :   -0.245962
  11 H :   -0.247062
  12 H :   -0.280220
  13 H :   -0.092092
  14 H :   -0.110096
  15 F :   -0.446708
  16 O :   -0.739454
  17 O :   -0.887424
  18 H :    0.071431
  19 H :    0.041390
  20 H :   -0.013655
  21 H :   -0.096159
Sum of atomic charges:   -0.0000000

LOEWDIN ATOMIC CHARGES
----------------------
   0 C :   -0.040131
   1 C :   -0.030404
   2 C :   -0.021436
   3 C :   -0.044758
   4 H :    0.020962
   5 H :    0.020772
   6 S :    1.178441
   7 C :   -0.211400
   8 N :    0.172635
   9 N :    0.222563
  10 H :   -0.141637
  11 H :   -0.000270
  12 H :   -0.050220
  13 H :    0.002137
  14 H :   -0.015121
  15 F :   -0.247959
  16 O :   -0.446685
  17 O :   -0.457874
  18 H :    0.028634
  19 H :    0.039926
  20 H :    0.000120
  21 H :    0.021704

  Mayer bond orders larger than 0.100000
B(  0-C ,  1-C ) :   1.1044 B(  0-C ,  2-C ) :   1.1854 B(  0-C , 12-H ) :   0.2044
B(  0-C , 18-H ) :   0.1559 B(  0-C , 19-H ) :   0.1664 B(  0-C , 20-H ) :   0.8633
B(  0-C , 21-H ) :   0.8277 B(  1-C ,  7-C ) :   1.5899 B(  1-C ,  8-N ) :   0.4081
B(  1-C ,  9-N ) :   0.1944 B(  1-C , 12-H ) :   0.8715 B(  1-C , 20-H ) :   0.2220
B(  1-C , 21-H ) :   0.1140 B(  2-C ,  3-C ) :   1.3314 B(  2-C ,  4-H ) :   0.1339
B(  2-C ,  5-H ) :   0.1645 B(  2-C , 18-H ) :   0.8150 B(  2-C , 19-H ) :   0.7932
B(  2-C , 20-H ) :   0.1346 B(  3-C ,  4-H ) :   0.9081 B(  3-C ,  5-H ) :   0.8098
B(  3-C ,  6-S ) :   0.9591 B(  3-C , 17-O ) :   0.1565 B(  3-C , 18-H ) :   0.1424
B(  3-C , 19-H ) :   0.1067 B(  6-S , 15-F ) :   0.6003 B(  6-S , 16-O ) :   1.4805
B(  6-S , 17-O ) :   1.3283 B(  7-C ,  8-N ) :   0.6189 B(  7-C ,  9-N ) :   0.9479
B(  7-C , 10-H ) :  -0.1053 B(  7-C , 11-H ) :  -0.2259 B(  7-C , 12-H ) :   0.1214
B(  7-C , 13-H ) :  -0.1845 B(  7-C , 20-H ) :  -0.1120 B(  8-N ,  9-N ) :   0.1126
B(  8-N , 12-H ) :   0.1014 B(  8-N , 13-H ) :   1.2513 B(  8-N , 14-H ) :   1.1864
B(  9-N , 10-H ) :   1.1215 B(  9-N , 11-H ) :   1.2932 B(  9-N , 17-O ) :  -0.1011
B( 10-H , 11-H ) :  -0.2032 B( 13-H , 14-H ) :  -0.1571

Dispersion correction           -0.022087192
FINAL SINGLE POINT ENERGY      -953.805883327343

DIPOLE MOMENT
-------------
                                X             Y             Z
Electronic contribution:    -15.25104      -6.68613      -1.13244
Nuclear contribution   :     15.92508       5.34175       1.81950
                        -----------------------------------------
Total Dipole Moment    :      0.67404      -1.34437       0.68706
                        -----------------------------------------
Magnitude (a.u.)       :      1.65340
Magnitude (Debye)      :      4.20260

Rotational constants in cm-1:     0.058561     0.020662     0.017762
Rotational constants in MHz :  1755.621534   619.433801   532.501507

                             ****ORCA TERMINATED NORMALLY****
TOTAL RUN TIME: 0 days 0 hours 1 minutes 23 seconds 375 msec
