                         Program Version 5.0.0 -  RELEASE  -
|  1> !PBE0 D3BJ RIJCOSX def2-SVPD def2/J TightSCF xyzfile
|  2>
|  3> *xyzfile 0 1 D3.xyz
|  4>
|  5> %MaxCore 64000
|  6>
|  7> %pal nprocs 4
|  8> end
|  9>
| 10> %scf
| 11>   MaxIter 150
| 12> end
| 13>
| 14>
| 15>                          ****END OF INPUT****

CARTESIAN COORDINATES (ANGSTROEM)
---------------------------------
  C      3.380928    2.083045   -3.350127
  N      4.535924    1.182447   -3.428518
  C      2.495557    1.816150   -2.136364
  C      1.872181    0.427903   -2.077497
  H      2.614270   -0.365825   -2.198894
  H      1.389953    0.273087   -1.112360
  S      0.579024    0.140472   -3.297943
  C      4.671956    0.122273   -4.220598
  N      5.866023   -0.507849   -4.224284
  C      3.698881   -0.312844   -4.986988
  H      2.731405   -0.050091   -4.849000
  H      3.890046   -1.055172   -5.643730
  H      5.251933    1.303459   -2.721014
  H      6.695165   -0.062322   -3.851596
  H      5.975383   -1.396884   -4.691414
  F      0.228860   -1.246868   -3.127871
  O     -0.439269    1.118966   -3.014550
  O      1.247881    0.403474   -4.595647
  H      1.697003    2.561969   -2.141109
  H      3.080787    1.987436   -1.225838
  H      2.806463    1.986511   -4.268484
  H      3.778714    3.098282   -3.307383

 Total Charge           Charge          ....    0
 Multiplicity           Mult            ....    1
 Number of Electrons    NEL             ....   96
 Basis Dimension        Dim             ....  324

ORBITAL ENERGIES
----------------

  NO   OCC          E(Eh)            E(eV)
   0   2.0000     -89.299589     -2429.9653
   1   2.0000     -24.906046      -677.7280
   2   2.0000     -19.234577      -523.3995
   3   2.0000     -19.219789      -522.9970
   4   2.0000     -14.400536      -391.8585
   5   2.0000     -14.389225      -391.5507
   6   2.0000     -10.293373      -280.0969
   7   2.0000     -10.270676      -279.4793
   8   2.0000     -10.269864      -279.4572
   9   2.0000     -10.264027      -279.2984
  10   2.0000     -10.123895      -275.4852
  11   2.0000      -8.259237      -224.7453
  12   2.0000      -6.205500      -168.8602
  13   2.0000      -6.199384      -168.6938
  14   2.0000      -6.197775      -168.6500
  15   2.0000      -1.411960       -38.4214
  16   2.0000      -1.141566       -31.0636
  17   2.0000      -1.037667       -28.2363
  18   2.0000      -0.980913       -26.6920
  19   2.0000      -0.897806       -24.4305
  20   2.0000      -0.843635       -22.9565
  21   2.0000      -0.775394       -21.0995
  22   2.0000      -0.736684       -20.0462
  23   2.0000      -0.713955       -19.4277
  24   2.0000      -0.662639       -18.0313
  25   2.0000      -0.612396       -16.6641
  26   2.0000      -0.606488       -16.5034
  27   2.0000      -0.591676       -16.1003
  28   2.0000      -0.572991       -15.5919
  29   2.0000      -0.554874       -15.0989
  30   2.0000      -0.533540       -14.5184
  31   2.0000      -0.510500       -13.8914
  32   2.0000      -0.508489       -13.8367
  33   2.0000      -0.475049       -12.9267
  34   2.0000      -0.469356       -12.7718
  35   2.0000      -0.464654       -12.6439
  36   2.0000      -0.422283       -11.4909
  37   2.0000      -0.413802       -11.2601
  38   2.0000      -0.406479       -11.0609
  39   2.0000      -0.397039       -10.8040
  40   2.0000      -0.393008       -10.6943
  41   2.0000      -0.382909       -10.4195
  42   2.0000      -0.364003        -9.9050
  43   2.0000      -0.351132        -9.5548
  44   2.0000      -0.333245        -9.0681
  45   2.0000      -0.296272        -8.0620
  46   2.0000      -0.260828        -7.0975
  47   2.0000      -0.173430        -4.7193
  48   0.0000       0.004869         0.1325
  49   0.0000       0.016091         0.4379
  50   0.0000       0.033375         0.9082
  51   0.0000       0.039211         1.0670
  52   0.0000       0.055383         1.5071

MULLIKEN ATOMIC CHARGES
-----------------------
   0 C :    0.853250
   1 N :   -0.676876
   2 C :   -0.025551
   3 C :   -0.034036
   4 H :    0.190042
   5 H :   -0.048744
   6 S :    1.679005
   7 C :    1.131509
   8 N :   -0.141608
   9 C :    0.514960
  10 H :   -0.514938
  11 H :   -0.308015
  12 H :   -0.310576
  13 H :   -0.137019
  14 H :   -0.012749
  15 F :   -0.443830
  16 O :   -0.747616
  17 O :   -0.907968
  18 H :    0.063764
  19 H :    0.028860
  20 H :    0.100731
  21 H :   -0.252595
Sum of atomic charges:   -0.0000000

LOEWDIN ATOMIC CHARGES
----------------------
   0 C :    0.084284
   1 N :   -0.023621
   2 C :   -0.011247
   3 C :   -0.043298
   4 H :    0.021467
   5 H :    0.020096
   6 S :    1.172619
   7 C :   -0.229720
   8 N :    0.170696
   9 C :    0.182678
  10 H :   -0.207074
  11 H :   -0.083698
  12 H :    0.021048
  13 H :   -0.015654
  14 H :    0.001295
  15 F :   -0.246146
  16 O :   -0.456387
  17 O :   -0.467149
  18 H :    0.033739
  19 H :    0.035154
  20 H :    0.013886
  21 H :    0.027031

  Mayer bond orders larger than 0.100000
B(  0-C ,  1-N ) :   0.8195 B(  0-C ,  2-C ) :   1.1145 B(  0-C , 12-H ) :  -0.1819
B(  0-C , 18-H ) :   0.1332 B(  0-C , 19-H ) :   0.1105 B(  0-C , 20-H ) :   0.7358
B(  0-C , 21-H ) :   0.9125 B(  1-N ,  7-C ) :   0.7100 B(  1-N ,  8-N ) :   0.2203
B(  1-N ,  9-C ) :   0.2974 B(  1-N , 12-H ) :   1.4833 B(  1-N , 20-H ) :   0.1739
B(  1-N , 21-H ) :   0.1428 B(  2-C ,  3-C ) :   1.3008 B(  2-C ,  4-H ) :   0.1301
B(  2-C ,  5-H ) :   0.1727 B(  2-C , 18-H ) :   0.8601 B(  2-C , 19-H ) :   0.8346
B(  2-C , 20-H ) :   0.1164 B(  3-C ,  4-H ) :   0.9047 B(  3-C ,  5-H ) :   0.8085
B(  3-C ,  6-S ) :   0.9791 B(  3-C , 17-O ) :   0.1564 B(  3-C , 18-H ) :   0.1274
B(  3-C , 19-H ) :   0.1008 B(  6-S , 15-F ) :   0.5904 B(  6-S , 16-O ) :   1.4603
B(  6-S , 17-O ) :   1.3737 B(  7-C ,  8-N ) :   0.7567 B(  7-C ,  9-C ) :   1.7214
B(  7-C , 10-H ) :  -0.1413 B(  7-C , 11-H ) :   0.3287 B(  7-C , 12-H ) :  -0.3243
B(  8-N ,  9-C ) :   0.3602 B(  8-N , 13-H ) :   1.2087 B(  8-N , 14-H ) :   1.1471
B(  9-C , 10-H ) :   0.2675 B(  9-C , 11-H ) :   0.8168 B( 10-H , 20-H ) :   0.1061
B( 13-H , 14-H ) :  -0.1611 B( 20-H , 21-H ) :  -0.1441

Dispersion correction           -0.022076101
FINAL SINGLE POINT ENERGY      -953.771678390797

DIPOLE MOMENT
-------------
                                X             Y             Z
Electronic contribution:    -14.65121      -5.47281       0.05862
Nuclear contribution   :     15.84345       5.19593       1.66752
                        -----------------------------------------
Total Dipole Moment    :      1.19224      -0.27688       1.72614
                        -----------------------------------------
Magnitude (a.u.)       :      2.11605
Magnitude (Debye)      :      5.37857

Rotational constants in cm-1:     0.059060     0.020573     0.017713
Rotational constants in MHz :  1770.576058   616.749938   531.036486

                             ****ORCA TERMINATED NORMALLY****
TOTAL RUN TIME: 0 days 0 hours 1 minutes 24 seconds 24 msec
