                         Program Version 5.0.0 -  RELEASE  -
|  1> !PBE0 D3BJ RIJCOSX def2-SVPD def2/J TightSCF xyzfile
|  2>
|  3> *xyzfile 0 1 D4.xyz
|  4>
|  5> %MaxCore 64000
|  6>
|  7> %pal nprocs 4
|  8> end
|  9>
| 10> %scf
| 11>   MaxIter 150
| 12> end
| 13>
| 14>
| 15>                          ****END OF INPUT****

CARTESIAN COORDINATES (ANGSTROEM)
---------------------------------
  C      3.380928    2.083045   -3.350127
  C      4.535924    1.182447   -3.428518
  C      2.495557    1.816150   -2.136364
  C      1.872181    0.427903   -2.077497
  H      2.614270   -0.365825   -2.198894
  H      1.389953    0.273087   -1.112360
  S      0.579024    0.140472   -3.297943
  C      4.671956    0.122273   -4.220598
  N      5.866023   -0.507849   -4.224284
  N      3.698881   -0.312844   -4.986988
  H      2.731405   -0.050091   -4.849000
  H      3.890046   -1.055172   -5.643730
  H      5.251933    1.303459   -2.721014
  H      6.695165   -0.062322   -3.851596
  H      5.975383   -1.396884   -4.691414
  O      0.228860   -1.246868   -3.127871
  F     -0.439269    1.118966   -3.014550
  O      1.247881    0.403474   -4.595647
  H      1.697003    2.561969   -2.141109
  H      3.080787    1.987436   -1.225838
  H      2.806463    1.986511   -4.268484
  H      3.778714    3.098282   -3.307383

 Total Charge           Charge          ....    0
 Multiplicity           Mult            ....    1
 Number of Electrons    NEL             ....   96
 Basis Dimension        Dim             ....  324

ORBITAL ENERGIES
----------------

  NO   OCC          E(Eh)            E(eV)
   0   2.0000     -89.308059     -2430.1958
   1   2.0000     -24.913348      -677.9267
   2   2.0000     -19.242130      -523.6050
   3   2.0000     -19.236418      -523.4496
   4   2.0000     -14.389922      -391.5697
   5   2.0000     -14.372629      -391.0991
   6   2.0000     -10.288511      -279.9646
   7   2.0000     -10.273308      -279.5509
   8   2.0000     -10.247150      -278.8391
   9   2.0000     -10.212745      -277.9029
  10   2.0000     -10.155444      -276.3437
  11   2.0000      -8.267816      -224.9787
  12   2.0000      -6.214125      -169.0949
  13   2.0000      -6.208141      -168.9321
  14   2.0000      -6.206068      -168.8757
  15   2.0000      -1.419503       -38.6266
  16   2.0000      -1.150744       -31.3133
  17   2.0000      -1.050736       -28.5920
  18   2.0000      -0.970519       -26.4092
  19   2.0000      -0.876041       -23.8383
  20   2.0000      -0.848518       -23.0893
  21   2.0000      -0.783750       -21.3269
  22   2.0000      -0.748381       -20.3645
  23   2.0000      -0.702352       -19.1120
  24   2.0000      -0.646031       -17.5794
  25   2.0000      -0.624977       -17.0065
  26   2.0000      -0.612982       -16.6801
  27   2.0000      -0.600088       -16.3292
  28   2.0000      -0.567587       -15.4448
  29   2.0000      -0.550115       -14.9694
  30   2.0000      -0.532202       -14.4819
  31   2.0000      -0.504325       -13.7234
  32   2.0000      -0.499995       -13.6056
  33   2.0000      -0.492885       -13.4121
  34   2.0000      -0.471397       -12.8274
  35   2.0000      -0.458351       -12.4724
  36   2.0000      -0.426782       -11.6133
  37   2.0000      -0.416641       -11.3374
  38   2.0000      -0.415475       -11.3057
  39   2.0000      -0.394337       -10.7305
  40   2.0000      -0.373817       -10.1721
  41   2.0000      -0.362801        -9.8723
  42   2.0000      -0.357460        -9.7270
  43   2.0000      -0.349178        -9.5016
  44   2.0000      -0.340720        -9.2715
  45   2.0000      -0.321802        -8.7567
  46   2.0000      -0.266754        -7.2587
  47   2.0000      -0.169219        -4.6047
  48   0.0000      -0.001443        -0.0393
  49   0.0000       0.030503         0.8300
  50   0.0000       0.030625         0.8333
  51   0.0000       0.043275         1.1776
  52   0.0000       0.046039         1.2528

MULLIKEN ATOMIC CHARGES
-----------------------
   0 C :    0.221659
   1 C :   -0.220993
   2 C :    0.093105
   3 C :   -0.089404
   4 H :    0.170235
   5 H :   -0.006614
   6 S :    1.723383
   7 C :    1.130863
   8 N :   -0.192159
   9 N :    0.285379
  10 H :   -0.247131
  11 H :   -0.239946
  12 H :   -0.283517
  13 H :   -0.092655
  14 H :   -0.107992
  15 O :   -0.700578
  16 F :   -0.498725
  17 O :   -0.911656
  18 H :    0.053336
  19 H :    0.021467
  20 H :   -0.007531
  21 H :   -0.100525
Sum of atomic charges:    0.0000000

LOEWDIN ATOMIC CHARGES
----------------------
   0 C :   -0.044659
   1 C :   -0.030475
   2 C :   -0.037905
   3 C :   -0.035544
   4 H :    0.034867
   5 H :    0.021154
   6 S :    1.176532
   7 C :   -0.207936
   8 N :    0.174151
   9 N :    0.226900
  10 H :   -0.133353
  11 H :    0.002923
  12 H :   -0.050479
  13 H :    0.002324
  14 H :   -0.013554
  15 O :   -0.450476
  16 F :   -0.244259
  17 O :   -0.463926
  18 H :    0.020784
  19 H :    0.036413
  20 H :   -0.003608
  21 H :    0.020128

  Mayer bond orders larger than 0.100000
B(  0-C ,  1-C ) :   1.1158 B(  0-C ,  2-C ) :   1.1885 B(  0-C , 12-H ) :   0.2135
B(  0-C , 18-H ) :   0.1584 B(  0-C , 19-H ) :   0.1638 B(  0-C , 20-H ) :   0.8552
B(  0-C , 21-H ) :   0.8247 B(  1-C ,  7-C ) :   1.5787 B(  1-C ,  8-N ) :   0.4089
B(  1-C ,  9-N ) :   0.1927 B(  1-C , 12-H ) :   0.8739 B(  1-C , 20-H ) :   0.2304
B(  1-C , 21-H ) :   0.1161 B(  2-C ,  3-C ) :   1.2682 B(  2-C ,  4-H ) :   0.1261
B(  2-C ,  5-H ) :   0.1487 B(  2-C , 18-H ) :   0.8003 B(  2-C , 19-H ) :   0.8051
B(  2-C , 20-H ) :   0.1343 B(  3-C ,  4-H ) :   0.9394 B(  3-C ,  5-H ) :   0.8240
B(  3-C ,  6-S ) :   0.9935 B(  3-C , 17-O ) :   0.1342 B(  3-C , 18-H ) :   0.1324
B(  3-C , 19-H ) :   0.1028 B(  6-S , 15-O ) :   1.4939 B(  6-S , 16-F ) :   0.5565
B(  6-S , 17-O ) :   1.3208 B(  7-C ,  8-N ) :   0.6166 B(  7-C ,  9-N ) :   0.9554
B(  7-C , 10-H ) :  -0.1003 B(  7-C , 11-H ) :  -0.2256 B(  7-C , 12-H ) :   0.1181
B(  7-C , 13-H ) :  -0.1858 B(  7-C , 20-H ) :  -0.1110 B(  8-N ,  9-N ) :   0.1132
B(  8-N , 12-H ) :   0.1026 B(  8-N , 13-H ) :   1.2523 B(  8-N , 14-H ) :   1.1856
B(  9-N , 10-H ) :   1.1144 B(  9-N , 11-H ) :   1.2873 B(  9-N , 17-O ) :  -0.1053
B( 10-H , 11-H ) :  -0.2026 B( 10-H , 17-O ) :   0.1032 B( 13-H , 14-H ) :  -0.1575

Dispersion correction           -0.022063420
FINAL SINGLE POINT ENERGY      -953.806161223183

DIPOLE MOMENT
-------------
                                X             Y             Z
Electronic contribution:    -16.36065      -2.65539      -0.96152
Nuclear contribution   :     16.65743       2.74852       1.69529
                        -----------------------------------------
Total Dipole Moment    :      0.29678       0.09313       0.73377
                        -----------------------------------------
Magnitude (a.u.)       :      0.79697
Magnitude (Debye)      :      2.02574

Rotational constants in cm-1:     0.059907     0.020458     0.017675
Rotational constants in MHz :  1795.978106   613.328205   529.885290

                             ****ORCA TERMINATED NORMALLY****
TOTAL RUN TIME: 0 days 0 hours 1 minutes 23 seconds 752 msec
