                         Program Version 5.0.0 -  RELEASE  -
|  1> !PBE0 D3BJ RIJCOSX def2-SVPD def2/J TightSCF xyzfile
|  2>
|  3> *xyzfile 0 1 D6.xyz
|  4>
|  5> %MaxCore 64000
|  6>
|  7> %pal nprocs 4
|  8> end
|  9>
| 10> %scf
| 11>   MaxIter 150
| 12> end
| 13>
| 14>
| 15>                          ****END OF INPUT****

CARTESIAN COORDINATES (ANGSTROEM)
---------------------------------
  C      3.380928    2.083045   -3.350127
  N      4.535924    1.182447   -3.428518
  C      2.495557    1.816150   -2.136364
  C      1.872181    0.427903   -2.077497
  H      2.614270   -0.365825   -2.198894
  H      1.389953    0.273087   -1.112360
  S      0.579024    0.140472   -3.297943
  C      4.671956    0.122273   -4.220598
  N      5.866023   -0.507849   -4.224284
  C      3.698881   -0.312844   -4.986988
  H      2.731405   -0.050091   -4.849000
  H      3.890046   -1.055172   -5.643730
  H      5.251933    1.303459   -2.721014
  H      6.695165   -0.062322   -3.851596
  H      5.975383   -1.396884   -4.691414
  O      0.228860   -1.246868   -3.127871
  F     -0.439269    1.118966   -3.014550
  O      1.247881    0.403474   -4.595647
  H      1.697003    2.561969   -2.141109
  H      3.080787    1.987436   -1.225838
  H      2.806463    1.986511   -4.268484
  H      3.778714    3.098282   -3.307383

 Total Charge           Charge          ....    0
 Multiplicity           Mult            ....    1
 Number of Electrons    NEL             ....   96
 Basis Dimension        Dim             ....  324

ORBITAL ENERGIES
----------------

  NO   OCC          E(Eh)            E(eV)
   0   2.0000     -89.298529     -2429.9365
   1   2.0000     -24.906030      -677.7275
   2   2.0000     -19.233886      -523.3806
   3   2.0000     -19.221222      -523.0360
   4   2.0000     -14.400900      -391.8684
   5   2.0000     -14.387680      -391.5087
   6   2.0000     -10.293249      -280.0936
   7   2.0000     -10.272818      -279.5376
   8   2.0000     -10.268331      -279.4155
   9   2.0000     -10.266578      -279.3678
  10   2.0000     -10.123452      -275.4731
  11   2.0000      -8.258235      -224.7180
  12   2.0000      -6.204607      -168.8359
  13   2.0000      -6.198299      -168.6643
  14   2.0000      -6.196755      -168.6223
  15   2.0000      -1.412592       -38.4386
  16   2.0000      -1.140107       -31.0239
  17   2.0000      -1.037984       -28.2450
  18   2.0000      -0.980482       -26.6803
  19   2.0000      -0.897537       -24.4232
  20   2.0000      -0.846298       -23.0290
  21   2.0000      -0.772177       -21.0120
  22   2.0000      -0.738663       -20.1000
  23   2.0000      -0.713883       -19.4258
  24   2.0000      -0.662688       -18.0327
  25   2.0000      -0.619482       -16.8570
  26   2.0000      -0.612071       -16.6553
  27   2.0000      -0.586130       -15.9494
  28   2.0000      -0.572365       -15.5748
  29   2.0000      -0.551427       -15.0051
  30   2.0000      -0.531738       -14.4693
  31   2.0000      -0.510986       -13.9046
  32   2.0000      -0.504640       -13.7319
  33   2.0000      -0.482396       -13.1267
  34   2.0000      -0.469214       -12.7680
  35   2.0000      -0.462369       -12.5817
  36   2.0000      -0.431878       -11.7520
  37   2.0000      -0.414782       -11.2868
  38   2.0000      -0.408672       -11.1205
  39   2.0000      -0.399897       -10.8818
  40   2.0000      -0.389568       -10.6007
  41   2.0000      -0.381752       -10.3880
  42   2.0000      -0.365804        -9.9540
  43   2.0000      -0.338510        -9.2113
  44   2.0000      -0.325242        -8.8503
  45   2.0000      -0.310566        -8.4509
  46   2.0000      -0.260623        -7.0919
  47   2.0000      -0.171846        -4.6762
  48   0.0000       0.000299         0.0081
  49   0.0000       0.019708         0.5363
  50   0.0000       0.033011         0.8983
  51   0.0000       0.039082         1.0635
  52   0.0000       0.045649         1.2422

MULLIKEN ATOMIC CHARGES
-----------------------
   0 C :    0.859445
   1 N :   -0.676598
   2 C :    0.016384
   3 C :   -0.007387
   4 H :    0.169739
   5 H :   -0.050902
   6 S :    1.695800
   7 C :    1.137103
   8 N :   -0.140564
   9 C :    0.509190
  10 H :   -0.511358
  11 H :   -0.313860
  12 H :   -0.309362
  13 H :   -0.137767
  14 H :   -0.011992
  15 O :   -0.696344
  16 F :   -0.498721
  17 O :   -0.931895
  18 H :    0.039347
  19 H :    0.009014
  20 H :    0.106668
  21 H :   -0.255938
Sum of atomic charges:    0.0000000

LOEWDIN ATOMIC CHARGES
----------------------
   0 C :    0.079907
   1 N :   -0.023337
   2 C :   -0.027150
   3 C :   -0.033473
   4 H :    0.035640
   5 H :    0.020631
   6 S :    1.169031
   7 C :   -0.228341
   8 N :    0.171221
   9 C :    0.188073
  10 H :   -0.198622
  11 H :   -0.080316
  12 H :    0.020908
  13 H :   -0.015959
  14 H :    0.002172
  15 O :   -0.450112
  16 F :   -0.252361
  17 O :   -0.472132
  18 H :    0.026554
  19 H :    0.031879
  20 H :    0.010088
  21 H :    0.025701

  Mayer bond orders larger than 0.100000
B(  0-C ,  1-N ) :   0.8215 B(  0-C ,  2-C ) :   1.1227 B(  0-C , 12-H ) :  -0.1809
B(  0-C , 18-H ) :   0.1333 B(  0-C , 19-H ) :   0.1086 B(  0-C , 20-H ) :   0.7307
B(  0-C , 21-H ) :   0.9139 B(  1-N ,  7-C ) :   0.7059 B(  1-N ,  8-N ) :   0.2209
B(  1-N ,  9-C ) :   0.2969 B(  1-N , 12-H ) :   1.4809 B(  1-N , 20-H ) :   0.1731
B(  1-N , 21-H ) :   0.1447 B(  2-C ,  3-C ) :   1.2399 B(  2-C ,  4-H ) :   0.1225
B(  2-C ,  5-H ) :   0.1566 B(  2-C , 18-H ) :   0.8517 B(  2-C , 19-H ) :   0.8447
B(  2-C , 20-H ) :   0.1167 B(  3-C ,  4-H ) :   0.9364 B(  3-C ,  5-H ) :   0.8192
B(  3-C ,  6-S ) :   1.0084 B(  3-C , 17-O ) :   0.1362 B(  3-C , 18-H ) :   0.1198
B(  6-S , 15-O ) :   1.4806 B(  6-S , 16-F ) :   0.5509 B(  6-S , 17-O ) :   1.3654
B(  7-C ,  8-N ) :   0.7577 B(  7-C ,  9-C ) :   1.7188 B(  7-C , 10-H ) :  -0.1453
B(  7-C , 11-H ) :   0.3304 B(  7-C , 12-H ) :  -0.3234 B(  8-N ,  9-C ) :   0.3592
B(  8-N , 13-H ) :   1.2089 B(  8-N , 14-H ) :   1.1466 B(  9-C , 10-H ) :   0.2652
B(  9-C , 11-H ) :   0.8142 B( 10-H , 17-O ) :   0.1115 B( 10-H , 20-H ) :   0.1087
B( 13-H , 14-H ) :  -0.1612 B( 20-H , 21-H ) :  -0.1432

Dispersion correction           -0.022055674
FINAL SINGLE POINT ENERGY      -953.771181312979

DIPOLE MOMENT
-------------
                                X             Y             Z
Electronic contribution:    -15.77992      -1.42702       0.24255
Nuclear contribution   :     16.57580       2.60270       1.54331
                        -----------------------------------------
Total Dipole Moment    :      0.79588       1.17568       1.78585
                        -----------------------------------------
Magnitude (a.u.)       :      2.28143
Magnitude (Debye)      :      5.79893

Rotational constants in cm-1:     0.060402     0.020377     0.017632
Rotational constants in MHz :  1810.792194   610.900365   528.582827

                             ****ORCA TERMINATED NORMALLY****
TOTAL RUN TIME: 0 days 0 hours 1 minutes 30 seconds 524 msec
