                         Program Version 5.0.0 -  RELEASE  -
|  1> !PBE0 D3BJ RIJCOSX def2-SVPD def2/J TightSCF xyzfile
|  2>
|  3> *xyzfile 0 1 D7.xyz
|  4>
|  5> %MaxCore 64000
|  6>
|  7> %pal nprocs 4
|  8> end
|  9>
| 10> %scf
| 11>   MaxIter 150
| 12> end
| 13>
| 14>
| 15>                          ****END OF INPUT****

CARTESIAN COORDINATES (ANGSTROEM)
---------------------------------
  C      3.380928    2.083045   -3.350127
  C      4.535924    1.182447   -3.428518
  C      2.495557    1.816150   -2.136364
  C      1.872181    0.427903   -2.077497
  H      2.614270   -0.365825   -2.198894
  H      1.389953    0.273087   -1.112360
  S      0.579024    0.140472   -3.297943
  C      4.671956    0.122273   -4.220598
  N      5.866023   -0.507849   -4.224284
  N      3.698881   -0.312844   -4.986988
  H      2.731405   -0.050091   -4.849000
  H      3.890046   -1.055172   -5.643730
  H      5.251933    1.303459   -2.721014
  H      6.695165   -0.062322   -3.851596
  H      5.975383   -1.396884   -4.691414
  O      0.228860   -1.246868   -3.127871
  O     -0.439269    1.118966   -3.014550
  F      1.247881    0.403474   -4.595647
  H      1.697003    2.561969   -2.141109
  H      3.080787    1.987436   -1.225838
  H      2.806463    1.986511   -4.268484
  H      3.778714    3.098282   -3.307383

 Total Charge           Charge          ....    0
 Multiplicity           Mult            ....    1
 Number of Electrons    NEL             ....   96
 Basis Dimension        Dim             ....  324

ORBITAL ENERGIES
----------------

  NO   OCC          E(Eh)            E(eV)
   0   2.0000     -89.297697     -2429.9139
   1   2.0000     -24.901838      -677.6135
   2   2.0000     -19.236696      -523.4571
   3   2.0000     -19.236034      -523.4391
   4   2.0000     -14.403358      -391.9353
   5   2.0000     -14.402465      -391.9110
   6   2.0000     -10.289333      -279.9870
   7   2.0000     -10.284938      -279.8674
   8   2.0000     -10.246707      -278.8271
   9   2.0000     -10.227468      -278.3036
  10   2.0000     -10.170333      -276.7488
  11   2.0000      -8.257904      -224.7090
  12   2.0000      -6.204393      -168.8301
  13   2.0000      -6.197944      -168.6546
  14   2.0000      -6.196234      -168.6081
  15   2.0000      -1.396574       -38.0027
  16   2.0000      -1.153058       -31.3763
  17   2.0000      -1.056316       -28.7438
  18   2.0000      -0.990619       -26.9561
  19   2.0000      -0.896553       -24.3964
  20   2.0000      -0.849019       -23.1030
  21   2.0000      -0.787013       -21.4157
  22   2.0000      -0.753517       -20.5042
  23   2.0000      -0.707448       -19.2506
  24   2.0000      -0.663591       -18.0572
  25   2.0000      -0.618366       -16.8266
  26   2.0000      -0.607136       -16.5210
  27   2.0000      -0.593739       -16.1565
  28   2.0000      -0.572352       -15.5745
  29   2.0000      -0.566374       -15.4118
  30   2.0000      -0.530801       -14.4438
  31   2.0000      -0.512319       -13.9409
  32   2.0000      -0.497059       -13.5257
  33   2.0000      -0.489914       -13.3312
  34   2.0000      -0.478884       -13.0311
  35   2.0000      -0.472560       -12.8590
  36   2.0000      -0.430292       -11.7088
  37   2.0000      -0.424046       -11.5389
  38   2.0000      -0.422998       -11.5104
  39   2.0000      -0.402947       -10.9647
  40   2.0000      -0.379703       -10.3322
  41   2.0000      -0.367376        -9.9968
  42   2.0000      -0.358698        -9.7607
  43   2.0000      -0.353120        -9.6089
  44   2.0000      -0.342983        -9.3331
  45   2.0000      -0.336402        -9.1540
  46   2.0000      -0.286641        -7.7999
  47   2.0000      -0.184097        -5.0095
  48   0.0000       0.004109         0.1118
  49   0.0000       0.022582         0.6145
  50   0.0000       0.032242         0.8773
  51   0.0000       0.044799         1.2190
  52   0.0000       0.051265         1.3950

MULLIKEN ATOMIC CHARGES
-----------------------
   0 C :    0.212642
   1 C :   -0.188475
   2 C :    0.087590
   3 C :   -0.039461
   4 H :    0.160870
   5 H :   -0.012360
   6 S :    1.574515
   7 C :    1.151023
   8 N :   -0.194539
   9 N :    0.262345
  10 H :   -0.219100
  11 H :   -0.232214
  12 H :   -0.267926
  13 H :   -0.091375
  14 H :   -0.104197
  15 O :   -0.719159
  16 O :   -0.750381
  17 F :   -0.566044
  18 H :    0.081502
  19 H :    0.039137
  20 H :   -0.085342
  21 H :   -0.099049
Sum of atomic charges:   -0.0000000

LOEWDIN ATOMIC CHARGES
----------------------
   0 C :   -0.044563
   1 C :   -0.026609
   2 C :   -0.035263
   3 C :   -0.036574
   4 H :    0.022548
   5 H :    0.034447
   6 S :    1.135274
   7 C :   -0.207874
   8 N :    0.177254
   9 N :    0.222016
  10 H :   -0.094493
  11 H :    0.006481
  12 H :   -0.044637
  13 H :    0.005840
  14 H :   -0.011531
  15 O :   -0.456152
  16 O :   -0.450440
  17 F :   -0.282276
  18 H :    0.026029
  19 H :    0.037625
  20 H :   -0.000954
  21 H :    0.023853

  Mayer bond orders larger than 0.100000
B(  0-C ,  1-C ) :   1.1090 B(  0-C ,  2-C ) :   1.1905 B(  0-C , 12-H ) :   0.2072
B(  0-C , 18-H ) :   0.1486 B(  0-C , 19-H ) :   0.1722 B(  0-C , 20-H ) :   0.8588
B(  0-C , 21-H ) :   0.8394 B(  1-C ,  7-C ) :   1.6011 B(  1-C ,  8-N ) :   0.4100
B(  1-C ,  9-N ) :   0.1995 B(  1-C , 12-H ) :   0.8648 B(  1-C , 20-H ) :   0.2221
B(  1-C , 21-H ) :   0.1131 B(  2-C ,  3-C ) :   1.2919 B(  2-C ,  4-H ) :   0.1357
B(  2-C ,  5-H ) :   0.1549 B(  2-C , 18-H ) :   0.8172 B(  2-C , 19-H ) :   0.7836
B(  2-C , 20-H ) :   0.1304 B(  3-C ,  4-H ) :   0.9310 B(  3-C ,  5-H ) :   0.8087
B(  3-C ,  6-S ) :   1.0281 B(  3-C , 17-F ) :   0.1094 B(  3-C , 18-H ) :   0.1497
B(  3-C , 19-H ) :   0.1121 B(  6-S , 15-O ) :   1.4901 B(  6-S , 16-O ) :   1.4718
B(  6-S , 17-F ) :   0.5986 B(  7-C ,  8-N ) :   0.6102 B(  7-C ,  9-N ) :   0.9283
B(  7-C , 11-H ) :  -0.2379 B(  7-C , 12-H ) :   0.1235 B(  7-C , 13-H ) :  -0.1888
B(  7-C , 20-H ) :  -0.1213 B(  8-N ,  9-N ) :   0.1147 B(  8-N , 13-H ) :   1.2501
B(  8-N , 14-H ) :   1.1854 B(  9-N , 10-H ) :   1.1307 B(  9-N , 11-H ) :   1.3047
B( 10-H , 11-H ) :  -0.1844 B( 13-H , 14-H ) :  -0.1579

Dispersion correction           -0.021866888
FINAL SINGLE POINT ENERGY      -953.811940161875

DIPOLE MOMENT
-------------
                                X             Y             Z
Electronic contribution:    -13.17324      -3.83854      -3.64105
Nuclear contribution   :     14.80811       3.53278       3.42836
                        -----------------------------------------
Total Dipole Moment    :      1.63487      -0.30576      -0.21270
                        -----------------------------------------
Magnitude (a.u.)       :      1.67677
Magnitude (Debye)      :      4.26200

Rotational constants in cm-1:     0.059173     0.020923     0.018056
Rotational constants in MHz :  1773.956621   627.264018   541.303397

                             ****ORCA TERMINATED NORMALLY****
TOTAL RUN TIME: 0 days 0 hours 1 minutes 18 seconds 502 msec
