                         Program Version 5.0.0 -  RELEASE  -
|  1> !LC-BLYP RIJCOSX def2-SVPD def2/J TightSCF
|  2> *xyz -1 1
|  3> C         -0.90349       -0.87394       -1.98739
|  4> C         -0.96015       -0.52236       -0.48987
|  5> H         -1.69039       -1.20813       -0.02168
|  6> H         -1.41449        0.48633       -0.40668
|  7> O          0.26170       -0.58031        0.13861
|  8> H         -1.88568       -0.80774       -2.40670
|  9> H         -0.53143       -1.87013       -2.10605
| 10> H         -0.25399       -0.18836       -2.49039
| 11> *
| 12>
| 13> %MaxCore 64000
| 14>
| 15> %pal nprocs 4
| 16> end
| 17>
| 18> %scf
| 19>   MaxIter 150
| 20> end
| 21>
| 22>
| 23>                          ****END OF INPUT****

CARTESIAN COORDINATES (ANGSTROEM)
---------------------------------
  C     -0.903490   -0.873940   -1.987390
  C     -0.960150   -0.522360   -0.489870
  H     -1.690390   -1.208130   -0.021680
  H     -1.414490    0.486330   -0.406680
  O      0.261700   -0.580310    0.138610
  H     -1.885680   -0.807740   -2.406700
  H     -0.531430   -1.870130   -2.106050
  H     -0.253990   -0.188360   -2.490390

 Total Charge           Charge          ....   -1
 Multiplicity           Mult            ....    1
 Number of Electrons    NEL             ....   26
 Basis Dimension        Dim             ....  103

ORBITAL ENERGIES
----------------

  NO   OCC          E(Eh)            E(eV)
   0   2.0000     -18.622529      -506.7448
   1   2.0000      -9.900476      -269.4057
   2   2.0000      -9.878964      -268.8203
   3   2.0000      -0.764462       -20.8021
   4   2.0000      -0.628801       -17.1106
   5   2.0000      -0.474833       -12.9209
   6   2.0000      -0.358924        -9.7668
   7   2.0000      -0.333062        -9.0631
   8   2.0000      -0.277336        -7.5467
   9   2.0000      -0.258378        -7.0308
  10   2.0000      -0.210054        -5.7159
  11   2.0000      -0.065908        -1.7934
  12   2.0000      -0.062944        -1.7128
  13   0.0000       0.229186         6.2365
  14   0.0000       0.261271         7.1095
  15   0.0000       0.300037         8.1644
  16   0.0000       0.312466         8.5026
  17   0.0000       0.328359         8.9351

MULLIKEN ATOMIC CHARGES
-----------------------
   0 C :    0.547404
   1 C :    0.156280
   2 H :   -0.219715
   3 H :   -0.210387
   4 O :   -0.815266
   5 H :   -0.131841
   6 H :   -0.162800
   7 H :   -0.163674
Sum of atomic charges:   -1.0000000

LOEWDIN ATOMIC CHARGES
----------------------
   0 C :    0.052838
   1 C :   -0.284896
   2 H :   -0.028221
   3 H :   -0.026458
   4 O :   -0.581239
   5 H :   -0.054184
   6 H :   -0.038888
   7 H :   -0.038952

  Mayer bond orders larger than 0.100000
B(  0-C ,  1-C ) :   1.1615 B(  0-C ,  2-H ) :   0.1340 B(  0-C ,  3-H ) :   0.1321
B(  0-C ,  4-O ) :   0.1060 B(  0-C ,  5-H ) :   0.8494 B(  0-C ,  6-H ) :   0.8577
B(  0-C ,  7-H ) :   0.8573 B(  1-C ,  2-H ) :   0.9582 B(  1-C ,  3-H ) :   0.9607
B(  1-C ,  4-O ) :   1.2656 B(  1-C ,  5-H ) :   0.1515 B(  1-C ,  6-H ) :   0.2012
B(  1-C ,  7-H ) :   0.2018

FINAL SINGLE POINT ENERGY      -153.940636112705

DIPOLE MOMENT
-------------
                                X             Y             Z
Electronic contribution:      1.73596       0.17449       2.03355
Nuclear contribution   :     -2.90669      -0.27617      -3.31210
                        -----------------------------------------
Total Dipole Moment    :     -1.17074      -0.10167      -1.27856
                        -----------------------------------------
Magnitude (a.u.)       :      1.73657
Magnitude (Debye)      :      4.41401

Rotational constants in cm-1:     1.291883     0.321656     0.284469
Rotational constants in MHz : 38729.676116  9643.011620  8528.167295

                             ****ORCA TERMINATED NORMALLY****
TOTAL RUN TIME: 0 days 0 hours 0 minutes 10 seconds 587 msec
