                         Program Version 5.0.0 -  RELEASE  -
|  1> !LC-BLYP RIJCOSX def2-SVPD def2/J TightSCF
|  2> *xyz 1 1
|  3> C          4.36645       -0.13321       -1.41606
|  4> C          4.50829       -0.93187       -2.72425
|  5> C          3.05650       -0.32080       -0.70738
|  6> N          2.38983        0.71129       -0.24391
|  7> N          2.51600       -1.50772       -0.55023
|  8> H          2.96768       -2.32291       -0.95631
|  9> H          1.54987       -1.49063       -0.24988
| 10> H          2.74307        1.64947       -0.41280
| 11> H          1.44036        0.50278        0.03703
| 12> H          4.48784        0.93300       -1.61157
| 13> H          5.16967       -0.41443       -0.72982
| 14> H          5.46700       -0.73824       -3.15818
| 15> H          3.74074       -0.63528       -3.40821
| 16> H          4.41574       -1.97727       -2.51573
| 17> *
| 18>
| 19> %MaxCore 64000
| 20>
| 21> %pal nprocs 4
| 22> end
| 23>
| 24> %scf
| 25>   MaxIter 150
| 26> end
| 27>
| 28>
| 29>                          ****END OF INPUT****

CARTESIAN COORDINATES (ANGSTROEM)
---------------------------------
  C      4.366450   -0.133210   -1.416060
  C      4.508290   -0.931870   -2.724250
  C      3.056500   -0.320800   -0.707380
  N      2.389830    0.711290   -0.243910
  N      2.516000   -1.507720   -0.550230
  H      2.967680   -2.322910   -0.956310
  H      1.549870   -1.490630   -0.249880
  H      2.743070    1.649470   -0.412800
  H      1.440360    0.502780    0.037030
  H      4.487840    0.933000   -1.611570
  H      5.169670   -0.414430   -0.729820
  H      5.467000   -0.738240   -3.158180
  H      3.740740   -0.635280   -3.408210
  H      4.415740   -1.977270   -2.515730

 Total Charge           Charge          ....    1
 Multiplicity           Mult            ....    1
 Number of Electrons    NEL             ....   40
 Basis Dimension        Dim             ....  172

ORBITAL ENERGIES
----------------

  NO   OCC          E(Eh)            E(eV)
   0   2.0000     -14.436340      -392.8328
   1   2.0000     -14.435229      -392.8025
   2   2.0000     -10.411310      -283.3062
   3   2.0000     -10.287799      -279.9453
   4   2.0000     -10.245098      -278.7833
   5   2.0000      -1.308576       -35.6082
   6   2.0000      -1.200939       -32.6792
   7   2.0000      -1.076408       -29.2906
   8   2.0000      -0.964175       -26.2365
   9   2.0000      -0.925367       -25.1805
  10   2.0000      -0.875921       -23.8350
  11   2.0000      -0.860321       -23.4105
  12   2.0000      -0.806607       -21.9489
  13   2.0000      -0.773238       -21.0409
  14   2.0000      -0.732955       -19.9447
  15   2.0000      -0.708698       -19.2847
  16   2.0000      -0.656523       -17.8649
  17   2.0000      -0.641452       -17.4548
  18   2.0000      -0.625616       -17.0239
  19   2.0000      -0.594667       -16.1817
  20   0.0000      -0.135356        -3.6832
  21   0.0000      -0.102900        -2.8000
  22   0.0000      -0.059064        -1.6072
  23   0.0000      -0.058329        -1.5872
  24   0.0000      -0.024560        -0.6683

MULLIKEN ATOMIC CHARGES
-----------------------
   0 C :   -0.115944
   1 C :    1.006401
   2 C :    0.266745
   3 N :    0.254246
   4 N :    0.323728
   5 H :   -0.032302
   6 H :   -0.134145
   7 H :    0.006790
   8 H :   -0.088355
   9 H :   -0.008542
  10 H :   -0.043130
  11 H :   -0.089041
  12 H :   -0.136756
  13 H :   -0.209695
Sum of atomic charges:    1.0000000

LOEWDIN ATOMIC CHARGES
----------------------
   0 C :    0.007421
   1 C :    0.158503
   2 C :   -0.064710
   3 N :    0.291127
   4 N :    0.298468
   5 H :    0.048922
   6 H :    0.045877
   7 H :    0.059763
   8 H :    0.045055
   9 H :    0.041868
  10 H :    0.061886
  11 H :    0.013763
  12 H :    0.006704
  13 H :   -0.014645

  Mayer bond orders larger than 0.100000
B(  0-C ,  1-C ) :   1.2840 B(  0-C ,  2-C ) :   1.1976 B(  0-C ,  9-H ) :   0.8417
B(  0-C , 10-H ) :   0.7994 B(  0-C , 11-H ) :   0.2118 B(  0-C , 12-H ) :   0.2234
B(  0-C , 13-H ) :   0.2122 B(  1-C ,  9-H ) :   0.1437 B(  1-C , 11-H ) :   0.7709
B(  1-C , 12-H ) :   0.6982 B(  1-C , 13-H ) :   0.7516 B(  2-C ,  3-N ) :   1.2274
B(  2-C ,  4-N ) :   1.2323 B(  2-C ,  6-H ) :  -0.1552 B(  2-C ,  9-H ) :   0.1916
B(  2-C , 10-H ) :   0.1594 B(  3-N ,  4-N ) :   0.1998 B(  3-N ,  7-H ) :   1.1122
B(  3-N ,  8-H ) :   1.1901 B(  4-N ,  5-H ) :   1.0844 B(  4-N ,  6-H ) :   1.2545
B(  5-H ,  6-H ) :  -0.1906 B(  7-H ,  8-H ) :  -0.1531

FINAL SINGLE POINT ENERGY      -228.260090337304

DIPOLE MOMENT
-------------
                                X             Y             Z
Electronic contribution:     -2.67493       0.63035       3.12424
Nuclear contribution   :      1.78847      -0.48174      -2.67127
                        -----------------------------------------
Total Dipole Moment    :     -0.88646       0.14861       0.45296
                        -----------------------------------------
Magnitude (a.u.)       :      1.00652
Magnitude (Debye)      :      2.55837

Rotational constants in cm-1:     0.286883     0.123210     0.094446
Rotational constants in MHz :  8600.540572  3693.747366  2831.415242

                             ****ORCA TERMINATED NORMALLY****
TOTAL RUN TIME: 0 days 0 hours 0 minutes 21 seconds 799 msec
