                         Program Version 5.0.0 -  RELEASE  -
|  1> !LC-BLYP RIJCOSX def2-SVPD def2/J TightSCF xyzfile
|  2>
|  3> *xyzfile 0 1 B.xyz
|  4>
|  5> %MaxCore 64000
|  6>
|  7> %pal nprocs 4
|  8> end
|  9>
| 10> %scf
| 11>   MaxIter 150
| 12> end
| 13>
| 14>
| 15>                          ****END OF INPUT****

CARTESIAN COORDINATES (ANGSTROEM)
---------------------------------
  C      4.366454   -0.133215   -1.416062
  C      4.508292   -0.931872   -2.724249
  H      4.753716   -1.972051   -2.488408
  C      3.294164   -0.918214   -3.656570
  H      5.385637   -0.536236   -3.242640
  H      2.483463   -1.477378   -3.185764
  H      3.553092   -1.478495   -4.560331
  C      2.772335    0.460100   -4.051448
  H      2.608762    1.065107   -3.155194
  C      1.465354    0.410537   -4.853644
  H      3.532940    0.988848   -4.635671
  C      0.326171   -0.375613   -4.192580
  H      1.666704   -0.022269   -5.839323
  H      1.138198    1.439246   -5.035449
  C     -0.017405    0.080588   -2.778406
  H      0.585573   -1.439385   -4.168057
  H     -0.560005   -0.311425   -4.831461
  H      0.902090    0.201296   -2.206729
  C     -0.903495   -0.873945   -1.987388
  H     -0.479549    1.074657   -2.811915
  H     -0.502554   -1.892096   -2.081204
  H     -1.917039   -0.895427   -2.406277
  C     -0.960148   -0.522365   -0.489867
  H     -1.690392   -1.208130   -0.021677
  H     -1.414490    0.486329   -0.406677
  O      0.261703   -0.580307    0.138611
  C      3.056503   -0.320797   -0.707384
  N      2.389825    0.711285   -0.243909
  N      2.515999   -1.507721   -0.550229
  H      2.967683   -2.322915   -0.956305
  H      1.549872   -1.490634   -0.249876
  H      2.743071    1.649471   -0.412802
  H      1.440364    0.502778    0.037031
  H      4.487835    0.932997   -1.611569
  H      5.169672   -0.414432   -0.729817

 Total Charge           Charge          ....    0
 Multiplicity           Mult            ....    1
 Number of Electrons    NEL             ....  104
 Basis Dimension        Dim             ....  439

ORBITAL ENERGIES
----------------

  NO   OCC          E(Eh)            E(eV)
   0   2.0000     -18.829411      -512.3743
   1   2.0000     -14.216402      -386.8480
   2   2.0000     -14.216232      -386.8433
   3   2.0000     -10.213074      -277.9119
   4   2.0000     -10.130840      -275.6742
   5   2.0000     -10.115573      -275.2587
   6   2.0000     -10.094270      -274.6790
   7   2.0000     -10.088103      -274.5112
   8   2.0000     -10.079224      -274.2696
   9   2.0000     -10.068555      -273.9793
  10   2.0000     -10.067040      -273.9381
  11   2.0000     -10.055349      -273.6200
  12   2.0000     -10.042380      -273.2670
  13   2.0000      -1.102882       -30.0109
  14   2.0000      -0.994352       -27.0577
  15   2.0000      -0.974622       -26.5208
  16   2.0000      -0.940561       -25.5940
  17   2.0000      -0.904122       -24.6024
  18   2.0000      -0.863679       -23.5019
  19   2.0000      -0.824022       -22.4228
  20   2.0000      -0.785981       -21.3876
  21   2.0000      -0.742733       -20.2108
  22   2.0000      -0.727394       -19.7934
  23   2.0000      -0.717847       -19.5336
  24   2.0000      -0.675632       -18.3849
  25   2.0000      -0.658020       -17.9056
  26   2.0000      -0.655163       -17.8279
  27   2.0000      -0.629692       -17.1348
  28   2.0000      -0.615050       -16.7364
  29   2.0000      -0.605187       -16.4680
  30   2.0000      -0.592035       -16.1101
  31   2.0000      -0.571133       -15.5413
  32   2.0000      -0.554324       -15.0839
  33   2.0000      -0.535380       -14.5684
  34   2.0000      -0.526056       -14.3147
  35   2.0000      -0.518398       -14.1063
  36   2.0000      -0.512911       -13.9570
  37   2.0000      -0.508369       -13.8334
  38   2.0000      -0.482719       -13.1355
  39   2.0000      -0.473282       -12.8787
  40   2.0000      -0.462382       -12.5820
  41   2.0000      -0.453625       -12.3438
  42   2.0000      -0.443026       -12.0553
  43   2.0000      -0.437795       -11.9130
  44   2.0000      -0.418562       -11.3897
  45   2.0000      -0.411467       -11.1966
  46   2.0000      -0.401875       -10.9356
  47   2.0000      -0.399570       -10.8728
  48   2.0000      -0.392608       -10.6834
  49   2.0000      -0.382941       -10.4204
  50   2.0000      -0.279191        -7.5972
  51   2.0000      -0.274373        -7.4661
  52   0.0000       0.045858         1.2479
  53   0.0000       0.055551         1.5116
  54   0.0000       0.067488         1.8364
  55   0.0000       0.082034         2.2323
  56   0.0000       0.090372         2.4591

MULLIKEN ATOMIC CHARGES
-----------------------
   0 C :    0.516755
   1 C :    0.642107
   2 H :   -0.088320
   3 C :    0.099319
   4 H :   -0.219762
   5 H :   -0.148035
   6 H :   -0.229307
   7 C :    0.204920
   8 H :   -0.071148
   9 C :    0.905995
  10 H :   -0.479876
  11 C :    0.281619
  12 H :   -0.106735
  13 H :   -0.076209
  14 C :    0.904804
  15 H :    0.081025
  16 H :   -0.553741
  17 H :   -1.225869
  18 C :    0.326551
  19 H :   -0.043931
  20 H :   -0.072819
  21 H :   -0.296398
  22 C :    0.933908
  23 H :   -0.238182
  24 H :   -0.143350
  25 O :   -0.947826
  26 C :   -0.241014
  27 N :    0.686921
  28 N :    0.721420
  29 H :   -0.084345
  30 H :   -0.412968
  31 H :   -0.081054
  32 H :   -0.348349
  33 H :    0.168463
  34 H :   -0.364571
Sum of atomic charges:    0.0000000

LOEWDIN ATOMIC CHARGES
----------------------
   0 C :    0.030677
   1 C :   -0.026412
   2 H :    0.023850
   3 C :   -0.038658
   4 H :    0.031915
   5 H :   -0.003840
   6 H :    0.038319
   7 C :   -0.042435
   8 H :    0.002075
   9 C :   -0.036350
  10 H :    0.030167
  11 C :   -0.048130
  12 H :    0.026174
  13 H :    0.028089
  14 C :   -0.045376
  15 H :    0.014174
  16 H :    0.027976
  17 H :   -0.029627
  18 C :   -0.044945
  19 H :    0.040297
  20 H :    0.023399
  21 H :    0.024992
  22 C :   -0.079706
  23 H :    0.012717
  24 H :    0.017397
  25 O :   -0.416652
  26 C :   -0.086802
  27 N :    0.294398
  28 N :    0.305317
  29 H :    0.032012
  30 H :   -0.101272
  31 H :    0.035359
  32 H :   -0.107418
  33 H :    0.026350
  34 H :    0.041972

  Mayer bond orders larger than 0.100000
B(  0-C ,  1-C ) :   1.1417 B(  0-C ,  3-C ) :   0.1529 B(  0-C ,  4-H ) :   0.2040
B(  0-C , 26-C ) :   1.2270 B(  0-C , 33-H ) :   0.6706 B(  0-C , 34-H ) :   0.5852
B(  1-C ,  2-H ) :   0.6017 B(  1-C ,  3-C ) :   1.2389 B(  1-C ,  4-H ) :   0.7072
B(  1-C ,  5-H ) :   0.1368 B(  1-C ,  6-H ) :   0.1084 B(  1-C , 26-C ) :   0.1420
B(  1-C , 33-H ) :   0.1879 B(  1-C , 34-H ) :   0.1122 B(  2-H ,  3-C ) :   0.3157
B(  2-H ,  4-H ) :  -0.1851 B(  3-C ,  4-H ) :   0.1940 B(  3-C ,  5-H ) :   0.8047
B(  3-C ,  6-H ) :   0.7727 B(  3-C ,  7-C ) :   1.2275 B(  3-C ,  8-H ) :   0.1682
B(  3-C , 10-H ) :   0.1794 B(  5-H ,  7-C ) :   0.1840 B(  5-H , 15-H ) :   0.2223
B(  5-H , 16-H ) :  -0.1239 B(  6-H ,  7-C ) :   0.1569 B(  7-C ,  8-H ) :   0.7938
B(  7-C ,  9-C ) :   1.1059 B(  7-C , 10-H ) :   0.8905 B(  7-C , 11-C ) :   0.2345
B(  7-C , 12-H ) :   0.1216 B(  7-C , 13-H ) :   0.3230 B(  7-C , 15-H ) :  -0.1082
B(  8-H , 17-H ) :   0.2653 B(  9-C , 11-C ) :   1.1098 B(  9-C , 12-H ) :   0.6313
B(  9-C , 13-H ) :   0.5822 B( 10-H , 17-H ) :  -0.1016 B( 11-C , 12-H ) :   0.2348
B( 11-C , 13-H ) :   0.1499 B( 11-C , 14-C ) :   1.0751 B( 11-C , 15-H ) :   0.7920
B( 11-C , 16-H ) :   0.8927 B( 11-C , 17-H ) :   0.2723 B( 11-C , 19-H ) :   0.1209
B( 12-H , 13-H ) :  -0.1583 B( 14-C , 15-H ) :   0.1523 B( 14-C , 16-H ) :   0.2584
B( 14-C , 17-H ) :  -0.5110 B( 14-C , 18-C ) :   1.1450 B( 14-C , 19-H ) :   0.6027
B( 14-C , 20-H ) :   0.1470 B( 14-C , 21-H ) :   0.2861 B( 14-C , 22-C ) :   0.1810
B( 15-H , 16-H ) :  -0.1219 B( 17-H , 18-C ) :   0.2769 B( 17-H , 19-H ) :   0.2157
B( 17-H , 26-C ) :   0.1618 B( 18-C , 19-H ) :   0.1069 B( 18-C , 20-H ) :   0.8496
B( 18-C , 21-H ) :   0.7777 B( 18-C , 22-C ) :   1.0013 B( 18-C , 23-H ) :   0.2588
B( 18-C , 24-H ) :   0.1162 B( 20-H , 22-C ) :   0.1186 B( 22-C , 23-H ) :   0.6754
B( 22-C , 24-H ) :   0.7654 B( 22-C , 25-O ) :   1.1330 B( 24-H , 25-O ) :   0.1807
B( 25-O , 30-H ) :   0.3990 B( 25-O , 32-H ) :   0.3725 B( 26-C , 27-N ) :   1.1591
B( 26-C , 28-N ) :   1.1771 B( 26-C , 32-H ) :   0.1292 B( 26-C , 33-H ) :   0.2672
B( 26-C , 34-H ) :   0.3360 B( 27-N , 28-N ) :   0.2195 B( 27-N , 31-H ) :   1.0959
B( 27-N , 32-H ) :   1.0268 B( 28-N , 29-H ) :   1.0741 B( 28-N , 30-H ) :   1.0760
B( 29-H , 30-H ) :  -0.2579 B( 31-H , 32-H ) :  -0.1839 B( 33-H , 34-H ) :  -0.1056

FINAL SINGLE POINT ENERGY      -577.100845253649

DIPOLE MOMENT
-------------
                                X             Y             Z
Electronic contribution:      2.77569      -0.26206       7.48175
Nuclear contribution   :     -0.17996       0.53390      -8.68067
                        -----------------------------------------
Total Dipole Moment    :      2.59572       0.27184      -1.19892
                        -----------------------------------------
Magnitude (a.u.)       :      2.87212
Magnitude (Debye)      :      7.30035

Rotational constants in cm-1:     0.028240     0.022734     0.014600
Rotational constants in MHz :   846.611263   681.554306   437.693928

                             ****ORCA TERMINATED NORMALLY****
TOTAL RUN TIME: 0 days 0 hours 3 minutes 15 seconds 419 msec
