                         Program Version 5.0.0 -  RELEASE  -
|  1> !LC-BLYP RIJCOSX def2-SVPD def2/J TightSCF
|  2> *xyz 0 1
|  3> C         -0.90349       -0.87394       -1.98739
|  4> C         -0.96015       -0.52236       -0.48987
|  5> H         -1.69039       -1.20813       -0.02168
|  6> H         -1.41449        0.48633       -0.40668
|  7> F          0.26170       -0.58031        0.13861
|  8> H         -1.88568       -0.80774       -2.40670
|  9> H         -0.53143       -1.87013       -2.10605
| 10> H         -0.25399       -0.18836       -2.49039
| 11> *
| 12>
| 13> %MaxCore 64000
| 14>
| 15> %pal nprocs 4
| 16> end
| 17>
| 18> %scf
| 19>   MaxIter 150
| 20> end
| 21>
| 22>
| 23>                          ****END OF INPUT****

CARTESIAN COORDINATES (ANGSTROEM)
---------------------------------
  C     -0.903490   -0.873940   -1.987390
  C     -0.960150   -0.522360   -0.489870
  H     -1.690390   -1.208130   -0.021680
  H     -1.414490    0.486330   -0.406680
  F      0.261700   -0.580310    0.138610
  H     -1.885680   -0.807740   -2.406700
  H     -0.531430   -1.870130   -2.106050
  H     -0.253990   -0.188360   -2.490390

 Total Charge           Charge          ....    0
 Multiplicity           Mult            ....    1
 Number of Electrons    NEL             ....   26
 Basis Dimension        Dim             ....  103

ORBITAL ENERGIES
----------------

  NO   OCC          E(Eh)            E(eV)
   0   2.0000     -24.463580      -665.6879
   1   2.0000     -10.166939      -276.6565
   2   2.0000     -10.084169      -274.4042
   3   2.0000      -1.263173       -34.3727
   4   2.0000      -0.869885       -23.6708
   5   2.0000      -0.735600       -20.0167
   6   2.0000      -0.614762       -16.7285
   7   2.0000      -0.604989       -16.4626
   8   2.0000      -0.563698       -15.3390
   9   2.0000      -0.508367       -13.8334
  10   2.0000      -0.503910       -13.7121
  11   2.0000      -0.438475       -11.9315
  12   2.0000      -0.430898       -11.7253
  13   0.0000       0.073696         2.0054
  14   0.0000       0.104562         2.8453
  15   0.0000       0.134819         3.6686
  16   0.0000       0.139559         3.7976
  17   0.0000       0.167711         4.5637

MULLIKEN ATOMIC CHARGES
-----------------------
   0 C :    0.599710
   1 C :    0.464184
   2 H :   -0.145391
   3 H :   -0.136339
   4 F :   -0.377059
   5 H :   -0.114195
   6 H :   -0.145088
   7 H :   -0.145822
Sum of atomic charges:   -0.0000000

LOEWDIN ATOMIC CHARGES
----------------------
   0 C :    0.125905
   1 C :    0.035017
   2 H :    0.033785
   3 H :    0.035975
   4 F :   -0.200416
   5 H :   -0.008726
   6 H :   -0.010740
   7 H :   -0.010799

  Mayer bond orders larger than 0.100000
B(  0-C ,  1-C ) :   1.3172 B(  0-C ,  5-H ) :   0.8110 B(  0-C ,  6-H ) :   0.8424
B(  0-C ,  7-H ) :   0.8423 B(  1-C ,  2-H ) :   0.9156 B(  1-C ,  3-H ) :   0.9172
B(  1-C ,  4-F ) :   0.8638 B(  1-C ,  5-H ) :   0.1426 B(  1-C ,  6-H ) :   0.1655
B(  1-C ,  7-H ) :   0.1657

FINAL SINGLE POINT ENERGY      -178.540134127757

DIPOLE MOMENT
-------------
                                X             Y             Z
Electronic contribution:      3.18366       0.37765       3.95966
Nuclear contribution   :     -3.84149      -0.36812      -4.38946
                        -----------------------------------------
Total Dipole Moment    :     -0.65783       0.00953      -0.42980
                        -----------------------------------------
Magnitude (a.u.)       :      0.78585
Magnitude (Debye)      :      1.99747

Rotational constants in cm-1:     1.270659     0.299196     0.265842
Rotational constants in MHz : 38093.410361  8969.665806  7969.741481

                             ****ORCA TERMINATED NORMALLY****
TOTAL RUN TIME: 0 days 0 hours 0 minutes 9 seconds 898 msec
