                         Program Version 5.0.0 -  RELEASE  -
|  1> !LC-BLYP RIJCOSX def2-SVPD def2/J TightSCF
|  2> *xyz 0 1
|  3> C          4.36645       -0.13321       -1.41606
|  4> C          4.50829       -0.93187       -2.72425
|  5> C          3.05650       -0.32080       -0.70738
|  6> C          2.38983        0.71129       -0.24391
|  7> N          2.51600       -1.50772       -0.55023
|  8> H          2.96768       -2.32291       -0.95631
|  9> H          1.54987       -1.49063       -0.24988
| 10> H          2.74307        1.64947       -0.41280
| 11> H          1.44036        0.50278        0.03703
| 12> H          4.48784        0.93300       -1.61157
| 13> H          5.16967       -0.41443       -0.72982
| 14> H          5.46700       -0.73824       -3.15818
| 15> H          3.74074       -0.63528       -3.40821
| 16> H          4.41574       -1.97727       -2.51573
| 17> *
| 18>
| 19> %MaxCore 64000
| 20>
| 21> %pal nprocs 4
| 22> end
| 23>
| 24> %scf
| 25>   MaxIter 150
| 26> end
| 27>
| 28>
| 29>                          ****END OF INPUT****

CARTESIAN COORDINATES (ANGSTROEM)
---------------------------------
  C      4.366450   -0.133210   -1.416060
  C      4.508290   -0.931870   -2.724250
  C      3.056500   -0.320800   -0.707380
  C      2.389830    0.711290   -0.243910
  N      2.516000   -1.507720   -0.550230
  H      2.967680   -2.322910   -0.956310
  H      1.549870   -1.490630   -0.249880
  H      2.743070    1.649470   -0.412800
  H      1.440360    0.502780    0.037030
  H      4.487840    0.933000   -1.611570
  H      5.169670   -0.414430   -0.729820
  H      5.467000   -0.738240   -3.158180
  H      3.740740   -0.635280   -3.408210
  H      4.415740   -1.977270   -2.515730

 Total Charge           Charge          ....    0
 Multiplicity           Mult            ....    1
 Number of Electrons    NEL             ....   40
 Basis Dimension        Dim             ....  172

ORBITAL ENERGIES
----------------

  NO   OCC          E(Eh)            E(eV)
   0   2.0000     -14.187223      -386.0540
   1   2.0000     -10.105153      -274.9752
   2   2.0000     -10.087096      -274.4838
   3   2.0000     -10.078352      -274.2459
   4   2.0000     -10.017363      -272.5863
   5   2.0000      -1.028209       -27.9790
   6   2.0000      -0.881801       -23.9950
   7   2.0000      -0.825041       -22.4505
   8   2.0000      -0.740341       -20.1457
   9   2.0000      -0.666563       -18.1381
  10   2.0000      -0.639017       -17.3885
  11   2.0000      -0.576717       -15.6933
  12   2.0000      -0.545216       -14.8361
  13   2.0000      -0.535325       -14.5669
  14   2.0000      -0.493988       -13.4421
  15   2.0000      -0.484724       -13.1900
  16   2.0000      -0.457312       -12.4441
  17   2.0000      -0.445235       -12.1155
  18   2.0000      -0.426618       -11.6089
  19   2.0000      -0.285704        -7.7744
  20   0.0000       0.070122         1.9081
  21   0.0000       0.099444         2.7060
  22   0.0000       0.105090         2.8596
  23   0.0000       0.119632         3.2554
  24   0.0000       0.127111         3.4589

MULLIKEN ATOMIC CHARGES
-----------------------
   0 C :    0.049057
   1 C :    1.014995
   2 C :   -0.423765
   3 C :    0.587297
   4 N :    0.514413
   5 H :   -0.202598
   6 H :   -0.152187
   7 H :   -0.254065
   8 H :   -0.504716
   9 H :    0.046146
  10 H :   -0.140892
  11 H :   -0.153387
  12 H :   -0.135370
  13 H :   -0.244928
Sum of atomic charges:    0.0000000

LOEWDIN ATOMIC CHARGES
----------------------
   0 C :   -0.034548
   1 C :    0.120119
   2 C :   -0.276802
   3 C :    0.164031
   4 N :    0.182744
   5 H :   -0.005599
   6 H :    0.004668
   7 H :   -0.075983
   8 H :   -0.083183
   9 H :    0.025868
  10 H :    0.031228
  11 H :   -0.013551
  12 H :   -0.007293
  13 H :   -0.031699

  Mayer bond orders larger than 0.100000
B(  0-C ,  1-C ) :   1.2359 B(  0-C ,  2-C ) :   1.2254 B(  0-C ,  9-H ) :   0.8492
B(  0-C , 10-H ) :   0.7538 B(  0-C , 11-H ) :   0.2589 B(  0-C , 12-H ) :   0.2223
B(  0-C , 13-H ) :   0.2320 B(  1-C ,  9-H ) :   0.1352 B(  1-C , 11-H ) :   0.7192
B(  1-C , 12-H ) :   0.7068 B(  1-C , 13-H ) :   0.7336 B(  2-C ,  3-C ) :   1.7825
B(  2-C ,  4-N ) :   1.3383 B(  2-C ,  8-H ) :   0.3040 B(  2-C ,  9-H ) :   0.1025
B(  2-C , 10-H ) :   0.2423 B(  3-C ,  4-N ) :   0.2712 B(  3-C ,  7-H ) :   0.9722
B(  3-C ,  8-H ) :   0.5298 B(  4-N ,  5-H ) :   1.0896 B(  4-N ,  6-H ) :   1.1320
B(  4-N ,  8-H ) :   0.1031 B(  5-H ,  6-H ) :  -0.1567

FINAL SINGLE POINT ENERGY      -211.807397469243

DIPOLE MOMENT
-------------
                                X             Y             Z
Electronic contribution:     -1.48701      -0.42328       2.06779
Nuclear contribution   :      1.56827      -0.21459      -2.46657
                        -----------------------------------------
Total Dipole Moment    :      0.08125      -0.63786      -0.39878
                        -----------------------------------------
Magnitude (a.u.)       :      0.75664
Magnitude (Debye)      :      1.92322

Rotational constants in cm-1:     0.294070     0.127722     0.097792
Rotational constants in MHz :  8815.983970  3829.010547  2931.715816

                             ****ORCA TERMINATED NORMALLY****
TOTAL RUN TIME: 0 days 0 hours 0 minutes 23 seconds 76 msec
