                         Program Version 5.0.0 -  RELEASE  -
|  1> !LC-BLYP RIJCOSX def2-SVPD def2/J TightSCF
|  2> *xyz 0 1
|  3> C          4.36645       -0.13321       -1.41606
|  4> C          4.50829       -0.93187       -2.72425
|  5> C          3.05650       -0.32080       -0.70738
|  6> N          2.38983        0.71129       -0.24391
|  7> C          2.51600       -1.50772       -0.55023
|  8> H          2.96768       -2.32291       -0.95631
|  9> H          1.54987       -1.49063       -0.24988
| 10> H          2.74307        1.64947       -0.41280
| 11> H          1.44036        0.50278        0.03703
| 12> H          4.48784        0.93300       -1.61157
| 13> H          5.16967       -0.41443       -0.72982
| 14> H          5.46700       -0.73824       -3.15818
| 15> H          3.74074       -0.63528       -3.40821
| 16> H          4.41574       -1.97727       -2.51573
| 17> *
| 18>
| 19> %MaxCore 64000
| 20>
| 21> %pal nprocs 4
| 22> end
| 23>
| 24> %scf
| 25>   MaxIter 150
| 26> end
| 27>
| 28>
| 29>                          ****END OF INPUT****

CARTESIAN COORDINATES (ANGSTROEM)
---------------------------------
  C      4.366450   -0.133210   -1.416060
  C      4.508290   -0.931870   -2.724250
  C      3.056500   -0.320800   -0.707380
  N      2.389830    0.711290   -0.243910
  C      2.516000   -1.507720   -0.550230
  H      2.967680   -2.322910   -0.956310
  H      1.549870   -1.490630   -0.249880
  H      2.743070    1.649470   -0.412800
  H      1.440360    0.502780    0.037030
  H      4.487840    0.933000   -1.611570
  H      5.169670   -0.414430   -0.729820
  H      5.467000   -0.738240   -3.158180
  H      3.740740   -0.635280   -3.408210
  H      4.415740   -1.977270   -2.515730

 Total Charge           Charge          ....    0
 Multiplicity           Mult            ....    1
 Number of Electrons    NEL             ....   40
 Basis Dimension        Dim             ....  172

ORBITAL ENERGIES
----------------

  NO   OCC          E(Eh)            E(eV)
   0   2.0000     -14.187758      -386.0685
   1   2.0000     -10.105491      -274.9844
   2   2.0000     -10.088527      -274.5228
   3   2.0000     -10.071903      -274.0704
   4   2.0000     -10.016042      -272.5504
   5   2.0000      -1.028458       -27.9858
   6   2.0000      -0.883712       -24.0470
   7   2.0000      -0.813301       -22.1310
   8   2.0000      -0.750679       -20.4270
   9   2.0000      -0.656573       -17.8663
  10   2.0000      -0.636096       -17.3090
  11   2.0000      -0.584035       -15.8924
  12   2.0000      -0.558175       -15.1887
  13   2.0000      -0.510615       -13.8945
  14   2.0000      -0.492604       -13.4044
  15   2.0000      -0.483452       -13.1554
  16   2.0000      -0.459341       -12.4993
  17   2.0000      -0.441181       -12.0051
  18   2.0000      -0.428644       -11.6640
  19   2.0000      -0.284363        -7.7379
  20   0.0000       0.074044         2.0148
  21   0.0000       0.095158         2.5894
  22   0.0000       0.105812         2.8793
  23   0.0000       0.115624         3.1463
  24   0.0000       0.131896         3.5891

MULLIKEN ATOMIC CHARGES
-----------------------
   0 C :    0.142153
   1 C :    1.000682
   2 C :   -0.251285
   3 N :    0.402098
   4 C :    0.590127
   5 H :   -0.337456
   6 H :   -0.545596
   7 H :   -0.144071
   8 H :   -0.087242
   9 H :   -0.128349
  10 H :   -0.132697
  11 H :   -0.116478
  12 H :   -0.163141
  13 H :   -0.228745
Sum of atomic charges:    0.0000000

LOEWDIN ATOMIC CHARGES
----------------------
   0 C :   -0.035522
   1 C :    0.123742
   2 C :   -0.270569
   3 N :    0.174634
   4 C :    0.168195
   5 H :   -0.082508
   6 H :   -0.082828
   7 H :    0.001714
   8 H :    0.003882
   9 H :    0.014323
  10 H :    0.033312
  11 H :   -0.015305
  12 H :   -0.007978
  13 H :   -0.025090

  Mayer bond orders larger than 0.100000
B(  0-C ,  1-C ) :   1.2649 B(  0-C ,  2-C ) :   1.1426 B(  0-C ,  9-H ) :   0.7205
B(  0-C , 10-H ) :   0.7969 B(  0-C , 11-H ) :   0.2260 B(  0-C , 12-H ) :   0.2269
B(  0-C , 13-H ) :   0.2063 B(  1-C ,  9-H ) :   0.1171 B(  1-C , 11-H ) :   0.7339
B(  1-C , 12-H ) :   0.7150 B(  1-C , 13-H ) :   0.7662 B(  2-C ,  3-N ) :   1.2528
B(  2-C ,  4-C ) :   1.7634 B(  2-C ,  6-H ) :   0.2663 B(  2-C ,  9-H ) :   0.2698
B(  2-C , 10-H ) :   0.1795 B(  3-N ,  4-C ) :   0.2824 B(  3-N ,  6-H ) :   0.1011
B(  3-N ,  7-H ) :   1.1076 B(  3-N ,  8-H ) :   1.0974 B(  4-C ,  5-H ) :   0.7886
B(  4-C ,  6-H ) :   0.6587 B(  5-H ,  6-H ) :  -0.1329 B(  7-H ,  8-H ) :  -0.1300

FINAL SINGLE POINT ENERGY      -211.806163507890

DIPOLE MOMENT
-------------
                                X             Y             Z
Electronic contribution:     -1.59915       1.45628       2.34609
Nuclear contribution   :      1.59749      -0.72853      -2.53752
                        -----------------------------------------
Total Dipole Moment    :     -0.00167       0.72774      -0.19143
                        -----------------------------------------
Magnitude (a.u.)       :      0.75250
Magnitude (Debye)      :      1.91271

Rotational constants in cm-1:     0.304597     0.124127     0.096828
Rotational constants in MHz :  9131.600925  3721.227051  2902.830760

                             ****ORCA TERMINATED NORMALLY****
TOTAL RUN TIME: 0 days 0 hours 0 minutes 25 seconds 340 msec
