                         Program Version 5.0.0 -  RELEASE  -
|  1> !LC-BLYP RIJCOSX def2-SVPD def2/J TightSCF xyzfile
|  2>
|  3> *xyzfile 0 1 D2.xyz
|  4>
|  5> %MaxCore 64000
|  6>
|  7> %pal nprocs 4
|  8> end
|  9>
| 10> %scf
| 11>   MaxIter 150
| 12> end
| 13>
| 14>
| 15>                          ****END OF INPUT****

CARTESIAN COORDINATES (ANGSTROEM)
---------------------------------
  C      4.366454   -0.133215   -1.416062
  C      4.508292   -0.931872   -2.724249
  H      4.753716   -1.972051   -2.488408
  C      3.294164   -0.918214   -3.656570
  H      5.385637   -0.536236   -3.242640
  H      2.483463   -1.477378   -3.185764
  H      3.553092   -1.478495   -4.560331
  C      2.772335    0.460100   -4.051448
  H      2.608762    1.065107   -3.155194
  C      1.465354    0.410537   -4.853644
  H      3.532940    0.988848   -4.635671
  C      0.326171   -0.375613   -4.192580
  H      1.666704   -0.022269   -5.839323
  H      1.138198    1.439246   -5.035449
  C     -0.017405    0.080588   -2.778406
  H      0.585573   -1.439385   -4.168057
  H     -0.560005   -0.311425   -4.831461
  H      0.902090    0.201296   -2.206729
  C     -0.903495   -0.873945   -1.987388
  H     -0.479549    1.074657   -2.811915
  H     -0.502554   -1.892096   -2.081204
  H     -1.917039   -0.895427   -2.406277
  C     -0.960148   -0.522365   -0.489867
  H     -1.690392   -1.208130   -0.021677
  H     -1.414490    0.486329   -0.406677
  F      0.261703   -0.580307    0.138611
  C      3.056503   -0.320797   -0.707384
  N      2.389825    0.711285   -0.243909
  C      2.515999   -1.507721   -0.550229
  H      2.967683   -2.322915   -0.956305
  H      1.549872   -1.490634   -0.249876
  H      2.743071    1.649471   -0.412802
  H      1.440364    0.502778    0.037031
  H      4.487835    0.932997   -1.611569
  H      5.169672   -0.414432   -0.729817

 Total Charge           Charge          ....    0
 Multiplicity           Mult            ....    1
 Number of Electrons    NEL             ....  104
 Basis Dimension        Dim             ....  439

ORBITAL ENERGIES
----------------

  NO   OCC          E(Eh)            E(eV)
   0   2.0000     -24.494869      -666.5393
   1   2.0000     -14.162604      -385.3841
   2   2.0000     -10.178574      -276.9731
   3   2.0000     -10.096655      -274.7440
   4   2.0000     -10.087706      -274.5004
   5   2.0000     -10.078249      -274.2431
   6   2.0000     -10.077480      -274.2222
   7   2.0000     -10.075743      -274.1749
   8   2.0000     -10.074097      -274.1301
   9   2.0000     -10.073173      -274.1050
  10   2.0000     -10.070839      -274.0415
  11   2.0000     -10.064859      -273.8787
  12   2.0000      -9.990562      -271.8570
  13   2.0000      -1.303100       -35.4591
  14   2.0000      -1.010660       -27.5015
  15   2.0000      -0.924643       -25.1608
  16   2.0000      -0.901120       -24.5207
  17   2.0000      -0.876098       -23.8398
  18   2.0000      -0.832315       -22.6484
  19   2.0000      -0.801063       -21.7980
  20   2.0000      -0.791655       -21.5420
  21   2.0000      -0.745902       -20.2970
  22   2.0000      -0.722954       -19.6726
  23   2.0000      -0.693991       -18.8844
  24   2.0000      -0.660130       -17.9630
  25   2.0000      -0.650670       -17.7056
  26   2.0000      -0.635513       -17.2932
  27   2.0000      -0.629365       -17.1259
  28   2.0000      -0.617420       -16.8009
  29   2.0000      -0.590600       -16.0710
  30   2.0000      -0.584132       -15.8951
  31   2.0000      -0.568788       -15.4775
  32   2.0000      -0.554970       -15.1015
  33   2.0000      -0.541688       -14.7401
  34   2.0000      -0.533727       -14.5234
  35   2.0000      -0.519040       -14.1238
  36   2.0000      -0.500573       -13.6213
  37   2.0000      -0.490722       -13.3532
  38   2.0000      -0.481761       -13.1094
  39   2.0000      -0.468945       -12.7606
  40   2.0000      -0.465010       -12.6536
  41   2.0000      -0.458662       -12.4808
  42   2.0000      -0.451350       -12.2819
  43   2.0000      -0.448167       -12.1952
  44   2.0000      -0.430740       -11.7210
  45   2.0000      -0.425052       -11.5663
  46   2.0000      -0.413606       -11.2548
  47   2.0000      -0.406096       -11.0504
  48   2.0000      -0.403809       -10.9882
  49   2.0000      -0.398668       -10.8483
  50   2.0000      -0.394546       -10.7361
  51   2.0000      -0.266092        -7.2407
  52   0.0000       0.069723         1.8973
  53   0.0000       0.079562         2.1650
  54   0.0000       0.083544         2.2733
  55   0.0000       0.088823         2.4170
  56   0.0000       0.102180         2.7805

MULLIKEN ATOMIC CHARGES
-----------------------
   0 C :    0.782813
   1 C :    0.641715
   2 H :    0.019231
   3 C :    0.144271
   4 H :   -0.286048
   5 H :   -0.206189
   6 H :   -0.286584
   7 C :    0.207421
   8 H :   -0.076059
   9 C :    0.912118
  10 H :   -0.479706
  11 C :    0.237587
  12 H :   -0.105559
  13 H :   -0.076061
  14 C :    1.008143
  15 H :    0.083609
  16 H :   -0.533504
  17 H :   -1.252818
  18 C :    0.247137
  19 H :   -0.050156
  20 H :   -0.035208
  21 H :   -0.263277
  22 C :    1.167685
  23 H :   -0.189390
  24 H :   -0.107910
  25 F :   -0.715086
  26 C :   -0.807953
  27 N :    0.744677
  28 C :    1.089374
  29 H :   -0.318045
  30 H :   -0.855808
  31 H :   -0.093382
  32 H :   -0.279703
  33 H :    0.129908
  34 H :   -0.397245
Sum of atomic charges:   -0.0000000

LOEWDIN ATOMIC CHARGES
----------------------
   0 C :    0.008816
   1 C :   -0.028414
   2 H :    0.024312
   3 C :   -0.039447
   4 H :    0.023245
   5 H :   -0.007840
   6 H :    0.032417
   7 C :   -0.040282
   8 H :    0.004041
   9 C :   -0.036119
  10 H :    0.029608
  11 C :   -0.043148
  12 H :    0.027084
  13 H :    0.026066
  14 C :   -0.040249
  15 H :    0.018618
  16 H :    0.026641
  17 H :   -0.023571
  18 C :   -0.021273
  19 H :    0.041006
  20 H :    0.037439
  21 H :    0.039617
  22 C :    0.140728
  23 H :    0.043000
  24 H :    0.047228
  25 F :   -0.201699
  26 C :   -0.249929
  27 N :    0.200286
  28 C :    0.187365
  29 H :   -0.068571
  30 H :   -0.135156
  31 H :    0.005438
  32 H :   -0.072911
  33 H :    0.013411
  34 H :    0.032242

  Mayer bond orders larger than 0.100000
B(  0-C ,  1-C ) :   1.0942 B(  0-C ,  3-C ) :   0.1746 B(  0-C ,  4-H ) :   0.2156
B(  0-C , 26-C ) :   1.3076 B(  0-C , 27-N ) :   0.1097 B(  0-C , 29-H ) :  -0.1472
B(  0-C , 33-H ) :   0.4756 B(  0-C , 34-H ) :   0.6427 B(  1-C ,  2-H ) :   0.5736
B(  1-C ,  3-C ) :   1.2343 B(  1-C ,  4-H ) :   0.7082 B(  1-C ,  5-H ) :   0.1828
B(  1-C , 26-C ) :   0.1759 B(  1-C , 28-C ) :   0.1072 B(  1-C , 30-H ) :  -0.1102
B(  1-C , 33-H ) :   0.1649 B(  1-C , 34-H ) :   0.1163 B(  2-H ,  3-C ) :   0.3184
B(  2-H ,  4-H ) :  -0.2332 B(  3-C ,  4-H ) :   0.2495 B(  3-C ,  5-H ) :   0.7817
B(  3-C ,  6-H ) :   0.7823 B(  3-C ,  7-C ) :   1.2182 B(  3-C ,  8-H ) :   0.1613
B(  3-C , 10-H ) :   0.1844 B(  3-C , 14-C ) :  -0.1004 B(  3-C , 28-C ) :  -0.1098
B(  3-C , 30-H ) :   0.1110 B(  4-H , 29-H ) :  -0.1680 B(  5-H ,  7-C ) :   0.1672
B(  5-H , 14-C ) :   0.1081 B(  5-H , 15-H ) :   0.1913 B(  5-H , 16-H ) :  -0.1010
B(  5-H , 29-H ) :   0.1774 B(  5-H , 30-H ) :  -0.1413 B(  6-H ,  7-C ) :   0.1846
B(  6-H , 30-H ) :   0.1021 B(  7-C ,  8-H ) :   0.8099 B(  7-C ,  9-C ) :   1.1048
B(  7-C , 10-H ) :   0.8774 B(  7-C , 11-C ) :   0.2362 B(  7-C , 12-H ) :   0.1203
B(  7-C , 13-H ) :   0.3296 B(  8-H , 17-H ) :   0.2720 B(  9-C , 11-C ) :   1.1107
B(  9-C , 12-H ) :   0.6308 B(  9-C , 13-H ) :   0.5794 B( 10-H , 17-H ) :  -0.1003
B( 11-C , 12-H ) :   0.2330 B( 11-C , 13-H ) :   0.1426 B( 11-C , 14-C ) :   1.1034
B( 11-C , 15-H ) :   0.7945 B( 11-C , 16-H ) :   0.8961 B( 11-C , 17-H ) :   0.2949
B( 11-C , 19-H ) :   0.1150 B( 12-H , 13-H ) :  -0.1598 B( 14-C , 15-H ) :   0.1608
B( 14-C , 16-H ) :   0.2497 B( 14-C , 17-H ) :  -0.6862 B( 14-C , 18-C ) :   1.1173
B( 14-C , 19-H ) :   0.5480 B( 14-C , 20-H ) :   0.1466 B( 14-C , 21-H ) :   0.2419
B( 14-C , 22-C ) :   0.1788 B( 14-C , 29-H ) :  -0.1131 B( 15-H , 16-H ) :  -0.1005
B( 17-H , 18-C ) :   0.2380 B( 17-H , 19-H ) :   0.3201 B( 17-H , 29-H ) :   0.1158
B( 18-C , 19-H ) :   0.1056 B( 18-C , 20-H ) :   0.8545 B( 18-C , 21-H ) :   0.7826
B( 18-C , 22-C ) :   1.1069 B( 18-C , 23-H ) :   0.2474 B( 18-C , 24-H ) :   0.1248
B( 20-H , 22-C ) :   0.1140 B( 22-C , 23-H ) :   0.6468 B( 22-C , 24-H ) :   0.7481
B( 22-C , 25-F ) :   0.7219 B( 24-H , 25-F ) :   0.1705 B( 25-F , 26-C ) :   0.1297
B( 25-F , 28-C ) :  -0.1511 B( 25-F , 30-H ) :   0.2952 B( 25-F , 32-H ) :   0.1084
B( 26-C , 27-N ) :   1.0777 B( 26-C , 28-C ) :   2.0499 B( 26-C , 30-H ) :   0.6396
B( 26-C , 33-H ) :   0.3483 B( 26-C , 34-H ) :   0.3290 B( 27-N , 28-C ) :   0.3680
B( 27-N , 29-H ) :   0.2312 B( 27-N , 30-H ) :  -0.1221 B( 27-N , 31-H ) :   1.0423
B( 27-N , 32-H ) :   1.0105 B( 28-C , 29-H ) :   0.6744 B( 28-C , 30-H ) :  -0.1596
B( 29-H , 30-H ) :  -0.3779 B( 30-H , 31-H ) :  -0.1158 B( 31-H , 32-H ) :  -0.1764
B( 33-H , 34-H ) :  -0.1278

FINAL SINGLE POINT ENERGY      -585.003841803789

DIPOLE MOMENT
-------------
                                X             Y             Z
Electronic contribution:     -2.81987       0.00523      10.65652
Nuclear contribution   :      1.85154       0.58682     -11.15333
                        -----------------------------------------
Total Dipole Moment    :     -0.96834       0.59205      -0.49681
                        -----------------------------------------
Magnitude (a.u.)       :      1.23896
Magnitude (Debye)      :      3.14919

Rotational constants in cm-1:     0.028379     0.022321     0.014415
Rotational constants in MHz :   850.785777   669.176075   432.155504

                             ****ORCA TERMINATED NORMALLY****
TOTAL RUN TIME: 0 days 0 hours 3 minutes 23 seconds 40 msec
