                         Program Version 5.0.0 -  RELEASE  -
|  1> !wB97X-D3 RIJCOSX def2-TZVPD def2/J TightSCF
|  2> *xyz -1 1
|  3> C          2.09343        1.86104       -4.65684
|  4> S          1.87964        0.07859       -4.46297
|  5> O          3.20757       -0.46611       -4.42026
|  6> O          1.07506       -0.05616       -3.26876
|  7> O          1.13166       -0.31996       -5.67903
|  8> H          2.68437        2.05681       -5.52711
|  9> H          2.58708        2.25699       -3.79404
| 10> H          1.13553        2.32556       -4.76426
| 11> *
| 12>
| 13> %MaxCore 64000
| 14>
| 15> %pal nprocs 8
| 16> end
| 17>
| 18> %scf
| 19>   MaxIter 150
| 20> end
| 21>
| 22>
| 23>                          ****END OF INPUT****

CARTESIAN COORDINATES (ANGSTROEM)
---------------------------------
  C      2.093430    1.861040   -4.656840
  S      1.879640    0.078590   -4.462970
  O      3.207570   -0.466110   -4.420260
  O      1.075060   -0.056160   -3.268760
  O      1.131660   -0.319960   -5.679030
  H      2.684370    2.056810   -5.527110
  H      2.587080    2.256990   -3.794040
  H      1.135530    2.325560   -4.764260

 Total Charge           Charge          ....   -1
 Multiplicity           Mult            ....    1
 Number of Electrons    NEL             ....   50
 Basis Dimension        Dim             ....  230

ORBITAL ENERGIES
----------------

  NO   OCC          E(Eh)            E(eV)
   0   2.0000     -88.934747     -2420.0375
   1   2.0000     -19.011959      -517.3417
   2   2.0000     -19.007785      -517.2281
   3   2.0000     -18.996570      -516.9229
   4   2.0000     -10.119695      -275.3709
   5   2.0000      -7.997260      -217.6165
   6   2.0000      -5.951837      -161.9577
   7   2.0000      -5.950165      -161.9122
   8   2.0000      -5.949899      -161.9050
   9   2.0000      -1.040533       -28.3143
  10   2.0000      -0.910091       -24.7648
  11   2.0000      -0.884956       -24.0809
  12   2.0000      -0.691201       -18.8085
  13   2.0000      -0.490434       -13.3454
  14   2.0000      -0.400039       -10.8856
  15   2.0000      -0.386116       -10.5068
  16   2.0000      -0.385384       -10.4868
  17   2.0000      -0.344348        -9.3702
  18   2.0000      -0.341881        -9.3031
  19   2.0000      -0.249979        -6.8023
  20   2.0000      -0.248989        -6.7753
  21   2.0000      -0.212187        -5.7739
  22   2.0000      -0.202577        -5.5124
  23   2.0000      -0.194131        -5.2826
  24   2.0000      -0.158326        -4.3083
  25   0.0000       0.178191         4.8488
  26   0.0000       0.188951         5.1416
  27   0.0000       0.189438         5.1549
  28   0.0000       0.199526         5.4294
  29   0.0000       0.239809         6.5255

MULLIKEN ATOMIC CHARGES
-----------------------
   0 C :   -0.903022
   1 S :    1.188414
   2 O :   -0.679442
   3 O :   -0.689259
   4 O :   -0.718728
   5 H :    0.267479
   6 H :    0.270610
   7 H :    0.263946
Sum of atomic charges:   -1.0000000

LOEWDIN ATOMIC CHARGES
----------------------
   0 C :   -0.192458
   1 S :    0.314506
   2 O :   -0.394281
   3 O :   -0.404181
   4 O :   -0.433332
   5 H :    0.036654
   6 H :    0.035726
   7 H :    0.037366

  Mayer bond orders larger than 0.100000
B(  0-C ,  1-S ) :   0.8116 B(  0-C ,  2-O ) :   0.1179 B(  0-C ,  3-O ) :   0.1177
B(  0-C ,  4-O ) :   0.1180 B(  0-C ,  5-H ) :   0.9531 B(  0-C ,  6-H ) :   0.9495
B(  0-C ,  7-H ) :   0.9568 B(  1-S ,  2-O ) :   1.5596 B(  1-S ,  3-O ) :   1.5480
B(  1-S ,  4-O ) :   1.5109

Dispersion correction           -0.001526375
FINAL SINGLE POINT ENERGY      -663.906127456008

DIPOLE MOMENT
-------------
                                X             Y             Z
Electronic contribution:     -0.42783      -4.31630       0.56929
Nuclear contribution   :      0.72475       5.67579      -0.57287
                        -----------------------------------------
Total Dipole Moment    :      0.29691       1.35949      -0.00358
                        -----------------------------------------
Magnitude (a.u.)       :      1.39154
Magnitude (Debye)      :      3.53701

Rotational constants in cm-1:     0.171646     0.157781     0.155534
Rotational constants in MHz :  5145.813281  4730.160232  4662.792719

                             ****ORCA TERMINATED NORMALLY****
TOTAL RUN TIME: 0 days 0 hours 0 minutes 20 seconds 957 msec
