                         Program Version 5.0.0 -  RELEASE  -
|  1> !wB97X-D3 RIJCOSX def2-TZVPD def2/J TightSCF
|  2> *xyz 1 1
|  3> C         -0.46129        2.23469       -4.98962
|  4> C         -0.42384        2.39877       -6.47432
|  5> N         -0.95947        3.49265       -7.00740
|  6> N          0.14558        1.48689       -7.20399
|  7> H          0.56537        0.69681       -6.72386
|  8> H          0.22068        1.58177       -8.20752
|  9> H         -1.40624        4.18151       -6.40326
| 10> H         -0.93421        3.68160       -7.99947
| 11> H          0.00645        1.31059       -4.72100
| 12> H         -1.47822        2.22967       -4.65687
| 13> H          0.06109        3.04632       -4.52779
| 14> *
| 15>
| 16> %MaxCore 64000
| 17>
| 18> %pal nprocs 8
| 19> end
| 20>
| 21> %scf
| 22>   MaxIter 150
| 23> end
| 24>
| 25>
| 26>                          ****END OF INPUT****

CARTESIAN COORDINATES (ANGSTROEM)
---------------------------------
  C     -0.461290    2.234690   -4.989620
  C     -0.423840    2.398770   -6.474320
  N     -0.959470    3.492650   -7.007400
  N      0.145580    1.486890   -7.203990
  H      0.565370    0.696810   -6.723860
  H      0.220680    1.581770   -8.207520
  H     -1.406240    4.181510   -6.403260
  H     -0.934210    3.681600   -7.999470
  H      0.006450    1.310590   -4.721000
  H     -1.478220    2.229670   -4.656870
  H      0.061090    3.046320   -4.527790

 Total Charge           Charge          ....    1
 Multiplicity           Mult            ....    1
 Number of Electrons    NEL             ....   32
 Basis Dimension        Dim             ....  211

ORBITAL ENERGIES
----------------

  NO   OCC          E(Eh)            E(eV)
   0   2.0000     -14.675941      -399.3527
   1   2.0000     -14.668626      -399.1536
   2   2.0000     -10.610030      -288.7136
   3   2.0000     -10.472262      -284.9647
   4   2.0000      -1.328600       -36.1530
   5   2.0000      -1.230281       -33.4776
   6   2.0000      -1.071868       -29.1670
   7   2.0000      -0.951016       -25.8785
   8   2.0000      -0.887031       -24.1373
   9   2.0000      -0.873187       -23.7606
  10   2.0000      -0.804141       -21.8818
  11   2.0000      -0.765920       -20.8417
  12   2.0000      -0.714945       -19.4546
  13   2.0000      -0.701696       -19.0941
  14   2.0000      -0.675216       -18.3735
  15   2.0000      -0.591624       -16.0989
  16   0.0000      -0.131157        -3.5690
  17   0.0000      -0.097960        -2.6656
  18   0.0000      -0.054535        -1.4840
  19   0.0000      -0.053562        -1.4575
  20   0.0000      -0.030121        -0.8196

MULLIKEN ATOMIC CHARGES
-----------------------
   0 C :   -1.177867
   1 C :    1.002199
   2 N :   -0.420294
   3 N :   -0.403754
   4 H :    0.246226
   5 H :    0.203263
   6 H :    0.251865
   7 H :    0.213995
   8 H :    0.352770
   9 H :    0.365923
  10 H :    0.365674
Sum of atomic charges:    1.0000000

LOEWDIN ATOMIC CHARGES
----------------------
   0 C :    0.032586
   1 C :   -0.378105
   2 N :    0.208588
   3 N :    0.224379
   4 H :    0.153674
   5 H :    0.153774
   6 H :    0.154380
   7 H :    0.144489
   8 H :    0.092655
   9 H :    0.106486
  10 H :    0.107093

  Mayer bond orders larger than 0.100000
B(  0-C ,  1-C ) :   0.6601 B(  0-C ,  8-H ) :   0.9105 B(  0-C ,  9-H ) :   0.9073
B(  0-C , 10-H ) :   0.9006 B(  1-C ,  2-N ) :   1.1609 B(  1-C ,  3-N ) :   1.1814
B(  2-N ,  3-N ) :   0.1029 B(  2-N ,  6-H ) :   0.9570 B(  2-N ,  7-H ) :   1.0307
B(  3-N ,  4-H ) :   0.9479 B(  3-N ,  5-H ) :   1.0537

Dispersion correction           -0.001673264
FINAL SINGLE POINT ENERGY      -189.739630894623

DIPOLE MOMENT
-------------
                                X             Y             Z
Electronic contribution:      0.06395       0.17263      -2.16407
Nuclear contribution   :     -0.00094      -0.11553       1.69525
                        -----------------------------------------
Total Dipole Moment    :      0.06300       0.05710      -0.46881
                        -----------------------------------------
Magnitude (a.u.)       :      0.47646
Magnitude (Debye)      :      1.21107

Rotational constants in cm-1:     0.329971     0.303414     0.162776
Rotational constants in MHz :  9892.292308  9096.128349  4879.901854

                             ****ORCA TERMINATED NORMALLY****
TOTAL RUN TIME: 0 days 0 hours 0 minutes 18 seconds 398 msec
