                         Program Version 5.0.0 -  RELEASE  -
|  1> !wB97X-D3 RIJCOSX def2-TZVPD def2/J TightSCF
|  2> *xyz 0 1
|  3> C          2.09343        1.86104       -4.65684
|  4> S          1.87964        0.07859       -4.46297
|  5> F          3.20757       -0.46611       -4.42026
|  6> O          1.07506       -0.05616       -3.26876
|  7> O          1.13166       -0.31996       -5.67903
|  8> H          2.68437        2.05681       -5.52711
|  9> H          2.58708        2.25699       -3.79404
| 10> H          1.13553        2.32556       -4.76426
| 11> *
| 12>
| 13> %MaxCore 64000
| 14>
| 15> %pal nprocs 8
| 16> end
| 17>
| 18> %scf
| 19>   MaxIter 150
| 20> end
| 21>
| 22>
| 23>                          ****END OF INPUT****

CARTESIAN COORDINATES (ANGSTROEM)
---------------------------------
  C      2.093430    1.861040   -4.656840
  S      1.879640    0.078590   -4.462970
  F      3.207570   -0.466110   -4.420260
  O      1.075060   -0.056160   -3.268760
  O      1.131660   -0.319960   -5.679030
  H      2.684370    2.056810   -5.527110
  H      2.587080    2.256990   -3.794040
  H      1.135530    2.325560   -4.764260

 Total Charge           Charge          ....    0
 Multiplicity           Mult            ....    1
 Number of Electrons    NEL             ....   50
 Basis Dimension        Dim             ....  230

ORBITAL ENERGIES
----------------

  NO   OCC          E(Eh)            E(eV)
   0   2.0000     -89.203903     -2427.3616
   1   2.0000     -24.916678      -678.0173
   2   2.0000     -19.247729      -523.7573
   3   2.0000     -19.236250      -523.4450
   4   2.0000     -10.329403      -281.0773
   5   2.0000      -8.266749      -224.9497
   6   2.0000      -6.224100      -169.3664
   7   2.0000      -6.218089      -169.2028
   8   2.0000      -6.217231      -169.1795
   9   2.0000      -1.512106       -41.1465
  10   2.0000      -1.224110       -33.3097
  11   2.0000      -1.123115       -30.5615
  12   2.0000      -0.913842       -24.8669
  13   2.0000      -0.833223       -22.6731
  14   2.0000      -0.714242       -19.4355
  15   2.0000      -0.701802       -19.0970
  16   2.0000      -0.662688       -18.0327
  17   2.0000      -0.577734       -15.7209
  18   2.0000      -0.576376       -15.6840
  19   2.0000      -0.564143       -15.3511
  20   2.0000      -0.536934       -14.6107
  21   2.0000      -0.488377       -13.2894
  22   2.0000      -0.434829       -11.8323
  23   2.0000      -0.423697       -11.5294
  24   2.0000      -0.405910       -11.0454
  25   0.0000       0.047933         1.3043
  26   0.0000       0.062057         1.6887
  27   0.0000       0.069807         1.8995
  28   0.0000       0.072839         1.9820
  29   0.0000       0.106809         2.9064

MULLIKEN ATOMIC CHARGES
-----------------------
   0 C :   -0.929752
   1 S :    1.211163
   2 F :   -0.118095
   3 O :   -0.560061
   4 O :   -0.586196
   5 H :    0.334104
   6 H :    0.337427
   7 H :    0.311410
Sum of atomic charges:   -0.0000000

LOEWDIN ATOMIC CHARGES
----------------------
   0 C :   -0.120898
   1 S :    0.572263
   2 F :   -0.047716
   3 O :   -0.284457
   4 O :   -0.311717
   5 H :    0.060522
   6 H :    0.060231
   7 H :    0.071772

  Mayer bond orders larger than 0.100000
B(  0-C ,  1-S ) :   0.8198 B(  0-C ,  3-O ) :   0.1022 B(  0-C ,  4-O ) :   0.1009
B(  0-C ,  5-H ) :   0.9018 B(  0-C ,  6-H ) :   0.9003 B(  0-C ,  7-H ) :   0.9265
B(  1-S ,  2-F ) :   1.0173 B(  1-S ,  3-O ) :   1.7044 B(  1-S ,  4-O ) :   1.6624

Dispersion correction           -0.001536585
FINAL SINGLE POINT ENERGY      -688.418944260336

DIPOLE MOMENT
-------------
                                X             Y             Z
Electronic contribution:      1.81548      -5.20596       0.66133
Nuclear contribution   :     -0.60459       6.33153      -0.64388
                        -----------------------------------------
Total Dipole Moment    :      1.21089       1.12557       0.01745
                        -----------------------------------------
Magnitude (a.u.)       :      1.65332
Magnitude (Debye)      :      4.20241

Rotational constants in cm-1:     0.163601     0.155191     0.147098
Rotational constants in MHz :  4904.622287  4652.507792  4409.891356

                             ****ORCA TERMINATED NORMALLY****
TOTAL RUN TIME: 0 days 0 hours 0 minutes 19 seconds 830 msec
