                         Program Version 5.0.0 -  RELEASE  -
|  1> !wB97X-D3 RIJCOSX def2-TZVPD def2/J TightSCF
|  2> *xyz 0 1
|  3> C         -0.46129        2.23469       -4.98962
|  4> C         -0.42384        2.39877       -6.47432
|  5> C         -0.95947        3.49265       -7.00740
|  6> N          0.14558        1.48689       -7.20399
|  7> H          0.56537        0.69681       -6.72386
|  8> H          0.22068        1.58177       -8.20752
|  9> H         -1.40624        4.18151       -6.40326
| 10> H         -0.93421        3.68160       -7.99947
| 11> H          0.00645        1.31059       -4.72100
| 12> H         -1.47822        2.22967       -4.65687
| 13> H          0.06109        3.04632       -4.52779
| 14> *
| 15>
| 16> %MaxCore 64000
| 17>
| 18> %pal nprocs 8
| 19> end
| 20>
| 21> %scf
| 22>   MaxIter 150
| 23> end
| 24>
| 25>
| 26>                          ****END OF INPUT****

CARTESIAN COORDINATES (ANGSTROEM)
---------------------------------
  C     -0.461290    2.234690   -4.989620
  C     -0.423840    2.398770   -6.474320
  C     -0.959470    3.492650   -7.007400
  N      0.145580    1.486890   -7.203990
  H      0.565370    0.696810   -6.723860
  H      0.220680    1.581770   -8.207520
  H     -1.406240    4.181510   -6.403260
  H     -0.934210    3.681600   -7.999470
  H      0.006450    1.310590   -4.721000
  H     -1.478220    2.229670   -4.656870
  H      0.061090    3.046320   -4.527790

 Total Charge           Charge          ....    0
 Multiplicity           Mult            ....    1
 Number of Electrons    NEL             ....   32
 Basis Dimension        Dim             ....  211

ORBITAL ENERGIES
----------------

  NO   OCC          E(Eh)            E(eV)
   0   2.0000     -14.425196      -392.5295
   1   2.0000     -10.298104      -280.2256
   2   2.0000     -10.263765      -279.2913
   3   2.0000     -10.199116      -277.5320
   4   2.0000      -1.053943       -28.6793
   5   2.0000      -0.872473       -23.7412
   6   2.0000      -0.799884       -21.7660
   7   2.0000      -0.680898       -18.5282
   8   2.0000      -0.633979       -17.2515
   9   2.0000      -0.575121       -15.6498
  10   2.0000      -0.533687       -14.5224
  11   2.0000      -0.494923       -13.4675
  12   2.0000      -0.485449       -13.2098
  13   2.0000      -0.447944       -12.1892
  14   2.0000      -0.438142       -11.9224
  15   2.0000      -0.272009        -7.4017
  16   0.0000       0.068560         1.8656
  17   0.0000       0.096805         2.6342
  18   0.0000       0.100676         2.7395
  19   0.0000       0.116277         3.1641
  20   0.0000       0.132968         3.6182

MULLIKEN ATOMIC CHARGES
-----------------------
   0 C :   -1.122066
   1 C :    1.199556
   2 C :   -1.557034
   3 N :   -0.465094
   4 H :    0.197158
   5 H :    0.166523
   6 H :    0.335212
   7 H :    0.330941
   8 H :    0.342012
   9 H :    0.289210
  10 H :    0.283584
Sum of atomic charges:    0.0000000

LOEWDIN ATOMIC CHARGES
----------------------
   0 C :   -0.040981
   1 C :   -0.536487
   2 C :   -0.003226
   3 N :    0.090651
   4 H :    0.108604
   5 H :    0.118508
   6 H :    0.023302
   7 H :    0.013601
   8 H :    0.064528
   9 H :    0.080618
  10 H :    0.080882

  Mayer bond orders larger than 0.100000
B(  0-C ,  1-C ) :   0.5577 B(  0-C ,  2-C ) :   0.1031 B(  0-C ,  8-H ) :   0.9468
B(  0-C ,  9-H ) :   0.9659 B(  0-C , 10-H ) :   0.9611 B(  1-C ,  2-C ) :   0.9438
B(  1-C ,  3-N ) :   1.0317 B(  1-C ,  7-H ) :  -0.1075 B(  2-C ,  3-N ) :   0.1334
B(  2-C ,  6-H ) :   0.9478 B(  2-C ,  7-H ) :   0.9906 B(  3-N ,  4-H ) :   1.0044
B(  3-N ,  5-H ) :   1.0461

Dispersion correction           -0.001670730
FINAL SINGLE POINT ENERGY      -173.266780332337

DIPOLE MOMENT
-------------
                                X             Y             Z
Electronic contribution:      0.54596      -0.82803      -1.51887
Nuclear contribution   :     -0.12116       0.12783       1.56719
                        -----------------------------------------
Total Dipole Moment    :      0.42479      -0.70019       0.04832
                        -----------------------------------------
Magnitude (a.u.)       :      0.82040
Magnitude (Debye)      :      2.08529

Rotational constants in cm-1:     0.350065     0.307664     0.168807
Rotational constants in MHz : 10494.676477  9223.531181  5060.697310

                             ****ORCA TERMINATED NORMALLY****
TOTAL RUN TIME: 0 days 0 hours 0 minutes 19 seconds 248 msec
