                         Program Version 5.0.0 -  RELEASE  -
|  1> !wB97X-D3 RIJCOSX def2-TZVPD def2/J TightSCF
|  2> *xyz 0 1
|  3> C          2.09343        1.86104       -4.65684
|  4> S          1.87964        0.07859       -4.46297
|  5> O          3.20757       -0.46611       -4.42026
|  6> F          1.07506       -0.05616       -3.26876
|  7> O          1.13166       -0.31996       -5.67903
|  8> H          2.68437        2.05681       -5.52711
|  9> H          2.58708        2.25699       -3.79404
| 10> H          1.13553        2.32556       -4.76426
| 11> *
| 12>
| 13> %MaxCore 64000
| 14>
| 15> %pal nprocs 8
| 16> end
| 17>
| 18> %scf
| 19>   MaxIter 150
| 20> end
| 21>
| 22>
| 23>                          ****END OF INPUT****

CARTESIAN COORDINATES (ANGSTROEM)
---------------------------------
  C      2.093430    1.861040   -4.656840
  S      1.879640    0.078590   -4.462970
  O      3.207570   -0.466110   -4.420260
  F      1.075060   -0.056160   -3.268760
  O      1.131660   -0.319960   -5.679030
  H      2.684370    2.056810   -5.527110
  H      2.587080    2.256990   -3.794040
  H      1.135530    2.325560   -4.764260

 Total Charge           Charge          ....    0
 Multiplicity           Mult            ....    1
 Number of Electrons    NEL             ....   50
 Basis Dimension        Dim             ....  230

ORBITAL ENERGIES
----------------

  NO   OCC          E(Eh)            E(eV)
   0   2.0000     -89.203305     -2427.3453
   1   2.0000     -24.910625      -677.8526
   2   2.0000     -19.251789      -523.8678
   3   2.0000     -19.236022      -523.4388
   4   2.0000     -10.329266      -281.0736
   5   2.0000      -8.266161      -224.9337
   6   2.0000      -6.223545      -169.3513
   7   2.0000      -6.217516      -169.1872
   8   2.0000      -6.216637      -169.1633
   9   2.0000      -1.502763       -40.8923
  10   2.0000      -1.228825       -33.4380
  11   2.0000      -1.126429       -30.6517
  12   2.0000      -0.913746       -24.8643
  13   2.0000      -0.828273       -22.5385
  14   2.0000      -0.708916       -19.2906
  15   2.0000      -0.695158       -18.9162
  16   2.0000      -0.662264       -18.0211
  17   2.0000      -0.578600       -15.7445
  18   2.0000      -0.577412       -15.7122
  19   2.0000      -0.563318       -15.3287
  20   2.0000      -0.539045       -14.6681
  21   2.0000      -0.491100       -13.3635
  22   2.0000      -0.439431       -11.9575
  23   2.0000      -0.424127       -11.5411
  24   2.0000      -0.408664       -11.1203
  25   0.0000       0.048665         1.3242
  26   0.0000       0.062409         1.6982
  27   0.0000       0.070008         1.9050
  28   0.0000       0.072704         1.9784
  29   0.0000       0.106991         2.9114

MULLIKEN ATOMIC CHARGES
-----------------------
   0 C :   -0.930971
   1 S :    1.214968
   2 O :   -0.553469
   3 F :   -0.127545
   4 O :   -0.587311
   5 H :    0.314555
   6 H :    0.338103
   7 H :    0.331670
Sum of atomic charges:   -0.0000000

LOEWDIN ATOMIC CHARGES
----------------------
   0 C :   -0.120349
   1 S :    0.572318
   2 O :   -0.275299
   3 F :   -0.057352
   4 O :   -0.311929
   5 H :    0.071308
   6 H :    0.059868
   7 H :    0.061435

  Mayer bond orders larger than 0.100000
B(  0-C ,  1-S ) :   0.8184 B(  0-C ,  2-O ) :   0.1038 B(  0-C ,  5-H ) :   0.9239
B(  0-C ,  6-H ) :   0.8982 B(  0-C ,  7-H ) :   0.9057 B(  1-S ,  2-O ) :   1.7149
B(  1-S ,  3-F ) :   1.0051 B(  1-S ,  4-O ) :   1.6600

Dispersion correction           -0.001537547
FINAL SINGLE POINT ENERGY      -688.424035745815

DIPOLE MOMENT
-------------
                                X             Y             Z
Electronic contribution:     -1.74894      -4.52202       2.59054
Nuclear contribution   :      1.52593       5.92196      -1.79430
                        -----------------------------------------
Total Dipole Moment    :     -0.22301       1.39995       0.79624
                        -----------------------------------------
Magnitude (a.u.)       :      1.62591
Magnitude (Debye)      :      4.13272

Rotational constants in cm-1:     0.162837     0.155564     0.147443
Rotational constants in MHz :  4881.731197  4663.686927  4420.233103

                             ****ORCA TERMINATED NORMALLY****
TOTAL RUN TIME: 0 days 0 hours 0 minutes 19 seconds 609 msec
