                         Program Version 5.0.0 -  RELEASE  -
|  1> !wB97X-D3 RIJCOSX def2-TZVPD def2/J TightSCF
|  2> *xyz 0 1
|  3> C         -0.46129        2.23469       -4.98962
|  4> C         -0.42384        2.39877       -6.47432
|  5> N         -0.95947        3.49265       -7.00740
|  6> C          0.14558        1.48689       -7.20399
|  7> H          0.56537        0.69681       -6.72386
|  8> H          0.22068        1.58177       -8.20752
|  9> H         -1.40624        4.18151       -6.40326
| 10> H         -0.93421        3.68160       -7.99947
| 11> H          0.00645        1.31059       -4.72100
| 12> H         -1.47822        2.22967       -4.65687
| 13> H          0.06109        3.04632       -4.52779
| 14> *
| 15>
| 16> %MaxCore 64000
| 17>
| 18> %pal nprocs 8
| 19> end
| 20>
| 21> %scf
| 22>   MaxIter 150
| 23> end
| 24>
| 25>
| 26>                          ****END OF INPUT****

CARTESIAN COORDINATES (ANGSTROEM)
---------------------------------
  C     -0.461290    2.234690   -4.989620
  C     -0.423840    2.398770   -6.474320
  N     -0.959470    3.492650   -7.007400
  C      0.145580    1.486890   -7.203990
  H      0.565370    0.696810   -6.723860
  H      0.220680    1.581770   -8.207520
  H     -1.406240    4.181510   -6.403260
  H     -0.934210    3.681600   -7.999470
  H      0.006450    1.310590   -4.721000
  H     -1.478220    2.229670   -4.656870
  H      0.061090    3.046320   -4.527790

 Total Charge           Charge          ....    0
 Multiplicity           Mult            ....    1
 Number of Electrons    NEL             ....   32
 Basis Dimension        Dim             ....  211

ORBITAL ENERGIES
----------------

  NO   OCC          E(Eh)            E(eV)
   0   2.0000     -14.420403      -392.3991
   1   2.0000     -10.296122      -280.1717
   2   2.0000     -10.262239      -279.2497
   3   2.0000     -10.203206      -277.6433
   4   2.0000      -1.040790       -28.3213
   5   2.0000      -0.876433       -23.8490
   6   2.0000      -0.803905       -21.8754
   7   2.0000      -0.676658       -18.4128
   8   2.0000      -0.623514       -16.9667
   9   2.0000      -0.577993       -15.7280
  10   2.0000      -0.533491       -14.5170
  11   2.0000      -0.492512       -13.4019
  12   2.0000      -0.491420       -13.3722
  13   2.0000      -0.448199       -12.1961
  14   2.0000      -0.430051       -11.7023
  15   2.0000      -0.282080        -7.6758
  16   0.0000       0.068988         1.8773
  17   0.0000       0.097334         2.6486
  18   0.0000       0.100717         2.7407
  19   0.0000       0.120407         3.2765
  20   0.0000       0.131903         3.5893

MULLIKEN ATOMIC CHARGES
-----------------------
   0 C :   -1.212799
   1 C :    1.156706
   2 N :   -0.484327
   3 C :   -1.428212
   4 H :    0.291946
   5 H :    0.341782
   6 H :    0.193998
   7 H :    0.169251
   8 H :    0.301442
   9 H :    0.336574
  10 H :    0.333640
Sum of atomic charges:    0.0000000

LOEWDIN ATOMIC CHARGES
----------------------
   0 C :   -0.045609
   1 C :   -0.532516
   2 N :    0.081290
   3 C :    0.004837
   4 H :    0.024410
   5 H :    0.025639
   6 H :    0.108475
   7 H :    0.108497
   8 H :    0.072739
   9 H :    0.075692
  10 H :    0.076547

  Mayer bond orders larger than 0.100000
B(  0-C ,  1-C ) :   0.4814 B(  0-C ,  8-H ) :   0.9594 B(  0-C ,  9-H ) :   0.9377
B(  0-C , 10-H ) :   0.9378 B(  1-C ,  2-N ) :   1.0250 B(  1-C ,  3-C ) :   1.0827
B(  2-N ,  3-C ) :   0.1094 B(  2-N ,  6-H ) :   1.0183 B(  2-N ,  7-H ) :   1.0315
B(  3-C ,  4-H ) :   0.9825 B(  3-C ,  5-H ) :   0.9558

Dispersion correction           -0.001683463
FINAL SINGLE POINT ENERGY      -173.271014869380

DIPOLE MOMENT
-------------
                                X             Y             Z
Electronic contribution:     -0.44313       0.95174      -1.38273
Nuclear contribution   :      0.12666      -0.32199       1.52310
                        -----------------------------------------
Total Dipole Moment    :     -0.31647       0.62975       0.14037
                        -----------------------------------------
Magnitude (a.u.)       :      0.71863
Magnitude (Debye)      :      1.82662

Rotational constants in cm-1:     0.352483     0.305471     0.168700
Rotational constants in MHz : 10567.165953  9157.779739  5057.501411

                             ****ORCA TERMINATED NORMALLY****
TOTAL RUN TIME: 0 days 0 hours 0 minutes 18 seconds 753 msec
