                         Program Version 5.0.0 -  RELEASE  -
|  1> !wB97X-D3 RIJCOSX def2-TZVPD def2/J TightSCF
|  2> *xyz 0 1
|  3> C          2.09343        1.86104       -4.65684
|  4> S          1.87964        0.07859       -4.46297
|  5> O          3.20757       -0.46611       -4.42026
|  6> O          1.07506       -0.05616       -3.26876
|  7> F          1.13166       -0.31996       -5.67903
|  8> H          2.68437        2.05681       -5.52711
|  9> H          2.58708        2.25699       -3.79404
| 10> H          1.13553        2.32556       -4.76426
| 11> *
| 12>
| 13> %MaxCore 64000
| 14>
| 15> %pal nprocs 8
| 16> end
| 17>
| 18> %scf
| 19>   MaxIter 150
| 20> end
| 21>
| 22>
| 23>                          ****END OF INPUT****

CARTESIAN COORDINATES (ANGSTROEM)
---------------------------------
  C      2.093430    1.861040   -4.656840
  S      1.879640    0.078590   -4.462970
  O      3.207570   -0.466110   -4.420260
  O      1.075060   -0.056160   -3.268760
  F      1.131660   -0.319960   -5.679030
  H      2.684370    2.056810   -5.527110
  H      2.587080    2.256990   -3.794040
  H      1.135530    2.325560   -4.764260

 Total Charge           Charge          ....    0
 Multiplicity           Mult            ....    1
 Number of Electrons    NEL             ....   50
 Basis Dimension        Dim             ....  230

ORBITAL ENERGIES
----------------

  NO   OCC          E(Eh)            E(eV)
   0   2.0000     -89.201250     -2427.2894
   1   2.0000     -24.892516      -677.3598
   2   2.0000     -19.251369      -523.8564
   3   2.0000     -19.247049      -523.7388
   4   2.0000     -10.328474      -281.0521
   5   2.0000      -8.264123      -224.8782
   6   2.0000      -6.221533      -169.2965
   7   2.0000      -6.215655      -169.1366
   8   2.0000      -6.214503      -169.1052
   9   2.0000      -1.473095       -40.0850
  10   2.0000      -1.236814       -33.6554
  11   2.0000      -1.144630       -31.1470
  12   2.0000      -0.911485       -24.8028
  13   2.0000      -0.813284       -22.1306
  14   2.0000      -0.693986       -18.8843
  15   2.0000      -0.674313       -18.3490
  16   2.0000      -0.659427       -17.9439
  17   2.0000      -0.580187       -15.7877
  18   2.0000      -0.577678       -15.7194
  19   2.0000      -0.562147       -15.2968
  20   2.0000      -0.544329       -14.8119
  21   2.0000      -0.495708       -13.4889
  22   2.0000      -0.443681       -12.0732
  23   2.0000      -0.434849       -11.8328
  24   2.0000      -0.421919       -11.4810
  25   0.0000       0.050686         1.3792
  26   0.0000       0.063523         1.7285
  27   0.0000       0.070744         1.9250
  28   0.0000       0.071843         1.9549
  29   0.0000       0.107414         2.9229

MULLIKEN ATOMIC CHARGES
-----------------------
   0 C :   -0.931381
   1 S :    1.231938
   2 O :   -0.559783
   3 O :   -0.568092
   4 F :   -0.157342
   5 H :    0.333607
   6 H :    0.319576
   7 H :    0.331478
Sum of atomic charges:   -0.0000000

LOEWDIN ATOMIC CHARGES
----------------------
   0 C :   -0.119635
   1 S :    0.573199
   2 O :   -0.275628
   3 O :   -0.285252
   4 F :   -0.085229
   5 H :    0.060747
   6 H :    0.070685
   7 H :    0.061113

  Mayer bond orders larger than 0.100000
B(  0-C ,  1-S ) :   0.8150 B(  0-C ,  2-O ) :   0.1023 B(  0-C ,  3-O ) :   0.1017
B(  0-C ,  5-H ) :   0.9035 B(  0-C ,  6-H ) :   0.9196 B(  0-C ,  7-H ) :   0.9044
B(  1-S ,  2-O ) :   1.7097 B(  1-S ,  3-O ) :   1.6964 B(  1-S ,  4-F ) :   0.9645

Dispersion correction           -0.001535974
FINAL SINGLE POINT ENERGY      -688.438637534661

DIPOLE MOMENT
-------------
                                X             Y             Z
Electronic contribution:     -1.66556      -4.96677      -1.46688
Nuclear contribution   :      1.46938       6.18552       0.61372
                        -----------------------------------------
Total Dipole Moment    :     -0.19618       1.21874      -0.85317
                        -----------------------------------------
Magnitude (a.u.)       :      1.50057
Magnitude (Debye)      :      3.81415

Rotational constants in cm-1:     0.163578     0.153284     0.148718
Rotational constants in MHz :  4903.939615  4595.352658  4458.447794

                             ****ORCA TERMINATED NORMALLY****
TOTAL RUN TIME: 0 days 0 hours 0 minutes 19 seconds 433 msec
