                         Program Version 5.0.0 -  RELEASE  -
|  1> !wB97X-D3 RIJCOSX def2-TZVPD def2/J TightSCF xyzfile
|  2>
|  3> *xyzfile 0 1 D2.xyz
|  4>
|  5> %MaxCore 64000
|  6>
|  7> %pal nprocs 18
|  8> end
|  9>
| 10> %scf
| 11>   MaxIter 150
| 12> end
| 13>
| 14>
| 15>                          ****END OF INPUT****

CARTESIAN COORDINATES (ANGSTROEM)
---------------------------------
  C     -0.461293    2.234686   -4.989619
  C      0.848883    2.667967   -4.302351
  C      2.093434    1.861037   -4.656845
  H      2.444814    2.041567   -5.674990
  H      2.901748    2.137864   -3.980338
  S      1.879644    0.078594   -4.462965
  C     -0.423841    2.398772   -6.474317
  N     -0.959467    3.492647   -7.007401
  C      0.145585    1.486891   -7.203987
  H      0.565371    0.696807   -6.723858
  H      0.220682    1.581768   -8.207520
  H     -1.406243    4.181507   -6.403261
  H     -0.934215    3.681601   -7.999468
  F      3.207574   -0.466111   -4.420259
  O      1.075064   -0.056160   -3.268758
  O      1.131661   -0.319960   -5.679031
  H      0.668432    2.559427   -3.232850
  H      1.034074    3.729426   -4.497081
  H     -1.288884    2.826737   -4.594997
  H     -0.651696    1.186343   -4.756552

 Total Charge           Charge          ....    0
 Multiplicity           Mult            ....    1
 Number of Electrons    NEL             ....   88
 Basis Dimension        Dim             ....  478

ORBITAL ENERGIES
----------------

  NO   OCC          E(Eh)            E(eV)
   0   2.0000     -89.198977     -2427.2276
   1   2.0000     -24.913788      -677.9386
   2   2.0000     -19.246921      -523.7353
   3   2.0000     -19.235108      -523.4139
   4   2.0000     -14.414571      -392.2404
   5   2.0000     -10.331161      -281.1252
   6   2.0000     -10.301196      -280.3098
   7   2.0000     -10.284229      -279.8481
   8   2.0000     -10.276345      -279.6336
   9   2.0000     -10.178649      -276.9751
  10   2.0000      -8.262797      -224.8421
  11   2.0000      -6.220005      -169.2549
  12   2.0000      -6.213759      -169.0850
  13   2.0000      -6.213549      -169.0793
  14   2.0000      -1.509367       -41.0720
  15   2.0000      -1.226213       -33.3670
  16   2.0000      -1.128163       -30.6989
  17   2.0000      -1.035646       -28.1813
  18   2.0000      -0.945158       -25.7191
  19   2.0000      -0.882423       -24.0119
  20   2.0000      -0.837448       -22.7881
  21   2.0000      -0.813340       -22.1321
  22   2.0000      -0.748462       -20.3667
  23   2.0000      -0.702258       -19.1094
  24   2.0000      -0.695536       -18.9265
  25   2.0000      -0.667859       -18.1734
  26   2.0000      -0.666323       -18.1316
  27   2.0000      -0.615779       -16.7562
  28   2.0000      -0.598374       -16.2826
  29   2.0000      -0.588550       -16.0152
  30   2.0000      -0.573708       -15.6114
  31   2.0000      -0.556587       -15.1455
  32   2.0000      -0.539391       -14.6776
  33   2.0000      -0.504756       -13.7351
  34   2.0000      -0.496695       -13.5158
  35   2.0000      -0.485450       -13.2098
  36   2.0000      -0.470145       -12.7933
  37   2.0000      -0.455836       -12.4039
  38   2.0000      -0.433374       -11.7927
  39   2.0000      -0.431341       -11.7374
  40   2.0000      -0.415654       -11.3105
  41   2.0000      -0.411206       -11.1895
  42   2.0000      -0.387982       -10.5575
  43   2.0000      -0.270336        -7.3562
  44   0.0000       0.046354         1.2614
  45   0.0000       0.061193         1.6651
  46   0.0000       0.066125         1.7993
  47   0.0000       0.071874         1.9558
  48   0.0000       0.093889         2.5549

MULLIKEN ATOMIC CHARGES
-----------------------
   0 C :   -0.591301
   1 C :   -0.471948
   2 C :   -0.746161
   3 H :    0.455341
   4 H :    0.349335
   5 S :    1.161342
   6 C :    0.912943
   7 N :   -0.467911
   8 C :   -1.819527
   9 H :    0.614746
  10 H :    0.296180
  11 H :    0.201001
  12 H :    0.152830
  13 F :   -0.104269
  14 O :   -0.610511
  15 O :   -0.585529
  16 H :    0.299879
  17 H :    0.284431
  18 H :    0.322415
  19 H :    0.346714
Sum of atomic charges:   -0.0000000

LOEWDIN ATOMIC CHARGES
----------------------
   0 C :   -0.141499
   1 C :   -0.197697
   2 C :   -0.217816
   3 H :    0.108926
   4 H :    0.101452
   5 S :    0.640863
   6 C :   -0.472590
   7 N :    0.088787
   8 C :    0.023902
   9 H :   -0.036464
  10 H :    0.038362
  11 H :    0.104473
  12 H :    0.108291
  13 F :   -0.037710
  14 O :   -0.264630
  15 O :   -0.308299
  16 H :    0.109899
  17 H :    0.124306
  18 H :    0.116763
  19 H :    0.110682

  Mayer bond orders larger than 0.100000
B(  0-C ,  1-C ) :   0.8064 B(  0-C ,  6-C ) :   0.7097 B(  0-C ,  7-N ) :   0.1193
B(  0-C , 18-H ) :   0.9753 B(  0-C , 19-H ) :   0.9287 B(  1-C ,  2-C ) :   1.0638
B(  1-C ,  6-C ) :   0.2444 B(  1-C , 16-H ) :   0.8815 B(  1-C , 17-H ) :   0.9123
B(  2-C ,  3-H ) :   0.7960 B(  2-C ,  4-H ) :   0.8753 B(  2-C ,  5-S ) :   0.7931
B(  2-C ,  8-C ) :   0.1330 B(  2-C , 15-O ) :   0.1300 B(  5-S , 13-F ) :   0.9599
B(  5-S , 14-O ) :   1.6908 B(  5-S , 15-O ) :   1.6695 B(  6-C ,  7-N ) :   0.8664
B(  6-C ,  8-C ) :   0.7558 B(  6-C , 10-H ) :  -0.1860 B(  7-N ,  8-C ) :   0.1200
B(  7-N , 11-H ) :   1.0104 B(  7-N , 12-H ) :   1.0661 B(  8-C ,  9-H ) :   0.6495
B(  8-C , 10-H ) :   1.1217 B(  9-H , 15-O ) :  -0.2128

Dispersion correction           -0.008590975
FINAL SINGLE POINT ENERGY      -899.784260821802

DIPOLE MOMENT
-------------
                                X             Y             Z
Electronic contribution:      9.28404     -12.47548       5.41668
Nuclear contribution   :     -8.42493      13.96425      -5.19491
                        -----------------------------------------
Total Dipole Moment    :      0.85911       1.48877       0.22177
                        -----------------------------------------
Magnitude (a.u.)       :      1.73312
Magnitude (Debye)      :      4.40524

Rotational constants in cm-1:     0.082815     0.024151     0.022015
Rotational constants in MHz :  2482.732265   724.035221   660.002136

                             ****ORCA TERMINATED NORMALLY****
TOTAL RUN TIME: 0 days 0 hours 1 minutes 23 seconds 202 msec
