                         Program Version 5.0.0 -  RELEASE  -
|  1> !wB97X-D3 RIJCOSX def2-TZVPD def2/J TightSCF xyzfile
|  2>
|  3> *xyzfile 0 1 D3.xyz
|  4>
|  5> %MaxCore 64000
|  6>
|  7> %pal nprocs 18
|  8> end
|  9>
| 10> %scf
| 11>   MaxIter 150
| 12> end
| 13>
| 14>
| 15>                          ****END OF INPUT****

CARTESIAN COORDINATES (ANGSTROEM)
---------------------------------
  C     -0.461293    2.234686   -4.989619
  C      0.848883    2.667967   -4.302351
  C      2.093434    1.861037   -4.656845
  H      2.444814    2.041567   -5.674990
  H      2.901748    2.137864   -3.980338
  S      1.879644    0.078594   -4.462965
  C     -0.423841    2.398772   -6.474317
  C     -0.959467    3.492647   -7.007401
  N      0.145585    1.486891   -7.203987
  H      0.565371    0.696807   -6.723858
  H      0.220682    1.581768   -8.207520
  H     -1.406243    4.181507   -6.403261
  H     -0.934215    3.681601   -7.999468
  O      3.207574   -0.466111   -4.420259
  F      1.075064   -0.056160   -3.268758
  O      1.131661   -0.319960   -5.679031
  H      0.668432    2.559427   -3.232850
  H      1.034074    3.729426   -4.497081
  H     -1.288884    2.826737   -4.594997
  H     -0.651696    1.186343   -4.756552

 Total Charge           Charge          ....    0
 Multiplicity           Mult            ....    1
 Number of Electrons    NEL             ....   88
 Basis Dimension        Dim             ....  478

ORBITAL ENERGIES
----------------

  NO   OCC          E(Eh)            E(eV)
   0   2.0000     -89.215644     -2427.6811
   1   2.0000     -24.922938      -678.1876
   2   2.0000     -19.264847      -524.2231
   3   2.0000     -19.256628      -523.9995
   4   2.0000     -14.397460      -391.7748
   5   2.0000     -10.341659      -281.4108
   6   2.0000     -10.309590      -280.5382
   7   2.0000     -10.294573      -280.1296
   8   2.0000     -10.287364      -279.9334
   9   2.0000     -10.200572      -277.5717
  10   2.0000      -8.279377      -225.2933
  11   2.0000      -6.236766      -169.7110
  12   2.0000      -6.230556      -169.5421
  13   2.0000      -6.229776      -169.5208
  14   2.0000      -1.515386       -41.2357
  15   2.0000      -1.246192       -33.9106
  16   2.0000      -1.150887       -31.3172
  17   2.0000      -1.041530       -28.3415
  18   2.0000      -0.958488       -26.0818
  19   2.0000      -0.884406       -24.0659
  20   2.0000      -0.850110       -23.1327
  21   2.0000      -0.812002       -22.0957
  22   2.0000      -0.758334       -20.6353
  23   2.0000      -0.715845       -19.4791
  24   2.0000      -0.711632       -19.3645
  25   2.0000      -0.680484       -18.5169
  26   2.0000      -0.668989       -18.2041
  27   2.0000      -0.623994       -16.9798
  28   2.0000      -0.604373       -16.4458
  29   2.0000      -0.596801       -16.2398
  30   2.0000      -0.576795       -15.6954
  31   2.0000      -0.560524       -15.2526
  32   2.0000      -0.552862       -15.0441
  33   2.0000      -0.521583       -14.1930
  34   2.0000      -0.503890       -13.7115
  35   2.0000      -0.497288       -13.5319
  36   2.0000      -0.480838       -13.0843
  37   2.0000      -0.475442       -12.9374
  38   2.0000      -0.444878       -12.1057
  39   2.0000      -0.440894       -11.9973
  40   2.0000      -0.434851       -11.8329
  41   2.0000      -0.424873       -11.5614
  42   2.0000      -0.416015       -11.3203
  43   2.0000      -0.268410        -7.3038
  44   0.0000       0.044159         1.2016
  45   0.0000       0.057227         1.5572
  46   0.0000       0.063859         1.7377
  47   0.0000       0.070204         1.9104
  48   0.0000       0.090038         2.4501

MULLIKEN ATOMIC CHARGES
-----------------------
   0 C :   -0.464315
   1 C :   -0.453283
   2 C :   -0.658439
   3 H :    0.384604
   4 H :    0.325140
   5 S :    1.222737
   6 C :    0.750497
   7 C :   -1.643957
   8 N :   -0.380352
   9 H :    0.291272
  10 H :    0.130958
  11 H :    0.333420
  12 H :    0.364004
  13 O :   -0.583988
  14 F :   -0.150259
  15 O :   -0.675539
  16 H :    0.289909
  17 H :    0.318155
  18 H :    0.283257
  19 H :    0.316179
Sum of atomic charges:   -0.0000000

LOEWDIN ATOMIC CHARGES
----------------------
   0 C :   -0.150109
   1 C :   -0.205263
   2 C :   -0.207755
   3 H :    0.119862
   4 H :    0.106159
   5 S :    0.644749
   6 C :   -0.488614
   7 C :    0.014687
   8 N :    0.113411
   9 H :    0.024213
  10 H :    0.125432
  11 H :    0.019753
  12 H :    0.016793
  13 O :   -0.253542
  14 F :   -0.035508
  15 O :   -0.302490
  16 H :    0.106857
  17 H :    0.126547
  18 H :    0.121691
  19 H :    0.103128

  Mayer bond orders larger than 0.100000
B(  0-C ,  1-C ) :   0.7627 B(  0-C ,  6-C ) :   0.8660 B(  0-C , 18-H ) :   1.0089
B(  0-C , 19-H ) :   0.8703 B(  1-C ,  2-C ) :   0.9749 B(  1-C ,  6-C ) :   0.2324
B(  1-C , 16-H ) :   0.9178 B(  1-C , 17-H ) :   0.8912 B(  2-C ,  3-H ) :   0.8347
B(  2-C ,  4-H ) :   0.9569 B(  2-C ,  5-S ) :   0.8025 B(  2-C ,  8-N ) :   0.1481
B(  2-C , 13-O ) :   0.1169 B(  2-C , 15-O ) :   0.1071 B(  5-S , 13-O ) :   1.6028
B(  5-S , 14-F ) :   1.0083 B(  5-S , 15-O ) :   1.5842 B(  6-C ,  7-C ) :   0.9296
B(  6-C ,  8-N ) :   1.0895 B(  7-C ,  8-N ) :   0.1236 B(  7-C , 11-H ) :   0.9770
B(  7-C , 12-H ) :   0.9205 B(  8-N ,  9-H ) :   0.8532 B(  8-N , 10-H ) :   1.0444

Dispersion correction           -0.008640544
FINAL SINGLE POINT ENERGY      -899.808042348041

DIPOLE MOMENT
-------------
                                X             Y             Z
Electronic contribution:      6.46951     -13.17264       7.40432
Nuclear contribution   :     -6.19944      13.70770      -6.43483
                        -----------------------------------------
Total Dipole Moment    :      0.27007       0.53505       0.96949
                        -----------------------------------------
Magnitude (a.u.)       :      1.13979
Magnitude (Debye)      :      2.89713

Rotational constants in cm-1:     0.079903     0.025241     0.022805
Rotational constants in MHz :  2395.439281   756.708181   683.680583

                             ****ORCA TERMINATED NORMALLY****
TOTAL RUN TIME: 0 days 0 hours 1 minutes 11 seconds 306 msec
