                         Program Version 5.0.0 -  RELEASE  -
|  1> !wB97X-D3 RIJCOSX def2-TZVPD def2/J TightSCF xyzfile
|  2>
|  3> *xyzfile 0 1 D4.xyz
|  4>
|  5> %MaxCore 64000
|  6>
|  7> %pal nprocs 18
|  8> end
|  9>
| 10> %scf
| 11>   MaxIter 150
| 12> end
| 13>
| 14>
| 15>                          ****END OF INPUT****

CARTESIAN COORDINATES (ANGSTROEM)
---------------------------------
  C     -0.461293    2.234686   -4.989619
  C      0.848883    2.667967   -4.302351
  C      2.093434    1.861037   -4.656845
  H      2.444814    2.041567   -5.674990
  H      2.901748    2.137864   -3.980338
  S      1.879644    0.078594   -4.462965
  C     -0.423841    2.398772   -6.474317
  N     -0.959467    3.492647   -7.007401
  C      0.145585    1.486891   -7.203987
  H      0.565371    0.696807   -6.723858
  H      0.220682    1.581768   -8.207520
  H     -1.406243    4.181507   -6.403261
  H     -0.934215    3.681601   -7.999468
  O      3.207574   -0.466111   -4.420259
  F      1.075064   -0.056160   -3.268758
  O      1.131661   -0.319960   -5.679031
  H      0.668432    2.559427   -3.232850
  H      1.034074    3.729426   -4.497081
  H     -1.288884    2.826737   -4.594997
  H     -0.651696    1.186343   -4.756552

 Total Charge           Charge          ....    0
 Multiplicity           Mult            ....    1
 Number of Electrons    NEL             ....   88
 Basis Dimension        Dim             ....  478

ORBITAL ENERGIES
----------------

  NO   OCC          E(Eh)            E(eV)
   0   2.0000     -89.197790     -2427.1953
   1   2.0000     -24.908852      -677.8043
   2   2.0000     -19.248952      -523.7906
   3   2.0000     -19.233841      -523.3794
   4   2.0000     -14.418470      -392.3465
   5   2.0000     -10.330783      -281.1149
   6   2.0000     -10.307019      -280.4682
   7   2.0000     -10.289145      -279.9819
   8   2.0000     -10.287142      -279.9274
   9   2.0000     -10.182481      -277.0794
  10   2.0000      -8.261595      -224.8094
  11   2.0000      -6.219134      -169.2312
  12   2.0000      -6.212446      -169.0492
  13   2.0000      -6.212161      -169.0415
  14   2.0000      -1.501482       -40.8574
  15   2.0000      -1.228458       -33.4280
  16   2.0000      -1.130622       -30.7658
  17   2.0000      -1.040152       -28.3040
  18   2.0000      -0.952033       -25.9061
  19   2.0000      -0.882524       -24.0147
  20   2.0000      -0.836129       -22.7522
  21   2.0000      -0.817599       -22.2480
  22   2.0000      -0.750687       -20.4272
  23   2.0000      -0.706341       -19.2205
  24   2.0000      -0.696445       -18.9512
  25   2.0000      -0.672469       -18.2988
  26   2.0000      -0.659245       -17.9390
  27   2.0000      -0.619122       -16.8472
  28   2.0000      -0.599334       -16.3087
  29   2.0000      -0.582019       -15.8375
  30   2.0000      -0.578506       -15.7420
  31   2.0000      -0.562798       -15.3145
  32   2.0000      -0.542810       -14.7706
  33   2.0000      -0.511477       -13.9180
  34   2.0000      -0.499988       -13.6054
  35   2.0000      -0.492649       -13.4057
  36   2.0000      -0.475934       -12.9508
  37   2.0000      -0.469636       -12.7795
  38   2.0000      -0.437684       -11.9100
  39   2.0000      -0.428950       -11.6723
  40   2.0000      -0.421019       -11.4565
  41   2.0000      -0.417102       -11.3499
  42   2.0000      -0.385240       -10.4829
  43   2.0000      -0.274325        -7.4648
  44   0.0000       0.048453         1.3185
  45   0.0000       0.060849         1.6558
  46   0.0000       0.067570         1.8387
  47   0.0000       0.071797         1.9537
  48   0.0000       0.089737         2.4419

MULLIKEN ATOMIC CHARGES
-----------------------
   0 C :   -0.459384
   1 C :   -0.464670
   2 C :   -0.665893
   3 H :    0.427515
   4 H :    0.315299
   5 S :    1.164137
   6 C :    0.871216
   7 N :   -0.468599
   8 C :   -1.825823
   9 H :    0.624831
  10 H :    0.302280
  11 H :    0.198322
  12 H :    0.154105
  13 O :   -0.600049
  14 F :   -0.151891
  15 O :   -0.578424
  16 H :    0.286989
  17 H :    0.281423
  18 H :    0.308954
  19 H :    0.279662
Sum of atomic charges:    0.0000000

LOEWDIN ATOMIC CHARGES
----------------------
   0 C :   -0.147284
   1 C :   -0.207155
   2 C :   -0.208125
   3 H :    0.118477
   4 H :    0.104587
   5 S :    0.635993
   6 C :   -0.473089
   7 N :    0.088894
   8 C :    0.027923
   9 H :   -0.035230
  10 H :    0.040261
  11 H :    0.104515
  12 H :    0.109266
  13 O :   -0.261508
  14 F :   -0.042146
  15 O :   -0.307287
  16 H :    0.106087
  17 H :    0.123304
  18 H :    0.116061
  19 H :    0.106454

  Mayer bond orders larger than 0.100000
B(  0-C ,  1-C ) :   0.7490 B(  0-C ,  6-C ) :   0.7649 B(  0-C ,  7-N ) :   0.1200
B(  0-C , 18-H ) :   1.0074 B(  0-C , 19-H ) :   0.9105 B(  1-C ,  2-C ) :   0.9927
B(  1-C ,  6-C ) :   0.2361 B(  1-C , 16-H ) :   0.9143 B(  1-C , 17-H ) :   0.9087
B(  2-C ,  3-H ) :   0.8200 B(  2-C ,  4-H ) :   0.9603 B(  2-C ,  5-S ) :   0.7824
B(  2-C ,  8-C ) :   0.1442 B(  2-C , 13-O ) :   0.1229 B(  2-C , 15-O ) :   0.1147
B(  5-S , 13-O ) :   1.5969 B(  5-S , 14-F ) :   0.9999 B(  5-S , 15-O ) :   1.6731
B(  6-C ,  7-N ) :   0.8617 B(  6-C ,  8-C ) :   0.7542 B(  6-C , 10-H ) :  -0.1896
B(  7-N ,  8-C ) :   0.1230 B(  7-N , 11-H ) :   1.0122 B(  7-N , 12-H ) :   1.0645
B(  8-C ,  9-H ) :   0.6652 B(  8-C , 10-H ) :   1.1132 B(  9-H , 15-O ) :  -0.2288

Dispersion correction           -0.008575530
FINAL SINGLE POINT ENERGY      -899.787486946222

DIPOLE MOMENT
-------------
                                X             Y             Z
Electronic contribution:      5.56096     -11.71373       7.34926
Nuclear contribution   :     -6.09390      13.51614      -6.45360
                        -----------------------------------------
Total Dipole Moment    :     -0.53294       1.80241       0.89565
                        -----------------------------------------
Magnitude (a.u.)       :      2.08204
Magnitude (Debye)      :      5.29213

Rotational constants in cm-1:     0.081469     0.024519     0.022336
Rotational constants in MHz :  2442.393231   735.066768   669.628729

                             ****ORCA TERMINATED NORMALLY****
TOTAL RUN TIME: 0 days 0 hours 1 minutes 17 seconds 562 msec
