                         Program Version 5.0.0 -  RELEASE  -
|  1> !wB97X-D3 RIJCOSX def2-TZVPD def2/J TightSCF xyzfile
|  2>
|  3> *xyzfile 0 1 D5.xyz
|  4>
|  5> %MaxCore 64000
|  6>
|  7> %pal nprocs 18
|  8> end
|  9>
| 10> %scf
| 11>   MaxIter 150
| 12> end
| 13>
| 14>
| 15>                          ****END OF INPUT****

CARTESIAN COORDINATES (ANGSTROEM)
---------------------------------
  C     -0.461293    2.234686   -4.989619
  C      0.848883    2.667967   -4.302351
  C      2.093434    1.861037   -4.656845
  H      2.444814    2.041567   -5.674990
  H      2.901748    2.137864   -3.980338
  S      1.879644    0.078594   -4.462965
  C     -0.423841    2.398772   -6.474317
  C     -0.959467    3.492647   -7.007401
  N      0.145585    1.486891   -7.203987
  H      0.565371    0.696807   -6.723858
  H      0.220682    1.581768   -8.207520
  H     -1.406243    4.181507   -6.403261
  H     -0.934215    3.681601   -7.999468
  O      3.207574   -0.466111   -4.420259
  O      1.075064   -0.056160   -3.268758
  F      1.131661   -0.319960   -5.679031
  H      0.668432    2.559427   -3.232850
  H      1.034074    3.729426   -4.497081
  H     -1.288884    2.826737   -4.594997
  H     -0.651696    1.186343   -4.756552

 Total Charge           Charge          ....    0
 Multiplicity           Mult            ....    1
 Number of Electrons    NEL             ....   88
 Basis Dimension        Dim             ....  478

ORBITAL ENERGIES
----------------

  NO   OCC          E(Eh)            E(eV)
   0   2.0000     -89.206490     -2427.4320
   1   2.0000     -24.914071      -677.9463
   2   2.0000     -19.259874      -524.0878
   3   2.0000     -19.255997      -523.9823
   4   2.0000     -14.425729      -392.5440
   5   2.0000     -10.338674      -281.3296
   6   2.0000     -10.306318      -280.4492
   7   2.0000     -10.304489      -280.3994
   8   2.0000     -10.290557      -280.0203
   9   2.0000     -10.213106      -277.9127
  10   2.0000      -8.270608      -225.0547
  11   2.0000      -6.228432      -169.4842
  12   2.0000      -6.221472      -169.2949
  13   2.0000      -6.220785      -169.2762
  14   2.0000      -1.499257       -40.7969
  15   2.0000      -1.247177       -33.9374
  16   2.0000      -1.153660       -31.3927
  17   2.0000      -1.064101       -28.9557
  18   2.0000      -0.954676       -25.9780
  19   2.0000      -0.887540       -24.1512
  20   2.0000      -0.859586       -23.3905
  21   2.0000      -0.813182       -22.1278
  22   2.0000      -0.768164       -20.9028
  23   2.0000      -0.713984       -19.4285
  24   2.0000      -0.698408       -19.0046
  25   2.0000      -0.680849       -18.5269
  26   2.0000      -0.662747       -18.0343
  27   2.0000      -0.639416       -17.3994
  28   2.0000      -0.606689       -16.5088
  29   2.0000      -0.590832       -16.0773
  30   2.0000      -0.576844       -15.6967
  31   2.0000      -0.570637       -15.5278
  32   2.0000      -0.548798       -14.9336
  33   2.0000      -0.524046       -14.2600
  34   2.0000      -0.504910       -13.7393
  35   2.0000      -0.495458       -13.4821
  36   2.0000      -0.486826       -13.2472
  37   2.0000      -0.474695       -12.9171
  38   2.0000      -0.450567       -12.2606
  39   2.0000      -0.447144       -12.1674
  40   2.0000      -0.436699       -11.8832
  41   2.0000      -0.430699       -11.7199
  42   2.0000      -0.425550       -11.5798
  43   2.0000      -0.284265        -7.7352
  44   0.0000       0.051617         1.4046
  45   0.0000       0.058452         1.5906
  46   0.0000       0.063147         1.7183
  47   0.0000       0.070571         1.9203
  48   0.0000       0.091042         2.4774

MULLIKEN ATOMIC CHARGES
-----------------------
   0 C :   -0.582744
   1 C :   -0.387305
   2 C :   -0.718915
   3 H :    0.403942
   4 H :    0.332091
   5 S :    1.176409
   6 C :    0.867112
   7 C :   -1.640209
   8 N :   -0.420212
   9 H :    0.325345
  10 H :    0.130399
  11 H :    0.337521
  12 H :    0.360729
  13 O :   -0.592048
  14 O :   -0.592581
  15 F :   -0.248708
  16 H :    0.313571
  17 H :    0.331998
  18 H :    0.290773
  19 H :    0.312830
Sum of atomic charges:   -0.0000000

LOEWDIN ATOMIC CHARGES
----------------------
   0 C :   -0.146521
   1 C :   -0.202204
   2 C :   -0.214438
   3 H :    0.108541
   4 H :    0.113673
   5 S :    0.618986
   6 C :   -0.487015
   7 C :    0.023849
   8 N :    0.114196
   9 H :    0.053816
  10 H :    0.128198
  11 H :    0.024795
  12 H :    0.019158
  13 O :   -0.258756
  14 O :   -0.258331
  15 F :   -0.103916
  16 H :    0.111678
  17 H :    0.125834
  18 H :    0.124160
  19 H :    0.104296

  Mayer bond orders larger than 0.100000
B(  0-C ,  1-C ) :   0.7915 B(  0-C ,  2-C ) :   0.1192 B(  0-C ,  6-C ) :   0.8039
B(  0-C , 18-H ) :   0.9767 B(  0-C , 19-H ) :   0.9252 B(  1-C ,  2-C ) :   0.9465
B(  1-C ,  6-C ) :   0.2206 B(  1-C , 16-H ) :   0.8934 B(  1-C , 17-H ) :   0.9073
B(  2-C ,  3-H ) :   0.8253 B(  2-C ,  4-H ) :   0.9057 B(  2-C ,  5-S ) :   0.8041
B(  2-C ,  8-N ) :   0.1547 B(  2-C , 13-O ) :   0.1216 B(  5-S , 13-O ) :   1.5950
B(  5-S , 14-O ) :   1.7007 B(  5-S , 15-F ) :   0.9684 B(  6-C ,  7-C ) :   0.8834
B(  6-C ,  8-N ) :   1.0162 B(  7-C ,  8-N ) :   0.1177 B(  7-C , 11-H ) :   0.9699
B(  7-C , 12-H ) :   0.9317 B(  8-N ,  9-H ) :   0.8819 B(  8-N , 10-H ) :   1.0582

Dispersion correction           -0.008651607
FINAL SINGLE POINT ENERGY      -899.811402519065

DIPOLE MOMENT
-------------
                                X             Y             Z
Electronic contribution:      6.42021     -13.43589       3.16320
Nuclear contribution   :     -6.26130      13.99605      -3.80018
                        -----------------------------------------
Total Dipole Moment    :      0.15891       0.56016      -0.63697
                        -----------------------------------------
Magnitude (a.u.)       :      0.86300
Magnitude (Debye)      :      2.19356

Rotational constants in cm-1:     0.079895     0.025630     0.022948
Rotational constants in MHz :  2395.188639   768.373696   687.955250

                             ****ORCA TERMINATED NORMALLY****
TOTAL RUN TIME: 0 days 0 hours 1 minutes 12 seconds 398 msec
