                         Program Version 5.0.0 -  RELEASE  -
|  1> !wB97X-D3 RIJCOSX def2-TZVP def2/J TightSCF
|  2>
|  3> *xyz -1 1
|  4> C          2.95263        1.86308       -3.57485
|  5> C          4.12921        0.89839       -3.41895
|  6> H          3.73369       -0.10060       -3.23763
|  7> H          4.71910        0.86256       -4.33901
|  8> C          5.01734        1.31521       -2.22130
|  9> O          4.73706        0.85411       -1.12283
| 10> O          5.92815        2.16811       -2.49136
| 11> H          2.35067        1.56005       -4.40594
| 12> H          3.32277        2.85258       -3.74453
| 13> H          2.36134        1.85149       -2.68315
| 14> *
| 15> %MaxCore 64000
| 16>
| 17> %pal nprocs 4
| 18> end
| 19>
| 20> %scf
| 21>   MaxIter 150
| 22> end
| 23>
| 24>
| 25>                          ****END OF INPUT****

CARTESIAN COORDINATES (ANGSTROEM)
---------------------------------
  C      2.952630    1.863080   -3.574850
  C      4.129210    0.898390   -3.418950
  H      3.733690   -0.100600   -3.237630
  H      4.719100    0.862560   -4.339010
  C      5.017340    1.315210   -2.221300
  O      4.737060    0.854110   -1.122830
  O      5.928150    2.168110   -2.491360
  H      2.350670    1.560050   -4.405940
  H      3.322770    2.852580   -3.744530
  H      2.361340    1.851490   -2.683150

 Total Charge           Charge          ....   -1
 Multiplicity           Mult            ....    1
 Number of Electrons    NEL             ....   40
 Basis Dimension        Dim             ....  185

ORBITAL ENERGIES
----------------

  NO   OCC          E(Eh)            E(eV)
   0   2.0000     -18.958551      -515.8884
   1   2.0000     -18.947053      -515.5755
   2   2.0000     -10.149191      -276.1735
   3   2.0000     -10.108468      -275.0654
   4   2.0000     -10.093292      -274.6524
   5   2.0000      -0.932332       -25.3700
   6   2.0000      -0.833087       -22.6695
   7   2.0000      -0.718218       -19.5437
   8   2.0000      -0.577781       -15.7222
   9   2.0000      -0.420590       -11.4448
  10   2.0000      -0.388776       -10.5791
  11   2.0000      -0.356549        -9.7022
  12   2.0000      -0.324177        -8.8213
  13   2.0000      -0.303942        -8.2707
  14   2.0000      -0.303345        -8.2544
  15   2.0000      -0.267759        -7.2861
  16   2.0000      -0.257291        -7.0012
  17   2.0000      -0.132881        -3.6159
  18   2.0000      -0.125003        -3.4015
  19   2.0000      -0.114902        -3.1266
  20   0.0000       0.264235         7.1902
  21   0.0000       0.305768         8.3204
  22   0.0000       0.325495         8.8572
  23   0.0000       0.330981         9.0065
  24   0.0000       0.354635         9.6501

MULLIKEN ATOMIC CHARGES
-----------------------
   0 C :   -0.333496
   1 C :   -0.131120
   2 H :    0.032041
   3 H :    0.039218
   4 C :    0.272539
   5 O :   -0.527663
   6 O :   -0.600611
   7 H :    0.056255
   8 H :    0.097286
   9 H :    0.095551
Sum of atomic charges:   -1.0000000

LOEWDIN ATOMIC CHARGES
----------------------
   0 C :   -0.322226
   1 C :   -0.289558
   2 H :    0.113876
   3 H :    0.114893
   4 C :   -0.699803
   5 O :   -0.071308
   6 O :   -0.160194
   7 H :    0.093350
   8 H :    0.110780
   9 H :    0.110188

  Mayer bond orders larger than 0.100000
B(  0-C ,  1-C ) :   0.9758 B(  0-C ,  7-H ) :   0.9792 B(  0-C ,  8-H ) :   0.9809
B(  0-C ,  9-H ) :   0.9831 B(  1-C ,  2-H ) :   0.9618 B(  1-C ,  3-H ) :   0.9647
B(  1-C ,  4-C ) :   0.9202 B(  4-C ,  5-O ) :   1.8739 B(  4-C ,  6-O ) :   1.7995

Dispersion correction           -0.001998917
FINAL SINGLE POINT ENERGY      -267.864909910162

DIPOLE MOMENT
-------------
                                X             Y             Z
Electronic contribution:      4.43559      -0.18692       3.91729
Nuclear contribution   :     -5.85873      -0.10793      -5.24103
                        -----------------------------------------
Total Dipole Moment    :     -1.42314      -0.29485      -1.32374
                        -----------------------------------------
Magnitude (a.u.)       :      1.96585
Magnitude (Debye)      :      4.99679

Rotational constants in cm-1:     0.292505     0.135951     0.110253
Rotational constants in MHz :  8769.065873  4075.717001  3305.311891

                             ****ORCA TERMINATED NORMALLY****
TOTAL RUN TIME: 0 days 0 hours 0 minutes 27 seconds 889 msec
