                         Program Version 5.0.0 -  RELEASE  -
|  1> !wB97X-D3 RIJCOSX def2-TZVP def2/J TightSCF
|  2>
|  3> *xyz 1 1
|  4> C          3.34350        3.35457       -3.59200
|  5> C          2.95263        1.86308       -3.57485
|  6> C          4.25587        3.70385       -4.72605
|  7> N          3.73403        4.29378       -5.80077
|  8> N          5.51504        3.40725       -4.63718
|  9> H          6.14919        3.60120       -5.39905
| 10> H          5.81358        2.89950       -3.80879
| 11> H          2.74138        4.51311       -5.82470
| 12> H          4.28755        4.52126       -6.61434
| 13> H          3.86125        3.59725       -2.66298
| 14> H          2.44649        3.97346       -3.65656
| 15> H          2.44395        1.61721       -4.48352
| 16> H          2.30781        1.67290       -2.74242
| 17> H          3.83491        1.26414       -3.48670
| 18> *
| 19> %MaxCore 64000
| 20>
| 21> %pal nprocs 4
| 22> end
| 23>
| 24> %scf
| 25>   MaxIter 150
| 26> end
| 27>
| 28>
| 29>                          ****END OF INPUT****

CARTESIAN COORDINATES (ANGSTROEM)
---------------------------------
  C      3.343500    3.354570   -3.592000
  C      2.952630    1.863080   -3.574850
  C      4.255870    3.703850   -4.726050
  N      3.734030    4.293780   -5.800770
  N      5.515040    3.407250   -4.637180
  H      6.149190    3.601200   -5.399050
  H      5.813580    2.899500   -3.808790
  H      2.741380    4.513110   -5.824700
  H      4.287550    4.521260   -6.614340
  H      3.861250    3.597250   -2.662980
  H      2.446490    3.973460   -3.656560
  H      2.443950    1.617210   -4.483520
  H      2.307810    1.672900   -2.742420
  H      3.834910    1.264140   -3.486700

 Total Charge           Charge          ....    1
 Multiplicity           Mult            ....    1
 Number of Electrons    NEL             ....   40
 Basis Dimension        Dim             ....  209

ORBITAL ENERGIES
----------------

  NO   OCC          E(Eh)            E(eV)
   0   2.0000     -14.669532      -399.1783
   1   2.0000     -14.664725      -399.0475
   2   2.0000     -10.600215      -288.4465
   3   2.0000     -10.473986      -285.0116
   4   2.0000     -10.429187      -283.7926
   5   2.0000      -1.323109       -36.0036
   6   2.0000      -1.225730       -33.3538
   7   2.0000      -1.085150       -29.5284
   8   2.0000      -0.971918       -26.4472
   9   2.0000      -0.923730       -25.1360
  10   2.0000      -0.880921       -23.9711
  11   2.0000      -0.855660       -23.2837
  12   2.0000      -0.800977       -21.7957
  13   2.0000      -0.750948       -20.4343
  14   2.0000      -0.724349       -19.7105
  15   2.0000      -0.712248       -19.3813
  16   2.0000      -0.639652       -17.4058
  17   2.0000      -0.631607       -17.1869
  18   2.0000      -0.623822       -16.9751
  19   2.0000      -0.585898       -15.9431
  20   0.0000      -0.123465        -3.3597
  21   0.0000      -0.075756        -2.0614
  22   0.0000      -0.029439        -0.8011
  23   0.0000      -0.026915        -0.7324
  24   0.0000       0.001221         0.0332

MULLIKEN ATOMIC CHARGES
-----------------------
   0 C :   -0.269485
   1 C :   -0.332279
   2 C :    0.364567
   3 N :   -0.401567
   4 N :   -0.365933
   5 H :    0.297881
   6 H :    0.317167
   7 H :    0.314337
   8 H :    0.295784
   9 H :    0.175560
  10 H :    0.152324
  11 H :    0.143657
  12 H :    0.176821
  13 H :    0.131165
Sum of atomic charges:    1.0000000

LOEWDIN ATOMIC CHARGES
----------------------
   0 C :   -0.220475
   1 C :   -0.258302
   2 C :   -0.287131
   3 N :    0.097070
   4 N :    0.125225
   5 H :    0.203946
   6 H :    0.217748
   7 H :    0.210377
   8 H :    0.196546
   9 H :    0.165187
  10 H :    0.159763
  11 H :    0.128287
  12 H :    0.138337
  13 H :    0.123423

  Mayer bond orders larger than 0.100000
B(  0-C ,  1-C ) :   0.9642 B(  0-C ,  2-C ) :   0.9671 B(  0-C ,  9-H ) :   0.9544
B(  0-C , 10-H ) :   0.9668 B(  1-C , 11-H ) :   0.9611 B(  1-C , 12-H ) :   0.9664
B(  1-C , 13-H ) :   0.9688 B(  2-C ,  3-N ) :   1.4428 B(  2-C ,  4-N ) :   1.4802
B(  3-N ,  7-H ) :   0.8807 B(  3-N ,  8-H ) :   0.8874 B(  4-N ,  5-H ) :   0.8849
B(  4-N ,  6-H ) :   0.8777

Dispersion correction           -0.003011887
FINAL SINGLE POINT ENERGY      -229.057605660186

DIPOLE MOMENT
-------------
                                X             Y             Z
Electronic contribution:      2.38356       2.58288      -2.28824
Nuclear contribution   :     -1.74195      -2.09431       1.58516
                        -----------------------------------------
Total Dipole Moment    :      0.64162       0.48858      -0.70308
                        -----------------------------------------
Magnitude (a.u.)       :      1.06991
Magnitude (Debye)      :      2.71949

Rotational constants in cm-1:     0.258965     0.126500     0.098780
Rotational constants in MHz :  7763.584551  3792.383135  2961.336502

                             ****ORCA TERMINATED NORMALLY****
TOTAL RUN TIME: 0 days 0 hours 0 minutes 39 seconds 288 msec
