                         Program Version 5.0.0 -  RELEASE  -
|  1> !wB97X-D3 RIJCOSX def2-TZVP def2/J TightSCF xyzfile
|  2>
|  3> *xyzfile 0 1 B.xyz
|  4>
|  5> %MaxCore 64000
|  6>
|  7> %pal nprocs 18
|  8> end
|  9>
| 10> %scf
| 11>   MaxIter 150
| 12> end
| 13>
| 14>
| 15>                          ****END OF INPUT****

CARTESIAN COORDINATES (ANGSTROEM)
---------------------------------
  C      3.343500    3.354571   -3.591998
  C      2.952633    1.863077   -3.574849
  C      4.129209    0.898394   -3.418950
  H      3.733687   -0.100605   -3.237633
  H      4.719095    0.862556   -4.339005
  C      5.017344    1.315212   -2.221305
  C      4.255868    3.703851   -4.726054
  N      3.734032    4.293783   -5.800770
  N      5.515039    3.407255   -4.637185
  H      6.149187    3.601203   -5.399053
  H      5.813584    2.899504   -3.808785
  H      2.741380    4.513109   -5.824701
  H      4.287548    4.521260   -6.614341
  H      2.278938    1.735250   -2.725496
  H      2.377466    1.625787   -4.475869
  O      4.737055    0.854112   -1.122825
  O      5.928146    2.168108   -2.491365
  H      3.861246    3.597252   -2.662979
  H      2.446493    3.973461   -3.656556

 Total Charge           Charge          ....    0
 Multiplicity           Mult            ....    1
 Number of Electrons    NEL             ....   70
 Basis Dimension        Dim             ....  339

ORBITAL ENERGIES
----------------

  NO   OCC          E(Eh)            E(eV)
   0   2.0000     -19.133112      -520.6385
   1   2.0000     -19.120210      -520.2874
   2   2.0000     -14.519750      -395.1025
   3   2.0000     -14.479989      -394.0205
   4   2.0000     -10.440007      -284.0870
   5   2.0000     -10.319362      -280.8041
   6   2.0000     -10.319346      -280.8037
   7   2.0000     -10.294619      -280.1308
   8   2.0000     -10.252261      -278.9782
   9   2.0000      -1.163737       -31.6669
  10   2.0000      -1.105099       -30.0713
  11   2.0000      -1.065787       -29.0015
  12   2.0000      -1.013788       -27.5866
  13   2.0000      -0.940276       -25.5862
  14   2.0000      -0.851793       -23.1785
  15   2.0000      -0.785800       -21.3827
  16   2.0000      -0.740154       -20.1406
  17   2.0000      -0.722398       -19.6575
  18   2.0000      -0.693132       -18.8611
  19   2.0000      -0.644385       -17.5346
  20   2.0000      -0.604283       -16.4434
  21   2.0000      -0.586658       -15.9638
  22   2.0000      -0.562245       -15.2995
  23   2.0000      -0.548317       -14.9205
  24   2.0000      -0.522569       -14.2198
  25   2.0000      -0.495555       -13.4847
  26   2.0000      -0.474591       -12.9143
  27   2.0000      -0.467931       -12.7330
  28   2.0000      -0.462432       -12.5834
  29   2.0000      -0.432986       -11.7821
  30   2.0000      -0.422642       -11.5007
  31   2.0000      -0.421812       -11.4781
  32   2.0000      -0.308639        -8.3985
  33   2.0000      -0.304241        -8.2788
  34   2.0000      -0.283076        -7.7029
  35   0.0000       0.032314         0.8793
  36   0.0000       0.054267         1.4767
  37   0.0000       0.093487         2.5439
  38   0.0000       0.119009         3.2384
  39   0.0000       0.134230         3.6526

MULLIKEN ATOMIC CHARGES
-----------------------
   0 C :   -0.251137
   1 C :   -0.196449
   2 C :   -0.236542
   3 H :    0.113243
   4 H :    0.090504
   5 C :    0.312384
   6 C :    0.316957
   7 N :   -0.438295
   8 N :   -0.351764
   9 H :    0.238669
  10 H :    0.312813
  11 H :    0.284759
  12 H :    0.266320
  13 H :    0.134523
  14 H :    0.093786
  15 O :   -0.440387
  16 O :   -0.568651
  17 H :    0.202820
  18 H :    0.116449
Sum of atomic charges:    0.0000000

LOEWDIN ATOMIC CHARGES
----------------------
   0 C :   -0.203186
   1 C :   -0.249385
   2 C :   -0.249719
   3 H :    0.142862
   4 H :    0.125383
   5 C :   -0.654227
   6 C :   -0.298392
   7 N :    0.049108
   8 N :    0.131561
   9 H :    0.178727
  10 H :    0.140496
  11 H :    0.194068
  12 H :    0.181182
  13 H :    0.152419
  14 H :    0.130973
  15 O :    0.001969
  16 O :   -0.092758
  17 H :    0.174889
  18 H :    0.144029

  Mayer bond orders larger than 0.100000
B(  0-C ,  1-C ) :   0.9510 B(  0-C ,  6-C ) :   0.9744 B(  0-C , 17-H ) :   0.9439
B(  0-C , 18-H ) :   0.9715 B(  1-C ,  2-C ) :   1.0059 B(  1-C , 13-H ) :   0.9567
B(  1-C , 14-H ) :   0.9638 B(  2-C ,  3-H ) :   0.9673 B(  2-C ,  4-H ) :   0.9623
B(  2-C ,  5-C ) :   0.9388 B(  5-C , 15-O ) :   1.9619 B(  5-C , 16-O ) :   1.4835
B(  6-C ,  7-N ) :   1.3385 B(  6-C ,  8-N ) :   1.6163 B(  7-N , 11-H ) :   0.8951
B(  7-N , 12-H ) :   0.9016 B(  8-N ,  9-H ) :   0.9080 B(  8-N , 10-H ) :   0.6937
B( 10-H , 16-O ) :   0.2869

Dispersion correction           -0.007028433
FINAL SINGLE POINT ENERGY      -456.569684996661

DIPOLE MOMENT
-------------
                                X             Y             Z
Electronic contribution:      3.88498       0.04670       2.57301
Nuclear contribution   :     -5.42217       2.65262      -7.07590
                        -----------------------------------------
Total Dipole Moment    :     -1.53719       2.69933      -4.50290
                        -----------------------------------------
Magnitude (a.u.)       :      5.47041
Magnitude (Debye)      :     13.90468

Rotational constants in cm-1:     0.107541     0.035862     0.030371
Rotational constants in MHz :  3223.996852  1075.120464   910.508313

                             ****ORCA TERMINATED NORMALLY****
TOTAL RUN TIME: 0 days 0 hours 0 minutes 34 seconds 878 msec
