                         Program Version 5.0.0 -  RELEASE  -
|  1> !wB97X-D3 RIJCOSX def2-TZVP def2/J TightSCF
|  2>
|  3> *xyz 0 1
|  4> C          2.95263        1.86308       -3.57485
|  5> C          4.12921        0.89839       -3.41895
|  6> H          3.73369       -0.10060       -3.23763
|  7> H          4.71910        0.86256       -4.33901
|  8> C          5.01734        1.31521       -2.22130
|  9> F          4.73706        0.85411       -1.12283
| 10> O          5.92815        2.16811       -2.49136
| 11> H          2.35067        1.56005       -4.40594
| 12> H          3.32277        2.85258       -3.74453
| 13> H          2.36134        1.85149       -2.68315
| 14> *
| 15> %MaxCore 64000
| 16>
| 17> %pal nprocs 4
| 18> end
| 19>
| 20> %scf
| 21>   MaxIter 150
| 22> end
| 23>
| 24>
| 25>                          ****END OF INPUT****

CARTESIAN COORDINATES (ANGSTROEM)
---------------------------------
  C      2.952630    1.863080   -3.574850
  C      4.129210    0.898390   -3.418950
  H      3.733690   -0.100600   -3.237630
  H      4.719100    0.862560   -4.339010
  C      5.017340    1.315210   -2.221300
  F      4.737060    0.854110   -1.122830
  O      5.928150    2.168110   -2.491360
  H      2.350670    1.560050   -4.405940
  H      3.322770    2.852580   -3.744530
  H      2.361340    1.851490   -2.683150

 Total Charge           Charge          ....    0
 Multiplicity           Mult            ....    1
 Number of Electrons    NEL             ....   40
 Basis Dimension        Dim             ....  185

ORBITAL ENERGIES
----------------

  NO   OCC          E(Eh)            E(eV)
   0   2.0000     -24.868242      -676.6993
   1   2.0000     -19.230347      -523.2843
   2   2.0000     -10.456747      -284.5426
   3   2.0000     -10.305511      -280.4272
   4   2.0000     -10.280940      -279.7586
   5   2.0000      -1.460437       -39.7405
   6   2.0000      -1.134137       -30.8614
   7   2.0000      -0.917839       -24.9757
   8   2.0000      -0.804122       -21.8813
   9   2.0000      -0.757420       -20.6104
  10   2.0000      -0.668071       -18.1791
  11   2.0000      -0.654067       -17.7981
  12   2.0000      -0.610392       -16.6096
  13   2.0000      -0.566058       -15.4032
  14   2.0000      -0.534464       -14.5435
  15   2.0000      -0.496328       -13.5058
  16   2.0000      -0.473965       -12.8972
  17   2.0000      -0.467299       -12.7159
  18   2.0000      -0.436916       -11.8891
  19   2.0000      -0.379901       -10.3376
  20   0.0000       0.057958         1.5771
  21   0.0000       0.116845         3.1795
  22   0.0000       0.155623         4.2347
  23   0.0000       0.172022         4.6810
  24   0.0000       0.188054         5.1172

MULLIKEN ATOMIC CHARGES
-----------------------
   0 C :   -0.364131
   1 C :   -0.201789
   2 H :    0.107085
   3 H :    0.135411
   4 C :    0.402598
   5 F :   -0.080392
   6 O :   -0.382000
   7 H :    0.125900
   8 H :    0.138264
   9 H :    0.119054
Sum of atomic charges:   -0.0000000

LOEWDIN ATOMIC CHARGES
----------------------
   0 C :   -0.289982
   1 C :   -0.257528
   2 H :    0.136845
   3 H :    0.149433
   4 C :   -0.502421
   5 F :    0.375033
   6 O :    0.025372
   7 H :    0.120220
   8 H :    0.124168
   9 H :    0.118859

  Mayer bond orders larger than 0.100000
B(  0-C ,  1-C ) :   0.9720 B(  0-C ,  7-H ) :   0.9746 B(  0-C ,  8-H ) :   0.9724
B(  0-C ,  9-H ) :   0.9745 B(  1-C ,  2-H ) :   0.9598 B(  1-C ,  3-H ) :   0.9624
B(  1-C ,  4-C ) :   0.9758 B(  4-C ,  5-F ) :   1.1853 B(  4-C ,  6-O ) :   2.0122

Dispersion correction           -0.001949907
FINAL SINGLE POINT ENERGY      -292.425753360079

DIPOLE MOMENT
-------------
                                X             Y             Z
Electronic contribution:      5.05181      -1.18925       6.53658
Nuclear contribution   :     -6.06116       0.51860      -6.80802
                        -----------------------------------------
Total Dipole Moment    :     -1.00934      -0.67065      -0.27144
                        -----------------------------------------
Magnitude (a.u.)       :      1.24186
Magnitude (Debye)      :      3.15656

Rotational constants in cm-1:     0.276196     0.132056     0.105465
Rotational constants in MHz :  8280.156449  3958.940601  3161.775929

                             ****ORCA TERMINATED NORMALLY****
TOTAL RUN TIME: 0 days 0 hours 0 minutes 29 seconds 894 msec
