                         Program Version 5.0.0 -  RELEASE  -
|  1> !wB97X-D3 RIJCOSX def2-TZVP def2/J TightSCF
|  2>
|  3> *xyz 0 1
|  4> C          3.34350        3.35457       -3.59200
|  5> C          2.95263        1.86308       -3.57485
|  6> C          4.25587        3.70385       -4.72605
|  7> C          3.73403        4.29378       -5.80077
|  8> N          5.51504        3.40725       -4.63718
|  9> H          6.14919        3.60120       -5.39905
| 10> H          5.81358        2.89950       -3.80879
| 11> H          2.74138        4.51311       -5.82470
| 12> H          4.28755        4.52126       -6.61434
| 13> H          3.86125        3.59725       -2.66298
| 14> H          2.44649        3.97346       -3.65656
| 15> H          2.44395        1.61721       -4.48352
| 16> H          2.30781        1.67290       -2.74242
| 17> H          3.83491        1.26414       -3.48670
| 18> *
| 19> %MaxCore 64000
| 20>
| 21> %pal nprocs 4
| 22> end
| 23>
| 24> %scf
| 25>   MaxIter 150
| 26> end
| 27>
| 28>
| 29>                          ****END OF INPUT****

CARTESIAN COORDINATES (ANGSTROEM)
---------------------------------
  C      3.343500    3.354570   -3.592000
  C      2.952630    1.863080   -3.574850
  C      4.255870    3.703850   -4.726050
  C      3.734030    4.293780   -5.800770
  N      5.515040    3.407250   -4.637180
  H      6.149190    3.601200   -5.399050
  H      5.813580    2.899500   -3.808790
  H      2.741380    4.513110   -5.824700
  H      4.287550    4.521260   -6.614340
  H      3.861250    3.597250   -2.662980
  H      2.446490    3.973460   -3.656560
  H      2.443950    1.617210   -4.483520
  H      2.307810    1.672900   -2.742420
  H      3.834910    1.264140   -3.486700

 Total Charge           Charge          ....    0
 Multiplicity           Mult            ....    1
 Number of Electrons    NEL             ....   40
 Basis Dimension        Dim             ....  209

ORBITAL ENERGIES
----------------

  NO   OCC          E(Eh)            E(eV)
   0   2.0000     -14.422440      -392.4545
   1   2.0000     -10.294622      -280.1309
   2   2.0000     -10.274036      -279.5707
   3   2.0000     -10.259353      -279.1712
   4   2.0000     -10.201235      -277.5897
   5   2.0000      -1.053943       -28.6792
   6   2.0000      -0.894190       -24.3321
   7   2.0000      -0.827264       -22.5110
   8   2.0000      -0.747073       -20.3289
   9   2.0000      -0.674799       -18.3622
  10   2.0000      -0.634231       -17.2583
  11   2.0000      -0.580900       -15.8071
  12   2.0000      -0.537181       -14.6174
  13   2.0000      -0.520270       -14.1573
  14   2.0000      -0.489892       -13.3306
  15   2.0000      -0.479043       -13.0354
  16   2.0000      -0.448389       -12.2013
  17   2.0000      -0.427402       -11.6302
  18   2.0000      -0.425531       -11.5793
  19   2.0000      -0.273377        -7.4390
  20   0.0000       0.104437         2.8419
  21   0.0000       0.129287         3.5181
  22   0.0000       0.150369         4.0917
  23   0.0000       0.160021         4.3544
  24   0.0000       0.168764         4.5923

MULLIKEN ATOMIC CHARGES
-----------------------
   0 C :   -0.230211
   1 C :   -0.312131
   2 C :    0.238077
   3 C :   -0.449038
   4 N :   -0.482508
   5 H :    0.244995
   6 H :    0.241815
   7 H :    0.103836
   8 H :    0.096683
   9 H :    0.097364
  10 H :    0.116179
  11 H :    0.122427
  12 H :    0.116275
  13 H :    0.096238
Sum of atomic charges:   -0.0000000

LOEWDIN ATOMIC CHARGES
----------------------
   0 C :   -0.236834
   1 C :   -0.290581
   2 C :   -0.376612
   3 C :   -0.284056
   4 N :    0.010311
   5 H :    0.177565
   6 H :    0.176905
   7 H :    0.104091
   8 H :    0.093432
   9 H :    0.134576
  10 H :    0.146863
  11 H :    0.119127
  12 H :    0.114108
  13 H :    0.111106

  Mayer bond orders larger than 0.100000
B(  0-C ,  1-C ) :   0.9652 B(  0-C ,  2-C ) :   0.9462 B(  0-C ,  9-H ) :   0.9814
B(  0-C , 10-H ) :   0.9888 B(  1-C , 11-H ) :   0.9768 B(  1-C , 12-H ) :   0.9802
B(  1-C , 13-H ) :   0.9764 B(  2-C ,  3-C ) :   1.7387 B(  2-C ,  4-N ) :   1.1818
B(  3-C ,  7-H ) :   0.9998 B(  3-C ,  8-H ) :   0.9959 B(  4-N ,  5-H ) :   0.9166
B(  4-N ,  6-H ) :   0.9204

Dispersion correction           -0.003012613
FINAL SINGLE POINT ENERGY      -212.584144178825

DIPOLE MOMENT
-------------
                                X             Y             Z
Electronic contribution:      2.35660       1.46026      -0.83427
Nuclear contribution   :     -1.79713      -1.86925       1.28073
                        -----------------------------------------
Total Dipole Moment    :      0.55948      -0.40899       0.44647
                        -----------------------------------------
Magnitude (a.u.)       :      0.82439
Magnitude (Debye)      :      2.09543

Rotational constants in cm-1:     0.269040     0.129645     0.102087
Rotational constants in MHz :  8065.609820  3886.645139  3060.489045

                             ****ORCA TERMINATED NORMALLY****
TOTAL RUN TIME: 0 days 0 hours 0 minutes 39 seconds 861 msec
