                         Program Version 5.0.0 -  RELEASE  -
|  1> !wB97X-D3 RIJCOSX def2-TZVP def2/J TightSCF
|  2>
|  3> *xyz 0 1
|  4> C          2.95263        1.86308       -3.57485
|  5> C          4.12921        0.89839       -3.41895
|  6> H          3.73369       -0.10060       -3.23763
|  7> H          4.71910        0.86256       -4.33901
|  8> C          5.01734        1.31521       -2.22130
|  9> O          4.73706        0.85411       -1.12283
| 10> F          5.92815        2.16811       -2.49136
| 11> H          2.35067        1.56005       -4.40594
| 12> H          3.32277        2.85258       -3.74453
| 13> H          2.36134        1.85149       -2.68315
| 14> *
| 15> %MaxCore 64000
| 16>
| 17> %pal nprocs 4
| 18> end
| 19>
| 20> %scf
| 21>   MaxIter 150
| 22> end
| 23>
| 24>
| 25>                          ****END OF INPUT****

CARTESIAN COORDINATES (ANGSTROEM)
---------------------------------
  C      2.952630    1.863080   -3.574850
  C      4.129210    0.898390   -3.418950
  H      3.733690   -0.100600   -3.237630
  H      4.719100    0.862560   -4.339010
  C      5.017340    1.315210   -2.221300
  O      4.737060    0.854110   -1.122830
  F      5.928150    2.168110   -2.491360
  H      2.350670    1.560050   -4.405940
  H      3.322770    2.852580   -3.744530
  H      2.361340    1.851490   -2.683150

 Total Charge           Charge          ....    0
 Multiplicity           Mult            ....    1
 Number of Electrons    NEL             ....   40
 Basis Dimension        Dim             ....  185

ORBITAL ENERGIES
----------------

  NO   OCC          E(Eh)            E(eV)
   0   2.0000     -24.846871      -676.1177
   1   2.0000     -19.239891      -523.5440
   2   2.0000     -10.452327      -284.4223
   3   2.0000     -10.305133      -280.4169
   4   2.0000     -10.281223      -279.7663
   5   2.0000      -1.419809       -38.6350
   6   2.0000      -1.168119       -31.7861
   7   2.0000      -0.917633       -24.9701
   8   2.0000      -0.793774       -21.5997
   9   2.0000      -0.743539       -20.2327
  10   2.0000      -0.647722       -17.6254
  11   2.0000      -0.633428       -17.2364
  12   2.0000      -0.610194       -16.6042
  13   2.0000      -0.565209       -15.3801
  14   2.0000      -0.537989       -14.6394
  15   2.0000      -0.500683       -13.6243
  16   2.0000      -0.482322       -13.1246
  17   2.0000      -0.467199       -12.7131
  18   2.0000      -0.454004       -12.3541
  19   2.0000      -0.390647       -10.6301
  20   0.0000       0.063373         1.7245
  21   0.0000       0.117272         3.1911
  22   0.0000       0.155591         4.2338
  23   0.0000       0.172521         4.6945
  24   0.0000       0.188973         5.1422

MULLIKEN ATOMIC CHARGES
-----------------------
   0 C :   -0.365778
   1 C :   -0.204907
   2 H :    0.129456
   3 H :    0.114579
   4 C :    0.391679
   5 O :   -0.324772
   6 F :   -0.123998
   7 H :    0.126235
   8 H :    0.121704
   9 H :    0.135803
Sum of atomic charges:    0.0000000

LOEWDIN ATOMIC CHARGES
----------------------
   0 C :   -0.290320
   1 C :   -0.256290
   2 H :    0.148718
   3 H :    0.138212
   4 C :   -0.493034
   5 O :    0.101181
   6 F :    0.288243
   7 H :    0.120298
   8 H :    0.119305
   9 H :    0.123687

  Mayer bond orders larger than 0.100000
B(  0-C ,  1-C ) :   0.9725 B(  0-C ,  7-H ) :   0.9748 B(  0-C ,  8-H ) :   0.9750
B(  0-C ,  9-H ) :   0.9724 B(  1-C ,  2-H ) :   0.9650 B(  1-C ,  3-H ) :   0.9587
B(  1-C ,  4-C ) :   0.9770 B(  4-C ,  5-O ) :   2.0775 B(  4-C ,  6-F ) :   1.1307

Dispersion correction           -0.001946743
FINAL SINGLE POINT ENERGY      -292.442242920560

DIPOLE MOMENT
-------------
                                X             Y             Z
Electronic contribution:      7.04849       1.01447       4.23257
Nuclear contribution   :     -7.35982      -0.91407      -5.31589
                        -----------------------------------------
Total Dipole Moment    :     -0.31132       0.10040      -1.08332
                        -----------------------------------------
Magnitude (a.u.)       :      1.13163
Magnitude (Debye)      :      2.87638

Rotational constants in cm-1:     0.275433     0.132201     0.105422
Rotational constants in MHz :  8257.268192  3963.279062  3160.465566

                             ****ORCA TERMINATED NORMALLY****
TOTAL RUN TIME: 0 days 0 hours 0 minutes 29 seconds 629 msec
