                         Program Version 5.0.0 -  RELEASE  -
|  1> !wB97X-D3 RIJCOSX def2-TZVP def2/J TightSCF
|  2>
|  3> *xyz 0 1
|  4> C          3.34350        3.35457       -3.59200
|  5> C          2.95263        1.86308       -3.57485
|  6> C          4.25587        3.70385       -4.72605
|  7> N          3.73403        4.29378       -5.80077
|  8> C          5.51504        3.40725       -4.63718
|  9> H          6.14919        3.60120       -5.39905
| 10> H          5.81358        2.89950       -3.80879
| 11> H          2.74138        4.51311       -5.82470
| 12> H          4.28755        4.52126       -6.61434
| 13> H          3.86125        3.59725       -2.66298
| 14> H          2.44649        3.97346       -3.65656
| 15> H          2.44395        1.61721       -4.48352
| 16> H          2.30781        1.67290       -2.74242
| 17> H          3.83491        1.26414       -3.48670
| 18> *
| 19> %MaxCore 64000
| 20>
| 21> %pal nprocs 4
| 22> end
| 23>
| 24> %scf
| 25>   MaxIter 150
| 26> end
| 27>
| 28>
| 29>                          ****END OF INPUT****

CARTESIAN COORDINATES (ANGSTROEM)
---------------------------------
  C      3.343500    3.354570   -3.592000
  C      2.952630    1.863080   -3.574850
  C      4.255870    3.703850   -4.726050
  N      3.734030    4.293780   -5.800770
  C      5.515040    3.407250   -4.637180
  H      6.149190    3.601200   -5.399050
  H      5.813580    2.899500   -3.808790
  H      2.741380    4.513110   -5.824700
  H      4.287550    4.521260   -6.614340
  H      3.861250    3.597250   -2.662980
  H      2.446490    3.973460   -3.656560
  H      2.443950    1.617210   -4.483520
  H      2.307810    1.672900   -2.742420
  H      3.834910    1.264140   -3.486700

 Total Charge           Charge          ....    0
 Multiplicity           Mult            ....    1
 Number of Electrons    NEL             ....   40
 Basis Dimension        Dim             ....  209

ORBITAL ENERGIES
----------------

  NO   OCC          E(Eh)            E(eV)
   0   2.0000     -14.418172      -392.3384
   1   2.0000     -10.291813      -280.0545
   2   2.0000     -10.273426      -279.5541
   3   2.0000     -10.257067      -279.1090
   4   2.0000     -10.199660      -277.5468
   5   2.0000      -1.038917       -28.2704
   6   2.0000      -0.896484       -24.3946
   7   2.0000      -0.831136       -22.6164
   8   2.0000      -0.748211       -20.3598
   9   2.0000      -0.668042       -18.1784
  10   2.0000      -0.621539       -16.9129
  11   2.0000      -0.584690       -15.9102
  12   2.0000      -0.539264       -14.6741
  13   2.0000      -0.512493       -13.9456
  14   2.0000      -0.489723       -13.3260
  15   2.0000      -0.479878       -13.0581
  16   2.0000      -0.443697       -12.0736
  17   2.0000      -0.430552       -11.7159
  18   2.0000      -0.422580       -11.4990
  19   2.0000      -0.278394        -7.5755
  20   0.0000       0.107615         2.9284
  21   0.0000       0.129272         3.5177
  22   0.0000       0.150756         4.1023
  23   0.0000       0.157866         4.2957
  24   0.0000       0.173053         4.7090

MULLIKEN ATOMIC CHARGES
-----------------------
   0 C :   -0.216657
   1 C :   -0.320057
   2 C :    0.259526
   3 N :   -0.513574
   4 C :   -0.440238
   5 H :    0.096578
   6 H :    0.110040
   7 H :    0.237860
   8 H :    0.240882
   9 H :    0.122739
  10 H :    0.082805
  11 H :    0.108349
  12 H :    0.112448
  13 H :    0.119301
Sum of atomic charges:   -0.0000000

LOEWDIN ATOMIC CHARGES
----------------------
   0 C :   -0.235460
   1 C :   -0.288074
   2 C :   -0.365723
   3 N :   -0.016285
   4 C :   -0.268985
   5 H :    0.099346
   6 H :    0.111496
   7 H :    0.168934
   8 H :    0.169610
   9 H :    0.147618
  10 H :    0.131642
  11 H :    0.115410
  12 H :    0.112689
  13 H :    0.117780

  Mayer bond orders larger than 0.100000
B(  0-C ,  1-C ) :   0.9700 B(  0-C ,  2-C ) :   0.9214 B(  0-C ,  9-H ) :   0.9906
B(  0-C , 10-H ) :   0.9854 B(  1-C , 11-H ) :   0.9768 B(  1-C , 12-H ) :   0.9803
B(  1-C , 13-H ) :   0.9782 B(  2-C ,  3-N ) :   1.1414 B(  2-C ,  4-C ) :   1.7711
B(  3-N ,  7-H ) :   0.9227 B(  3-N ,  8-H ) :   0.9190 B(  4-C ,  5-H ) :   0.9958
B(  4-C ,  6-H ) :   1.0003

Dispersion correction           -0.002997876
FINAL SINGLE POINT ENERGY      -212.584583108588

DIPOLE MOMENT
-------------
                                X             Y             Z
Electronic contribution:      0.75093       2.27825      -1.87690
Nuclear contribution   :     -1.38463      -2.07457       1.55023
                        -----------------------------------------
Total Dipole Moment    :     -0.63370       0.20367      -0.32667
                        -----------------------------------------
Magnitude (a.u.)       :      0.74146
Magnitude (Debye)      :      1.88465

Rotational constants in cm-1:     0.272312     0.128195     0.101724
Rotational constants in MHz :  8163.717141  3843.180148  3049.598073

                             ****ORCA TERMINATED NORMALLY****
TOTAL RUN TIME: 0 days 0 hours 0 minutes 39 seconds 625 msec
