                         Program Version 5.0.0 -  RELEASE  -
|  1> !wB97X-D3 RIJCOSX def2-TZVP def2/J TightSCF xyzfile
|  2>
|  3> *xyzfile 0 1 D3.xyz
|  4>
|  5> %MaxCore 64000
|  6>
|  7> %pal nprocs 18
|  8> end
|  9>
| 10> %scf
| 11>   MaxIter 150
| 12> end
| 13>
| 14>
| 15>                          ****END OF INPUT****

CARTESIAN COORDINATES (ANGSTROEM)
---------------------------------
  C      3.343500    3.354571   -3.591998
  C      2.952633    1.863077   -3.574849
  C      4.129209    0.898394   -3.418950
  H      3.733687   -0.100605   -3.237633
  H      4.719095    0.862556   -4.339005
  C      5.017344    1.315212   -2.221305
  C      4.255868    3.703851   -4.726054
  C      3.734032    4.293783   -5.800770
  N      5.515039    3.407255   -4.637185
  H      6.149187    3.601203   -5.399053
  H      5.813584    2.899504   -3.808785
  H      2.741380    4.513109   -5.824701
  H      4.287548    4.521260   -6.614341
  H      2.278938    1.735250   -2.725496
  H      2.377466    1.625787   -4.475869
  O      4.737055    0.854112   -1.122825
  F      5.928146    2.168108   -2.491365
  H      3.861246    3.597252   -2.662979
  H      2.446493    3.973461   -3.656556

 Total Charge           Charge          ....    0
 Multiplicity           Mult            ....    1
 Number of Electrons    NEL             ....   70
 Basis Dimension        Dim             ....  339

ORBITAL ENERGIES
----------------

  NO   OCC          E(Eh)            E(eV)
   0   2.0000     -24.880020      -677.0198
   1   2.0000     -19.258232      -524.0431
   2   2.0000     -14.412109      -392.1734
   3   2.0000     -10.470804      -284.9251
   4   2.0000     -10.311680      -280.5951
   5   2.0000     -10.298830      -280.2454
   6   2.0000     -10.297316      -280.2042
   7   2.0000     -10.285758      -279.8897
   8   2.0000     -10.205170      -277.6968
   9   2.0000      -1.458476       -39.6872
  10   2.0000      -1.185972       -32.2719
  11   2.0000      -1.055116       -28.7112
  12   2.0000      -0.941047       -25.6072
  13   2.0000      -0.872909       -23.7531
  14   2.0000      -0.830015       -22.5859
  15   2.0000      -0.790554       -21.5121
  16   2.0000      -0.749627       -20.3984
  17   2.0000      -0.694289       -18.8926
  18   2.0000      -0.676908       -18.4196
  19   2.0000      -0.658801       -17.9269
  20   2.0000      -0.630773       -17.1642
  21   2.0000      -0.610578       -16.6147
  22   2.0000      -0.587851       -15.9962
  23   2.0000      -0.570930       -15.5358
  24   2.0000      -0.547336       -14.8938
  25   2.0000      -0.524496       -14.2723
  26   2.0000      -0.500244       -13.6123
  27   2.0000      -0.491917       -13.3857
  28   2.0000      -0.483380       -13.1534
  29   2.0000      -0.475515       -12.9394
  30   2.0000      -0.454254       -12.3609
  31   2.0000      -0.432036       -11.7563
  32   2.0000      -0.427912       -11.6441
  33   2.0000      -0.404531       -11.0079
  34   2.0000      -0.275422        -7.4946
  35   0.0000       0.045798         1.2462
  36   0.0000       0.108717         2.9583
  37   0.0000       0.121409         3.3037
  38   0.0000       0.140064         3.8113
  39   0.0000       0.147960         4.0262

MULLIKEN ATOMIC CHARGES
-----------------------
   0 C :   -0.271816
   1 C :   -0.189232
   2 C :   -0.265303
   3 H :    0.143321
   4 H :    0.151272
   5 C :    0.375416
   6 C :    0.225553
   7 C :   -0.454434
   8 N :   -0.498424
   9 H :    0.235700
  10 H :    0.253562
  11 H :    0.101807
  12 H :    0.099113
  13 H :    0.123747
  14 H :    0.122694
  15 O :   -0.298791
  16 F :   -0.123377
  17 H :    0.135539
  18 H :    0.133652
Sum of atomic charges:    0.0000000

LOEWDIN ATOMIC CHARGES
----------------------
   0 C :   -0.209839
   1 C :   -0.245914
   2 C :   -0.231571
   3 H :    0.153348
   4 H :    0.145720
   5 C :   -0.488022
   6 C :   -0.377357
   7 C :   -0.282879
   8 N :    0.008574
   9 H :    0.173830
  10 H :    0.142407
  11 H :    0.103348
  12 H :    0.094292
  13 H :    0.144019
  14 H :    0.144865
  15 O :    0.119366
  16 F :    0.311043
  17 H :    0.141425
  18 H :    0.153344

  Mayer bond orders larger than 0.100000
B(  0-C ,  1-C ) :   0.9578 B(  0-C ,  6-C ) :   0.9238 B(  0-C , 17-H ) :   0.9939
B(  0-C , 18-H ) :   0.9810 B(  1-C ,  2-C ) :   0.9846 B(  1-C , 13-H ) :   0.9685
B(  1-C , 14-H ) :   0.9588 B(  2-C ,  3-H ) :   0.9626 B(  2-C ,  4-H ) :   0.9481
B(  2-C ,  5-C ) :   0.9748 B(  5-C , 15-O ) :   2.1083 B(  5-C , 16-F ) :   1.0431
B(  6-C ,  7-C ) :   1.7390 B(  6-C ,  8-N ) :   1.1872 B(  7-C , 11-H ) :   0.9983
B(  7-C , 12-H ) :   0.9958 B(  8-N ,  9-H ) :   0.9199 B(  8-N , 10-H ) :   0.8847

Dispersion correction           -0.006980446
FINAL SINGLE POINT ENERGY      -464.493985806734

DIPOLE MOMENT
-------------
                                X             Y             Z
Electronic contribution:      7.47372      -3.59835       8.06513
Nuclear contribution   :     -7.21688       3.18902      -8.52197
                        -----------------------------------------
Total Dipole Moment    :      0.25684      -0.40932      -0.45685
                        -----------------------------------------
Magnitude (a.u.)       :      0.66500
Magnitude (Debye)      :      1.69029

Rotational constants in cm-1:     0.103917     0.036987     0.030872
Rotational constants in MHz :  3115.342573  1108.839114   925.506342

                             ****ORCA TERMINATED NORMALLY****
TOTAL RUN TIME: 0 days 0 hours 0 minutes 38 seconds 238 msec
