                         Program Version 5.0.0 -  RELEASE  -
|  1> !wB97X-D3 RIJCOSX def2-TZVP def2/J TightSCF xyzfile
|  2>
|  3> *xyzfile 0 1 D4.xyz
|  4>
|  5> %MaxCore 64000
|  6>
|  7> %pal nprocs 18
|  8> end
|  9>
| 10> %scf
| 11>   MaxIter 150
| 12> end
| 13>
| 14>
| 15>                          ****END OF INPUT****

CARTESIAN COORDINATES (ANGSTROEM)
---------------------------------
  C      3.343500    3.354571   -3.591998
  C      2.952633    1.863077   -3.574849
  C      4.129209    0.898394   -3.418950
  H      3.733687   -0.100605   -3.237633
  H      4.719095    0.862556   -4.339005
  C      5.017344    1.315212   -2.221305
  C      4.255868    3.703851   -4.726054
  N      3.734032    4.293783   -5.800770
  C      5.515039    3.407255   -4.637185
  H      6.149187    3.601203   -5.399053
  H      5.813584    2.899504   -3.808785
  H      2.741380    4.513109   -5.824701
  H      4.287548    4.521260   -6.614341
  H      2.278938    1.735250   -2.725496
  H      2.377466    1.625787   -4.475869
  O      4.737055    0.854112   -1.122825
  F      5.928146    2.168108   -2.491365
  H      3.861246    3.597252   -2.662979
  H      2.446493    3.973461   -3.656556

 Total Charge           Charge          ....    0
 Multiplicity           Mult            ....    1
 Number of Electrons    NEL             ....   70
 Basis Dimension        Dim             ....  339

ORBITAL ENERGIES
----------------

  NO   OCC          E(Eh)            E(eV)
   0   2.0000     -24.850524      -676.2171
   1   2.0000     -19.242410      -523.6126
   2   2.0000     -14.421379      -392.4257
   3   2.0000     -10.454520      -284.4819
   4   2.0000     -10.299802      -280.2719
   5   2.0000     -10.295199      -280.1466
   6   2.0000     -10.294555      -280.1291
   7   2.0000     -10.285295      -279.8771
   8   2.0000     -10.191684      -277.3298
   9   2.0000      -1.431104       -38.9423
  10   2.0000      -1.170598       -31.8536
  11   2.0000      -1.043257       -28.3885
  12   2.0000      -0.937458       -25.5095
  13   2.0000      -0.869424       -23.6582
  14   2.0000      -0.824374       -22.4324
  15   2.0000      -0.783650       -21.3242
  16   2.0000      -0.729134       -19.8407
  17   2.0000      -0.690682       -18.7944
  18   2.0000      -0.649551       -17.6752
  19   2.0000      -0.639763       -17.4088
  20   2.0000      -0.626975       -17.0609
  21   2.0000      -0.609730       -16.5916
  22   2.0000      -0.584463       -15.9040
  23   2.0000      -0.564088       -15.3496
  24   2.0000      -0.546649       -14.8751
  25   2.0000      -0.518860       -14.1189
  26   2.0000      -0.494598       -13.4587
  27   2.0000      -0.481084       -13.0910
  28   2.0000      -0.472224       -12.8499
  29   2.0000      -0.462890       -12.5959
  30   2.0000      -0.445681       -12.1276
  31   2.0000      -0.427539       -11.6339
  32   2.0000      -0.422211       -11.4889
  33   2.0000      -0.391256       -10.6466
  34   2.0000      -0.281081        -7.6486
  35   0.0000       0.060389         1.6433
  36   0.0000       0.102882         2.7996
  37   0.0000       0.120163         3.2698
  38   0.0000       0.137621         3.7449
  39   0.0000       0.147320         4.0088

MULLIKEN ATOMIC CHARGES
-----------------------
   0 C :   -0.264344
   1 C :   -0.188678
   2 C :   -0.253151
   3 H :    0.136106
   4 H :    0.157470
   5 C :    0.363866
   6 C :    0.252557
   7 N :   -0.515338
   8 C :   -0.487300
   9 H :    0.090893
  10 H :    0.144228
  11 H :    0.234875
  12 H :    0.241975
  13 H :    0.126382
  14 H :    0.110402
  15 O :   -0.312277
  16 F :   -0.096036
  17 H :    0.152172
  18 H :    0.106197
Sum of atomic charges:   -0.0000000

LOEWDIN ATOMIC CHARGES
----------------------
   0 C :   -0.210314
   1 C :   -0.246538
   2 C :   -0.228940
   3 H :    0.150669
   4 H :    0.148336
   5 C :   -0.486789
   6 C :   -0.369521
   7 N :   -0.017683
   8 C :   -0.266897
   9 H :    0.097659
  10 H :    0.091260
  11 H :    0.167595
  12 H :    0.169958
  13 H :    0.144001
  14 H :    0.140559
  15 O :    0.107943
  16 F :    0.317620
  17 H :    0.152421
  18 H :    0.138663

  Mayer bond orders larger than 0.100000
B(  0-C ,  1-C ) :   0.9593 B(  0-C ,  6-C ) :   0.9169 B(  0-C , 17-H ) :   1.0017
B(  0-C , 18-H ) :   0.9825 B(  1-C ,  2-C ) :   0.9856 B(  1-C , 13-H ) :   0.9709
B(  1-C , 14-H ) :   0.9582 B(  2-C ,  3-H ) :   0.9645 B(  2-C ,  4-H ) :   0.9498
B(  2-C ,  5-C ) :   0.9770 B(  5-C , 15-O ) :   2.0963 B(  5-C , 16-F ) :   1.0941
B(  6-C ,  7-N ) :   1.1318 B(  6-C ,  8-C ) :   1.7281 B(  7-N , 11-H ) :   0.9225
B(  7-N , 12-H ) :   0.9198 B(  8-C ,  9-H ) :   0.9974 B(  8-C , 10-H ) :   1.0076

Dispersion correction           -0.006844424
FINAL SINGLE POINT ENERGY      -464.480900771111

DIPOLE MOMENT
-------------
                                X             Y             Z
Electronic contribution:      6.16735      -2.81496       7.09336
Nuclear contribution   :     -6.99695       3.07955      -8.37829
                        -----------------------------------------
Total Dipole Moment    :     -0.82961       0.26459      -1.28493
                        -----------------------------------------
Magnitude (a.u.)       :      1.55219
Magnitude (Debye)      :      3.94536

Rotational constants in cm-1:     0.106302     0.035771     0.030198
Rotational constants in MHz :  3186.860872  1072.397550   905.318354

                             ****ORCA TERMINATED NORMALLY****
TOTAL RUN TIME: 0 days 0 hours 0 minutes 40 seconds 560 msec
