                         Program Version 5.0.0 -  RELEASE  -
|  1> !LC-BLYP RIJCOSX def2-SVPD def2/J TightSCF
|  2> *xyz -1 1
|  3> C         -0.15102        0.25496       -4.09426
|  4> C         -0.72184       -0.99951       -3.43931
|  5> H         -1.08340       -1.69755       -4.20566
|  6> H         -1.58106       -0.72385       -2.82049
|  7> C          0.28725       -1.71177       -2.52740
|  8> H          1.13178       -2.06738       -3.15940
|  9> H         -0.20414       -2.63733       -2.17048
| 10> O          0.71050       -0.92751       -1.48177
| 11> H         -0.89787        0.70479       -4.71455
| 12> H          0.69695       -0.00870       -4.69119
| 13> H          0.14812        0.94842       -3.33628
| 14> *
| 15> %MaxCore 64000
| 16>
| 17> %pal nprocs 4
| 18> end
| 19>
| 20> %scf
| 21>   MaxIter 150
| 22> end
| 23>
| 24>
| 25>                          ****END OF INPUT****

CARTESIAN COORDINATES (ANGSTROEM)
---------------------------------
  C     -0.151020    0.254960   -4.094260
  C     -0.721840   -0.999510   -3.439310
  H     -1.083400   -1.697550   -4.205660
  H     -1.581060   -0.723850   -2.820490
  C      0.287250   -1.711770   -2.527400
  H      1.131780   -2.067380   -3.159400
  H     -0.204140   -2.637330   -2.170480
  O      0.710500   -0.927510   -1.481770
  H     -0.897870    0.704790   -4.714550
  H      0.696950   -0.008700   -4.691190
  H      0.148120    0.948420   -3.336280

 Total Charge           Charge          ....   -1
 Multiplicity           Mult            ....    1
 Number of Electrons    NEL             ....   34
 Basis Dimension        Dim             ....  139

ORBITAL ENERGIES
----------------

  NO   OCC          E(Eh)            E(eV)
   0   2.0000     -18.626281      -506.8469
   1   2.0000      -9.903314      -269.4829
   2   2.0000      -9.902101      -269.4499
   3   2.0000      -9.894712      -269.2488
   4   2.0000      -0.772606       -21.0237
   5   2.0000      -0.686557       -18.6822
   6   2.0000      -0.571224       -15.5438
   7   2.0000      -0.469203       -12.7677
   8   2.0000      -0.381809       -10.3895
   9   2.0000      -0.374094       -10.1796
  10   2.0000      -0.323884        -8.8133
  11   2.0000      -0.288342        -7.8462
  12   2.0000      -0.263134        -7.1602
  13   2.0000      -0.252489        -6.8706
  14   2.0000      -0.211206        -5.7472
  15   2.0000      -0.070713        -1.9242
  16   2.0000      -0.066935        -1.8214
  17   0.0000       0.215641         5.8679
  18   0.0000       0.240769         6.5517
  19   0.0000       0.257700         7.0124
  20   0.0000       0.290702         7.9104
  21   0.0000       0.308082         8.3833

MULLIKEN ATOMIC CHARGES
-----------------------
   0 C :    0.824446
   1 C :   -0.327325
   2 H :   -0.158215
   3 H :   -0.129948
   4 C :    0.400259
   5 H :   -0.160750
   6 H :   -0.216497
   7 O :   -0.803373
   8 H :   -0.177885
   9 H :   -0.147256
  10 H :   -0.103456
Sum of atomic charges:   -1.0000000

LOEWDIN ATOMIC CHARGES
----------------------
   0 C :    0.076329
   1 C :   -0.128426
   2 H :   -0.004328
   3 H :    0.007846
   4 C :   -0.245877
   5 H :   -0.019486
   6 H :   -0.026525
   7 O :   -0.556452
   8 H :   -0.044479
   9 H :   -0.030250
  10 H :   -0.028353

  Mayer bond orders larger than 0.100000
B(  0-C ,  1-C ) :   1.2753 B(  0-C ,  8-H ) :   0.7291 B(  0-C ,  9-H ) :   0.7720
B(  0-C , 10-H ) :   0.7877 B(  1-C ,  2-H ) :   0.9724 B(  1-C ,  3-H ) :   0.9278
B(  1-C ,  4-C ) :   1.0581 B(  1-C ,  5-H ) :   0.1292 B(  1-C ,  6-H ) :   0.1668
B(  1-C ,  8-H ) :   0.2393 B(  1-C ,  9-H ) :   0.2084 B(  1-C , 10-H ) :   0.2266
B(  3-H ,  4-C ) :   0.1491 B(  4-C ,  5-H ) :   0.9347 B(  4-C ,  6-H ) :   0.9236
B(  4-C ,  7-O ) :   1.2793

FINAL SINGLE POINT ENERGY      -193.110849436933

DIPOLE MOMENT
-------------
                                X             Y             Z
Electronic contribution:      0.99090      -0.25116       2.67622
Nuclear contribution   :     -1.95025       0.39850      -4.64834
                        -----------------------------------------
Total Dipole Moment    :     -0.95935       0.14734      -1.97212
                        -----------------------------------------
Magnitude (a.u.)       :      2.19803
Magnitude (Debye)      :      5.58694

Rotational constants in cm-1:     0.507767     0.175836     0.148827
Rotational constants in MHz : 15222.471408  5271.439482  4461.706759

                             ****ORCA TERMINATED NORMALLY****
TOTAL RUN TIME: 0 days 0 hours 0 minutes 11 seconds 490 msec
