                         Program Version 5.0.0 -  RELEASE  -
|  1> !LC-BLYP RIJCOSX def2-SVPD def2/J TightSCF
|  2> *xyz 1 1
|  3> C          3.48828        1.60092       -1.52204
|  4> C          4.34297        1.31342       -2.75683
|  5> N          2.81029        0.42878       -1.01420
|  6> H          5.13203        0.60499       -2.48447
|  7> C          3.53590        0.74925       -3.92460
|  8> H          4.84125        2.24214       -3.05408
|  9> H          2.71455        2.33145       -1.76030
| 10> H          4.09099        2.06315       -0.73338
| 11> C          3.29098       -0.41802       -0.12908
| 12> N          2.51754       -1.43202        0.23936
| 13> N          4.53549       -0.28441        0.39580
| 14> H          5.04363        0.57189        0.22290
| 15> H          4.72335       -0.73327        1.28180
| 16> H          1.93479        0.10230       -1.40379
| 17> H          1.67464       -1.50562       -0.31610
| 18> H          2.92850       -2.21850        0.72549
| 19> H          4.18704        0.56990       -4.75451
| 20> H          2.78096        1.45217       -4.20898
| 21> H          3.07436       -0.16949       -3.62832
| 22> *
| 23> %MaxCore 64000
| 24>
| 25> %pal nprocs 4
| 26> end
| 27>
| 28> %scf
| 29>   MaxIter 150
| 30> end
| 31>
| 32>
| 33>                          ****END OF INPUT****

CARTESIAN COORDINATES (ANGSTROEM)
---------------------------------
  C      3.488280    1.600920   -1.522040
  C      4.342970    1.313420   -2.756830
  N      2.810290    0.428780   -1.014200
  H      5.132030    0.604990   -2.484470
  C      3.535900    0.749250   -3.924600
  H      4.841250    2.242140   -3.054080
  H      2.714550    2.331450   -1.760300
  H      4.090990    2.063150   -0.733380
  C      3.290980   -0.418020   -0.129080
  N      2.517540   -1.432020    0.239360
  N      4.535490   -0.284410    0.395800
  H      5.043630    0.571890    0.222900
  H      4.723350   -0.733270    1.281800
  H      1.934790    0.102300   -1.403790
  H      1.674640   -1.505620   -0.316100
  H      2.928500   -2.218500    0.725490
  H      4.187040    0.569900   -4.754510
  H      2.780960    1.452170   -4.208980
  H      3.074360   -0.169490   -3.628320

 Total Charge           Charge          ....    1
 Multiplicity           Mult            ....    1
 Number of Electrons    NEL             ....   56
 Basis Dimension        Dim             ....  236

ORBITAL ENERGIES
----------------

  NO   OCC          E(Eh)            E(eV)
   0   2.0000     -14.415892      -392.2764
   1   2.0000     -14.411882      -392.1673
   2   2.0000     -14.409326      -392.0977
   3   2.0000     -10.422220      -283.6030
   4   2.0000     -10.290046      -280.0064
   5   2.0000     -10.228072      -278.3200
   6   2.0000     -10.200176      -277.5609
   7   2.0000      -1.314118       -35.7590
   8   2.0000      -1.201310       -32.6893
   9   2.0000      -1.187279       -32.3075
  10   2.0000      -1.047069       -28.4922
  11   2.0000      -0.967268       -26.3207
  12   2.0000      -0.928976       -25.2787
  13   2.0000      -0.889429       -24.2026
  14   2.0000      -0.872857       -23.7516
  15   2.0000      -0.834117       -22.6975
  16   2.0000      -0.795400       -21.6439
  17   2.0000      -0.783361       -21.3163
  18   2.0000      -0.762148       -20.7391
  19   2.0000      -0.746782       -20.3210
  20   2.0000      -0.703759       -19.1503
  21   2.0000      -0.687644       -18.7118
  22   2.0000      -0.653789       -17.7905
  23   2.0000      -0.604204       -16.4412
  24   2.0000      -0.590534       -16.0692
  25   2.0000      -0.583442       -15.8763
  26   2.0000      -0.574151       -15.6234
  27   2.0000      -0.545213       -14.8360
  28   0.0000      -0.098409        -2.6779
  29   0.0000      -0.091046        -2.4775
  30   0.0000      -0.065674        -1.7871
  31   0.0000      -0.049542        -1.3481
  32   0.0000      -0.022497        -0.6122

MULLIKEN ATOMIC CHARGES
-----------------------
   0 C :    0.837954
   1 C :   -0.125317
   2 N :   -0.340990
   3 H :   -0.079522
   4 C :    0.973389
   5 H :   -0.168344
   6 H :   -0.326800
   7 H :   -0.179133
   8 C :    0.895211
   9 N :    0.235784
  10 N :    0.238612
  11 H :   -0.083707
  12 H :   -0.170127
  13 H :   -0.192083
  14 H :   -0.023688
  15 H :   -0.106161
  16 H :   -0.148979
  17 H :   -0.044266
  18 H :   -0.191833
Sum of atomic charges:    1.0000000

LOEWDIN ATOMIC CHARGES
----------------------
   0 C :    0.055186
   1 C :   -0.062830
   2 N :    0.059654
   3 H :    0.026986
   4 C :    0.125430
   5 H :    0.043747
   6 H :    0.049735
   7 H :    0.033038
   8 C :   -0.057817
   9 N :    0.274229
  10 N :    0.293655
  11 H :    0.008013
  12 H :    0.035722
  13 H :    0.057728
  14 H :    0.033898
  15 H :    0.046192
  16 H :    0.002631
  17 H :   -0.001956
  18 H :   -0.023242

  Mayer bond orders larger than 0.100000
B(  0-C ,  1-C ) :   1.0919 B(  0-C ,  2-N ) :   1.0248 B(  0-C ,  3-H ) :   0.1241
B(  0-C ,  6-H ) :   0.7260 B(  0-C ,  7-H ) :   0.8417 B(  0-C ,  8-C ) :  -0.1106
B(  0-C , 13-H ) :  -0.2451 B(  1-C ,  3-H ) :   0.8826 B(  1-C ,  4-C ) :   1.3020
B(  1-C ,  5-H ) :   0.9530 B(  1-C ,  6-H ) :   0.1329 B(  1-C , 16-H ) :   0.2540
B(  1-C , 17-H ) :   0.2259 B(  1-C , 18-H ) :   0.2205 B(  2-N ,  6-H ) :   0.2466
B(  2-N ,  7-H ) :   0.1245 B(  2-N ,  8-C ) :   1.1032 B(  2-N ,  9-N ) :   0.2696
B(  2-N , 10-N ) :   0.2204 B(  2-N , 13-H ) :   1.2801 B(  4-C , 16-H ) :   0.7443
B(  4-C , 17-H ) :   0.7197 B(  4-C , 18-H ) :   0.7554 B(  6-H ,  7-H ) :  -0.1392
B(  8-C ,  9-N ) :   1.0232 B(  8-C , 10-N ) :   1.0383 B(  8-C , 11-H ) :  -0.1182
B(  8-C , 12-H ) :  -0.1105 B(  8-C , 13-H ) :  -0.2776 B(  8-C , 14-H ) :  -0.1070
B(  9-N , 10-N ) :   0.1244 B(  9-N , 14-H ) :   1.0733 B(  9-N , 15-H ) :   1.1771
B( 10-N , 11-H ) :   1.0525 B( 10-N , 12-H ) :   1.2210 B( 11-H , 12-H ) :  -0.1689
B( 14-H , 15-H ) :  -0.1504

FINAL SINGLE POINT ENERGY      -322.647174241905

DIPOLE MOMENT
-------------
                                X             Y             Z
Electronic contribution:     -1.34440      -2.88128       6.37256
Nuclear contribution   :      1.03951       2.07316      -5.00363
                        -----------------------------------------
Total Dipole Moment    :     -0.30489      -0.80813       1.36893
                        -----------------------------------------
Magnitude (a.u.)       :      1.61864
Magnitude (Debye)      :      4.11425

Rotational constants in cm-1:     0.160664     0.048801     0.043832
Rotational constants in MHz :  4816.589604  1463.007061  1314.037102

                             ****ORCA TERMINATED NORMALLY****
TOTAL RUN TIME: 0 days 0 hours 0 minutes 35 seconds 88 msec
