                         Program Version 5.0.0 -  RELEASE  -
|  1> !LC-BLYP RIJCOSX def2-SVPD def2/J TightSCF
|  2> *xyz 0 1
|  3> C         -0.15102        0.25496       -4.09426
|  4> C         -0.72184       -0.99951       -3.43931
|  5> H         -1.08340       -1.69755       -4.20566
|  6> H         -1.58106       -0.72385       -2.82049
|  7> C          0.28725       -1.71177       -2.52740
|  8> H          1.13178       -2.06738       -3.15940
|  9> H         -0.20414       -2.63733       -2.17048
| 10> F          0.71050       -0.92751       -1.48177
| 11> H         -0.89787        0.70479       -4.71455
| 12> H          0.69695       -0.00870       -4.69119
| 13> H          0.14812        0.94842       -3.33628
| 14> *
| 15> %MaxCore 64000
| 16>
| 17> %pal nprocs 4
| 18> end
| 19>
| 20> %scf
| 21>   MaxIter 150
| 22> end
| 23>
| 24>
| 25>                          ****END OF INPUT****

CARTESIAN COORDINATES (ANGSTROEM)
---------------------------------
  C     -0.151020    0.254960   -4.094260
  C     -0.721840   -0.999510   -3.439310
  H     -1.083400   -1.697550   -4.205660
  H     -1.581060   -0.723850   -2.820490
  C      0.287250   -1.711770   -2.527400
  H      1.131780   -2.067380   -3.159400
  H     -0.204140   -2.637330   -2.170480
  F      0.710500   -0.927510   -1.481770
  H     -0.897870    0.704790   -4.714550
  H      0.696950   -0.008700   -4.691190
  H      0.148120    0.948420   -3.336280

 Total Charge           Charge          ....    0
 Multiplicity           Mult            ....    1
 Number of Electrons    NEL             ....   34
 Basis Dimension        Dim             ....  139

ORBITAL ENERGIES
----------------

  NO   OCC          E(Eh)            E(eV)
   0   2.0000     -24.464488      -665.7126
   1   2.0000     -10.163752      -276.5698
   2   2.0000     -10.092649      -274.6349
   3   2.0000     -10.072326      -274.0819
   4   2.0000      -1.264400       -34.4061
   5   2.0000      -0.895223       -24.3603
   6   2.0000      -0.794014       -21.6062
   7   2.0000      -0.701325       -19.0840
   8   2.0000      -0.617705       -16.8086
   9   2.0000      -0.601105       -16.3569
  10   2.0000      -0.575988       -15.6734
  11   2.0000      -0.541201       -14.7268
  12   2.0000      -0.502778       -13.6813
  13   2.0000      -0.478277       -13.0146
  14   2.0000      -0.452084       -12.3018
  15   2.0000      -0.426028       -11.5928
  16   2.0000      -0.425589       -11.5809
  17   0.0000       0.073638         2.0038
  18   0.0000       0.098882         2.6907
  19   0.0000       0.107748         2.9320
  20   0.0000       0.125970         3.4278
  21   0.0000       0.151822         4.1313

MULLIKEN ATOMIC CHARGES
-----------------------
   0 C :    0.860429
   1 C :   -0.283388
   2 H :   -0.147712
   3 H :   -0.143698
   4 C :    0.739187
   5 H :   -0.100015
   6 H :   -0.154263
   7 F :   -0.369541
   8 H :   -0.153583
   9 H :   -0.134979
  10 H :   -0.112437
Sum of atomic charges:    0.0000000

LOEWDIN ATOMIC CHARGES
----------------------
   0 C :    0.110057
   1 C :   -0.080472
   2 H :    0.033307
   3 H :    0.028838
   4 C :    0.064741
   5 H :    0.041246
   6 H :    0.034573
   7 F :   -0.192646
   8 H :   -0.014660
   9 H :   -0.013201
  10 H :   -0.011783

  Mayer bond orders larger than 0.100000
B(  0-C ,  1-C ) :   1.3093 B(  0-C ,  8-H ) :   0.7510 B(  0-C ,  9-H ) :   0.7642
B(  0-C , 10-H ) :   0.7737 B(  1-C ,  2-H ) :   0.9365 B(  1-C ,  3-H ) :   0.9136
B(  1-C ,  4-C ) :   1.1901 B(  1-C ,  5-H ) :   0.1065 B(  1-C ,  6-H ) :   0.1361
B(  1-C ,  8-H ) :   0.2272 B(  1-C ,  9-H ) :   0.1960 B(  1-C , 10-H ) :   0.2093
B(  3-H ,  4-C ) :   0.1097 B(  4-C ,  5-H ) :   0.8872 B(  4-C ,  6-H ) :   0.8791
B(  4-C ,  7-F ) :   0.8478

FINAL SINGLE POINT ENERGY      -217.707547687933

DIPOLE MOMENT
-------------
                                X             Y             Z
Electronic contribution:      2.45989      -0.83911       5.73440
Nuclear contribution   :     -2.76068       0.49992      -6.33880
                        -----------------------------------------
Total Dipole Moment    :     -0.30079      -0.33919      -0.60441
                        -----------------------------------------
Magnitude (a.u.)       :      0.75553
Magnitude (Debye)      :      1.92042

Rotational constants in cm-1:     0.493380     0.165620     0.140427
Rotational constants in MHz : 14791.174622  4965.163858  4209.902284

                             ****ORCA TERMINATED NORMALLY****
TOTAL RUN TIME: 0 days 0 hours 0 minutes 9 seconds 206 msec
