                         Program Version 5.0.0 -  RELEASE  -
|  1> !LC-BLYP RIJCOSX def2-SVPD def2/J TightSCF
|  2> *xyz 0 1
|  3> C          3.48828        1.60092       -1.52204
|  4> C          4.34297        1.31342       -2.75683
|  5> C          2.81029        0.42878       -1.01420
|  6> H          5.13203        0.60499       -2.48447
|  7> C          3.53590        0.74925       -3.92460
|  8> H          4.84125        2.24214       -3.05408
|  9> H          2.71455        2.33145       -1.76030
| 10> H          4.09099        2.06315       -0.73338
| 11> C          3.29098       -0.41802       -0.12908
| 12> N          2.51754       -1.43202        0.23936
| 13> N          4.53549       -0.28441        0.39580
| 14> H          5.04363        0.57189        0.22290
| 15> H          4.72335       -0.73327        1.28180
| 16> H          1.93479        0.10230       -1.40379
| 17> H          1.67464       -1.50562       -0.31610
| 18> H          2.92850       -2.21850        0.72549
| 19> H          4.18704        0.56990       -4.75451
| 20> H          2.78096        1.45217       -4.20898
| 21> H          3.07436       -0.16949       -3.62832
| 22> *
| 23> %MaxCore 64000
| 24>
| 25> %pal nprocs 4
| 26> end
| 27>
| 28> %scf
| 29>   MaxIter 150
| 30> end
| 31>
| 32>
| 33>                          ****END OF INPUT****

CARTESIAN COORDINATES (ANGSTROEM)
---------------------------------
  C      3.488280    1.600920   -1.522040
  C      4.342970    1.313420   -2.756830
  C      2.810290    0.428780   -1.014200
  H      5.132030    0.604990   -2.484470
  C      3.535900    0.749250   -3.924600
  H      4.841250    2.242140   -3.054080
  H      2.714550    2.331450   -1.760300
  H      4.090990    2.063150   -0.733380
  C      3.290980   -0.418020   -0.129080
  N      2.517540   -1.432020    0.239360
  N      4.535490   -0.284410    0.395800
  H      5.043630    0.571890    0.222900
  H      4.723350   -0.733270    1.281800
  H      1.934790    0.102300   -1.403790
  H      1.674640   -1.505620   -0.316100
  H      2.928500   -2.218500    0.725490
  H      4.187040    0.569900   -4.754510
  H      2.780960    1.452170   -4.208980
  H      3.074360   -0.169490   -3.628320

 Total Charge           Charge          ....    0
 Multiplicity           Mult            ....    1
 Number of Electrons    NEL             ....   56
 Basis Dimension        Dim             ....  236

ORBITAL ENERGIES
----------------

  NO   OCC          E(Eh)            E(eV)
   0   2.0000     -14.190366      -386.1395
   1   2.0000     -14.185527      -386.0078
   2   2.0000     -10.129045      -275.6253
   3   2.0000     -10.062901      -273.8255
   4   2.0000     -10.061285      -273.7815
   5   2.0000     -10.052871      -273.5525
   6   2.0000     -10.011647      -272.4308
   7   2.0000      -1.054951       -28.7067
   8   2.0000      -0.965162       -26.2634
   9   2.0000      -0.892435       -24.2844
  10   2.0000      -0.825412       -22.4606
  11   2.0000      -0.762145       -20.7390
  12   2.0000      -0.698380       -19.0039
  13   2.0000      -0.676860       -18.4183
  14   2.0000      -0.645090       -17.5538
  15   2.0000      -0.610500       -16.6125
  16   2.0000      -0.568784       -15.4774
  17   2.0000      -0.548312       -14.9203
  18   2.0000      -0.546679       -14.8759
  19   2.0000      -0.510944       -13.9035
  20   2.0000      -0.501484       -13.6461
  21   2.0000      -0.477136       -12.9835
  22   2.0000      -0.461756       -12.5650
  23   2.0000      -0.429692       -11.6925
  24   2.0000      -0.413144       -11.2422
  25   2.0000      -0.410455       -11.1691
  26   2.0000      -0.367640       -10.0040
  27   2.0000      -0.258521        -7.0347
  28   0.0000       0.070534         1.9193
  29   0.0000       0.094685         2.5765
  30   0.0000       0.096101         2.6151
  31   0.0000       0.113079         3.0770
  32   0.0000       0.123740         3.3671

MULLIKEN ATOMIC CHARGES
-----------------------
   0 C :    0.429287
   1 C :   -0.142733
   2 C :   -0.192943
   3 H :   -0.149972
   4 C :    0.971241
   5 H :   -0.156889
   6 H :   -0.084392
   7 H :   -0.138980
   8 C :    0.397864
   9 N :    0.187338
  10 N :    0.188447
  11 H :   -0.059086
  12 H :   -0.272326
  13 H :   -0.421550
  14 H :    0.054508
  15 H :   -0.222921
  16 H :   -0.144258
  17 H :   -0.061691
  18 H :   -0.180946
Sum of atomic charges:   -0.0000000

LOEWDIN ATOMIC CHARGES
----------------------
   0 C :   -0.072737
   1 C :   -0.088869
   2 C :   -0.045295
   3 H :    0.021034
   4 C :    0.107516
   5 H :    0.019168
   6 H :    0.023240
   7 H :    0.011469
   8 C :   -0.238516
   9 N :    0.186456
  10 N :    0.216868
  11 H :   -0.022824
  12 H :   -0.013831
  13 H :   -0.043590
  14 H :    0.000624
  15 H :   -0.006015
  16 H :   -0.018100
  17 H :   -0.013529
  18 H :   -0.023069

  Mayer bond orders larger than 0.100000
B(  0-C ,  1-C ) :   1.1248 B(  0-C ,  2-C ) :   1.1764 B(  0-C ,  3-H ) :   0.1415
B(  0-C ,  5-H ) :   0.1277 B(  0-C ,  6-H ) :   0.7269 B(  0-C ,  7-H ) :   0.7692
B(  0-C , 13-H ) :   0.2798 B(  1-C ,  3-H ) :   0.9207 B(  1-C ,  4-C ) :   1.3069
B(  1-C ,  5-H ) :   0.8872 B(  1-C , 16-H ) :   0.2781 B(  1-C , 17-H ) :   0.2436
B(  1-C , 18-H ) :   0.2520 B(  2-C ,  6-H ) :   0.2672 B(  2-C ,  7-H ) :   0.3400
B(  2-C ,  8-C ) :   1.6823 B(  2-C ,  9-N ) :   0.3506 B(  2-C , 10-N ) :   0.2147
B(  2-C , 11-H ) :  -0.1080 B(  2-C , 13-H ) :   0.8173 B(  4-C , 16-H ) :   0.6842
B(  4-C , 17-H ) :   0.7223 B(  4-C , 18-H ) :   0.7387 B(  7-H ,  8-C ) :  -0.1065
B(  8-C ,  9-N ) :   0.9588 B(  8-C , 10-N ) :   1.0245 B(  8-C , 13-H ) :   0.2204
B(  9-N , 14-H ) :   1.0308 B(  9-N , 15-H ) :   1.1782 B( 10-N , 11-H ) :   1.0246
B( 10-N , 12-H ) :   1.2166 B( 11-H , 12-H ) :  -0.1448 B( 14-H , 15-H ) :  -0.1480

FINAL SINGLE POINT ENERGY      -306.185028080533

DIPOLE MOMENT
-------------
                                X             Y             Z
Electronic contribution:     -0.68347      -2.64007       5.54813
Nuclear contribution   :      0.88816       2.11069      -4.95634
                        -----------------------------------------
Total Dipole Moment    :      0.20470      -0.52937       0.59179
                        -----------------------------------------
Magnitude (a.u.)       :      0.81997
Magnitude (Debye)      :      2.08421

Rotational constants in cm-1:     0.162296     0.048922     0.043870
Rotational constants in MHz :  4865.524396  1466.649652  1315.198467

                             ****ORCA TERMINATED NORMALLY****
TOTAL RUN TIME: 0 days 0 hours 0 minutes 38 seconds 744 msec
