                         Program Version 5.0.0 -  RELEASE  -
|  1> !LC-BLYP RIJCOSX def2-SVPD def2/J TightSCF
|  2> *xyz 0 1
|  3> C          3.48828        1.60092       -1.52204
|  4> C          4.34297        1.31342       -2.75683
|  5> N          2.81029        0.42878       -1.01420
|  6> H          5.13203        0.60499       -2.48447
|  7> C          3.53590        0.74925       -3.92460
|  8> H          4.84125        2.24214       -3.05408
|  9> H          2.71455        2.33145       -1.76030
| 10> H          4.09099        2.06315       -0.73338
| 11> C          3.29098       -0.41802       -0.12908
| 12> C          2.51754       -1.43202        0.23936
| 13> N          4.53549       -0.28441        0.39580
| 14> H          5.04363        0.57189        0.22290
| 15> H          4.72335       -0.73327        1.28180
| 16> H          1.93479        0.10230       -1.40379
| 17> H          1.67464       -1.50562       -0.31610
| 18> H          2.92850       -2.21850        0.72549
| 19> H          4.18704        0.56990       -4.75451
| 20> H          2.78096        1.45217       -4.20898
| 21> H          3.07436       -0.16949       -3.62832
| 22> *
| 23> %MaxCore 64000
| 24>
| 25> %pal nprocs 4
| 26> end
| 27>
| 28> %scf
| 29>   MaxIter 150
| 30> end
| 31>
| 32>
| 33>                          ****END OF INPUT****

CARTESIAN COORDINATES (ANGSTROEM)
---------------------------------
  C      3.488280    1.600920   -1.522040
  C      4.342970    1.313420   -2.756830
  N      2.810290    0.428780   -1.014200
  H      5.132030    0.604990   -2.484470
  C      3.535900    0.749250   -3.924600
  H      4.841250    2.242140   -3.054080
  H      2.714550    2.331450   -1.760300
  H      4.090990    2.063150   -0.733380
  C      3.290980   -0.418020   -0.129080
  C      2.517540   -1.432020    0.239360
  N      4.535490   -0.284410    0.395800
  H      5.043630    0.571890    0.222900
  H      4.723350   -0.733270    1.281800
  H      1.934790    0.102300   -1.403790
  H      1.674640   -1.505620   -0.316100
  H      2.928500   -2.218500    0.725490
  H      4.187040    0.569900   -4.754510
  H      2.780960    1.452170   -4.208980
  H      3.074360   -0.169490   -3.628320

 Total Charge           Charge          ....    0
 Multiplicity           Mult            ....    1
 Number of Electrons    NEL             ....   56
 Basis Dimension        Dim             ....  236

ORBITAL ENERGIES
----------------

  NO   OCC          E(Eh)            E(eV)
   0   2.0000     -14.189299      -386.1105
   1   2.0000     -14.189261      -386.1094
   2   2.0000     -10.132719      -275.7253
   3   2.0000     -10.125477      -275.5282
   4   2.0000     -10.086613      -274.4707
   5   2.0000     -10.073535      -274.1148
   6   2.0000      -9.995752      -271.9982
   7   2.0000      -1.065717       -28.9996
   8   2.0000      -0.978890       -26.6370
   9   2.0000      -0.896926       -24.4066
  10   2.0000      -0.831778       -22.6338
  11   2.0000      -0.772928       -21.0324
  12   2.0000      -0.714424       -19.4405
  13   2.0000      -0.694432       -18.8965
  14   2.0000      -0.640149       -17.4193
  15   2.0000      -0.608848       -16.5676
  16   2.0000      -0.583583       -15.8801
  17   2.0000      -0.562703       -15.3119
  18   2.0000      -0.547817       -14.9069
  19   2.0000      -0.516536       -14.0557
  20   2.0000      -0.494347       -13.4519
  21   2.0000      -0.486858       -13.2481
  22   2.0000      -0.477841       -13.0027
  23   2.0000      -0.452056       -12.3011
  24   2.0000      -0.449800       -12.2397
  25   2.0000      -0.439886       -11.9699
  26   2.0000      -0.357828        -9.7370
  27   2.0000      -0.257460        -7.0059
  28   0.0000       0.066163         1.8004
  29   0.0000       0.084557         2.3009
  30   0.0000       0.095558         2.6003
  31   0.0000       0.101394         2.7591
  32   0.0000       0.126064         3.4304

MULLIKEN ATOMIC CHARGES
-----------------------
   0 C :    0.859516
   1 C :   -0.150567
   2 N :   -0.153227
   3 H :   -0.085505
   4 C :    0.969708
   5 H :   -0.213461
   6 H :   -0.400942
   7 H :   -0.216433
   8 C :    0.362425
   9 C :    0.635016
  10 N :    0.293297
  11 H :   -0.213524
  12 H :   -0.163625
  13 H :   -0.256644
  14 H :   -0.312589
  15 H :   -0.545318
  16 H :   -0.171924
  17 H :   -0.053097
  18 H :   -0.183105
Sum of atomic charges:    0.0000000

LOEWDIN ATOMIC CHARGES
----------------------
   0 C :    0.027363
   1 C :   -0.080280
   2 N :   -0.001535
   3 H :    0.022460
   4 C :    0.109725
   5 H :    0.024139
   6 H :    0.026950
   7 H :    0.016231
   8 C :   -0.246194
   9 C :    0.130907
  10 N :    0.215374
  11 H :   -0.035927
  12 H :    0.003342
  13 H :    0.032246
  14 H :   -0.102210
  15 H :   -0.094806
  16 H :   -0.013943
  17 H :   -0.013536
  18 H :   -0.020306

  Mayer bond orders larger than 0.100000
B(  0-C ,  1-C ) :   1.0868 B(  0-C ,  2-N ) :   1.0012 B(  0-C ,  3-H ) :   0.1257
B(  0-C ,  5-H ) :   0.1016 B(  0-C ,  6-H ) :   0.7077 B(  0-C ,  7-H ) :   0.8458
B(  0-C , 13-H ) :  -0.2788 B(  1-C ,  3-H ) :   0.8911 B(  1-C ,  4-C ) :   1.2832
B(  1-C ,  5-H ) :   0.9576 B(  1-C ,  6-H ) :   0.1432 B(  1-C , 16-H ) :   0.2610
B(  1-C , 17-H ) :   0.2327 B(  1-C , 18-H ) :   0.2352 B(  2-N ,  6-H ) :   0.2536
B(  2-N ,  7-H ) :   0.1334 B(  2-N ,  8-C ) :   1.1587 B(  2-N ,  9-C ) :   0.2722
B(  2-N , 10-N ) :   0.1245 B(  2-N , 13-H ) :   1.2338 B(  4-C , 16-H ) :   0.7292
B(  4-C , 17-H ) :   0.7183 B(  4-C , 18-H ) :   0.7595 B(  6-H ,  7-H ) :  -0.1466
B(  8-C ,  9-C ) :   1.6179 B(  8-C , 10-N ) :   0.9621 B(  8-C , 13-H ) :  -0.2103
B(  8-C , 14-H ) :   0.2591 B(  8-C , 15-H ) :   0.2467 B(  9-C , 10-N ) :   0.2136
B(  9-C , 14-H ) :   0.7433 B(  9-C , 15-H ) :   0.5974 B( 10-N , 11-H ) :   1.0255
B( 10-N , 12-H ) :   1.1897 B( 11-H , 12-H ) :  -0.1574

FINAL SINGLE POINT ENERGY      -306.172761661778

DIPOLE MOMENT
-------------
                                X             Y             Z
Electronic contribution:     -0.28432      -0.78244       4.27745
Nuclear contribution   :      0.82404       1.70307      -4.68174
                        -----------------------------------------
Total Dipole Moment    :      0.53971       0.92063      -0.40429
                        -----------------------------------------
Magnitude (a.u.)       :      1.14119
Magnitude (Debye)      :      2.90066

Rotational constants in cm-1:     0.164049     0.050262     0.045260
Rotational constants in MHz :  4918.051182  1506.829450  1356.872102

                             ****ORCA TERMINATED NORMALLY****
TOTAL RUN TIME: 0 days 0 hours 0 minutes 38 seconds 620 msec
