                         Program Version 5.0.0 -  RELEASE  -
|  1> !LC-BLYP RIJCOSX def2-SVPD def2/J TightSCF
|  2> *xyz 0 1
|  3> C          3.48828        1.60092       -1.52204
|  4> C          4.34297        1.31342       -2.75683
|  5> N          2.81029        0.42878       -1.01420
|  6> H          5.13203        0.60499       -2.48447
|  7> C          3.53590        0.74925       -3.92460
|  8> H          4.84125        2.24214       -3.05408
|  9> H          2.71455        2.33145       -1.76030
| 10> H          4.09099        2.06315       -0.73338
| 11> C          3.29098       -0.41802       -0.12908
| 12> N          2.51754       -1.43202        0.23936
| 13> C          4.53549       -0.28441        0.39580
| 14> H          5.04363        0.57189        0.22290
| 15> H          4.72335       -0.73327        1.28180
| 16> H          1.93479        0.10230       -1.40379
| 17> H          1.67464       -1.50562       -0.31610
| 18> H          2.92850       -2.21850        0.72549
| 19> H          4.18704        0.56990       -4.75451
| 20> H          2.78096        1.45217       -4.20898
| 21> H          3.07436       -0.16949       -3.62832
| 22> *
| 23> %MaxCore 64000
| 24>
| 25> %pal nprocs 4
| 26> end
| 27>
| 28> %scf
| 29>   MaxIter 150
| 30> end
| 31>
| 32>
| 33>                          ****END OF INPUT****

CARTESIAN COORDINATES (ANGSTROEM)
---------------------------------
  C      3.488280    1.600920   -1.522040
  C      4.342970    1.313420   -2.756830
  N      2.810290    0.428780   -1.014200
  H      5.132030    0.604990   -2.484470
  C      3.535900    0.749250   -3.924600
  H      4.841250    2.242140   -3.054080
  H      2.714550    2.331450   -1.760300
  H      4.090990    2.063150   -0.733380
  C      3.290980   -0.418020   -0.129080
  N      2.517540   -1.432020    0.239360
  C      4.535490   -0.284410    0.395800
  H      5.043630    0.571890    0.222900
  H      4.723350   -0.733270    1.281800
  H      1.934790    0.102300   -1.403790
  H      1.674640   -1.505620   -0.316100
  H      2.928500   -2.218500    0.725490
  H      4.187040    0.569900   -4.754510
  H      2.780960    1.452170   -4.208980
  H      3.074360   -0.169490   -3.628320

 Total Charge           Charge          ....    0
 Multiplicity           Mult            ....    1
 Number of Electrons    NEL             ....   56
 Basis Dimension        Dim             ....  236

ORBITAL ENERGIES
----------------

  NO   OCC          E(Eh)            E(eV)
   0   2.0000     -14.196148      -386.2968
   1   2.0000     -14.191845      -386.1797
   2   2.0000     -10.136060      -275.8162
   3   2.0000     -10.117969      -275.3239
   4   2.0000     -10.079290      -274.2714
   5   2.0000     -10.070308      -274.0270
   6   2.0000      -9.997579      -272.0479
   7   2.0000      -1.074880       -29.2490
   8   2.0000      -0.985406       -26.8143
   9   2.0000      -0.884176       -24.0596
  10   2.0000      -0.811860       -22.0918
  11   2.0000      -0.799566       -21.7573
  12   2.0000      -0.714052       -19.4303
  13   2.0000      -0.659321       -17.9410
  14   2.0000      -0.651894       -17.7389
  15   2.0000      -0.633351       -17.2344
  16   2.0000      -0.580661       -15.8006
  17   2.0000      -0.559420       -15.2226
  18   2.0000      -0.544417       -14.8143
  19   2.0000      -0.508076       -13.8255
  20   2.0000      -0.505981       -13.7685
  21   2.0000      -0.482484       -13.1291
  22   2.0000      -0.469578       -12.7779
  23   2.0000      -0.449667       -12.2361
  24   2.0000      -0.442013       -12.0278
  25   2.0000      -0.433426       -11.7941
  26   2.0000      -0.351797        -9.5729
  27   2.0000      -0.261125        -7.1056
  28   0.0000       0.062567         1.7025
  29   0.0000       0.088886         2.4187
  30   0.0000       0.097174         2.6442
  31   0.0000       0.102119         2.7788
  32   0.0000       0.123632         3.3642

MULLIKEN ATOMIC CHARGES
-----------------------
   0 C :    0.821060
   1 C :   -0.108324
   2 N :   -0.363271
   3 H :   -0.109766
   4 C :    0.950302
   5 H :   -0.205974
   6 H :   -0.395406
   7 H :   -0.075394
   8 C :    0.418479
   9 N :    0.293925
  10 C :    0.676780
  11 H :   -0.258739
  12 H :   -0.671729
  13 H :   -0.299387
  14 H :   -0.154455
  15 H :   -0.103340
  16 H :   -0.172436
  17 H :   -0.058688
  18 H :   -0.183637
Sum of atomic charges:    0.0000000

LOEWDIN ATOMIC CHARGES
----------------------
   0 C :    0.035557
   1 C :   -0.072154
   2 N :   -0.003022
   3 H :    0.024612
   4 C :    0.105746
   5 H :    0.026130
   6 H :    0.026454
   7 H :    0.023618
   8 C :   -0.252865
   9 N :    0.198566
  10 C :    0.152287
  11 H :   -0.125399
  12 H :   -0.105563
  13 H :    0.021218
  14 H :   -0.013359
  15 H :    0.013657
  16 H :   -0.014636
  17 H :   -0.015540
  18 H :   -0.025310

  Mayer bond orders larger than 0.100000
B(  0-C ,  1-C ) :   1.0718 B(  0-C ,  2-N ) :   1.0035 B(  0-C ,  3-H ) :   0.1484
B(  0-C ,  6-H ) :   0.7644 B(  0-C ,  7-H ) :   0.8342 B(  0-C , 13-H ) :  -0.2432
B(  1-C ,  3-H ) :   0.8968 B(  1-C ,  4-C ) :   1.2810 B(  1-C ,  5-H ) :   0.9663
B(  1-C ,  6-H ) :   0.1286 B(  1-C , 16-H ) :   0.2594 B(  1-C , 17-H ) :   0.2286
B(  1-C , 18-H ) :   0.2268 B(  2-N ,  6-H ) :   0.2051 B(  2-N ,  7-H ) :   0.1141
B(  2-N ,  8-C ) :   0.9340 B(  2-N ,  9-N ) :   0.1652 B(  2-N , 10-C ) :   0.4510
B(  2-N , 13-H ) :   1.3298 B(  4-C , 16-H ) :   0.7318 B(  4-C , 17-H ) :   0.7223
B(  4-C , 18-H ) :   0.7697 B(  6-H ,  7-H ) :  -0.1775 B(  8-C ,  9-N ) :   0.9598
B(  8-C , 10-C ) :   1.7133 B(  8-C , 11-H ) :   0.3233 B(  8-C , 12-H ) :   0.2484
B(  8-C , 13-H ) :  -0.2894 B(  9-N , 10-C ) :   0.2590 B(  9-N , 14-H ) :   1.0432
B(  9-N , 15-H ) :   1.1763 B( 10-C , 11-H ) :   0.6356 B( 10-C , 12-H ) :   0.5670
B( 14-H , 15-H ) :  -0.1435

FINAL SINGLE POINT ENERGY      -306.172832071474

DIPOLE MOMENT
-------------
                                X             Y             Z
Electronic contribution:     -2.20836      -2.02077       4.06361
Nuclear contribution   :      1.26608       1.95446      -4.64747
                        -----------------------------------------
Total Dipole Moment    :     -0.94228      -0.06630      -0.58386
                        -----------------------------------------
Magnitude (a.u.)       :      1.11049
Magnitude (Debye)      :      2.82263

Rotational constants in cm-1:     0.166109     0.049557     0.044716
Rotational constants in MHz :  4979.835529  1485.675017  1340.540851

                             ****ORCA TERMINATED NORMALLY****
TOTAL RUN TIME: 0 days 0 hours 0 minutes 35 seconds 814 msec
