                         Program Version 5.0.0 -  RELEASE  -
|  1> !LC-BLYP RIJCOSX def2-SVPD def2/J TightSCF xyzfile
|  2>
|  3> *xyzfile 0 1 D1.xyz
|  4>
|  5> %MaxCore 64000
|  6>
|  7> %pal nprocs 4
|  8> end
|  9>
| 10> %scf
| 11>   MaxIter 150
| 12> end
| 13>
| 14>
| 15>                          ****END OF INPUT****

CARTESIAN COORDINATES (ANGSTROEM)
---------------------------------
  C      3.488276    1.600919   -1.522040
  C      4.342970    1.313419   -2.756826
  C      2.810285    0.428783   -1.014196
  H      5.132033    0.604994   -2.484466
  C      3.535896    0.749253   -3.924604
  H      4.841247    2.242136   -3.054083
  H      2.991617   -0.132199   -3.574137
  H      4.225505    0.392784   -4.695962
  C      2.564776    1.750890   -4.544523
  H      1.918749    2.171679   -3.769419
  C      1.686235    1.161657   -5.650111
  H      3.132494    2.594775   -4.951604
  C      0.839616   -0.037582   -5.220473
  H      2.323886    0.866395   -6.490796
  H      1.029518    1.951850   -6.029329
  C     -0.151019    0.254955   -4.094256
  H      1.499442   -0.857141   -4.922958
  H      0.290097   -0.410143   -6.091131
  H      0.328265    0.833022   -3.299125
  C     -0.721843   -0.999513   -3.439309
  H     -0.957367    0.884951   -4.485450
  H     -1.083403   -1.697555   -4.205656
  H     -1.581056   -0.723848   -2.820490
  C      0.287250   -1.711771   -2.527405
  H      1.131780   -2.067380   -3.159396
  H     -0.204137   -2.637326   -2.170480
  F      0.710505   -0.927506   -1.481767
  H      2.714548    2.331455   -1.760302
  H      4.090991    2.063151   -0.733382
  C      3.290978   -0.418021   -0.129083
  N      2.517536   -1.432017    0.239360
  N      4.535490   -0.284410    0.395800
  H      5.043627    0.571888    0.222899
  H      4.723346   -0.733273    1.281800
  H      1.934787    0.102305   -1.403788
  H      1.674638   -1.505616   -0.316095
  H      2.928503   -2.218502    0.725494

 Total Charge           Charge          ....    0
 Multiplicity           Mult            ....    1
 Number of Electrons    NEL             ....  112
 Basis Dimension        Dim             ....  467

ORBITAL ENERGIES
----------------

  NO   OCC          E(Eh)            E(eV)
   0   2.0000     -24.493671      -666.5067
   1   2.0000     -14.175187      -385.7264
   2   2.0000     -14.157825      -385.2540
   3   2.0000     -10.177039      -276.9313
   4   2.0000     -10.109664      -275.0979
   5   2.0000     -10.097885      -274.7774
   6   2.0000     -10.082344      -274.3545
   7   2.0000     -10.078191      -274.2415
   8   2.0000     -10.073338      -274.1095
   9   2.0000     -10.065717      -273.9021
  10   2.0000     -10.060264      -273.7537
  11   2.0000     -10.054971      -273.6097
  12   2.0000     -10.048477      -273.4329
  13   2.0000      -9.983055      -271.6527
  14   2.0000      -1.301837       -35.4248
  15   2.0000      -1.035883       -28.1878
  16   2.0000      -0.947499       -25.7828
  17   2.0000      -0.925335       -25.1797
  18   2.0000      -0.900152       -24.4944
  19   2.0000      -0.869983       -23.6734
  20   2.0000      -0.835309       -22.7299
  21   2.0000      -0.796152       -21.6644
  22   2.0000      -0.771502       -20.9936
  23   2.0000      -0.737860       -20.0782
  24   2.0000      -0.709713       -19.3123
  25   2.0000      -0.695603       -18.9283
  26   2.0000      -0.671076       -18.2609
  27   2.0000      -0.653321       -17.7778
  28   2.0000      -0.643566       -17.5123
  29   2.0000      -0.627398       -17.0724
  30   2.0000      -0.619747       -16.8642
  31   2.0000      -0.603261       -16.4156
  32   2.0000      -0.592022       -16.1097
  33   2.0000      -0.571759       -15.5584
  34   2.0000      -0.561722       -15.2852
  35   2.0000      -0.549203       -14.9446
  36   2.0000      -0.541496       -14.7349
  37   2.0000      -0.528642       -14.3851
  38   2.0000      -0.517606       -14.0848
  39   2.0000      -0.505956       -13.7678
  40   2.0000      -0.498929       -13.5765
  41   2.0000      -0.483476       -13.1561
  42   2.0000      -0.474704       -12.9174
  43   2.0000      -0.467853       -12.7309
  44   2.0000      -0.461779       -12.5657
  45   2.0000      -0.458583       -12.4787
  46   2.0000      -0.437961       -11.9175
  47   2.0000      -0.429486       -11.6869
  48   2.0000      -0.419578       -11.4173
  49   2.0000      -0.416487       -11.3332
  50   2.0000      -0.413388       -11.2489
  51   2.0000      -0.397488       -10.8162
  52   2.0000      -0.390874       -10.6362
  53   2.0000      -0.384687       -10.4679
  54   2.0000      -0.349498        -9.5103
  55   2.0000      -0.239676        -6.5219
  56   0.0000       0.069503         1.8913
  57   0.0000       0.082680         2.2498
  58   0.0000       0.082952         2.2572
  59   0.0000       0.089034         2.4227
  60   0.0000       0.104324         2.8388

MULLIKEN ATOMIC CHARGES
-----------------------
   0 C :    0.678701
   1 C :    0.690592
   2 C :    0.509812
   3 H :   -0.177669
   4 C :    0.550950
   5 H :   -0.163059
   6 H :   -0.575963
   7 H :   -0.188754
   8 C :    0.194602
   9 H :   -0.113495
  10 C :    0.845377
  11 H :   -0.335470
  12 C :    0.209232
  13 H :   -0.108290
  14 H :   -0.229147
  15 C :    0.495992
  16 H :   -0.190565
  17 H :   -0.324179
  18 H :   -0.486493
  19 C :    0.507887
  20 H :   -0.215360
  21 H :   -0.150016
  22 H :   -0.129681
  23 C :    1.008941
  24 H :   -0.192762
  25 H :   -0.338613
  26 F :   -0.436213
  27 H :   -0.070708
  28 H :   -0.279725
  29 C :    0.145148
  30 N :    0.535437
  31 N :    0.228597
  32 H :   -0.081651
  33 H :   -0.275687
  34 H :   -1.020923
  35 H :   -0.252538
  36 H :   -0.264309
Sum of atomic charges:    0.0000000

LOEWDIN ATOMIC CHARGES
----------------------
   0 C :   -0.055945
   1 C :   -0.037384
   2 C :   -0.020654
   3 H :    0.024011
   4 C :   -0.039206
   5 H :    0.022043
   6 H :    0.000688
   7 H :    0.030990
   8 C :   -0.043105
   9 H :    0.003862
  10 C :   -0.040459
  11 H :    0.031197
  12 C :   -0.045039
  13 H :    0.028062
  14 H :    0.027376
  15 C :   -0.032433
  16 H :    0.001397
  17 H :    0.029110
  18 H :    0.012203
  19 C :   -0.020365
  20 H :    0.035683
  21 H :    0.041568
  22 H :    0.034337
  23 C :    0.136138
  24 H :    0.040882
  25 H :    0.043828
  26 F :   -0.195435
  27 H :    0.010321
  28 H :    0.010703
  29 C :   -0.214648
  30 N :    0.207092
  31 N :    0.213464
  32 H :   -0.026287
  33 H :   -0.017385
  34 H :   -0.109448
  35 H :   -0.078283
  36 H :   -0.008880

  Mayer bond orders larger than 0.100000
B(  0-C ,  1-C ) :   1.0547 B(  0-C ,  2-C ) :   0.9386 B(  0-C ,  3-H ) :   0.1462
B(  0-C ,  4-C ) :   0.1352 B(  0-C ,  5-H ) :   0.2313 B(  0-C , 27-H ) :   0.7385
B(  0-C , 28-H ) :   0.4776 B(  0-C , 29-C ) :   0.1136 B(  0-C , 34-H ) :   0.6719
B(  1-C ,  3-H ) :   0.6505 B(  1-C ,  4-C ) :   1.2334 B(  1-C ,  5-H ) :   0.7044
B(  1-C ,  6-H ) :   0.1523 B(  1-C ,  7-H ) :   0.1208 B(  2-C , 27-H ) :   0.3597
B(  2-C , 28-H ) :   0.4111 B(  2-C , 29-C ) :   1.9044 B(  2-C , 30-N ) :   0.3226
B(  2-C , 31-N ) :   0.2103 B(  2-C , 32-H ) :  -0.1649 B(  2-C , 34-H ) :  -0.5915
B(  3-H ,  4-C ) :   0.2815 B(  3-H ,  5-H ) :  -0.1261 B(  4-C ,  5-H ) :   0.1270
B(  4-C ,  6-H ) :   0.6130 B(  4-C ,  7-H ) :   0.6750 B(  4-C ,  8-C ) :   1.1429
B(  4-C , 11-H ) :   0.1753 B(  6-H ,  8-C ) :   0.2149 B(  6-H , 34-H ) :   0.1195
B(  7-H ,  8-C ) :   0.1698 B(  8-C ,  9-H ) :   0.7948 B(  8-C , 10-C ) :   1.1230
B(  8-C , 11-H ) :   0.8483 B(  8-C , 12-C ) :   0.1713 B(  8-C , 13-H ) :   0.1198
B(  8-C , 14-H ) :   0.3704 B(  9-H , 18-H ) :   0.1051 B( 10-C , 12-C ) :   1.1796
B( 10-C , 13-H ) :   0.6135 B( 10-C , 14-H ) :   0.5705 B( 12-C , 13-H ) :   0.3015
B( 12-C , 14-H ) :   0.1117 B( 12-C , 15-C ) :   1.1454 B( 12-C , 16-H ) :   0.8313
B( 12-C , 17-H ) :   0.7923 B( 12-C , 18-H ) :   0.2058 B( 12-C , 20-H ) :   0.2140
B( 13-H , 14-H ) :  -0.1725 B( 15-C , 16-H ) :   0.1201 B( 15-C , 17-H ) :   0.2699
B( 15-C , 18-H ) :   0.7041 B( 15-C , 19-C ) :   1.1862 B( 15-C , 20-H ) :   0.7403
B( 15-C , 21-H ) :   0.1003 B( 15-C , 22-H ) :   0.2768 B( 15-C , 23-C ) :   0.1126
B( 18-H , 19-C ) :   0.1653 B( 18-H , 34-H ) :   0.1210 B( 19-C , 21-H ) :   0.7115
B( 19-C , 22-H ) :   0.6459 B( 19-C , 23-C ) :   1.1956 B( 19-C , 24-H ) :   0.1351
B( 19-C , 25-H ) :   0.1629 B( 21-H , 23-C ) :   0.1890 B( 22-H , 23-C ) :   0.1701
B( 23-C , 24-H ) :   0.7548 B( 23-C , 25-H ) :   0.8234 B( 23-C , 26-F ) :   0.6879
B( 24-H , 26-F ) :   0.1762 B( 27-H , 34-H ) :  -0.2207 B( 28-H , 34-H ) :   0.1432
B( 29-C , 30-N ) :   0.8269 B( 29-C , 31-N ) :   0.9892 B( 29-C , 34-H ) :   0.5492
B( 30-N , 35-H ) :   1.1361 B( 30-N , 36-H ) :   1.1289 B( 31-N , 32-H ) :   1.0408
B( 31-N , 33-H ) :   1.1931 B( 32-H , 33-H ) :  -0.1470 B( 35-H , 36-H ) :  -0.1311

FINAL SINGLE POINT ENERGY      -640.214234569457

DIPOLE MOMENT
-------------
                                X             Y             Z
Electronic contribution:     -1.59895      -4.84309      10.65205
Nuclear contribution   :      1.15699       3.94991     -10.89335
                        -----------------------------------------
Total Dipole Moment    :     -0.44197      -0.89318      -0.24130
                        -----------------------------------------
Magnitude (a.u.)       :      1.02534
Magnitude (Debye)      :      2.60622

Rotational constants in cm-1:     0.026548     0.016177     0.010851
Rotational constants in MHz :   795.884848   484.988695   325.313537

                             ****ORCA TERMINATED NORMALLY****
TOTAL RUN TIME: 0 days 0 hours 4 minutes 4 seconds 308 msec
