                         Program Version 5.0.0 -  RELEASE  -
|  1> !BLYP D3BJ RIJCOSX def2-TZVP def2/J TightSCF
|  2> *xyz -1 1
|  3> C         -0.10608        1.76991       -4.08984
|  4> C         -0.25875        1.00432       -5.40983
|  5> C          0.39596       -0.37070       -5.33994
|  6> H          0.23915        1.56939       -6.20125
|  7> H         -1.30936        0.88869       -5.68245
|  8> O         -0.32633       -1.39040       -5.49128
|  9> O          1.61941       -0.40073       -5.03683
| 10> H         -0.57627        2.72718       -4.17630
| 11> H          0.93321        1.90140       -3.87192
| 12> H         -0.56868        1.21534       -3.30031
| 13> *
| 14> %MaxCore 64000
| 15>
| 16> %pal nprocs 4
| 17> end
| 18>
| 19> %scf
| 20>   MaxIter 150
| 21> end
| 22>
| 23>
| 24>                          ****END OF INPUT****

CARTESIAN COORDINATES (ANGSTROEM)
---------------------------------
  C     -0.106080    1.769910   -4.089840
  C     -0.258750    1.004320   -5.409830
  C      0.395960   -0.370700   -5.339940
  H      0.239150    1.569390   -6.201250
  H     -1.309360    0.888690   -5.682450
  O     -0.326330   -1.390400   -5.491280
  O      1.619410   -0.400730   -5.036830
  H     -0.576270    2.727180   -4.176300
  H      0.933210    1.901400   -3.871920
  H     -0.568680    1.215340   -3.300310

 Total Charge           Charge          ....   -1
 Multiplicity           Mult            ....    1
 Number of Electrons    NEL             ....   40
 Basis Dimension        Dim             ....  185

ORBITAL ENERGIES
----------------

  NO   OCC          E(Eh)            E(eV)
   0   2.0000     -18.495859      -503.2979
   1   2.0000     -18.495192      -503.2798
   2   2.0000      -9.769772      -265.8490
   3   2.0000      -9.735390      -264.9134
   4   2.0000      -9.723189      -264.5814
   5   2.0000      -0.711878       -19.3712
   6   2.0000      -0.624030       -16.9807
   7   2.0000      -0.521151       -14.1812
   8   2.0000      -0.399395       -10.8681
   9   2.0000      -0.255942        -6.9645
  10   2.0000      -0.234691        -6.3863
  11   2.0000      -0.198108        -5.3908
  12   2.0000      -0.171843        -4.6761
  13   2.0000      -0.156917        -4.2699
  14   2.0000      -0.146728        -3.9927
  15   2.0000      -0.117695        -3.2026
  16   2.0000      -0.104698        -2.8490
  17   2.0000       0.004642         0.1263
  18   2.0000       0.015408         0.4193
  19   2.0000       0.034578         0.9409
  20   0.0000       0.165466         4.5026
  21   0.0000       0.205235         5.5847
  22   0.0000       0.218619         5.9489
  23   0.0000       0.227915         6.2019
  24   0.0000       0.235728         6.4145

MULLIKEN ATOMIC CHARGES
-----------------------
   0 C :   -0.276526
   1 C :   -0.079647
   2 C :    0.133160
   3 H :    0.005145
   4 H :    0.005101
   5 O :   -0.479058
   6 O :   -0.484235
   7 H :    0.034441
   8 H :    0.071592
   9 H :    0.070029
Sum of atomic charges:   -1.0000000

LOEWDIN ATOMIC CHARGES
----------------------
   0 C :   -0.319822
   1 C :   -0.290850
   2 C :   -0.719291
   3 H :    0.115258
   4 H :    0.110343
   5 O :   -0.096165
   6 O :   -0.098551
   7 H :    0.088386
   8 H :    0.106031
   9 H :    0.104661

  Mayer bond orders larger than 0.100000
B(  0-C ,  1-C ) :   0.9423 B(  0-C ,  7-H ) :   0.9613 B(  0-C ,  8-H ) :   0.9667
B(  0-C ,  9-H ) :   0.9819 B(  1-C ,  2-C ) :   0.9103 B(  1-C ,  3-H ) :   0.9408
B(  1-C ,  4-H ) :   0.9361 B(  2-C ,  5-O ) :   1.9350 B(  2-C ,  6-O ) :   1.8770

Dispersion correction           -0.013584565
FINAL SINGLE POINT ENERGY      -267.877369387609

DIPOLE MOMENT
-------------
                                X             Y             Z
Electronic contribution:      1.81294      -5.49917      -1.71476
Nuclear contribution   :     -2.46071       7.20791       1.95694
                        -----------------------------------------
Total Dipole Moment    :     -0.64778       1.70875       0.24217
                        -----------------------------------------
Magnitude (a.u.)       :      1.84339
Magnitude (Debye)      :      4.68553

Rotational constants in cm-1:     0.309435     0.135317     0.107436
Rotational constants in MHz :  9276.637721  4056.700783  3220.846587

                             ****ORCA TERMINATED NORMALLY****
TOTAL RUN TIME: 0 days 0 hours 0 minutes 9 seconds 153 msec
