                         Program Version 5.0.0 -  RELEASE  -
|  1> !BLYP D3BJ RIJCOSX def2-TZVP def2/J TightSCF
|  2> *xyz 1 1
|  3> C          0.81607       -2.10149       -2.18655
|  4> H          1.69623       -2.36869       -1.60046
|  5> N          1.10055       -2.46749       -3.59927
|  6> C          0.51624       -0.61363       -2.03937
|  7> H         -0.02007       -2.71285       -1.84084
|  8> H          1.70061       -1.75723       -4.07838
|  9> H          0.29386       -2.35977       -4.25632
| 10> H          1.50132       -3.42848       -3.69491
| 11> H         -0.34841       -0.36504       -2.61858
| 12> H          1.35358       -0.04503       -2.38643
| 13> H          0.33317       -0.38682       -1.00984
| 14> *
| 15> %MaxCore 64000
| 16>
| 17> %pal nprocs 4
| 18> end
| 19>
| 20> %scf
| 21>   MaxIter 150
| 22> end
| 23>
| 24>
| 25>                          ****END OF INPUT****

CARTESIAN COORDINATES (ANGSTROEM)
---------------------------------
  C      0.816070   -2.101490   -2.186550
  H      1.696230   -2.368690   -1.600460
  N      1.100550   -2.467490   -3.599270
  C      0.516240   -0.613630   -2.039370
  H     -0.020070   -2.712850   -1.840840
  H      1.700610   -1.757230   -4.078380
  H      0.293860   -2.359770   -4.256320
  H      1.501320   -3.428480   -3.694910
  H     -0.348410   -0.365040   -2.618580
  H      1.353580   -0.045030   -2.386430
  H      0.333170   -0.386820   -1.009840

 Total Charge           Charge          ....    1
 Multiplicity           Mult            ....    1
 Number of Electrons    NEL             ....   26
 Basis Dimension        Dim             ....  141

ORBITAL ENERGIES
----------------

  NO   OCC          E(Eh)            E(eV)
   0   2.0000     -14.341645      -390.2560
   1   2.0000     -10.158158      -276.4175
   2   2.0000     -10.080336      -274.2999
   3   2.0000      -1.124015       -30.5860
   4   2.0000      -0.890700       -24.2372
   5   2.0000      -0.786065       -21.3899
   6   2.0000      -0.733730       -19.9658
   7   2.0000      -0.717345       -19.5199
   8   2.0000      -0.650618       -17.7042
   9   2.0000      -0.588277       -16.0078
  10   2.0000      -0.537211       -14.6183
  11   2.0000      -0.524003       -14.2588
  12   2.0000      -0.506937       -13.7944
  13   0.0000      -0.225574        -6.1382
  14   0.0000      -0.168133        -4.5751
  15   0.0000      -0.163475        -4.4484
  16   0.0000      -0.139825        -3.8048
  17   0.0000      -0.097705        -2.6587

MULLIKEN ATOMIC CHARGES
-----------------------
   0 C :   -0.140848
   1 H :    0.173876
   2 N :   -0.267299
   3 C :   -0.321464
   4 H :    0.178113
   5 H :    0.303843
   6 H :    0.306973
   7 H :    0.325748
   8 H :    0.136351
   9 H :    0.137012
  10 H :    0.167695
Sum of atomic charges:    1.0000000

LOEWDIN ATOMIC CHARGES
----------------------
   0 C :   -0.272816
   1 H :    0.152058
   2 N :    0.158412
   3 C :   -0.268428
   4 H :    0.151878
   5 H :    0.224197
   6 H :    0.223759
   7 H :    0.227975
   8 H :    0.128258
   9 H :    0.127947
  10 H :    0.146761

  Mayer bond orders larger than 0.100000
B(  0-C ,  1-H ) :   0.9472 B(  0-C ,  2-N ) :   0.8443 B(  0-C ,  3-C ) :   0.9766
B(  0-C ,  4-H ) :   0.9498 B(  2-N ,  5-H ) :   0.8821 B(  2-N ,  6-H ) :   0.8831
B(  2-N ,  7-H ) :   0.8744 B(  3-C ,  8-H ) :   0.9607 B(  3-C ,  9-H ) :   0.9571
B(  3-C , 10-H ) :   0.9569

Dispersion correction           -0.012413137
FINAL SINGLE POINT ENERGY      -135.515891389898

DIPOLE MOMENT
-------------
                                X             Y             Z
Electronic contribution:      0.41609      -1.42610      -1.05802
Nuclear contribution   :     -0.07506       0.54337      -0.16191
                        -----------------------------------------
Total Dipole Moment    :      0.34103      -0.88273      -1.21993
                        -----------------------------------------
Magnitude (a.u.)       :      1.54394
Magnitude (Debye)      :      3.92437

Rotational constants in cm-1:     0.999557     0.280801     0.246932
Rotational constants in MHz : 29965.963633  8418.199581  7402.841054

                             ****ORCA TERMINATED NORMALLY****
TOTAL RUN TIME: 0 days 0 hours 0 minutes 7 seconds 652 msec
