                         Program Version 5.0.0 -  RELEASE  -
|  1> !BLYP D3BJ RIJCOSX def2-TZVP def2/J TightSCF
|  2> *xyz 0 1
|  3> C         -0.10608        1.76991       -4.08984
|  4> C         -0.25875        1.00432       -5.40983
|  5> C          0.39596       -0.37070       -5.33994
|  6> H          0.23915        1.56939       -6.20125
|  7> H         -1.30936        0.88869       -5.68245
|  8> F         -0.32633       -1.39040       -5.49128
|  9> O          1.61941       -0.40073       -5.03683
| 10> H         -0.57627        2.72718       -4.17630
| 11> H          0.93321        1.90140       -3.87192
| 12> H         -0.56868        1.21534       -3.30031
| 13> *
| 14> %MaxCore 64000
| 15>
| 16> %pal nprocs 4
| 17> end
| 18>
| 19> %scf
| 20>   MaxIter 150
| 21> end
| 22>
| 23>
| 24>                          ****END OF INPUT****

CARTESIAN COORDINATES (ANGSTROEM)
---------------------------------
  C     -0.106080    1.769910   -4.089840
  C     -0.258750    1.004320   -5.409830
  C      0.395960   -0.370700   -5.339940
  H      0.239150    1.569390   -6.201250
  H     -1.309360    0.888690   -5.682450
  F     -0.326330   -1.390400   -5.491280
  O      1.619410   -0.400730   -5.036830
  H     -0.576270    2.727180   -4.176300
  H      0.933210    1.901400   -3.871920
  H     -0.568680    1.215340   -3.300310

 Total Charge           Charge          ....    0
 Multiplicity           Mult            ....    1
 Number of Electrons    NEL             ....   40
 Basis Dimension        Dim             ....  185

ORBITAL ENERGIES
----------------

  NO   OCC          E(Eh)            E(eV)
   0   2.0000     -24.350195      -662.6025
   1   2.0000     -18.772917      -510.8370
   2   2.0000     -10.072434      -274.0849
   3   2.0000      -9.935292      -270.3530
   4   2.0000      -9.908481      -269.6235
   5   2.0000      -1.204470       -32.7753
   6   2.0000      -0.933674       -25.4066
   7   2.0000      -0.720737       -19.6122
   8   2.0000      -0.616642       -16.7797
   9   2.0000      -0.569624       -15.5003
  10   2.0000      -0.482338       -13.1251
  11   2.0000      -0.467738       -12.7278
  12   2.0000      -0.444895       -12.1062
  13   2.0000      -0.411962       -11.2101
  14   2.0000      -0.379807       -10.3351
  15   2.0000      -0.350745        -9.5443
  16   2.0000      -0.330365        -8.9897
  17   2.0000      -0.326027        -8.8716
  18   2.0000      -0.299747        -8.1565
  19   2.0000      -0.239000        -6.5035
  20   0.0000      -0.064119        -1.7448
  21   0.0000       0.012655         0.3444
  22   0.0000       0.051491         1.4011
  23   0.0000       0.063197         1.7197
  24   0.0000       0.075054         2.0423

MULLIKEN ATOMIC CHARGES
-----------------------
   0 C :   -0.307468
   1 C :   -0.169544
   2 C :    0.333166
   3 H :    0.107187
   4 H :    0.087926
   5 F :   -0.081355
   6 O :   -0.304228
   7 H :    0.106221
   8 H :    0.125429
   9 H :    0.102666
Sum of atomic charges:   -0.0000000

LOEWDIN ATOMIC CHARGES
----------------------
   0 C :   -0.278651
   1 C :   -0.256327
   2 C :   -0.518024
   3 H :    0.152097
   4 H :    0.134259
   5 F :    0.334578
   6 O :    0.075308
   7 H :    0.116678
   8 H :    0.122876
   9 H :    0.117205

  Mayer bond orders larger than 0.100000
B(  0-C ,  1-C ) :   0.9527 B(  0-C ,  7-H ) :   0.9667 B(  0-C ,  8-H ) :   0.9691
B(  0-C ,  9-H ) :   0.9744 B(  1-C ,  2-C ) :   0.9797 B(  1-C ,  3-H ) :   0.9394
B(  1-C ,  4-H ) :   0.9492 B(  2-C ,  5-F ) :   1.1746 B(  2-C ,  6-O ) :   2.0601

Dispersion correction           -0.012887732
FINAL SINGLE POINT ENERGY      -292.452745229211

DIPOLE MOMENT
-------------
                                X             Y             Z
Electronic contribution:      0.89017      -8.22415      -2.56196
Nuclear contribution   :     -1.80992       8.85192       2.42184
                        -----------------------------------------
Total Dipole Moment    :     -0.91975       0.62777      -0.14011
                        -----------------------------------------
Magnitude (a.u.)       :      1.12235
Magnitude (Debye)      :      2.85279

Rotational constants in cm-1:     0.298360     0.128849     0.102271
Rotational constants in MHz :  8944.606599  3862.796179  3066.020510

                             ****ORCA TERMINATED NORMALLY****
TOTAL RUN TIME: 0 days 0 hours 0 minutes 9 seconds 230 msec
