                         Program Version 5.0.0 -  RELEASE  -
|  1> !BLYP D3BJ RIJCOSX def2-TZVP def2/J TightSCF
|  2> *xyz 0 1
|  3> C          0.81607       -2.10149       -2.18655
|  4> H          1.69623       -2.36869       -1.60046
|  5> C          1.10055       -2.46749       -3.59927
|  6> C          0.51624       -0.61363       -2.03937
|  7> H         -0.02007       -2.71285       -1.84084
|  8> H          1.70061       -1.75723       -4.07838
|  9> H          0.29386       -2.35977       -4.25632
| 10> H          1.50132       -3.42848       -3.69491
| 11> H         -0.34841       -0.36504       -2.61858
| 12> H          1.35358       -0.04503       -2.38643
| 13> H          0.33317       -0.38682       -1.00984
| 14> *
| 15> %MaxCore 64000
| 16>
| 17> %pal nprocs 4
| 18> end
| 19>
| 20> %scf
| 21>   MaxIter 150
| 22> end
| 23>
| 24>
| 25>                          ****END OF INPUT****

CARTESIAN COORDINATES (ANGSTROEM)
---------------------------------
  C      0.816070   -2.101490   -2.186550
  H      1.696230   -2.368690   -1.600460
  C      1.100550   -2.467490   -3.599270
  C      0.516240   -0.613630   -2.039370
  H     -0.020070   -2.712850   -1.840840
  H      1.700610   -1.757230   -4.078380
  H      0.293860   -2.359770   -4.256320
  H      1.501320   -3.428480   -3.694910
  H     -0.348410   -0.365040   -2.618580
  H      1.353580   -0.045030   -2.386430
  H      0.333170   -0.386820   -1.009840

 Total Charge           Charge          ....    0
 Multiplicity           Mult            ....    1
 Number of Electrons    NEL             ....   26
 Basis Dimension        Dim             ....  141

ORBITAL ENERGIES
----------------

  NO   OCC          E(Eh)            E(eV)
   0   2.0000      -9.892071      -269.1769
   1   2.0000      -9.882256      -268.9098
   2   2.0000      -9.869835      -268.5719
   3   2.0000      -0.709281       -19.3005
   4   2.0000      -0.615327       -16.7439
   5   2.0000      -0.524558       -14.2739
   6   2.0000      -0.406945       -11.0735
   7   2.0000      -0.393685       -10.7127
   8   2.0000      -0.362922        -9.8756
   9   2.0000      -0.328728        -8.9452
  10   2.0000      -0.297388        -8.0923
  11   2.0000      -0.292485        -7.9589
  12   2.0000      -0.277558        -7.5527
  13   0.0000       0.020724         0.5639
  14   0.0000       0.063084         1.7166
  15   0.0000       0.064159         1.7458
  16   0.0000       0.073147         1.9904
  17   0.0000       0.092653         2.5212

MULLIKEN ATOMIC CHARGES
-----------------------
   0 C :   -0.100503
   1 H :    0.070350
   2 C :   -0.312683
   3 C :   -0.295361
   4 H :    0.071184
   5 H :    0.091854
   6 H :    0.097962
   7 H :    0.098356
   8 H :    0.089632
   9 H :    0.092701
  10 H :    0.096507
Sum of atomic charges:    0.0000000

LOEWDIN ATOMIC CHARGES
----------------------
   0 C :   -0.314084
   1 H :    0.129356
   2 C :   -0.312491
   3 C :   -0.298415
   4 H :    0.128336
   5 H :    0.111474
   6 H :    0.109537
   7 H :    0.109206
   8 H :    0.112571
   9 H :    0.112426
  10 H :    0.112083

  Mayer bond orders larger than 0.100000
B(  0-C ,  1-H ) :   0.9653 B(  0-C ,  2-C ) :   0.9688 B(  0-C ,  3-C ) :   0.9687
B(  0-C ,  4-H ) :   0.9657 B(  2-C ,  5-H ) :   0.9760 B(  2-C ,  6-H ) :   0.9757
B(  2-C ,  7-H ) :   0.9770 B(  3-C ,  8-H ) :   0.9755 B(  3-C ,  9-H ) :   0.9749
B(  3-C , 10-H ) :   0.9774

Dispersion correction           -0.012496733
FINAL SINGLE POINT ENERGY      -119.099163095140

DIPOLE MOMENT
-------------
                                X             Y             Z
Electronic contribution:     -0.01817      -0.30995       0.46725
Nuclear contribution   :      0.01737       0.30387      -0.47422
                        -----------------------------------------
Total Dipole Moment    :     -0.00080      -0.00608      -0.00697
                        -----------------------------------------
Magnitude (a.u.)       :      0.00928
Magnitude (Debye)      :      0.02359

Rotational constants in cm-1:     1.006891     0.295208     0.258491
Rotational constants in MHz : 30185.831813  8850.104914  7749.351732

                             ****ORCA TERMINATED NORMALLY****
TOTAL RUN TIME: 0 days 0 hours 0 minutes 8 seconds 392 msec
