                         Program Version 5.0.0 -  RELEASE  -
|  1> !BLYP D3BJ RIJCOSX def2-TZVP def2/J TightSCF
|  2> *xyz 0 1
|  3> C         -0.10608        1.76991       -4.08984
|  4> C         -0.25875        1.00432       -5.40983
|  5> C          0.39596       -0.37070       -5.33994
|  6> H          0.23915        1.56939       -6.20125
|  7> H         -1.30936        0.88869       -5.68245
|  8> O         -0.32633       -1.39040       -5.49128
|  9> F          1.61941       -0.40073       -5.03683
| 10> H         -0.57627        2.72718       -4.17630
| 11> H          0.93321        1.90140       -3.87192
| 12> H         -0.56868        1.21534       -3.30031
| 13> *
| 14> %MaxCore 64000
| 15>
| 16> %pal nprocs 4
| 17> end
| 18>
| 19> %scf
| 20>   MaxIter 150
| 21> end
| 22>
| 23>
| 24>                          ****END OF INPUT****

CARTESIAN COORDINATES (ANGSTROEM)
---------------------------------
  C     -0.106080    1.769910   -4.089840
  C     -0.258750    1.004320   -5.409830
  C      0.395960   -0.370700   -5.339940
  H      0.239150    1.569390   -6.201250
  H     -1.309360    0.888690   -5.682450
  O     -0.326330   -1.390400   -5.491280
  F      1.619410   -0.400730   -5.036830
  H     -0.576270    2.727180   -4.176300
  H      0.933210    1.901400   -3.871920
  H     -0.568680    1.215340   -3.300310

 Total Charge           Charge          ....    0
 Multiplicity           Mult            ....    1
 Number of Electrons    NEL             ....   40
 Basis Dimension        Dim             ....  185

ORBITAL ENERGIES
----------------

  NO   OCC          E(Eh)            E(eV)
   0   2.0000     -24.348785      -662.5641
   1   2.0000     -18.773427      -510.8509
   2   2.0000     -10.071591      -274.0619
   3   2.0000      -9.935030      -270.3459
   4   2.0000      -9.913366      -269.7564
   5   2.0000      -1.203109       -32.7382
   6   2.0000      -0.933419       -25.3996
   7   2.0000      -0.725087       -19.7306
   8   2.0000      -0.614271       -16.7152
   9   2.0000      -0.572873       -15.5887
  10   2.0000      -0.483567       -13.1585
  11   2.0000      -0.470737       -12.8094
  12   2.0000      -0.439640       -11.9632
  13   2.0000      -0.411621       -11.2008
  14   2.0000      -0.381662       -10.3856
  15   2.0000      -0.353131        -9.6092
  16   2.0000      -0.333930        -9.0867
  17   2.0000      -0.330704        -8.9989
  18   2.0000      -0.304455        -8.2846
  19   2.0000      -0.235822        -6.4171
  20   0.0000      -0.060704        -1.6518
  21   0.0000       0.008721         0.2373
  22   0.0000       0.050418         1.3719
  23   0.0000       0.065607         1.7853
  24   0.0000       0.079357         2.1594

MULLIKEN ATOMIC CHARGES
-----------------------
   0 C :   -0.314374
   1 C :   -0.165458
   2 C :    0.324861
   3 H :    0.095007
   4 H :    0.111520
   5 O :   -0.297649
   6 F :   -0.087724
   7 H :    0.111288
   8 H :    0.108520
   9 H :    0.114010
Sum of atomic charges:   -0.0000000

LOEWDIN ATOMIC CHARGES
----------------------
   0 C :   -0.284909
   1 C :   -0.251136
   2 C :   -0.520617
   3 H :    0.144596
   4 H :    0.147256
   5 O :    0.076462
   6 F :    0.332893
   7 H :    0.118658
   8 H :    0.117284
   9 H :    0.119514

  Mayer bond orders larger than 0.100000
B(  0-C ,  1-C ) :   0.9396 B(  0-C ,  7-H ) :   0.9677 B(  0-C ,  8-H ) :   0.9704
B(  0-C ,  9-H ) :   0.9731 B(  1-C ,  2-C ) :   0.9955 B(  1-C ,  3-H ) :   0.9329
B(  1-C ,  4-H ) :   0.9609 B(  2-C ,  5-O ) :   2.0883 B(  2-C ,  6-F ) :   1.1562

Dispersion correction           -0.012797336
FINAL SINGLE POINT ENERGY      -292.453976126606

DIPOLE MOMENT
-------------
                                X             Y             Z
Electronic contribution:      4.07746      -6.56619      -1.81051
Nuclear contribution   :     -3.93139       7.77287       1.92635
                        -----------------------------------------
Total Dipole Moment    :      0.14607       1.20668       0.11584
                        -----------------------------------------
Magnitude (a.u.)       :      1.22100
Magnitude (Debye)      :      3.10352

Rotational constants in cm-1:     0.286068     0.133630     0.103472
Rotational constants in MHz :  8576.109806  4006.118234  3102.010802

                             ****ORCA TERMINATED NORMALLY****
TOTAL RUN TIME: 0 days 0 hours 0 minutes 9 seconds 265 msec
