                         Program Version 5.0.0 -  RELEASE  -
|  1> !BLYP D3BJ RIJCOSX def2-TZVP def2/J TightSCF xyzfile
|  2>
|  3> *xyzfile 0 1 D1.xyz
|  4>
|  5> %MaxCore 64000
|  6>
|  7> %pal nprocs 18
|  8> end
|  9>
| 10> %scf
| 11>   MaxIter 150
| 12> end
| 13>
| 14>
| 15>                          ****END OF INPUT****

CARTESIAN COORDINATES (ANGSTROEM)
---------------------------------
  C      0.816067   -2.101491   -2.186546
  H      1.696232   -2.368691   -1.600457
  C      1.100552   -2.467492   -3.599269
  C      0.516243   -0.613634   -2.039373
  H     -0.020066   -2.712849   -1.840844
  C     -0.868621   -0.193925   -2.546303
  C     -0.984801    1.284739   -2.928686
  H     -0.764939    1.904116   -2.051568
  H     -2.032613    1.478953   -3.178952
  C     -0.106085    1.769914   -4.089836
  H     -0.347744    2.822196   -4.262942
  H      0.949683    1.745875   -3.808781
  C     -0.258747    1.004323   -5.409829
  C      0.395958   -0.370696   -5.339939
  H      0.239150    1.569393   -6.201253
  H     -1.309360    0.888694   -5.682455
  H      1.700606   -1.757225   -4.078378
  H      0.293855   -2.359766   -4.256324
  H      1.501324   -3.428479   -3.694915
  F     -0.326329   -1.390398   -5.491279
  O      1.619412   -0.400726   -5.036827
  H     -1.607271   -0.412651   -1.768955
  H     -1.157234   -0.796164   -3.409254
  H      1.299044   -0.056805   -2.558982
  H      0.612393   -0.365579   -0.979171

 Total Charge           Charge          ....    0
 Multiplicity           Mult            ....    1
 Number of Electrons    NEL             ....   80
 Basis Dimension        Dim             ....  400

ORBITAL ENERGIES
----------------

  NO   OCC          E(Eh)            E(eV)
   0   2.0000     -24.358587      -662.8308
   1   2.0000     -18.780670      -511.0480
   2   2.0000     -10.080414      -274.3020
   3   2.0000      -9.936513      -270.3863
   4   2.0000      -9.917186      -269.8603
   5   2.0000      -9.906058      -269.5575
   6   2.0000      -9.898681      -269.3568
   7   2.0000      -9.885513      -268.9985
   8   2.0000      -9.876442      -268.7517
   9   2.0000      -9.828645      -267.4510
  10   2.0000      -1.218559       -33.1587
  11   2.0000      -0.949227       -25.8298
  12   2.0000      -0.743160       -20.2224
  13   2.0000      -0.712344       -19.3839
  14   2.0000      -0.667865       -18.1735
  15   2.0000      -0.632733       -17.2175
  16   2.0000      -0.594710       -16.1829
  17   2.0000      -0.569352       -15.4929
  18   2.0000      -0.532637       -14.4938
  19   2.0000      -0.494072       -13.4444
  20   2.0000      -0.493357       -13.4249
  21   2.0000      -0.474916       -12.9231
  22   2.0000      -0.462693       -12.5905
  23   2.0000      -0.422700       -11.5022
  24   2.0000      -0.403491       -10.9795
  25   2.0000      -0.391795       -10.6613
  26   2.0000      -0.386339       -10.5128
  27   2.0000      -0.372455       -10.1350
  28   2.0000      -0.360790        -9.8176
  29   2.0000      -0.349986        -9.5236
  30   2.0000      -0.330911        -9.0046
  31   2.0000      -0.321430        -8.7466
  32   2.0000      -0.316194        -8.6041
  33   2.0000      -0.305801        -8.3213
  34   2.0000      -0.294285        -8.0079
  35   2.0000      -0.281667        -7.6645
  36   2.0000      -0.271728        -7.3941
  37   2.0000      -0.263736        -7.1766
  38   2.0000      -0.254014        -6.9121
  39   2.0000      -0.218308        -5.9405
  40   0.0000      -0.074989        -2.0406
  41   0.0000       0.008518         0.2318
  42   0.0000       0.035103         0.9552
  43   0.0000       0.040357         1.0982
  44   0.0000       0.041185         1.1207

MULLIKEN ATOMIC CHARGES
-----------------------
   0 C :   -0.077355
   1 H :    0.061184
   2 C :   -0.377388
   3 C :   -0.165678
   4 H :    0.047473
   5 C :   -0.166328
   6 C :   -0.145298
   7 H :    0.077339
   8 H :    0.074951
   9 C :   -0.167443
  10 H :    0.088250
  11 H :    0.112868
  12 C :   -0.141554
  13 C :    0.315821
  14 H :    0.113428
  15 H :    0.082778
  16 H :    0.150903
  17 H :    0.091959
  18 H :    0.076608
  19 F :   -0.079285
  20 O :   -0.301387
  21 H :    0.074128
  22 H :    0.086454
  23 H :    0.100981
  24 H :    0.066590
Sum of atomic charges:    0.0000000

LOEWDIN ATOMIC CHARGES
----------------------
   0 C :   -0.295100
   1 H :    0.130561
   2 C :   -0.332104
   3 C :   -0.260735
   4 H :    0.127047
   5 C :   -0.260034
   6 C :   -0.260536
   7 H :    0.136939
   8 H :    0.132758
   9 C :   -0.251030
  10 H :    0.137841
  11 H :    0.140404
  12 C :   -0.225471
  13 C :   -0.513073
  14 H :    0.156471
  15 H :    0.138431
  16 H :    0.113208
  17 H :    0.102578
  18 H :    0.102092
  19 F :    0.346254
  20 O :    0.100599
  21 H :    0.134820
  22 H :    0.133510
  23 H :    0.135490
  24 H :    0.129080

  Mayer bond orders larger than 0.100000
B(  0-C ,  1-H ) :   0.9538 B(  0-C ,  2-C ) :   0.9712 B(  0-C ,  3-C ) :   0.9824
B(  0-C ,  4-H ) :   0.9577 B(  2-C , 16-H ) :   0.9429 B(  2-C , 17-H ) :   0.9776
B(  2-C , 18-H ) :   0.9646 B(  3-C ,  5-C ) :   0.9427 B(  3-C , 23-H ) :   0.9782
B(  3-C , 24-H ) :   0.9552 B(  5-C ,  6-C ) :   0.9716 B(  5-C , 21-H ) :   0.9570
B(  5-C , 22-H ) :   0.9669 B(  6-C ,  7-H ) :   0.9565 B(  6-C ,  8-H ) :   0.9591
B(  6-C ,  9-C ) :   0.9842 B(  9-C , 10-H ) :   0.9552 B(  9-C , 11-H ) :   0.9663
B(  9-C , 12-C ) :   0.9419 B( 12-C , 13-C ) :   0.9956 B( 12-C , 14-H ) :   0.9347
B( 12-C , 15-H ) :   0.9441 B( 13-C , 19-F ) :   1.1495 B( 13-C , 20-O ) :   1.9889

Dispersion correction           -0.052536264
FINAL SINGLE POINT ENERGY      -488.929033945152

DIPOLE MOMENT
-------------
                                X             Y             Z
Electronic contribution:      0.38587      -2.01606     -10.57475
Nuclear contribution   :     -1.21560       2.80077      10.24180
                        -----------------------------------------
Total Dipole Moment    :     -0.82973       0.78471      -0.33294
                        -----------------------------------------
Magnitude (a.u.)       :      1.18957
Magnitude (Debye)      :      3.02364

Rotational constants in cm-1:     0.051255     0.042531     0.028894
Rotational constants in MHz :  1536.587743  1275.050721   866.218876

                             ****ORCA TERMINATED NORMALLY****
TOTAL RUN TIME: 0 days 0 hours 0 minutes 17 seconds 611 msec
