                         Program Version 5.0.0 -  RELEASE  -
|  1> !BLYP D3BJ RIJCOSX def2-TZVP def2/J TightSCF xyzfile
|  2>
|  3> *xyzfile 0 1 D2.xyz
|  4>
|  5> %MaxCore 64000
|  6>
|  7> %pal nprocs 18
|  8> end
|  9>
| 10> %scf
| 11>   MaxIter 150
| 12> end
| 13>
| 14>
| 15>                          ****END OF INPUT****

CARTESIAN COORDINATES (ANGSTROEM)
---------------------------------
  C      0.816067   -2.101491   -2.186546
  H      1.696232   -2.368691   -1.600457
  C      1.100552   -2.467492   -3.599269
  C      0.516243   -0.613634   -2.039373
  H     -0.020066   -2.712849   -1.840844
  C     -0.868621   -0.193925   -2.546303
  C     -0.984801    1.284739   -2.928686
  H     -0.764939    1.904116   -2.051568
  H     -2.032613    1.478953   -3.178952
  C     -0.106085    1.769914   -4.089836
  H     -0.347744    2.822196   -4.262942
  H      0.949683    1.745875   -3.808781
  C     -0.258747    1.004323   -5.409829
  C      0.395958   -0.370696   -5.339939
  H      0.239150    1.569393   -6.201253
  H     -1.309360    0.888694   -5.682455
  H      1.700606   -1.757225   -4.078378
  H      0.293855   -2.359766   -4.256324
  H      1.501324   -3.428479   -3.694915
  O     -0.326329   -1.390398   -5.491279
  F      1.619412   -0.400726   -5.036827
  H     -1.607271   -0.412651   -1.768955
  H     -1.157234   -0.796164   -3.409254
  H      1.299044   -0.056805   -2.558982
  H      0.612393   -0.365579   -0.979171

 Total Charge           Charge          ....    0
 Multiplicity           Mult            ....    1
 Number of Electrons    NEL             ....   80
 Basis Dimension        Dim             ....  400

ORBITAL ENERGIES
----------------

  NO   OCC          E(Eh)            E(eV)
   0   2.0000     -24.358793      -662.8365
   1   2.0000     -18.780488      -511.0431
   2   2.0000     -10.080038      -274.2918
   3   2.0000      -9.936382      -270.3827
   4   2.0000      -9.920927      -269.9622
   5   2.0000      -9.906047      -269.5573
   6   2.0000      -9.893551      -269.2172
   7   2.0000      -9.889147      -269.0974
   8   2.0000      -9.877450      -268.7791
   9   2.0000      -9.829853      -267.4839
  10   2.0000      -1.218572       -33.1590
  11   2.0000      -0.948808       -25.8184
  12   2.0000      -0.745526       -20.2868
  13   2.0000      -0.713901       -19.4262
  14   2.0000      -0.668509       -18.1911
  15   2.0000      -0.632002       -17.1977
  16   2.0000      -0.594531       -16.1780
  17   2.0000      -0.569931       -15.5086
  18   2.0000      -0.533670       -14.5219
  19   2.0000      -0.499151       -13.5826
  20   2.0000      -0.493977       -13.4418
  21   2.0000      -0.480209       -13.0672
  22   2.0000      -0.450058       -12.2467
  23   2.0000      -0.424105       -11.5405
  24   2.0000      -0.402806       -10.9609
  25   2.0000      -0.392325       -10.6757
  26   2.0000      -0.387425       -10.5424
  27   2.0000      -0.378224       -10.2920
  28   2.0000      -0.361509        -9.8372
  29   2.0000      -0.342932        -9.3317
  30   2.0000      -0.337472        -9.1831
  31   2.0000      -0.327285        -8.9059
  32   2.0000      -0.321967        -8.7612
  33   2.0000      -0.305026        -8.3002
  34   2.0000      -0.288340        -7.8461
  35   2.0000      -0.283025        -7.7015
  36   2.0000      -0.273827        -7.4512
  37   2.0000      -0.260462        -7.0875
  38   2.0000      -0.255883        -6.9629
  39   2.0000      -0.218727        -5.9519
  40   0.0000      -0.073545        -2.0013
  41   0.0000       0.006171         0.1679
  42   0.0000       0.034364         0.9351
  43   0.0000       0.036350         0.9891
  44   0.0000       0.043653         1.1878

MULLIKEN ATOMIC CHARGES
-----------------------
   0 C :   -0.070648
   1 H :    0.058529
   2 C :   -0.371343
   3 C :   -0.172243
   4 H :    0.053217
   5 C :   -0.178672
   6 C :   -0.134880
   7 H :    0.074934
   8 H :    0.077298
   9 C :   -0.191095
  10 H :    0.092737
  11 H :    0.102493
  12 C :   -0.135652
  13 C :    0.316414
  14 H :    0.105803
  15 H :    0.100096
  16 H :    0.083879
  17 H :    0.155075
  18 H :    0.076006
  19 O :   -0.287540
  20 F :   -0.091247
  21 H :    0.069933
  22 H :    0.121383
  23 H :    0.075822
  24 H :    0.069700
Sum of atomic charges:    0.0000000

LOEWDIN ATOMIC CHARGES
----------------------
   0 C :   -0.294782
   1 H :    0.128602
   2 C :   -0.330054
   3 C :   -0.262248
   4 H :    0.129831
   5 C :   -0.261174
   6 C :   -0.260143
   7 H :    0.135574
   8 H :    0.134454
   9 C :   -0.258410
  10 H :    0.138548
  11 H :    0.134187
  12 C :   -0.220720
  13 C :   -0.512378
  14 H :    0.150066
  15 H :    0.150775
  16 H :    0.105455
  17 H :    0.111384
  18 H :    0.102858
  19 O :    0.095004
  20 F :    0.349695
  21 H :    0.133764
  22 H :    0.142028
  23 H :    0.127879
  24 H :    0.129805

  Mayer bond orders larger than 0.100000
B(  0-C ,  1-H ) :   0.9530 B(  0-C ,  2-C ) :   0.9662 B(  0-C ,  3-C ) :   0.9855
B(  0-C ,  4-H ) :   0.9604 B(  2-C , 16-H ) :   0.9724 B(  2-C , 17-H ) :   0.9527
B(  2-C , 18-H ) :   0.9646 B(  3-C ,  5-C ) :   0.9405 B(  3-C , 23-H ) :   0.9795
B(  3-C , 24-H ) :   0.9562 B(  5-C ,  6-C ) :   0.9614 B(  5-C , 21-H ) :   0.9550
B(  5-C , 22-H ) :   0.9693 B(  6-C ,  7-H ) :   0.9574 B(  6-C ,  8-H ) :   0.9580
B(  6-C ,  9-C ) :   0.9844 B(  9-C , 10-H ) :   0.9581 B(  9-C , 11-H ) :   0.9734
B(  9-C , 12-C ) :   0.9219 B( 12-C , 13-C ) :   1.0018 B( 12-C , 14-H ) :   0.9311
B( 12-C , 15-H ) :   0.9592 B( 13-C , 19-O ) :   2.0239 B( 13-C , 20-F ) :   1.1325

Dispersion correction           -0.052423032
FINAL SINGLE POINT ENERGY      -488.928957249970

DIPOLE MOMENT
-------------
                                X             Y             Z
Electronic contribution:      3.60087      -0.37239      -9.82139
Nuclear contribution   :     -3.57245       1.60200       9.69133
                        -----------------------------------------
Total Dipole Moment    :      0.02842       1.22961      -0.13006
                        -----------------------------------------
Magnitude (a.u.)       :      1.23679
Magnitude (Debye)      :      3.14367

Rotational constants in cm-1:     0.051520     0.042563     0.028962
Rotational constants in MHz :  1544.537298  1275.996546   868.258224

                             ****ORCA TERMINATED NORMALLY****
TOTAL RUN TIME: 0 days 0 hours 0 minutes 14 seconds 531 msec
