                         Program Version 5.0.0 -  RELEASE  -
|  1> !CAM-B3LYP RIJCOSX def2-SVPD def2/J TightSCF
|  2> *xyz -1 1
|  3> C         -0.10608        1.76991       -4.08984
|  4> C         -0.25875        1.00432       -5.40983
|  5> C          0.39596       -0.37070       -5.33994
|  6> H          0.23915        1.56939       -6.20125
|  7> H         -1.30936        0.88869       -5.68245
|  8> O         -0.32633       -1.39040       -5.49128
|  9> O          1.61941       -0.40073       -5.03683
| 10> H         -0.57627        2.72718       -4.17630
| 11> H          0.93321        1.90140       -3.87192
| 12> H         -0.56868        1.21534       -3.30031
| 13> *
| 14> %MaxCore 64000
| 15>
| 16> %pal nprocs 4
| 17> end
| 18>
| 19> %scf
| 20>   MaxIter 150
| 21> end
| 22>
| 23>
| 24>                          ****END OF INPUT****

CARTESIAN COORDINATES (ANGSTROEM)
---------------------------------
  C     -0.106080    1.769910   -4.089840
  C     -0.258750    1.004320   -5.409830
  C      0.395960   -0.370700   -5.339940
  H      0.239150    1.569390   -6.201250
  H     -1.309360    0.888690   -5.682450
  O     -0.326330   -1.390400   -5.491280
  O      1.619410   -0.400730   -5.036830
  H     -0.576270    2.727180   -4.176300
  H      0.933210    1.901400   -3.871920
  H     -0.568680    1.215340   -3.300310

 Total Charge           Charge          ....   -1
 Multiplicity           Mult            ....    1
 Number of Electrons    NEL             ....   40
 Basis Dimension        Dim             ....  146

ORBITAL ENERGIES
----------------

  NO   OCC          E(Eh)            E(eV)
   0   2.0000     -18.952961      -515.7363
   1   2.0000     -18.951341      -515.6922
   2   2.0000     -10.148464      -276.1537
   3   2.0000     -10.098486      -274.7938
   4   2.0000     -10.087367      -274.4912
   5   2.0000      -0.893727       -24.3195
   6   2.0000      -0.797177       -21.6923
   7   2.0000      -0.684240       -18.6191
   8   2.0000      -0.550040       -14.9673
   9   2.0000      -0.393680       -10.7126
  10   2.0000      -0.365540        -9.9468
  11   2.0000      -0.329908        -8.9773
  12   2.0000      -0.301971        -8.2170
  13   2.0000      -0.284534        -7.7426
  14   2.0000      -0.279188        -7.5971
  15   2.0000      -0.247289        -6.7291
  16   2.0000      -0.231654        -6.3036
  17   2.0000      -0.114171        -3.1067
  18   2.0000      -0.111095        -3.0231
  19   2.0000      -0.096533        -2.6268
  20   0.0000       0.183211         4.9854
  21   0.0000       0.215911         5.8752
  22   0.0000       0.230847         6.2817
  23   0.0000       0.249674         6.7940
  24   0.0000       0.275839         7.5060

MULLIKEN ATOMIC CHARGES
-----------------------
   0 C :    0.726485
   1 C :   -0.111015
   2 C :    0.364549
   3 H :   -0.066015
   4 H :   -0.133738
   5 O :   -0.665510
   6 O :   -0.705070
   7 H :   -0.160101
   8 H :   -0.100691
   9 H :   -0.148893
Sum of atomic charges:   -1.0000000

LOEWDIN ATOMIC CHARGES
----------------------
   0 C :    0.103745
   1 C :   -0.039381
   2 C :   -0.313478
   3 H :    0.008141
   4 H :    0.000811
   5 O :   -0.333794
   6 O :   -0.331530
   7 H :   -0.043981
   8 H :   -0.028372
   9 H :   -0.022162

  Mayer bond orders larger than 0.100000
B(  0-C ,  1-C ) :   1.2647 B(  0-C ,  7-H ) :   0.8119 B(  0-C ,  8-H ) :   0.8056
B(  0-C ,  9-H ) :   0.8180 B(  1-C ,  2-C ) :   1.0214 B(  1-C ,  3-H ) :   0.8581
B(  1-C ,  4-H ) :   0.9489 B(  1-C ,  7-H ) :   0.1747 B(  1-C ,  8-H ) :   0.2037
B(  1-C ,  9-H ) :   0.1794 B(  2-C ,  4-H ) :   0.1876 B(  2-C ,  5-O ) :   1.4983
B(  2-C ,  6-O ) :   1.5150

FINAL SINGLE POINT ENERGY      -267.544586766286

DIPOLE MOMENT
-------------
                                X             Y             Z
Electronic contribution:      1.70919      -5.22897      -1.70123
Nuclear contribution   :     -2.46071       7.20791       1.95694
                        -----------------------------------------
Total Dipole Moment    :     -0.75152       1.97895       0.25571
                        -----------------------------------------
Magnitude (a.u.)       :      2.13223
Magnitude (Debye)      :      5.41970

Rotational constants in cm-1:     0.309435     0.135317     0.107436
Rotational constants in MHz :  9276.637721  4056.700783  3220.846587

                             ****ORCA TERMINATED NORMALLY****
TOTAL RUN TIME: 0 days 0 hours 0 minutes 22 seconds 725 msec
