                         Program Version 5.0.0 -  RELEASE  -
|  1> !CAM-B3LYP RIJCOSX def2-SVPD def2/J TightSCF
|  2> *xyz 1 1
|  3> C          0.81607       -2.10149       -2.18655
|  4> H          1.69623       -2.36869       -1.60046
|  5> N          1.10055       -2.46749       -3.59927
|  6> C          0.51624       -0.61363       -2.03937
|  7> H         -0.02007       -2.71285       -1.84084
|  8> H          1.70061       -1.75723       -4.07838
|  9> H          0.29386       -2.35977       -4.25632
| 10> H          1.50132       -3.42848       -3.69491
| 11> H         -0.34841       -0.36504       -2.61858
| 12> H          1.35358       -0.04503       -2.38643
| 13> H          0.33317       -0.38682       -1.00984
| 14> *
| 15> %MaxCore 64000
| 16>
| 17> %pal nprocs 4
| 18> end
| 19>
| 20> %scf
| 21>   MaxIter 150
| 22> end
| 23>
| 24>
| 25>                          ****END OF INPUT****

CARTESIAN COORDINATES (ANGSTROEM)
---------------------------------
  C      0.816070   -2.101490   -2.186550
  H      1.696230   -2.368690   -1.600460
  N      1.100550   -2.467490   -3.599270
  C      0.516240   -0.613630   -2.039370
  H     -0.020070   -2.712850   -1.840840
  H      1.700610   -1.757230   -4.078380
  H      0.293860   -2.359770   -4.256320
  H      1.501320   -3.428480   -3.694910
  H     -0.348410   -0.365040   -2.618580
  H      1.353580   -0.045030   -2.386430
  H      0.333170   -0.386820   -1.009840

 Total Charge           Charge          ....    1
 Multiplicity           Mult            ....    1
 Number of Electrons    NEL             ....   26
 Basis Dimension        Dim             ....  124

ORBITAL ENERGIES
----------------

  NO   OCC          E(Eh)            E(eV)
   0   2.0000     -14.744261      -401.2117
   1   2.0000     -10.514079      -286.1026
   2   2.0000     -10.435594      -283.9670
   3   2.0000      -1.285563       -34.9819
   4   2.0000      -1.042553       -28.3693
   5   2.0000      -0.925536       -25.1851
   6   2.0000      -0.862229       -23.4624
   7   2.0000      -0.845934       -23.0190
   8   2.0000      -0.773061       -21.0361
   9   2.0000      -0.708306       -19.2740
  10   2.0000      -0.651527       -17.7290
  11   2.0000      -0.636745       -17.3267
  12   2.0000      -0.617712       -16.8088
  13   0.0000      -0.160973        -4.3803
  14   0.0000      -0.100710        -2.7405
  15   0.0000      -0.097531        -2.6539
  16   0.0000      -0.091660        -2.4942
  17   0.0000      -0.053234        -1.4486

MULLIKEN ATOMIC CHARGES
-----------------------
   0 C :    0.415319
   1 H :   -0.127248
   2 N :   -0.865248
   3 C :    0.786910
   4 H :   -0.143371
   5 H :    0.409629
   6 H :    0.370364
   7 H :    0.377397
   8 H :   -0.048936
   9 H :   -0.081989
  10 H :   -0.092826
Sum of atomic charges:    1.0000000

LOEWDIN ATOMIC CHARGES
----------------------
   0 C :    0.048483
   1 H :    0.052895
   2 N :    0.305281
   3 C :    0.171704
   4 H :    0.054105
   5 H :    0.112817
   6 H :    0.117786
   7 H :    0.122645
   8 H :    0.000258
   9 H :   -0.001023
  10 H :    0.015050

  Mayer bond orders larger than 0.100000
B(  0-C ,  1-H ) :   0.8849 B(  0-C ,  2-N ) :   0.6812 B(  0-C ,  3-C ) :   1.3019
B(  0-C ,  4-H ) :   0.9025 B(  0-C ,  8-H ) :   0.1544 B(  0-C ,  9-H ) :   0.1647
B(  0-C , 10-H ) :   0.2022 B(  1-H ,  2-N ) :   0.1070 B(  2-N ,  4-H ) :   0.1216
B(  2-N ,  5-H ) :   0.6975 B(  2-N ,  6-H ) :   0.7715 B(  2-N ,  7-H ) :   0.7182
B(  3-C ,  8-H ) :   0.7997 B(  3-C ,  9-H ) :   0.8136 B(  3-C , 10-H ) :   0.7969

FINAL SINGLE POINT ENERGY      -135.358481974320

DIPOLE MOMENT
-------------
                                X             Y             Z
Electronic contribution:      0.42170      -1.44043      -1.08183
Nuclear contribution   :     -0.07506       0.54337      -0.16191
                        -----------------------------------------
Total Dipole Moment    :      0.34664      -0.89706      -1.24374
                        -----------------------------------------
Magnitude (a.u.)       :      1.57219
Magnitude (Debye)      :      3.99619

Rotational constants in cm-1:     0.999557     0.280801     0.246932
Rotational constants in MHz : 29965.963633  8418.199581  7402.841054

                             ****ORCA TERMINATED NORMALLY****
TOTAL RUN TIME: 0 days 0 hours 0 minutes 17 seconds 973 msec
