                         Program Version 5.0.0 -  RELEASE  -
|  1> !CAM-B3LYP RIJCOSX def2-SVPD def2/J TightSCF
|  2> *xyz 0 1
|  3> C         -0.10608        1.76991       -4.08984
|  4> C         -0.25875        1.00432       -5.40983
|  5> C          0.39596       -0.37070       -5.33994
|  6> H          0.23915        1.56939       -6.20125
|  7> H         -1.30936        0.88869       -5.68245
|  8> F         -0.32633       -1.39040       -5.49128
|  9> O          1.61941       -0.40073       -5.03683
| 10> H         -0.57627        2.72718       -4.17630
| 11> H          0.93321        1.90140       -3.87192
| 12> H         -0.56868        1.21534       -3.30031
| 13> *
| 14> %MaxCore 64000
| 15>
| 16> %pal nprocs 4
| 17> end
| 18>
| 19> %scf
| 20>   MaxIter 150
| 21> end
| 22>
| 23>
| 24>                          ****END OF INPUT****

CARTESIAN COORDINATES (ANGSTROEM)
---------------------------------
  C     -0.106080    1.769910   -4.089840
  C     -0.258750    1.004320   -5.409830
  C      0.395960   -0.370700   -5.339940
  H      0.239150    1.569390   -6.201250
  H     -1.309360    0.888690   -5.682450
  F     -0.326330   -1.390400   -5.491280
  O      1.619410   -0.400730   -5.036830
  H     -0.576270    2.727180   -4.176300
  H      0.933210    1.901400   -3.871920
  H     -0.568680    1.215340   -3.300310

 Total Charge           Charge          ....    0
 Multiplicity           Mult            ....    1
 Number of Electrons    NEL             ....   40
 Basis Dimension        Dim             ....  146

ORBITAL ENERGIES
----------------

  NO   OCC          E(Eh)            E(eV)
   0   2.0000     -24.848165      -676.1529
   1   2.0000     -19.226231      -523.1723
   2   2.0000     -10.448148      -284.3086
   3   2.0000     -10.295417      -280.1525
   4   2.0000     -10.267187      -279.3844
   5   2.0000      -1.390434       -37.8356
   6   2.0000      -1.107964       -30.1492
   7   2.0000      -0.881590       -23.9893
   8   2.0000      -0.767281       -20.8788
   9   2.0000      -0.717722       -19.5302
  10   2.0000      -0.629848       -17.1390
  11   2.0000      -0.614370       -16.7178
  12   2.0000      -0.583825       -15.8867
  13   2.0000      -0.540035       -14.6951
  14   2.0000      -0.508376       -13.8336
  15   2.0000      -0.472051       -12.8452
  16   2.0000      -0.450253       -12.2520
  17   2.0000      -0.444899       -12.1063
  18   2.0000      -0.416581       -11.3358
  19   2.0000      -0.366759        -9.9800
  20   0.0000       0.010946         0.2979
  21   0.0000       0.042829         1.1654
  22   0.0000       0.073391         1.9971
  23   0.0000       0.084398         2.2966
  24   0.0000       0.104455         2.8424

MULLIKEN ATOMIC CHARGES
-----------------------
   0 C :    0.755714
   1 C :   -0.162529
   2 C :    0.659517
   3 H :   -0.003578
   4 H :   -0.101005
   5 F :   -0.348972
   6 O :   -0.468239
   7 H :   -0.119278
   8 H :   -0.085330
   9 H :   -0.126300
Sum of atomic charges:    0.0000000

LOEWDIN ATOMIC CHARGES
----------------------
   0 C :    0.144079
   1 C :    0.005341
   2 C :   -0.013365
   3 H :    0.040016
   4 H :    0.023963
   5 F :   -0.033458
   6 O :   -0.136399
   7 H :   -0.012612
   8 H :   -0.008986
   9 H :   -0.008580

  Mayer bond orders larger than 0.100000
B(  0-C ,  1-C ) :   1.2961 B(  0-C ,  7-H ) :   0.8166 B(  0-C ,  8-H ) :   0.8060
B(  0-C ,  9-H ) :   0.8148 B(  1-C ,  2-C ) :   1.0826 B(  1-C ,  3-H ) :   0.8521
B(  1-C ,  4-H ) :   0.9515 B(  1-C ,  7-H ) :   0.1659 B(  1-C ,  8-H ) :   0.1843
B(  1-C ,  9-H ) :   0.1666 B(  2-C ,  5-F ) :   0.7815 B(  2-C ,  6-O ) :   1.8514

FINAL SINGLE POINT ENERGY      -292.077704857549

DIPOLE MOMENT
-------------
                                X             Y             Z
Electronic contribution:      0.82106      -8.14685      -2.57622
Nuclear contribution   :     -1.80992       8.85192       2.42184
                        -----------------------------------------
Total Dipole Moment    :     -0.98887       0.70507      -0.15437
                        -----------------------------------------
Magnitude (a.u.)       :      1.22426
Magnitude (Debye)      :      3.11182

Rotational constants in cm-1:     0.298360     0.128849     0.102271
Rotational constants in MHz :  8944.606599  3862.796179  3066.020510

                             ****ORCA TERMINATED NORMALLY****
TOTAL RUN TIME: 0 days 0 hours 0 minutes 23 seconds 965 msec
