                         Program Version 5.0.0 -  RELEASE  -
|  1> !CAM-B3LYP RIJCOSX def2-SVPD def2/J TightSCF
|  2> *xyz 0 1
|  3> C          0.81607       -2.10149       -2.18655
|  4> H          1.69623       -2.36869       -1.60046
|  5> C          1.10055       -2.46749       -3.59927
|  6> C          0.51624       -0.61363       -2.03937
|  7> H         -0.02007       -2.71285       -1.84084
|  8> H          1.70061       -1.75723       -4.07838
|  9> H          0.29386       -2.35977       -4.25632
| 10> H          1.50132       -3.42848       -3.69491
| 11> H         -0.34841       -0.36504       -2.61858
| 12> H          1.35358       -0.04503       -2.38643
| 13> H          0.33317       -0.38682       -1.00984
| 14> *
| 15> %MaxCore 64000
| 16>
| 17> %pal nprocs 4
| 18> end
| 19>
| 20> %scf
| 21>   MaxIter 150
| 22> end
| 23>
| 24>
| 25>                          ****END OF INPUT****

CARTESIAN COORDINATES (ANGSTROEM)
---------------------------------
  C      0.816070   -2.101490   -2.186550
  H      1.696230   -2.368690   -1.600460
  C      1.100550   -2.467490   -3.599270
  C      0.516240   -0.613630   -2.039370
  H     -0.020070   -2.712850   -1.840840
  H      1.700610   -1.757230   -4.078380
  H      0.293860   -2.359770   -4.256320
  H      1.501320   -3.428480   -3.694910
  H     -0.348410   -0.365040   -2.618580
  H      1.353580   -0.045030   -2.386430
  H      0.333170   -0.386820   -1.009840

 Total Charge           Charge          ....    0
 Multiplicity           Mult            ....    1
 Number of Electrons    NEL             ....   26
 Basis Dimension        Dim             ....  124

ORBITAL ENERGIES
----------------

  NO   OCC          E(Eh)            E(eV)
   0   2.0000     -10.247372      -278.8452
   1   2.0000     -10.238319      -278.5988
   2   2.0000     -10.226293      -278.2716
   3   2.0000      -0.867494       -23.6057
   4   2.0000      -0.763037       -20.7633
   5   2.0000      -0.662021       -18.0145
   6   2.0000      -0.532177       -14.4813
   7   2.0000      -0.516948       -14.0669
   8   2.0000      -0.481516       -13.1027
   9   2.0000      -0.443594       -12.0708
  10   2.0000      -0.407712       -11.0944
  11   2.0000      -0.403082       -10.9684
  12   2.0000      -0.385501       -10.4900
  13   0.0000       0.056042         1.5250
  14   0.0000       0.082848         2.2544
  15   0.0000       0.089496         2.4353
  16   0.0000       0.119430         3.2499
  17   0.0000       0.138540         3.7699

MULLIKEN ATOMIC CHARGES
-----------------------
   0 C :   -0.344248
   1 H :   -0.146245
   2 C :    0.972208
   3 C :    0.802413
   4 H :   -0.170828
   5 H :   -0.253953
   6 H :   -0.239340
   7 H :   -0.239969
   8 H :   -0.108860
   9 H :   -0.097915
  10 H :   -0.173261
Sum of atomic charges:   -0.0000000

LOEWDIN ATOMIC CHARGES
----------------------
   0 C :   -0.118307
   1 H :    0.020291
   2 C :    0.100120
   3 C :    0.115696
   4 H :    0.021056
   5 H :   -0.030895
   6 H :   -0.028008
   7 H :   -0.023678
   8 H :   -0.016118
   9 H :   -0.017651
  10 H :   -0.022508

  Mayer bond orders larger than 0.100000
B(  0-C ,  1-H ) :   0.8967 B(  0-C ,  2-C ) :   1.2772 B(  0-C ,  3-C ) :   1.2674
B(  0-C ,  4-H ) :   0.9199 B(  0-C ,  5-H ) :   0.1843 B(  0-C ,  6-H ) :   0.1903
B(  0-C ,  7-H ) :   0.2026 B(  0-C ,  8-H ) :   0.1943 B(  0-C ,  9-H ) :   0.1786
B(  0-C , 10-H ) :   0.2003 B(  1-H ,  2-C ) :   0.1004 B(  2-C ,  4-H ) :   0.1152
B(  2-C ,  5-H ) :   0.6693 B(  2-C ,  6-H ) :   0.6499 B(  2-C ,  7-H ) :   0.7391
B(  3-C ,  8-H ) :   0.7967 B(  3-C ,  9-H ) :   0.8080 B(  3-C , 10-H ) :   0.7958
B(  5-H ,  6-H ) :   0.3163

FINAL SINGLE POINT ENERGY      -118.966541517888

DIPOLE MOMENT
-------------
                                X             Y             Z
Electronic contribution:     -0.01832      -0.30838       0.46228
Nuclear contribution   :      0.01737       0.30387      -0.47422
                        -----------------------------------------
Total Dipole Moment    :     -0.00094      -0.00451      -0.01194
                        -----------------------------------------
Magnitude (a.u.)       :      0.01279
Magnitude (Debye)      :      0.03252

Rotational constants in cm-1:     1.006891     0.295208     0.258491
Rotational constants in MHz : 30185.831813  8850.104914  7749.351732

                             ****ORCA TERMINATED NORMALLY****
TOTAL RUN TIME: 0 days 0 hours 0 minutes 15 seconds 221 msec
