                         Program Version 5.0.0 -  RELEASE  -
|  1> !CAM-B3LYP RIJCOSX def2-SVPD def2/J TightSCF
|  2> *xyz 0 1
|  3> C         -0.10608        1.76991       -4.08984
|  4> C         -0.25875        1.00432       -5.40983
|  5> C          0.39596       -0.37070       -5.33994
|  6> H          0.23915        1.56939       -6.20125
|  7> H         -1.30936        0.88869       -5.68245
|  8> O         -0.32633       -1.39040       -5.49128
|  9> F          1.61941       -0.40073       -5.03683
| 10> H         -0.57627        2.72718       -4.17630
| 11> H          0.93321        1.90140       -3.87192
| 12> H         -0.56868        1.21534       -3.30031
| 13> *
| 14> %MaxCore 64000
| 15>
| 16> %pal nprocs 4
| 17> end
| 18>
| 19> %scf
| 20>   MaxIter 150
| 21> end
| 22>
| 23>
| 24>                          ****END OF INPUT****

CARTESIAN COORDINATES (ANGSTROEM)
---------------------------------
  C     -0.106080    1.769910   -4.089840
  C     -0.258750    1.004320   -5.409830
  C      0.395960   -0.370700   -5.339940
  H      0.239150    1.569390   -6.201250
  H     -1.309360    0.888690   -5.682450
  O     -0.326330   -1.390400   -5.491280
  F      1.619410   -0.400730   -5.036830
  H     -0.576270    2.727180   -4.176300
  H      0.933210    1.901400   -3.871920
  H     -0.568680    1.215340   -3.300310

 Total Charge           Charge          ....    0
 Multiplicity           Mult            ....    1
 Number of Electrons    NEL             ....   40
 Basis Dimension        Dim             ....  146

ORBITAL ENERGIES
----------------

  NO   OCC          E(Eh)            E(eV)
   0   2.0000     -24.846971      -676.1205
   1   2.0000     -19.227082      -523.1955
   2   2.0000     -10.447387      -284.2878
   3   2.0000     -10.295246      -280.1479
   4   2.0000     -10.272418      -279.5267
   5   2.0000      -1.389100       -37.7993
   6   2.0000      -1.107987       -30.1499
   7   2.0000      -0.886337       -24.1185
   8   2.0000      -0.764339       -20.7987
   9   2.0000      -0.721356       -19.6291
  10   2.0000      -0.631049       -17.1717
  11   2.0000      -0.618521       -16.8308
  12   2.0000      -0.576618       -15.6906
  13   2.0000      -0.540492       -14.7075
  14   2.0000      -0.509133       -13.8542
  15   2.0000      -0.475843       -12.9483
  16   2.0000      -0.456846       -12.4314
  17   2.0000      -0.448145       -12.1946
  18   2.0000      -0.421959       -11.4821
  19   2.0000      -0.363427        -9.8894
  20   0.0000       0.014540         0.3957
  21   0.0000       0.041319         1.1243
  22   0.0000       0.073815         2.0086
  23   0.0000       0.083387         2.2691
  24   0.0000       0.105040         2.8583

MULLIKEN ATOMIC CHARGES
-----------------------
   0 C :    0.743490
   1 C :   -0.136732
   2 C :    0.672283
   3 H :   -0.017405
   4 H :   -0.111096
   5 O :   -0.436118
   6 F :   -0.375480
   7 H :   -0.116097
   8 H :   -0.097645
   9 H :   -0.125200
Sum of atomic charges:   -0.0000000

LOEWDIN ATOMIC CHARGES
----------------------
   0 C :    0.139540
   1 C :    0.009763
   2 C :   -0.018903
   3 H :    0.035083
   4 H :    0.035800
   5 O :   -0.134087
   6 F :   -0.034738
   7 H :   -0.011913
   8 H :   -0.013757
   9 H :   -0.006787

  Mayer bond orders larger than 0.100000
B(  0-C ,  1-C ) :   1.2728 B(  0-C ,  7-H ) :   0.8260 B(  0-C ,  8-H ) :   0.7961
B(  0-C ,  9-H ) :   0.8287 B(  1-C ,  2-C ) :   1.0558 B(  1-C ,  3-H ) :   0.8539
B(  1-C ,  4-H ) :   0.9701 B(  1-C ,  7-H ) :   0.1653 B(  1-C ,  8-H ) :   0.1772
B(  1-C ,  9-H ) :   0.1626 B(  2-C ,  4-H ) :   0.1383 B(  2-C ,  5-O ) :   1.8545
B(  2-C ,  6-F ) :   0.7522 B(  5-O ,  6-F ) :   0.1056

FINAL SINGLE POINT ENERGY      -292.079180698011

DIPOLE MOMENT
-------------
                                X             Y             Z
Electronic contribution:      4.06706      -6.46469      -1.80998
Nuclear contribution   :     -3.93139       7.77287       1.92635
                        -----------------------------------------
Total Dipole Moment    :      0.13567       1.30818       0.11637
                        -----------------------------------------
Magnitude (a.u.)       :      1.32034
Magnitude (Debye)      :      3.35603

Rotational constants in cm-1:     0.286068     0.133630     0.103472
Rotational constants in MHz :  8576.109806  4006.118234  3102.010802

                             ****ORCA TERMINATED NORMALLY****
TOTAL RUN TIME: 0 days 0 hours 0 minutes 24 seconds 100 msec
