                         Program Version 5.0.0 -  RELEASE  -
|  1> !LC-PBE RIJCOSX def2-SVPD def2/J TightSCF
|  2> *xyz -1 1
|  3> C          3.76678       -2.26611       -6.51175
|  4> C          2.49670       -1.84416       -5.73570
|  5> H          1.62642       -2.21743       -6.30895
|  6> H          2.48182       -2.45607       -4.79341
|  7> O          2.45973       -0.50920       -5.50576
|  8> H          3.82914       -1.70941       -7.42340
|  9> H          3.71764       -3.31144       -6.73483
| 10> H          4.63199       -2.06931       -5.91377
| 11> *
| 12>
| 13> %MaxCore 64000
| 14>
| 15> %pal nprocs 4
| 16> end
| 17>
| 18> %scf
| 19>   MaxIter 150
| 20> end
| 21>
| 22>
| 23>                          ****END OF INPUT****

CARTESIAN COORDINATES (ANGSTROEM)
---------------------------------
  C      3.766780   -2.266110   -6.511750
  C      2.496700   -1.844160   -5.735700
  H      1.626420   -2.217430   -6.308950
  H      2.481820   -2.456070   -4.793410
  O      2.459730   -0.509200   -5.505760
  H      3.829140   -1.709410   -7.423400
  H      3.717640   -3.311440   -6.734830
  H      4.631990   -2.069310   -5.913770

 Total Charge           Charge          ....   -1
 Multiplicity           Mult            ....    1
 Number of Electrons    NEL             ....   26
 Basis Dimension        Dim             ....  103

ORBITAL ENERGIES
----------------

  NO   OCC          E(Eh)            E(eV)
   0   2.0000     -18.647770      -507.4316
   1   2.0000      -9.940296      -270.4892
   2   2.0000      -9.915685      -269.8195
   3   2.0000      -0.837868       -22.7996
   4   2.0000      -0.686053       -18.6685
   5   2.0000      -0.521525       -14.1914
   6   2.0000      -0.393270       -10.7014
   7   2.0000      -0.365693        -9.9510
   8   2.0000      -0.308882        -8.4051
   9   2.0000      -0.287939        -7.8352
  10   2.0000      -0.245272        -6.6742
  11   2.0000      -0.092046        -2.5047
  12   2.0000      -0.089912        -2.4466
  13   0.0000       0.245192         6.6720
  14   0.0000       0.277005         7.5377
  15   0.0000       0.317331         8.6350
  16   0.0000       0.330136         8.9835
  17   0.0000       0.345330         9.3969

MULLIKEN ATOMIC CHARGES
-----------------------
   0 C :    0.127669
   1 C :   -0.044583
   2 H :   -0.101352
   3 H :   -0.062210
   4 O :   -0.850723
   5 H :   -0.031380
   6 H :   -0.007364
   7 H :   -0.030058
Sum of atomic charges:   -1.0000000

LOEWDIN ATOMIC CHARGES
----------------------
   0 C :    0.030301
   1 C :   -0.297596
   2 H :   -0.021703
   3 H :   -0.013710
   4 O :   -0.589235
   5 H :   -0.030333
   6 H :   -0.046519
   7 H :   -0.031206

  Mayer bond orders larger than 0.100000
B(  0-C ,  1-C ) :   1.1775 B(  0-C ,  5-H ) :   0.9352 B(  0-C ,  6-H ) :   0.9087
B(  0-C ,  7-H ) :   0.9282 B(  1-C ,  2-H ) :   0.9972 B(  1-C ,  3-H ) :   0.9976
B(  1-C ,  4-O ) :   1.3002 B(  1-C ,  5-H ) :   0.1375 B(  1-C ,  7-H ) :   0.1316

FINAL SINGLE POINT ENERGY      -153.848114181059

DIPOLE MOMENT
-------------
                                X             Y             Z
Electronic contribution:     -1.01682       2.32207       0.89440
Nuclear contribution   :      1.63615      -3.79938      -1.48621
                        -----------------------------------------
Total Dipole Moment    :      0.61933      -1.47731      -0.59181
                        -----------------------------------------
Magnitude (a.u.)       :      1.70771
Magnitude (Debye)      :      4.34065

Rotational constants in cm-1:     1.265582     0.329289     0.289024
Rotational constants in MHz : 37941.194363  9871.829581  8664.719106

                             ****ORCA TERMINATED NORMALLY****
TOTAL RUN TIME: 0 days 0 hours 0 minutes 10 seconds 193 msec
