                         Program Version 5.0.0 -  RELEASE  -
|  1> !LC-PBE RIJCOSX def2-SVPD def2/J TightSCF
|  2> *xyz 1 1
|  3> C          4.99986       -1.59613       -5.92488
|  4> N          5.28156       -1.97413       -4.53576
|  5> C          3.76678       -2.26611       -6.51175
|  6> C          4.79250       -1.36132       -3.45730
|  7> N          3.93990       -0.37492       -3.55736
|  8> N          5.25986       -1.75422       -2.23913
|  9> H          5.92282       -2.52145       -2.18672
| 10> H          4.65468       -1.64040       -1.44202
| 11> H          5.70914       -2.87560       -4.38702
| 12> H          3.33010       -0.31764       -4.36125
| 13> H          3.69849        0.11447       -2.70833
| 14> H          4.84333       -0.51793       -5.94302
| 15> H          5.90170       -1.82250       -6.49647
| 16> H          3.63046       -1.94025       -7.52177
| 17> H          2.90710       -2.00116       -5.93240
| 18> H          3.89538       -3.32820       -6.49392
| 19> *
| 20>
| 21> %MaxCore 64000
| 22>
| 23> %pal nprocs 4
| 24> end
| 25>
| 26> %scf
| 27>   MaxIter 150
| 28> end
| 29>
| 30>
| 31>                          ****END OF INPUT****

CARTESIAN COORDINATES (ANGSTROEM)
---------------------------------
  C      4.999860   -1.596130   -5.924880
  N      5.281560   -1.974130   -4.535760
  C      3.766780   -2.266110   -6.511750
  C      4.792500   -1.361320   -3.457300
  N      3.939900   -0.374920   -3.557360
  N      5.259860   -1.754220   -2.239130
  H      5.922820   -2.521450   -2.186720
  H      4.654680   -1.640400   -1.442020
  H      5.709140   -2.875600   -4.387020
  H      3.330100   -0.317640   -4.361250
  H      3.698490    0.114470   -2.708330
  H      4.843330   -0.517930   -5.943020
  H      5.901700   -1.822500   -6.496470
  H      3.630460   -1.940250   -7.521770
  H      2.907100   -2.001160   -5.932400
  H      3.895380   -3.328200   -6.493920

 Total Charge           Charge          ....    1
 Multiplicity           Mult            ....    1
 Number of Electrons    NEL             ....   48
 Basis Dimension        Dim             ....  200

ORBITAL ENERGIES
----------------

  NO   OCC          E(Eh)            E(eV)
   0   2.0000     -14.460068      -393.4784
   1   2.0000     -14.457550      -393.4099
   2   2.0000     -14.450120      -393.2078
   3   2.0000     -10.475118      -285.0425
   4   2.0000     -10.334663      -281.2205
   5   2.0000     -10.266396      -279.3628
   6   2.0000      -1.390631       -37.8410
   7   2.0000      -1.271741       -34.6058
   8   2.0000      -1.255422       -34.1618
   9   2.0000      -1.100904       -29.9571
  10   2.0000      -0.998395       -27.1677
  11   2.0000      -0.961561       -26.1654
  12   2.0000      -0.944521       -25.7017
  13   2.0000      -0.890975       -24.2447
  14   2.0000      -0.841556       -22.8999
  15   2.0000      -0.836120       -22.7520
  16   2.0000      -0.786386       -21.3986
  17   2.0000      -0.783599       -21.3228
  18   2.0000      -0.749595       -20.3975
  19   2.0000      -0.702750       -19.1228
  20   2.0000      -0.667610       -18.1666
  21   2.0000      -0.645690       -17.5701
  22   2.0000      -0.615317       -16.7436
  23   2.0000      -0.580800       -15.8044
  24   0.0000      -0.088238        -2.4011
  25   0.0000      -0.070379        -1.9151
  26   0.0000      -0.038884        -1.0581
  27   0.0000      -0.031285        -0.8513
  28   0.0000      -0.006598        -0.1796

MULLIKEN ATOMIC CHARGES
-----------------------
   0 C :    0.115208
   1 N :   -0.423086
   2 C :    0.445526
   3 C :    1.184661
   4 N :   -0.000661
   5 N :   -0.152505
   6 H :    0.022317
   7 H :    0.034289
   8 H :   -0.194868
   9 H :   -0.007401
  10 H :   -0.021873
  11 H :    0.019996
  12 H :   -0.137634
  13 H :    0.131766
  14 H :   -0.052810
  15 H :    0.037075
Sum of atomic charges:    1.0000000

LOEWDIN ATOMIC CHARGES
----------------------
   0 C :    0.017055
   1 N :    0.036363
   2 C :    0.124209
   3 C :   -0.032826
   4 N :    0.270700
   5 N :    0.243938
   6 H :    0.042452
   7 H :    0.037049
   8 H :    0.065105
   9 H :    0.037084
  10 H :    0.054432
  11 H :    0.037318
  12 H :    0.053382
  13 H :    0.016786
  14 H :   -0.009925
  15 H :    0.006881

  Mayer bond orders larger than 0.100000
B(  0-C ,  1-N ) :   0.9261 B(  0-C ,  2-C ) :   1.2460 B(  0-C ,  8-H ) :  -0.1879
B(  0-C , 11-H ) :   0.8972 B(  0-C , 12-H ) :   0.9805 B(  0-C , 13-H ) :   0.1291
B(  0-C , 14-H ) :   0.1614 B(  0-C , 15-H ) :   0.1778 B(  1-N ,  3-C ) :   1.0600
B(  1-N ,  4-N ) :   0.2040 B(  1-N ,  5-N ) :   0.1878 B(  1-N ,  8-H ) :   1.3163
B(  1-N , 11-H ) :   0.1328 B(  1-N , 12-H ) :   0.1249 B(  2-C , 13-H ) :   0.8146
B(  2-C , 14-H ) :   0.8607 B(  2-C , 15-H ) :   0.8451 B(  3-C ,  4-N ) :   1.0787
B(  3-C ,  5-N ) :   0.8409 B(  3-C ,  8-H ) :  -0.2072 B(  3-C ,  9-H ) :  -0.1091
B(  4-N ,  5-N ) :   0.1418 B(  4-N ,  9-H ) :   1.1169 B(  4-N , 10-H ) :   1.1722
B(  5-N ,  6-H ) :   1.0696 B(  5-N ,  7-H ) :   1.1273 B(  6-H ,  7-H ) :  -0.1220
B(  9-H , 10-H ) :  -0.1622

FINAL SINGLE POINT ENERGY      -283.313124921072

DIPOLE MOMENT
-------------
                                X             Y             Z
Electronic contribution:      1.73998       1.08868       4.74663
Nuclear contribution   :     -1.95709      -1.20097      -3.70214
                        -----------------------------------------
Total Dipole Moment    :     -0.21711      -0.11229       1.04450
                        -----------------------------------------
Magnitude (a.u.)       :      1.07272
Magnitude (Debye)      :      2.72663

Rotational constants in cm-1:     0.241661     0.071598     0.061743
Rotational constants in MHz :  7244.800091  2146.442409  1851.001864

                             ****ORCA TERMINATED NORMALLY****
TOTAL RUN TIME: 0 days 0 hours 0 minutes 32 seconds 714 msec
