                         Program Version 5.0.0 -  RELEASE  -
|  1> !LC-PBE RIJCOSX def2-SVPD def2/J TightSCF xyzfile
|  2>
|  3> *xyzfile 0 1 B.xyz
|  4>
|  5> %MaxCore 64000
|  6>
|  7> %pal nprocs 4
|  8> end
|  9>
| 10> %scf
| 11>   MaxIter 150
| 12> end
| 13>
| 14>
| 15>                          ****END OF INPUT****

CARTESIAN COORDINATES (ANGSTROEM)
---------------------------------
  C      4.999862   -1.596133   -5.924876
  N      5.281560   -1.974132   -4.535764
  C      3.766779   -2.266110   -6.511752
  C      2.496702   -1.844161   -5.735704
  H      1.626416   -2.217434   -6.308950
  H      2.481824   -2.456069   -4.793414
  O      2.459729   -0.509204   -5.505757
  C      4.792500   -1.361316   -3.457295
  N      3.939898   -0.374925   -3.557359
  N      5.259860   -1.754224   -2.239133
  H      5.922824   -2.521451   -2.186720
  H      4.654678   -1.640404   -1.442016
  H      5.709139   -2.875599   -4.387021
  H      3.330101   -0.317639   -4.361247
  H      3.698494    0.114468   -2.708333
  H      4.843333   -0.517930   -5.943019
  H      5.901695   -1.822503   -6.496467
  H      3.886191   -3.357076   -6.533604
  H      3.685602   -1.922168   -7.547128

 Total Charge           Charge          ....    0
 Multiplicity           Mult            ....    1
 Number of Electrons    NEL             ....   64
 Basis Dimension        Dim             ....  251

ORBITAL ENERGIES
----------------

  NO   OCC          E(Eh)            E(eV)
   0   2.0000     -18.840640      -512.6799
   1   2.0000     -14.297604      -389.0576
   2   2.0000     -14.290668      -388.8688
   3   2.0000     -14.244059      -387.6005
   4   2.0000     -10.299080      -280.2522
   5   2.0000     -10.161657      -276.5127
   6   2.0000     -10.110543      -275.1219
   7   2.0000     -10.096998      -274.7533
   8   2.0000      -1.217344       -33.1256
   9   2.0000      -1.102787       -30.0084
  10   2.0000      -1.082323       -29.4515
  11   2.0000      -1.037151       -28.2223
  12   2.0000      -0.924128       -25.1468
  13   2.0000      -0.836686       -22.7674
  14   2.0000      -0.789108       -21.4727
  15   2.0000      -0.768450       -20.9106
  16   2.0000      -0.739102       -20.1120
  17   2.0000      -0.693737       -18.8776
  18   2.0000      -0.666077       -18.1249
  19   2.0000      -0.653293       -17.7770
  20   2.0000      -0.615122       -16.7383
  21   2.0000      -0.609562       -16.5870
  22   2.0000      -0.580278       -15.7902
  23   2.0000      -0.549235       -14.9455
  24   2.0000      -0.497200       -13.5295
  25   2.0000      -0.477996       -13.0069
  26   2.0000      -0.465348       -12.6628
  27   2.0000      -0.443856       -12.0779
  28   2.0000      -0.429085       -11.6760
  29   2.0000      -0.405454       -11.0330
  30   2.0000      -0.291220        -7.9245
  31   2.0000      -0.287825        -7.8321
  32   0.0000       0.056733         1.5438
  33   0.0000       0.083771         2.2795
  34   0.0000       0.092758         2.5241
  35   0.0000       0.108925         2.9640
  36   0.0000       0.128531         3.4975

MULLIKEN ATOMIC CHARGES
-----------------------
   0 C :    0.491861
   1 N :   -0.483343
   2 C :   -0.069427
   3 C :    0.323210
   4 H :   -0.273919
   5 H :    0.148291
   6 O :   -0.633976
   7 C :    1.062477
   8 N :    0.263930
   9 N :   -0.156334
  10 H :   -0.023178
  11 H :    0.007108
  12 H :   -0.190052
  13 H :   -0.399190
  14 H :   -0.084444
  15 H :    0.239448
  16 H :   -0.264738
  17 H :   -0.053869
  18 H :    0.096146
Sum of atomic charges:   -0.0000000

LOEWDIN ATOMIC CHARGES
----------------------
   0 C :    0.040396
   1 N :    0.031780
   2 C :   -0.049463
   3 C :   -0.130471
   4 H :    0.017052
   5 H :    0.012225
   6 O :   -0.427895
   7 C :   -0.050409
   8 N :    0.288623
   9 N :    0.208811
  10 H :    0.017951
  11 H :    0.018132
  12 H :    0.046673
  13 H :   -0.190074
  14 H :    0.038816
  15 H :    0.037101
  16 H :    0.031143
  17 H :    0.023313
  18 H :    0.036295

  Mayer bond orders larger than 0.100000
B(  0-C ,  1-N ) :   0.9675 B(  0-C ,  2-C ) :   1.1556 B(  0-C , 12-H ) :  -0.1725
B(  0-C , 15-H ) :   0.7157 B(  0-C , 16-H ) :   0.9762 B(  0-C , 17-H ) :   0.1293
B(  1-N ,  7-C ) :   1.0449 B(  1-N ,  8-N ) :   0.1552 B(  1-N ,  9-N ) :   0.1820
B(  1-N , 12-H ) :   1.3028 B(  1-N , 15-H ) :   0.1618 B(  1-N , 16-H ) :   0.1124
B(  2-C ,  3-C ) :   1.0926 B(  2-C ,  4-H ) :   0.1134 B(  2-C , 15-H ) :   0.1017
B(  2-C , 17-H ) :   0.9277 B(  2-C , 18-H ) :   0.8883 B(  3-C ,  4-H ) :   1.0677
B(  3-C ,  5-H ) :   0.8441 B(  3-C ,  6-O ) :   1.1994 B(  6-O , 13-H ) :   0.4078
B(  7-C ,  8-N ) :   1.1675 B(  7-C ,  9-N ) :   0.8073 B(  7-C , 10-H ) :  -0.1045
B(  7-C , 12-H ) :  -0.1997 B(  7-C , 13-H ) :  -0.1287 B(  7-C , 14-H ) :  -0.1033
B(  8-N ,  9-N ) :   0.1474 B(  8-N , 13-H ) :   1.1729 B(  8-N , 14-H ) :   1.1516
B(  9-N , 10-H ) :   1.1070 B(  9-N , 11-H ) :   1.1248 B( 10-H , 11-H ) :  -0.1284
B( 13-H , 14-H ) :  -0.2018 B( 15-H , 16-H ) :  -0.1077

FINAL SINGLE POINT ENERGY      -397.027217918917

DIPOLE MOMENT
-------------
                                X             Y             Z
Electronic contribution:      1.97195       1.83125       3.73874
Nuclear contribution   :      0.51577      -3.31768      -1.36804
                        -----------------------------------------
Total Dipole Moment    :      2.48772      -1.48643       2.37071
                        -----------------------------------------
Magnitude (a.u.)       :      3.74413
Magnitude (Debye)      :      9.51681

Rotational constants in cm-1:     0.111492     0.050787     0.040163
Rotational constants in MHz :  3342.457536  1522.560798  1204.057148

                             ****ORCA TERMINATED NORMALLY****
TOTAL RUN TIME: 0 days 0 hours 0 minutes 55 seconds 501 msec
