                         Program Version 5.0.0 -  RELEASE  -
|  1> !LC-PBE RIJCOSX def2-SVPD def2/J TightSCF
|  2> *xyz 0 1
|  3> C          3.76678       -2.26611       -6.51175
|  4> C          2.49670       -1.84416       -5.73570
|  5> H          1.62642       -2.21743       -6.30895
|  6> H          2.48182       -2.45607       -4.79341
|  7> F          2.45973       -0.50920       -5.50576
|  8> H          3.82914       -1.70941       -7.42340
|  9> H          3.71764       -3.31144       -6.73483
| 10> H          4.63199       -2.06931       -5.91377
| 11> *
| 12>
| 13> %MaxCore 64000
| 14>
| 15> %pal nprocs 4
| 16> end
| 17>
| 18> %scf
| 19>   MaxIter 150
| 20> end
| 21>
| 22>
| 23>                          ****END OF INPUT****

CARTESIAN COORDINATES (ANGSTROEM)
---------------------------------
  C      3.766780   -2.266110   -6.511750
  C      2.496700   -1.844160   -5.735700
  H      1.626420   -2.217430   -6.308950
  H      2.481820   -2.456070   -4.793410
  F      2.459730   -0.509200   -5.505760
  H      3.829140   -1.709410   -7.423400
  H      3.717640   -3.311440   -6.734830
  H      4.631990   -2.069310   -5.913770

 Total Charge           Charge          ....    0
 Multiplicity           Mult            ....    1
 Number of Electrons    NEL             ....   26
 Basis Dimension        Dim             ....  103

ORBITAL ENERGIES
----------------

  NO   OCC          E(Eh)            E(eV)
   0   2.0000     -24.497595      -666.6134
   1   2.0000     -10.210725      -277.8479
   2   2.0000     -10.123055      -275.4623
   3   2.0000      -1.348187       -36.6860
   4   2.0000      -0.932415       -25.3723
   5   2.0000      -0.790207       -21.5026
   6   2.0000      -0.664443       -18.0804
   7   2.0000      -0.652041       -17.7429
   8   2.0000      -0.612436       -16.6652
   9   2.0000      -0.547866       -14.9082
  10   2.0000      -0.537989       -14.6394
  11   2.0000      -0.470515       -12.8034
  12   2.0000      -0.462120       -12.5749
  13   0.0000       0.091463         2.4888
  14   0.0000       0.121220         3.2986
  15   0.0000       0.155929         4.2430
  16   0.0000       0.158535         4.3139
  17   0.0000       0.188429         5.1274

MULLIKEN ATOMIC CHARGES
-----------------------
   0 C :    0.084928
   1 C :    0.202093
   2 H :    0.012772
   3 H :    0.049192
   4 F :   -0.410372
   5 H :    0.011270
   6 H :    0.034684
   7 H :    0.015434
Sum of atomic charges:   -0.0000000

LOEWDIN ATOMIC CHARGES
----------------------
   0 C :    0.102063
   1 C :    0.028161
   2 H :    0.039193
   3 H :    0.049002
   4 F :   -0.206093
   5 H :   -0.003946
   6 H :   -0.003604
   7 H :   -0.004775

  Mayer bond orders larger than 0.100000
B(  0-C ,  1-C ) :   1.3086 B(  0-C ,  5-H ) :   0.9288 B(  0-C ,  6-H ) :   0.8953
B(  0-C ,  7-H ) :   0.9254 B(  1-C ,  2-H ) :   0.9718 B(  1-C ,  3-H ) :   0.9656
B(  1-C ,  4-F ) :   0.8211 B(  1-C ,  5-H ) :   0.1031

FINAL SINGLE POINT ENERGY      -178.437421030886

DIPOLE MOMENT
-------------
                                X             Y             Z
Electronic contribution:     -2.07640       4.27595       1.80251
Nuclear contribution   :      2.16248      -5.01128      -1.96962
                        -----------------------------------------
Total Dipole Moment    :      0.08607      -0.73534      -0.16711
                        -----------------------------------------
Magnitude (a.u.)       :      0.75898
Magnitude (Debye)      :      1.92918

Rotational constants in cm-1:     1.244010     0.306580     0.270375
Rotational constants in MHz : 37294.476802  9191.037795  8105.639967

                             ****ORCA TERMINATED NORMALLY****
TOTAL RUN TIME: 0 days 0 hours 0 minutes 9 seconds 21 msec
