                         Program Version 5.0.0 -  RELEASE  -
|  1> !LC-PBE RIJCOSX def2-SVPD def2/J TightSCF
|  2> *xyz 0 1
|  3> C          4.99986       -1.59613       -5.92488
|  4> C          5.28156       -1.97413       -4.53576
|  5> C          3.76678       -2.26611       -6.51175
|  6> C          4.79250       -1.36132       -3.45730
|  7> N          3.93990       -0.37492       -3.55736
|  8> N          5.25986       -1.75422       -2.23913
|  9> H          5.92282       -2.52145       -2.18672
| 10> H          4.65468       -1.64040       -1.44202
| 11> H          5.70914       -2.87560       -4.38702
| 12> H          3.33010       -0.31764       -4.36125
| 13> H          3.69849        0.11447       -2.70833
| 14> H          4.84333       -0.51793       -5.94302
| 15> H          5.90170       -1.82250       -6.49647
| 16> H          3.63046       -1.94025       -7.52177
| 17> H          2.90710       -2.00116       -5.93240
| 18> H          3.89538       -3.32820       -6.49392
| 19> *
| 20>
| 21> %MaxCore 64000
| 22>
| 23> %pal nprocs 4
| 24> end
| 25>
| 26> %scf
| 27>   MaxIter 150
| 28> end
| 29>
| 30>
| 31>                          ****END OF INPUT****

CARTESIAN COORDINATES (ANGSTROEM)
---------------------------------
  C      4.999860   -1.596130   -5.924880
  C      5.281560   -1.974130   -4.535760
  C      3.766780   -2.266110   -6.511750
  C      4.792500   -1.361320   -3.457300
  N      3.939900   -0.374920   -3.557360
  N      5.259860   -1.754220   -2.239130
  H      5.922820   -2.521450   -2.186720
  H      4.654680   -1.640400   -1.442020
  H      5.709140   -2.875600   -4.387020
  H      3.330100   -0.317640   -4.361250
  H      3.698490    0.114470   -2.708330
  H      4.843330   -0.517930   -5.943020
  H      5.901700   -1.822500   -6.496470
  H      3.630460   -1.940250   -7.521770
  H      2.907100   -2.001160   -5.932400
  H      3.895380   -3.328200   -6.493920

 Total Charge           Charge          ....    0
 Multiplicity           Mult            ....    1
 Number of Electrons    NEL             ....   48
 Basis Dimension        Dim             ....  200

ORBITAL ENERGIES
----------------

  NO   OCC          E(Eh)            E(eV)
   0   2.0000     -14.233276      -387.3071
   1   2.0000     -14.225310      -387.0904
   2   2.0000     -10.175331      -276.8848
   3   2.0000     -10.100854      -274.8582
   4   2.0000     -10.095446      -274.7111
   5   2.0000     -10.051934      -273.5270
   6   2.0000      -1.132401       -30.8142
   7   2.0000      -1.031239       -28.0614
   8   2.0000      -0.946105       -25.7448
   9   2.0000      -0.857947       -23.3459
  10   2.0000      -0.770756       -20.9733
  11   2.0000      -0.731042       -19.8927
  12   2.0000      -0.696072       -18.9411
  13   2.0000      -0.651090       -17.7170
  14   2.0000      -0.618938       -16.8422
  15   2.0000      -0.587269       -15.9804
  16   2.0000      -0.557614       -15.1735
  17   2.0000      -0.541663       -14.7394
  18   2.0000      -0.521573       -14.1927
  19   2.0000      -0.489115       -13.3095
  20   2.0000      -0.456833       -12.4311
  21   2.0000      -0.446812       -12.1584
  22   2.0000      -0.400650       -10.9022
  23   2.0000      -0.279036        -7.5929
  24   0.0000       0.088716         2.4141
  25   0.0000       0.113003         3.0750
  26   0.0000       0.124758         3.3948
  27   0.0000       0.134747         3.6667
  28   0.0000       0.151365         4.1188

MULLIKEN ATOMIC CHARGES
-----------------------
   0 C :   -0.301935
   1 C :   -0.385159
   2 C :    0.451360
   3 C :    0.756972
   4 N :    0.081592
   5 N :   -0.143163
   6 H :    0.027917
   7 H :   -0.061561
   8 H :   -0.270581
   9 H :   -0.051146
  10 H :   -0.151392
  11 H :    0.048100
  12 H :   -0.011883
  13 H :    0.072776
  14 H :   -0.076090
  15 H :    0.014191
Sum of atomic charges:    0.0000000

LOEWDIN ATOMIC CHARGES
----------------------
   0 C :   -0.124001
   1 C :   -0.049723
   2 C :    0.083574
   3 C :   -0.233281
   4 N :    0.183658
   5 N :    0.161387
   6 H :    0.009718
   7 H :   -0.011202
   8 H :   -0.041342
   9 H :    0.006205
  10 H :    0.008052
  11 H :    0.016654
  12 H :    0.026773
  13 H :   -0.011671
  14 H :   -0.018475
  15 H :   -0.006325

  Mayer bond orders larger than 0.100000
B(  0-C ,  1-C ) :   1.1759 B(  0-C ,  2-C ) :   1.2182 B(  0-C ,  8-H ) :   0.1977
B(  0-C , 11-H ) :   0.8835 B(  0-C , 12-H ) :   0.9188 B(  0-C , 13-H ) :   0.1295
B(  0-C , 14-H ) :   0.1672 B(  0-C , 15-H ) :   0.1865 B(  1-C ,  3-C ) :   1.6817
B(  1-C ,  4-N ) :   0.2836 B(  1-C ,  5-N ) :   0.3053 B(  1-C ,  8-H ) :   0.9519
B(  1-C , 11-H ) :   0.2221 B(  1-C , 12-H ) :   0.1394 B(  2-C , 13-H ) :   0.8303
B(  2-C , 14-H ) :   0.8753 B(  2-C , 15-H ) :   0.8456 B(  3-C ,  4-N ) :   1.0628
B(  3-C ,  5-N ) :   0.7798 B(  4-N ,  9-H ) :   1.0984 B(  4-N , 10-H ) :   1.2250
B(  5-N ,  6-H ) :   1.0597 B(  5-N ,  7-H ) :   1.1338 B(  6-H ,  7-H ) :  -0.1091
B(  9-H , 10-H ) :  -0.1535

FINAL SINGLE POINT ENERGY      -266.864336902713

DIPOLE MOMENT
-------------
                                X             Y             Z
Electronic contribution:      1.20724       1.37064       4.49256
Nuclear contribution   :     -1.82485      -1.28952      -3.74132
                        -----------------------------------------
Total Dipole Moment    :     -0.61761       0.08112       0.75124
                        -----------------------------------------
Magnitude (a.u.)       :      0.97591
Magnitude (Debye)      :      2.48056

Rotational constants in cm-1:     0.245790     0.071632     0.062004
Rotational constants in MHz :  7368.599517  2147.482078  1858.844841

                             ****ORCA TERMINATED NORMALLY****
TOTAL RUN TIME: 0 days 0 hours 0 minutes 33 seconds 865 msec
