                         Program Version 5.0.0 -  RELEASE  -
|  1> !LC-PBE RIJCOSX def2-SVPD def2/J TightSCF
|  2> *xyz 0 1
|  3> C          4.99986       -1.59613       -5.92488
|  4> N          5.28156       -1.97413       -4.53576
|  5> C          3.76678       -2.26611       -6.51175
|  6> C          4.79250       -1.36132       -3.45730
|  7> C          3.93990       -0.37492       -3.55736
|  8> N          5.25986       -1.75422       -2.23913
|  9> H          5.92282       -2.52145       -2.18672
| 10> H          4.65468       -1.64040       -1.44202
| 11> H          5.70914       -2.87560       -4.38702
| 12> H          3.33010       -0.31764       -4.36125
| 13> H          3.69849        0.11447       -2.70833
| 14> H          4.84333       -0.51793       -5.94302
| 15> H          5.90170       -1.82250       -6.49647
| 16> H          3.63046       -1.94025       -7.52177
| 17> H          2.90710       -2.00116       -5.93240
| 18> H          3.89538       -3.32820       -6.49392
| 19> *
| 20>
| 21> %MaxCore 64000
| 22>
| 23> %pal nprocs 4
| 24> end
| 25>
| 26> %scf
| 27>   MaxIter 150
| 28> end
| 29>
| 30>
| 31>                          ****END OF INPUT****

CARTESIAN COORDINATES (ANGSTROEM)
---------------------------------
  C      4.999860   -1.596130   -5.924880
  N      5.281560   -1.974130   -4.535760
  C      3.766780   -2.266110   -6.511750
  C      4.792500   -1.361320   -3.457300
  C      3.939900   -0.374920   -3.557360
  N      5.259860   -1.754220   -2.239130
  H      5.922820   -2.521450   -2.186720
  H      4.654680   -1.640400   -1.442020
  H      5.709140   -2.875600   -4.387020
  H      3.330100   -0.317640   -4.361250
  H      3.698490    0.114470   -2.708330
  H      4.843330   -0.517930   -5.943020
  H      5.901700   -1.822500   -6.496470
  H      3.630460   -1.940250   -7.521770
  H      2.907100   -2.001160   -5.932400
  H      3.895380   -3.328200   -6.493920

 Total Charge           Charge          ....    0
 Multiplicity           Mult            ....    1
 Number of Electrons    NEL             ....   48
 Basis Dimension        Dim             ....  200

ORBITAL ENERGIES
----------------

  NO   OCC          E(Eh)            E(eV)
   0   2.0000     -14.232134      -387.2761
   1   2.0000     -14.226761      -387.1299
   2   2.0000     -10.178199      -276.9629
   3   2.0000     -10.158531      -276.4277
   4   2.0000     -10.111231      -275.1406
   5   2.0000     -10.040575      -273.2179
   6   2.0000      -1.133489       -30.8438
   7   2.0000      -1.043306       -28.3898
   8   2.0000      -0.923201       -25.1216
   9   2.0000      -0.881501       -23.9869
  10   2.0000      -0.795990       -21.6600
  11   2.0000      -0.715154       -19.4603
  12   2.0000      -0.694730       -18.9046
  13   2.0000      -0.657908       -17.9026
  14   2.0000      -0.599202       -16.3051
  15   2.0000      -0.589737       -16.0476
  16   2.0000      -0.573173       -15.5968
  17   2.0000      -0.536778       -14.6065
  18   2.0000      -0.520455       -14.1623
  19   2.0000      -0.505209       -13.7474
  20   2.0000      -0.489984       -13.3332
  21   2.0000      -0.477783       -13.0011
  22   2.0000      -0.381668       -10.3857
  23   2.0000      -0.293004        -7.9730
  24   0.0000       0.088445         2.4067
  25   0.0000       0.110898         3.0177
  26   0.0000       0.119924         3.2633
  27   0.0000       0.126080         3.4308
  28   0.0000       0.152269         4.1435

MULLIKEN ATOMIC CHARGES
-----------------------
   0 C :    0.081725
   1 N :   -0.395204
   2 C :    0.488475
   3 C :    0.714128
   4 C :    0.149457
   5 N :   -0.077451
   6 H :   -0.094436
   7 H :    0.009647
   8 H :   -0.305283
   9 H :   -0.198825
  10 H :   -0.268727
  11 H :    0.088544
  12 H :   -0.194743
  13 H :    0.081422
  14 H :   -0.085515
  15 H :    0.006786
Sum of atomic charges:    0.0000000

LOEWDIN ATOMIC CHARGES
----------------------
   0 C :   -0.007882
   1 N :   -0.033127
   2 C :    0.099899
   3 C :   -0.238007
   4 C :    0.124787
   5 N :    0.167376
   6 H :   -0.004218
   7 H :    0.004488
   8 H :    0.026474
   9 H :   -0.089968
  10 H :   -0.080155
  11 H :    0.027895
  12 H :    0.029696
  13 H :   -0.004949
  14 H :   -0.012898
  15 H :   -0.009412

  Mayer bond orders larger than 0.100000
B(  0-C ,  1-N ) :   0.9378 B(  0-C ,  2-C ) :   1.2106 B(  0-C ,  4-C ) :   0.1039
B(  0-C ,  8-H ) :  -0.1801 B(  0-C , 11-H ) :   0.8689 B(  0-C , 12-H ) :   1.0064
B(  0-C , 13-H ) :   0.1420 B(  0-C , 14-H ) :   0.1669 B(  0-C , 15-H ) :   0.1719
B(  1-N ,  3-C ) :   0.9417 B(  1-N ,  4-C ) :   0.3439 B(  1-N ,  5-N ) :   0.1286
B(  1-N ,  8-H ) :   1.3609 B(  1-N , 11-H ) :   0.1195 B(  1-N , 12-H ) :   0.1199
B(  2-C , 13-H ) :   0.8133 B(  2-C , 14-H ) :   0.8964 B(  2-C , 15-H ) :   0.8435
B(  3-C ,  4-C ) :   1.8072 B(  3-C ,  5-N ) :   0.8499 B(  3-C ,  8-H ) :  -0.2374
B(  3-C ,  9-H ) :   0.1510 B(  3-C , 10-H ) :   0.2523 B(  4-C ,  5-N ) :   0.2559
B(  4-C ,  9-H ) :   0.7234 B(  4-C , 10-H ) :   0.8014 B(  5-N ,  6-H ) :   1.0835
B(  5-N ,  7-H ) :   1.1018 B(  6-H ,  7-H ) :  -0.1151

FINAL SINGLE POINT ENERGY      -266.855333040764

DIPOLE MOMENT
-------------
                                X             Y             Z
Electronic contribution:      2.39472      -0.09936       3.48933
Nuclear contribution   :     -2.10948      -0.95026      -3.53375
                        -----------------------------------------
Total Dipole Moment    :      0.28524      -1.04962      -0.04442
                        -----------------------------------------
Magnitude (a.u.)       :      1.08860
Magnitude (Debye)      :      2.76699

Rotational constants in cm-1:     0.255209     0.072067     0.062929
Rotational constants in MHz :  7650.964615  2160.525743  1886.569524

                             ****ORCA TERMINATED NORMALLY****
TOTAL RUN TIME: 0 days 0 hours 0 minutes 33 seconds 522 msec
