                         Program Version 5.0.0 -  RELEASE  -
|  1> !LC-PBE RIJCOSX def2-SVPD def2/J TightSCF
|  2> *xyz 0 1
|  3> C          4.99986       -1.59613       -5.92488
|  4> N          5.28156       -1.97413       -4.53576
|  5> C          3.76678       -2.26611       -6.51175
|  6> C          4.79250       -1.36132       -3.45730
|  7> N          3.93990       -0.37492       -3.55736
|  8> C          5.25986       -1.75422       -2.23913
|  9> H          5.92282       -2.52145       -2.18672
| 10> H          4.65468       -1.64040       -1.44202
| 11> H          5.70914       -2.87560       -4.38702
| 12> H          3.33010       -0.31764       -4.36125
| 13> H          3.69849        0.11447       -2.70833
| 14> H          4.84333       -0.51793       -5.94302
| 15> H          5.90170       -1.82250       -6.49647
| 16> H          3.63046       -1.94025       -7.52177
| 17> H          2.90710       -2.00116       -5.93240
| 18> H          3.89538       -3.32820       -6.49392
| 19> *
| 20>
| 21> %MaxCore 64000
| 22>
| 23> %pal nprocs 4
| 24> end
| 25>
| 26> %scf
| 27>   MaxIter 150
| 28> end
| 29>
| 30>
| 31>                          ****END OF INPUT****

CARTESIAN COORDINATES (ANGSTROEM)
---------------------------------
  C      4.999860   -1.596130   -5.924880
  N      5.281560   -1.974130   -4.535760
  C      3.766780   -2.266110   -6.511750
  C      4.792500   -1.361320   -3.457300
  N      3.939900   -0.374920   -3.557360
  C      5.259860   -1.754220   -2.239130
  H      5.922820   -2.521450   -2.186720
  H      4.654680   -1.640400   -1.442020
  H      5.709140   -2.875600   -4.387020
  H      3.330100   -0.317640   -4.361250
  H      3.698490    0.114470   -2.708330
  H      4.843330   -0.517930   -5.943020
  H      5.901700   -1.822500   -6.496470
  H      3.630460   -1.940250   -7.521770
  H      2.907100   -2.001160   -5.932400
  H      3.895380   -3.328200   -6.493920

 Total Charge           Charge          ....    0
 Multiplicity           Mult            ....    1
 Number of Electrons    NEL             ....   48
 Basis Dimension        Dim             ....  200

ORBITAL ENERGIES
----------------

  NO   OCC          E(Eh)            E(eV)
   0   2.0000     -14.234539      -387.3415
   1   2.0000     -14.232392      -387.2831
   2   2.0000     -10.183264      -277.1007
   3   2.0000     -10.168116      -276.6885
   4   2.0000     -10.122832      -275.4563
   5   2.0000     -10.034192      -273.0443
   6   2.0000      -1.144016       -31.1302
   7   2.0000      -1.053406       -28.6646
   8   2.0000      -0.943232       -25.6667
   9   2.0000      -0.860650       -23.4195
  10   2.0000      -0.786680       -21.4067
  11   2.0000      -0.757662       -20.6170
  12   2.0000      -0.696307       -18.9475
  13   2.0000      -0.647612       -17.6224
  14   2.0000      -0.626661       -17.0523
  15   2.0000      -0.588253       -16.0072
  16   2.0000      -0.576740       -15.6939
  17   2.0000      -0.544497       -14.8165
  18   2.0000      -0.526504       -14.3269
  19   2.0000      -0.501498       -13.6465
  20   2.0000      -0.495104       -13.4725
  21   2.0000      -0.482676       -13.1343
  22   2.0000      -0.388583       -10.5739
  23   2.0000      -0.277314        -7.5461
  24   0.0000       0.082228         2.2375
  25   0.0000       0.115233         3.1356
  26   0.0000       0.118119         3.2142
  27   0.0000       0.122693         3.3387
  28   0.0000       0.148799         4.0490

MULLIKEN ATOMIC CHARGES
-----------------------
   0 C :    0.132772
   1 N :   -0.300493
   2 C :    0.461779
   3 C :    0.413432
   4 N :    0.094799
   5 C :    0.308070
   6 H :   -0.173029
   7 H :   -0.335566
   8 H :   -0.256895
   9 H :   -0.101860
  10 H :   -0.046342
  11 H :   -0.011468
  12 H :   -0.205742
  13 H :    0.084398
  14 H :   -0.067704
  15 H :    0.003850
Sum of atomic charges:   -0.0000000

LOEWDIN ATOMIC CHARGES
----------------------
   0 C :   -0.013967
   1 N :   -0.020203
   2 C :    0.096159
   3 C :   -0.241563
   4 N :    0.185205
   5 C :    0.107911
   6 H :   -0.096964
   7 H :   -0.103027
   8 H :    0.040296
   9 H :   -0.004058
  10 H :    0.023480
  11 H :    0.022457
  12 H :    0.030885
  13 H :   -0.004838
  14 H :   -0.016128
  15 H :   -0.005646

  Mayer bond orders larger than 0.100000
B(  0-C ,  1-N ) :   0.9399 B(  0-C ,  2-C ) :   1.2248 B(  0-C ,  8-H ) :  -0.2066
B(  0-C , 11-H ) :   0.9103 B(  0-C , 12-H ) :   0.9841 B(  0-C , 13-H ) :   0.1359
B(  0-C , 14-H ) :   0.1757 B(  0-C , 15-H ) :   0.1881 B(  1-N ,  3-C ) :   1.0786
B(  1-N ,  4-N ) :   0.1529 B(  1-N ,  5-C ) :   0.2248 B(  1-N ,  8-H ) :   1.2748
B(  1-N , 11-H ) :   0.1311 B(  1-N , 12-H ) :   0.1304 B(  2-C , 13-H ) :   0.8242
B(  2-C , 14-H ) :   0.8612 B(  2-C , 15-H ) :   0.8460 B(  3-C ,  4-N ) :   1.0986
B(  3-C ,  5-C ) :   1.7509 B(  3-C ,  6-H ) :   0.1538 B(  3-C ,  7-H ) :   0.1779
B(  3-C ,  8-H ) :  -0.1797 B(  4-N ,  5-C ) :   0.1822 B(  4-N ,  9-H ) :   1.1092
B(  4-N , 10-H ) :   1.1592 B(  5-C ,  6-H ) :   0.8109 B(  5-C ,  7-H ) :   0.8128
B(  6-H ,  7-H ) :   0.1375 B(  9-H , 10-H ) :  -0.1542

FINAL SINGLE POINT ENERGY      -266.849266984367

DIPOLE MOMENT
-------------
                                X             Y             Z
Electronic contribution:      1.12353       1.24737       2.10714
Nuclear contribution   :     -1.82946      -1.24287      -3.25410
                        -----------------------------------------
Total Dipole Moment    :     -0.70593       0.00450      -1.14696
                        -----------------------------------------
Magnitude (a.u.)       :      1.34680
Magnitude (Debye)      :      3.42329

Rotational constants in cm-1:     0.244672     0.074506     0.064043
Rotational constants in MHz :  7335.067153  2233.624025  1919.970379

                             ****ORCA TERMINATED NORMALLY****
TOTAL RUN TIME: 0 days 0 hours 0 minutes 33 seconds 674 msec
