                         Program Version 5.0.0 -  RELEASE  -
|  1> !LC-PBE RIJCOSX def2-SVPD def2/J TightSCF xyzfile
|  2>
|  3> *xyzfile 0 1 D1.xyz
|  4>
|  5> %MaxCore 64000
|  6>
|  7> %pal nprocs 4
|  8> end
|  9>
| 10> %scf
| 11>   MaxIter 150
| 12> end
| 13>
| 14>
| 15>                          ****END OF INPUT****

CARTESIAN COORDINATES (ANGSTROEM)
---------------------------------
  C      4.999862   -1.596133   -5.924876
  C      5.281560   -1.974132   -4.535764
  C      3.766779   -2.266110   -6.511752
  C      2.496702   -1.844161   -5.735704
  H      1.626416   -2.217434   -6.308950
  H      2.481824   -2.456069   -4.793414
  F      2.459729   -0.509204   -5.505757
  C      4.792500   -1.361316   -3.457295
  N      3.939898   -0.374925   -3.557359
  N      5.259860   -1.754224   -2.239133
  H      5.922824   -2.521451   -2.186720
  H      4.654678   -1.640404   -1.442016
  H      5.709139   -2.875599   -4.387021
  H      3.330101   -0.317639   -4.361247
  H      3.698494    0.114468   -2.708333
  H      4.843333   -0.517930   -5.943019
  H      5.901695   -1.822503   -6.496467
  H      3.886191   -3.357076   -6.533604
  H      3.685602   -1.922168   -7.547128

 Total Charge           Charge          ....    0
 Multiplicity           Mult            ....    1
 Number of Electrons    NEL             ....   64
 Basis Dimension        Dim             ....  251

ORBITAL ENERGIES
----------------

  NO   OCC          E(Eh)            E(eV)
   0   2.0000     -24.530951      -667.5211
   1   2.0000     -14.220459      -386.9584
   2   2.0000     -14.204321      -386.5192
   3   2.0000     -10.213475      -277.9228
   4   2.0000     -10.170039      -276.7408
   5   2.0000     -10.124926      -275.5132
   6   2.0000     -10.103143      -274.9205
   7   2.0000     -10.047555      -273.4079
   8   2.0000      -1.388293       -37.7774
   9   2.0000      -1.121223       -30.5100
  10   2.0000      -1.021264       -27.7900
  11   2.0000      -0.969260       -26.3749
  12   2.0000      -0.889743       -24.2111
  13   2.0000      -0.833246       -22.6738
  14   2.0000      -0.756195       -20.5771
  15   2.0000      -0.745697       -20.2915
  16   2.0000      -0.697260       -18.9734
  17   2.0000      -0.679987       -18.5034
  18   2.0000      -0.667055       -18.1515
  19   2.0000      -0.644088       -17.5265
  20   2.0000      -0.639769       -17.4090
  21   2.0000      -0.596739       -16.2381
  22   2.0000      -0.566010       -15.4019
  23   2.0000      -0.551762       -15.0142
  24   2.0000      -0.535378       -14.5684
  25   2.0000      -0.509583       -13.8664
  26   2.0000      -0.490060       -13.3352
  27   2.0000      -0.468903       -12.7595
  28   2.0000      -0.453476       -12.3397
  29   2.0000      -0.444249       -12.0886
  30   2.0000      -0.388502       -10.5717
  31   2.0000      -0.274848        -7.4790
  32   0.0000       0.090950         2.4749
  33   0.0000       0.108609         2.9554
  34   0.0000       0.119523         3.2524
  35   0.0000       0.123016         3.3474
  36   0.0000       0.138845         3.7782

MULLIKEN ATOMIC CHARGES
-----------------------
   0 C :   -0.020797
   1 C :   -0.276082
   2 C :   -0.127280
   3 C :    0.529774
   4 H :   -0.161850
   5 H :    0.237843
   6 F :   -0.379237
   7 C :    0.737383
   8 N :    0.333950
   9 N :   -0.173501
  10 H :   -0.003700
  11 H :   -0.038117
  12 H :   -0.256037
  13 H :   -0.326641
  14 H :   -0.179958
  15 H :    0.208727
  16 H :   -0.117335
  17 H :   -0.050459
  18 H :    0.063316
Sum of atomic charges:    0.0000000

LOEWDIN ATOMIC CHARGES
----------------------
   0 C :   -0.079039
   1 C :   -0.044540
   2 C :   -0.036077
   3 C :    0.107587
   4 H :    0.043729
   5 H :    0.058384
   6 F :   -0.172209
   7 C :   -0.223170
   8 N :    0.214530
   9 N :    0.163005
  10 H :    0.007591
  11 H :   -0.011120
  12 H :   -0.044541
  13 H :   -0.124435
  14 H :    0.011772
  15 H :    0.026321
  16 H :    0.028397
  17 H :    0.043733
  18 H :    0.030083

  Mayer bond orders larger than 0.100000
B(  0-C ,  1-C ) :   1.1764 B(  0-C ,  2-C ) :   1.1553 B(  0-C , 12-H ) :   0.2031
B(  0-C , 15-H ) :   0.7672 B(  0-C , 16-H ) :   0.9560 B(  0-C , 17-H ) :   0.1398
B(  1-C ,  7-C ) :   1.6465 B(  1-C ,  8-N ) :   0.2274 B(  1-C ,  9-N ) :   0.3021
B(  1-C , 12-H ) :   0.9190 B(  1-C , 15-H ) :   0.2095 B(  1-C , 16-H ) :   0.1192
B(  2-C ,  3-C ) :   1.2072 B(  2-C ,  4-H ) :   0.1200 B(  2-C , 17-H ) :   0.9631
B(  2-C , 18-H ) :   0.9012 B(  3-C ,  4-H ) :   1.0115 B(  3-C ,  5-H ) :   0.8290
B(  3-C ,  6-F ) :   0.6840 B(  6-F , 13-H ) :   0.1264 B(  7-C ,  8-N ) :   1.0168
B(  7-C ,  9-N ) :   0.7535 B(  7-C , 14-H ) :  -0.1212 B(  8-N , 13-H ) :   1.1954
B(  8-N , 14-H ) :   1.1988 B(  9-N , 10-H ) :   1.1175 B(  9-N , 11-H ) :   1.1014
B( 10-H , 11-H ) :  -0.1208 B( 13-H , 14-H ) :  -0.1791

FINAL SINGLE POINT ENERGY      -404.967093654542

DIPOLE MOMENT
-------------
                                X             Y             Z
Electronic contribution:     -3.34961       3.92186       0.77105
Nuclear contribution   :      2.63975      -4.51113      -0.34926
                        -----------------------------------------
Total Dipole Moment    :     -0.70987      -0.58927       0.42179
                        -----------------------------------------
Magnitude (a.u.)       :      1.01442
Magnitude (Debye)      :      2.57846

Rotational constants in cm-1:     0.109429     0.049838     0.039337
Rotational constants in MHz :  3280.611039  1494.113088  1179.280063

                             ****ORCA TERMINATED NORMALLY****
TOTAL RUN TIME: 0 days 0 hours 0 minutes 55 seconds 750 msec
