                         Program Version 5.0.0 -  RELEASE  -
|  1> !LC-PBE RIJCOSX def2-SVPD def2/J TightSCF xyzfile
|  2>
|  3> *xyzfile 0 1 D2.xyz
|  4>
|  5> %MaxCore 64000
|  6>
|  7> %pal nprocs 4
|  8> end
|  9>
| 10> %scf
| 11>   MaxIter 150
| 12> end
| 13>
| 14>
| 15>                          ****END OF INPUT****

CARTESIAN COORDINATES (ANGSTROEM)
---------------------------------
  C      4.999862   -1.596133   -5.924876
  N      5.281560   -1.974132   -4.535764
  C      3.766779   -2.266110   -6.511752
  C      2.496702   -1.844161   -5.735704
  H      1.626416   -2.217434   -6.308950
  H      2.481824   -2.456069   -4.793414
  F      2.459729   -0.509204   -5.505757
  C      4.792500   -1.361316   -3.457295
  C      3.939898   -0.374925   -3.557359
  N      5.259860   -1.754224   -2.239133
  H      5.922824   -2.521451   -2.186720
  H      4.654678   -1.640404   -1.442016
  H      5.709139   -2.875599   -4.387021
  H      3.330101   -0.317639   -4.361247
  H      3.698494    0.114468   -2.708333
  H      4.843333   -0.517930   -5.943019
  H      5.901695   -1.822503   -6.496467
  H      3.886191   -3.357076   -6.533604
  H      3.685602   -1.922168   -7.547128

 Total Charge           Charge          ....    0
 Multiplicity           Mult            ....    1
 Number of Electrons    NEL             ....   64
 Basis Dimension        Dim             ....  251

ORBITAL ENERGIES
----------------

  NO   OCC          E(Eh)            E(eV)
   0   2.0000     -24.508176      -666.9014
   1   2.0000     -14.229311      -387.1992
   2   2.0000     -14.218623      -386.9084
   3   2.0000     -10.212773      -277.9037
   4   2.0000     -10.166014      -276.6313
   5   2.0000     -10.161269      -276.5022
   6   2.0000     -10.139897      -275.9206
   7   2.0000     -10.013943      -272.4932
   8   2.0000      -1.368457       -37.2376
   9   2.0000      -1.128385       -30.7049
  10   2.0000      -1.040105       -28.3027
  11   2.0000      -0.953842       -25.9554
  12   2.0000      -0.874973       -23.8092
  13   2.0000      -0.856575       -23.3086
  14   2.0000      -0.770108       -20.9557
  15   2.0000      -0.722445       -19.6587
  16   2.0000      -0.703852       -19.1528
  17   2.0000      -0.669589       -18.2204
  18   2.0000      -0.666096       -18.1254
  19   2.0000      -0.644366       -17.5341
  20   2.0000      -0.633453       -17.2371
  21   2.0000      -0.599929       -16.3249
  22   2.0000      -0.572691       -15.5837
  23   2.0000      -0.548756       -14.9324
  24   2.0000      -0.525429       -14.2977
  25   2.0000      -0.516987       -14.0679
  26   2.0000      -0.491151       -13.3649
  27   2.0000      -0.479791       -13.0558
  28   2.0000      -0.467546       -12.7226
  29   2.0000      -0.436907       -11.8888
  30   2.0000      -0.378168       -10.2905
  31   2.0000      -0.280854        -7.6424
  32   0.0000       0.084003         2.2858
  33   0.0000       0.107199         2.9170
  34   0.0000       0.110779         3.0145
  35   0.0000       0.122109         3.3227
  36   0.0000       0.139539         3.7970

MULLIKEN ATOMIC CHARGES
-----------------------
   0 C :    0.484293
   1 N :   -0.438937
   2 C :   -0.170790
   3 C :    0.530306
   4 H :   -0.199602
   5 H :    0.280611
   6 F :   -0.438224
   7 C :    0.673851
   8 C :    0.771073
   9 N :   -0.101097
  10 H :   -0.073991
  11 H :    0.031721
  12 H :   -0.275399
  13 H :   -0.841749
  14 H :   -0.266511
  15 H :    0.249829
  16 H :   -0.276805
  17 H :   -0.025486
  18 H :    0.086907
Sum of atomic charges:   -0.0000000

LOEWDIN ATOMIC CHARGES
----------------------
   0 C :    0.037317
   1 N :   -0.024355
   2 C :   -0.028077
   3 C :    0.108922
   4 H :    0.042879
   5 H :    0.057877
   6 F :   -0.193879
   7 C :   -0.233301
   8 C :    0.161028
   9 N :    0.163411
  10 H :   -0.008197
  11 H :    0.002590
  12 H :    0.024880
  13 H :   -0.184838
  14 H :   -0.070642
  15 H :    0.037895
  16 H :    0.032008
  17 H :    0.039533
  18 H :    0.034948

  Mayer bond orders larger than 0.100000
B(  0-C ,  1-N ) :   0.9888 B(  0-C ,  2-C ) :   1.1235 B(  0-C , 12-H ) :  -0.1715
B(  0-C , 13-H ) :   0.1011 B(  0-C , 15-H ) :   0.7131 B(  0-C , 16-H ) :   1.0174
B(  1-N ,  7-C ) :   0.9627 B(  1-N ,  8-C ) :   0.3021 B(  1-N ,  9-N ) :   0.1337
B(  1-N , 12-H ) :   1.3571 B(  1-N , 15-H ) :   0.1298 B(  1-N , 16-H ) :   0.1087
B(  2-C ,  3-C ) :   1.2164 B(  2-C ,  4-H ) :   0.1141 B(  2-C , 17-H ) :   0.9658
B(  2-C , 18-H ) :   0.9029 B(  3-C ,  4-H ) :   1.0405 B(  3-C ,  5-H ) :   0.8052
B(  3-C ,  6-F ) :   0.7245 B(  3-C , 13-H ) :   0.1335 B(  6-F , 13-H ) :   0.2769
B(  7-C ,  8-C ) :   1.8911 B(  7-C ,  9-N ) :   0.8003 B(  7-C , 12-H ) :  -0.2321
B(  7-C , 14-H ) :   0.3470 B(  8-C ,  9-N ) :   0.3161 B(  8-C , 13-H ) :   0.3032
B(  8-C , 14-H ) :   0.6871 B(  9-N , 10-H ) :   1.0664 B(  9-N , 11-H ) :   1.0720
B(  9-N , 14-H ) :   0.1341 B( 10-H , 11-H ) :  -0.1281 B( 13-H , 15-H ) :   0.1094
B( 15-H , 16-H ) :  -0.1242

FINAL SINGLE POINT ENERGY      -404.932980546517

DIPOLE MOMENT
-------------
                                X             Y             Z
Electronic contribution:     -2.28360       2.63469      -0.16746
Nuclear contribution   :      2.43398      -4.26587      -0.19921
                        -----------------------------------------
Total Dipole Moment    :      0.15039      -1.63118      -0.36667
                        -----------------------------------------
Magnitude (a.u.)       :      1.67864
Magnitude (Debye)      :      4.26675

Rotational constants in cm-1:     0.110089     0.049944     0.039407
Rotational constants in MHz :  3300.378855  1497.273856  1181.385913

                             ****ORCA TERMINATED NORMALLY****
TOTAL RUN TIME: 0 days 0 hours 0 minutes 55 seconds 839 msec
