                         Program Version 5.0.0 -  RELEASE  -
|  1> !LC-PBE RIJCOSX def2-SVPD def2/J TightSCF xyzfile
|  2>
|  3> *xyzfile 0 1 D3.xyz
|  4>
|  5> %MaxCore 64000
|  6>
|  7> %pal nprocs 4
|  8> end
|  9>
| 10> %scf
| 11>   MaxIter 150
| 12> end
| 13>
| 14>
| 15>                          ****END OF INPUT****

CARTESIAN COORDINATES (ANGSTROEM)
---------------------------------
  C      4.999862   -1.596133   -5.924876
  N      5.281560   -1.974132   -4.535764
  C      3.766779   -2.266110   -6.511752
  C      2.496702   -1.844161   -5.735704
  H      1.626416   -2.217434   -6.308950
  H      2.481824   -2.456069   -4.793414
  F      2.459729   -0.509204   -5.505757
  C      4.792500   -1.361316   -3.457295
  N      3.939898   -0.374925   -3.557359
  C      5.259860   -1.754224   -2.239133
  H      5.922824   -2.521451   -2.186720
  H      4.654678   -1.640404   -1.442016
  H      5.709139   -2.875599   -4.387021
  H      3.330101   -0.317639   -4.361247
  H      3.698494    0.114468   -2.708333
  H      4.843333   -0.517930   -5.943019
  H      5.901695   -1.822503   -6.496467
  H      3.886191   -3.357076   -6.533604
  H      3.685602   -1.922168   -7.547128

 Total Charge           Charge          ....    0
 Multiplicity           Mult            ....    1
 Number of Electrons    NEL             ....   64
 Basis Dimension        Dim             ....  251

ORBITAL ENERGIES
----------------

  NO   OCC          E(Eh)            E(eV)
   0   2.0000     -24.545796      -667.9251
   1   2.0000     -14.231129      -387.2487
   2   2.0000     -14.203546      -386.4981
   3   2.0000     -10.233007      -278.4543
   4   2.0000     -10.174160      -276.8530
   5   2.0000     -10.170795      -276.7614
   6   2.0000     -10.152350      -276.2595
   7   2.0000     -10.025303      -272.8024
   8   2.0000      -1.403638       -38.1949
   9   2.0000      -1.135724       -30.9046
  10   2.0000      -1.045848       -28.4590
  11   2.0000      -0.970443       -26.4071
  12   2.0000      -0.895736       -24.3742
  13   2.0000      -0.833240       -22.6736
  14   2.0000      -0.778507       -21.1843
  15   2.0000      -0.752210       -20.4687
  16   2.0000      -0.733091       -19.9484
  17   2.0000      -0.698202       -18.9990
  18   2.0000      -0.668968       -18.2036
  19   2.0000      -0.655185       -17.8285
  20   2.0000      -0.618192       -16.8219
  21   2.0000      -0.613451       -16.6929
  22   2.0000      -0.583666       -15.8824
  23   2.0000      -0.566483       -15.4148
  24   2.0000      -0.529177       -14.3997
  25   2.0000      -0.515753       -14.0344
  26   2.0000      -0.504928       -13.7398
  27   2.0000      -0.490414       -13.3449
  28   2.0000      -0.476822       -12.9750
  29   2.0000      -0.476289       -12.9605
  30   2.0000      -0.378823       -10.3083
  31   2.0000      -0.269210        -7.3256
  32   0.0000       0.079115         2.1528
  33   0.0000       0.103288         2.8106
  34   0.0000       0.111139         3.0243
  35   0.0000       0.116179         3.1614
  36   0.0000       0.140182         3.8145

MULLIKEN ATOMIC CHARGES
-----------------------
   0 C :    0.508083
   1 N :   -0.275835
   2 C :   -0.137595
   3 C :    0.525994
   4 H :   -0.199203
   5 H :    0.278929
   6 F :   -0.353523
   7 C :    0.231391
   8 N :    0.435607
   9 C :    0.240113
  10 H :   -0.219028
  11 H :   -0.230624
  12 H :   -0.240005
  13 H :   -0.444451
  14 H :   -0.071188
  15 H :    0.178991
  16 H :   -0.300257
  17 H :   -0.027437
  18 H :    0.100039
Sum of atomic charges:    0.0000000

LOEWDIN ATOMIC CHARGES
----------------------
   0 C :    0.032173
   1 N :   -0.009746
   2 C :   -0.028027
   3 C :    0.111780
   4 H :    0.047200
   5 H :    0.063932
   6 F :   -0.171886
   7 C :   -0.240676
   8 N :    0.216969
   9 C :    0.102800
  10 H :   -0.102256
  11 H :   -0.104902
  12 H :    0.039607
  13 H :   -0.129986
  14 H :    0.027178
  15 H :    0.032467
  16 H :    0.033332
  17 H :    0.043824
  18 H :    0.036216

  Mayer bond orders larger than 0.100000
B(  0-C ,  1-N ) :   0.9930 B(  0-C ,  2-C ) :   1.1253 B(  0-C , 12-H ) :  -0.1974
B(  0-C , 15-H ) :   0.7504 B(  0-C , 16-H ) :   1.0083 B(  0-C , 17-H ) :   0.1136
B(  1-N ,  7-C ) :   1.1243 B(  1-N ,  8-N ) :   0.1029 B(  1-N ,  9-C ) :   0.1991
B(  1-N , 12-H ) :   1.2225 B(  1-N , 15-H ) :   0.1564 B(  1-N , 16-H ) :   0.1160
B(  2-C ,  3-C ) :   1.2079 B(  2-C ,  4-H ) :   0.1161 B(  2-C , 17-H ) :   0.9565
B(  2-C , 18-H ) :   0.9001 B(  3-C ,  4-H ) :   1.0447 B(  3-C ,  5-H ) :   0.7984
B(  3-C ,  6-F ) :   0.6833 B(  6-F , 13-H ) :   0.1215 B(  7-C ,  8-N ) :   1.0947
B(  7-C ,  9-C ) :   1.8223 B(  7-C , 10-H ) :   0.1609 B(  7-C , 11-H ) :   0.1513
B(  7-C , 12-H ) :  -0.1508 B(  8-N ,  9-C ) :   0.1095 B(  8-N , 13-H ) :   1.1319
B(  8-N , 14-H ) :   1.1307 B(  9-C , 10-H ) :   0.7860 B(  9-C , 11-H ) :   0.8569
B( 10-H , 11-H ) :   0.1771 B( 13-H , 14-H ) :  -0.1857 B( 15-H , 16-H ) :  -0.1220

FINAL SINGLE POINT ENERGY      -404.947988909631

DIPOLE MOMENT
-------------
                                X             Y             Z
Electronic contribution:     -3.49955       3.80728      -1.54470
Nuclear contribution   :      2.63642      -4.47741       0.00296
                        -----------------------------------------
Total Dipole Moment    :     -0.86313      -0.67013      -1.54175
                        -----------------------------------------
Magnitude (a.u.)       :      1.88972
Magnitude (Debye)      :      4.80329

Rotational constants in cm-1:     0.108041     0.051979     0.040387
Rotational constants in MHz :  3238.993235  1558.297571  1210.782552

                             ****ORCA TERMINATED NORMALLY****
TOTAL RUN TIME: 0 days 0 hours 0 minutes 56 seconds 871 msec
