                         Program Version 5.0.0 -  RELEASE  -
|  1> !TPSS D3BJ RIJCOSX def2-TZVP def2/J TightSCF
|  2> *xyz -1 1
|  3> C          1.44442        5.26658       -0.97546
|  4> O          1.56525        4.23349       -1.86489
|  5> C          0.14812        5.21087       -0.13809
|  6> H          1.47425        6.26464       -1.47692
|  7> H          2.28962        5.30327       -0.26445
|  8> H         -0.69779        5.17417       -0.79230
|  9> H          0.08430        6.08276        0.47887
| 10> H          0.15965        4.33708        0.47938
| 11> *
| 12> %MaxCore 64000
| 13>
| 14> %pal nprocs 4
| 15> end
| 16>
| 17> %scf
| 18>   MaxIter 150
| 19> end
| 20>
| 21>
| 22>                          ****END OF INPUT****

CARTESIAN COORDINATES (ANGSTROEM)
---------------------------------
  C      1.444420    5.266580   -0.975460
  O      1.565250    4.233490   -1.864890
  C      0.148120    5.210870   -0.138090
  H      1.474250    6.264640   -1.476920
  H      2.289620    5.303270   -0.264450
  H     -0.697790    5.174170   -0.792300
  H      0.084300    6.082760    0.478870
  H      0.159650    4.337080    0.479380

 Total Charge           Charge          ....   -1
 Multiplicity           Mult            ....    1
 Number of Electrons    NEL             ....   26
 Basis Dimension        Dim             ....  123

ORBITAL ENERGIES
----------------

  NO   OCC          E(Eh)            E(eV)
   0   2.0000     -18.533650      -504.3263
   1   2.0000      -9.788409      -266.3561
   2   2.0000      -9.768758      -265.8214
   3   2.0000      -0.601443       -16.3661
   4   2.0000      -0.463915       -12.6238
   5   2.0000      -0.316919        -8.6238
   6   2.0000      -0.200613        -5.4590
   7   2.0000      -0.180550        -4.9130
   8   2.0000      -0.124909        -3.3990
   9   2.0000      -0.111487        -3.0337
  10   2.0000      -0.058364        -1.5882
  11   2.0000       0.082443         2.2434
  12   2.0000       0.085740         2.3331
  13   0.0000       0.208701         5.6790
  14   0.0000       0.243334         6.6215
  15   0.0000       0.266849         7.2613
  16   0.0000       0.272695         7.4204
  17   0.0000       0.303787         8.2665

MULLIKEN ATOMIC CHARGES
-----------------------
   0 C :    0.056321
   1 O :   -0.755753
   2 C :   -0.098283
   3 H :   -0.088373
   4 H :   -0.081967
   5 H :    0.010816
   6 H :   -0.055165
   7 H :    0.012405
Sum of atomic charges:   -1.0000000

LOEWDIN ATOMIC CHARGES
----------------------
   0 C :   -0.550457
   1 O :   -0.407614
   2 C :   -0.358566
   3 H :    0.043988
   4 H :    0.046736
   5 H :    0.080701
   6 H :    0.064552
   7 H :    0.080659

  Mayer bond orders larger than 0.100000
B(  0-C ,  1-O ) :   1.6374 B(  0-C ,  2-C ) :   0.8920 B(  0-C ,  3-H ) :   0.9032
B(  0-C ,  4-H ) :   0.9043 B(  1-O ,  2-C ) :  -0.3189 B(  1-O ,  6-H ) :   0.1304
B(  2-C ,  5-H ) :   0.9513 B(  2-C ,  6-H ) :   0.8986 B(  2-C ,  7-H ) :   0.9560

Dispersion correction           -0.004548895
FINAL SINGLE POINT ENERGY      -154.504916007540

DIPOLE MOMENT
-------------
                                X             Y             Z
Electronic contribution:      1.24594      -1.85515      -2.26996
Nuclear contribution   :     -1.83256       2.47114       3.17273
                        -----------------------------------------
Total Dipole Moment    :     -0.58661       0.61600       0.90277
                        -----------------------------------------
Magnitude (a.u.)       :      1.24039
Magnitude (Debye)      :      3.15282

Rotational constants in cm-1:     1.286062     0.322579     0.284728
Rotational constants in MHz : 38555.180127  9670.683110  8535.939140

                             ****ORCA TERMINATED NORMALLY****
TOTAL RUN TIME: 0 days 0 hours 0 minutes 7 seconds 180 msec
