                         Program Version 5.0.0 -  RELEASE  -
|  1> !TPSS D3BJ RIJCOSX def2-TZVP def2/J TightSCF
|  2> *xyz 1 1
|  3> C         -0.70169        4.07250       -4.00392
|  4> N          0.68053        4.61482       -4.04800
|  5> H          0.69993        5.58489       -4.38827
|  6> H          1.27804        4.05598       -4.66824
|  7> H          1.08573        4.53358       -3.10652
|  8> C         -1.70347        5.09320       -3.47740
|  9> H         -0.99590        3.74039       -5.00065
| 10> H         -0.64358        3.20191       -3.35153
| 11> H         -1.73704        5.93384       -4.13853
| 12> H         -1.40338        5.41759       -2.50291
| 13> H         -2.67335        4.64479       -3.42108
| 14> *
| 15> %MaxCore 64000
| 16>
| 17> %pal nprocs 4
| 18> end
| 19>
| 20> %scf
| 21>   MaxIter 150
| 22> end
| 23>
| 24>
| 25>                          ****END OF INPUT****

CARTESIAN COORDINATES (ANGSTROEM)
---------------------------------
  C     -0.701690    4.072500   -4.003920
  N      0.680530    4.614820   -4.048000
  H      0.699930    5.584890   -4.388270
  H      1.278040    4.055980   -4.668240
  H      1.085730    4.533580   -3.106520
  C     -1.703470    5.093200   -3.477400
  H     -0.995900    3.740390   -5.000650
  H     -0.643580    3.201910   -3.351530
  H     -1.737040    5.933840   -4.138530
  H     -1.403380    5.417590   -2.502910
  H     -2.673350    4.644790   -3.421080

 Total Charge           Charge          ....    1
 Multiplicity           Mult            ....    1
 Number of Electrons    NEL             ....   26
 Basis Dimension        Dim             ....  141

ORBITAL ENERGIES
----------------

  NO   OCC          E(Eh)            E(eV)
   0   2.0000     -14.436063      -392.8252
   1   2.0000     -10.238565      -278.6055
   2   2.0000     -10.161293      -276.5028
   3   2.0000      -1.157178       -31.4884
   4   2.0000      -0.911537       -24.8042
   5   2.0000      -0.796645       -21.6778
   6   2.0000      -0.759853       -20.6766
   7   2.0000      -0.742451       -20.2031
   8   2.0000      -0.655323       -17.8322
   9   2.0000      -0.603734       -16.4284
  10   2.0000      -0.545926       -14.8554
  11   2.0000      -0.531018       -14.4497
  12   2.0000      -0.516677       -14.0595
  13   0.0000      -0.209490        -5.7005
  14   0.0000      -0.152364        -4.1460
  15   0.0000      -0.145614        -3.9624
  16   0.0000      -0.125222        -3.4075
  17   0.0000      -0.087038        -2.3684

MULLIKEN ATOMIC CHARGES
-----------------------
   0 C :   -0.195842
   1 N :   -0.287226
   2 H :    0.324615
   3 H :    0.329586
   4 H :    0.329150
   5 C :   -0.348365
   6 H :    0.187341
   7 H :    0.182740
   8 H :    0.151766
   9 H :    0.145386
  10 H :    0.180848
Sum of atomic charges:    1.0000000

LOEWDIN ATOMIC CHARGES
----------------------
   0 C :   -0.274928
   1 N :    0.175152
   2 H :    0.219930
   3 H :    0.220743
   4 H :    0.224195
   5 C :   -0.268472
   6 H :    0.151030
   7 H :    0.149730
   8 H :    0.128674
   9 H :    0.127757
  10 H :    0.146188

  Mayer bond orders larger than 0.100000
B(  0-C ,  1-N ) :   0.8846 B(  0-C ,  5-C ) :   1.0418 B(  0-C ,  6-H ) :   0.9420
B(  0-C ,  7-H ) :   0.9444 B(  1-N ,  2-H ) :   0.8704 B(  1-N ,  3-H ) :   0.8759
B(  1-N ,  4-H ) :   0.8773 B(  5-C ,  8-H ) :   0.9546 B(  5-C ,  9-H ) :   0.9554
B(  5-C , 10-H ) :   0.9498

Dispersion correction           -0.007440996
FINAL SINGLE POINT ENERGY      -135.613026705512

DIPOLE MOMENT
-------------
                                X             Y             Z
Electronic contribution:      1.75590      -0.32637      -0.45360
Nuclear contribution   :     -0.23930       0.27560       0.19485
                        -----------------------------------------
Total Dipole Moment    :      1.51660      -0.05077      -0.25875
                        -----------------------------------------
Magnitude (a.u.)       :      1.53935
Magnitude (Debye)      :      3.91272

Rotational constants in cm-1:     1.018556     0.279088     0.248454
Rotational constants in MHz : 30535.536069  8366.847891  7448.451392

                             ****ORCA TERMINATED NORMALLY****
TOTAL RUN TIME: 0 days 0 hours 0 minutes 7 seconds 936 msec
