                         Program Version 5.0.0 -  RELEASE  -
|  1> !TPSS D3BJ RIJCOSX def2-TZVP def2/J TightSCF
|  2> *xyz 0 1
|  3> C          1.44442        5.26658       -0.97546
|  4> F          1.56525        4.23349       -1.86489
|  5> C          0.14812        5.21087       -0.13809
|  6> H          1.47425        6.26464       -1.47692
|  7> H          2.28962        5.30327       -0.26445
|  8> H         -0.69779        5.17417       -0.79230
|  9> H          0.08430        6.08276        0.47887
| 10> H          0.15965        4.33708        0.47938
| 11> *
| 12> %MaxCore 64000
| 13>
| 14> %pal nprocs 4
| 15> end
| 16>
| 17> %scf
| 18>   MaxIter 150
| 19> end
| 20>
| 21>
| 22>                          ****END OF INPUT****

CARTESIAN COORDINATES (ANGSTROEM)
---------------------------------
  C      1.444420    5.266580   -0.975460
  F      1.565250    4.233490   -1.864890
  C      0.148120    5.210870   -0.138090
  H      1.474250    6.264640   -1.476920
  H      2.289620    5.303270   -0.264450
  H     -0.697790    5.174170   -0.792300
  H      0.084300    6.082760    0.478870
  H      0.159650    4.337080    0.479380

 Total Charge           Charge          ....    0
 Multiplicity           Mult            ....    1
 Number of Electrons    NEL             ....   26
 Basis Dimension        Dim             ....  123

ORBITAL ENERGIES
----------------

  NO   OCC          E(Eh)            E(eV)
   0   2.0000     -24.394270      -663.8018
   1   2.0000     -10.061145      -273.7777
   2   2.0000      -9.980536      -271.5842
   3   2.0000      -1.120611       -30.4934
   4   2.0000      -0.707246       -19.2452
   5   2.0000      -0.581269       -15.8171
   6   2.0000      -0.458103       -12.4656
   7   2.0000      -0.444225       -12.0880
   8   2.0000      -0.405497       -11.0341
   9   2.0000      -0.362655        -9.8684
  10   2.0000      -0.360318        -9.8047
  11   2.0000      -0.289400        -7.8750
  12   2.0000      -0.286865        -7.8060
  13   0.0000       0.032279         0.8784
  14   0.0000       0.069330         1.8866
  15   0.0000       0.076982         2.0948
  16   0.0000       0.086655         2.3580
  17   0.0000       0.102003         2.7756

MULLIKEN ATOMIC CHARGES
-----------------------
   0 C :    0.025062
   1 F :   -0.220287
   2 C :   -0.315685
   3 H :    0.085272
   4 H :    0.086502
   5 H :    0.115943
   6 H :    0.108108
   7 H :    0.115085
Sum of atomic charges:    0.0000000

LOEWDIN ATOMIC CHARGES
----------------------
   0 C :   -0.371600
   1 F :    0.103593
   2 C :   -0.303061
   3 H :    0.113628
   4 H :    0.112107
   5 H :    0.113829
   6 H :    0.118578
   7 H :    0.112926

  Mayer bond orders larger than 0.100000
B(  0-C ,  1-F ) :   1.0219 B(  0-C ,  2-C ) :   1.0229 B(  0-C ,  3-H ) :   0.9617
B(  0-C ,  4-H ) :   0.9614 B(  2-C ,  5-H ) :   0.9655 B(  2-C ,  6-H ) :   0.9523
B(  2-C ,  7-H ) :   0.9669

Dispersion correction           -0.004196010
FINAL SINGLE POINT ENERGY      -179.157060548829

DIPOLE MOMENT
-------------
                                X             Y             Z
Electronic contribution:      2.30799      -2.78530      -3.73731
Nuclear contribution   :     -2.43357       3.25919       4.19687
                        -----------------------------------------
Total Dipole Moment    :     -0.12558       0.47389       0.45956
                        -----------------------------------------
Magnitude (a.u.)       :      0.67197
Magnitude (Debye)      :      1.70800

Rotational constants in cm-1:     1.264662     0.300144     0.266170
Rotational constants in MHz : 37913.611527  8998.095216  7979.576054

                             ****ORCA TERMINATED NORMALLY****
TOTAL RUN TIME: 0 days 0 hours 0 minutes 6 seconds 386 msec
