                         Program Version 5.0.0 -  RELEASE  -
|  1> !TPSS D3BJ RIJCOSX def2-TZVP def2/J TightSCF
|  2> *xyz 0 1
|  3> C         -0.70169        4.07250       -4.00392
|  4> C          0.68053        4.61482       -4.04800
|  5> H          0.69993        5.58489       -4.38827
|  6> H          1.27804        4.05598       -4.66824
|  7> H          1.08573        4.53358       -3.10652
|  8> C         -1.70347        5.09320       -3.47740
|  9> H         -0.99590        3.74039       -5.00065
| 10> H         -0.64358        3.20191       -3.35153
| 11> H         -1.73704        5.93384       -4.13853
| 12> H         -1.40338        5.41759       -2.50291
| 13> H         -2.67335        4.64479       -3.42108
| 14> *
| 15> %MaxCore 64000
| 16>
| 17> %pal nprocs 4
| 18> end
| 19>
| 20> %scf
| 21>   MaxIter 150
| 22> end
| 23>
| 24>
| 25>                          ****END OF INPUT****

CARTESIAN COORDINATES (ANGSTROEM)
---------------------------------
  C     -0.701690    4.072500   -4.003920
  C      0.680530    4.614820   -4.048000
  H      0.699930    5.584890   -4.388270
  H      1.278040    4.055980   -4.668240
  H      1.085730    4.533580   -3.106520
  C     -1.703470    5.093200   -3.477400
  H     -0.995900    3.740390   -5.000650
  H     -0.643580    3.201910   -3.351530
  H     -1.737040    5.933840   -4.138530
  H     -1.403380    5.417590   -2.502910
  H     -2.673350    4.644790   -3.421080

 Total Charge           Charge          ....    0
 Multiplicity           Mult            ....    1
 Number of Electrons    NEL             ....   26
 Basis Dimension        Dim             ....  141

ORBITAL ENERGIES
----------------

  NO   OCC          E(Eh)            E(eV)
   0   2.0000      -9.969730      -271.2901
   1   2.0000      -9.962760      -271.1005
   2   2.0000      -9.944252      -270.5969
   3   2.0000      -0.733901       -19.9705
   4   2.0000      -0.638456       -17.3733
   5   2.0000      -0.537531       -14.6270
   6   2.0000      -0.427348       -11.6287
   7   2.0000      -0.403046       -10.9674
   8   2.0000      -0.362685        -9.8692
   9   2.0000      -0.353567        -9.6210
  10   2.0000      -0.298823        -8.1314
  11   2.0000      -0.297385        -8.0922
  12   2.0000      -0.291131        -7.9221
  13   0.0000       0.031664         0.8616
  14   0.0000       0.073178         1.9913
  15   0.0000       0.080033         2.1778
  16   0.0000       0.083726         2.2783
  17   0.0000       0.103469         2.8155

MULLIKEN ATOMIC CHARGES
-----------------------
   0 C :   -0.138138
   1 C :   -0.326117
   2 H :    0.101443
   3 H :    0.110337
   4 H :    0.105076
   5 C :   -0.326138
   6 H :    0.080507
   7 H :    0.078870
   8 H :    0.103556
   9 H :    0.101304
  10 H :    0.109299
Sum of atomic charges:   -0.0000000

LOEWDIN ATOMIC CHARGES
----------------------
   0 C :   -0.316704
   1 C :   -0.298374
   2 H :    0.105767
   3 H :    0.106746
   4 H :    0.108799
   5 C :   -0.299112
   6 H :    0.126511
   7 H :    0.129716
   8 H :    0.112213
   9 H :    0.112684
  10 H :    0.111754

  Mayer bond orders larger than 0.100000
B(  0-C ,  1-C ) :   1.0149 B(  0-C ,  5-C ) :   1.0207 B(  0-C ,  6-H ) :   0.9579
B(  0-C ,  7-H ) :   0.9609 B(  1-C ,  2-H ) :   0.9739 B(  1-C ,  3-H ) :   0.9737
B(  1-C ,  4-H ) :   0.9761 B(  5-C ,  8-H ) :   0.9719 B(  5-C ,  9-H ) :   0.9723
B(  5-C , 10-H ) :   0.9713

Dispersion correction           -0.007465617
FINAL SINGLE POINT ENERGY      -119.197214883491

DIPOLE MOMENT
-------------
                                X             Y             Z
Electronic contribution:     -0.13567      -0.30773      -0.13768
Nuclear contribution   :      0.16058       0.27975       0.12812
                        -----------------------------------------
Total Dipole Moment    :      0.02490      -0.02798      -0.00956
                        -----------------------------------------
Magnitude (a.u.)       :      0.03866
Magnitude (Debye)      :      0.09827

Rotational constants in cm-1:     1.027122     0.293327     0.260229
Rotational constants in MHz : 30792.337141  8793.723318  7801.458329

                             ****ORCA TERMINATED NORMALLY****
TOTAL RUN TIME: 0 days 0 hours 0 minutes 8 seconds 0 msec
