                         Program Version 5.0.0 -  RELEASE  -
|  1> !LC-PBE RIJCOSX def2-SVPD def2/J TightSCF
|  2> *xyz -1 1
|  3> C         -0.72184       -0.99951       -3.43931
|  4> C          0.28725       -1.71177       -2.52740
|  5> H          1.13178       -2.06738       -3.15940
|  6> H         -0.20414       -2.63733       -2.17048
|  7> O          0.71050       -0.92751       -1.48177
|  8> H         -1.01315       -1.65739       -4.23129
|  9> H         -0.27123       -0.12142       -3.85259
| 10> H         -1.58442       -0.72333       -2.86958
| 11> *
| 12> %MaxCore 64000
| 13>
| 14> %pal nprocs 4
| 15> end
| 16>
| 17> %scf
| 18>   MaxIter 150
| 19> end
| 20>
| 21>
| 22>                          ****END OF INPUT****

CARTESIAN COORDINATES (ANGSTROEM)
---------------------------------
  C     -0.721840   -0.999510   -3.439310
  C      0.287250   -1.711770   -2.527400
  H      1.131780   -2.067380   -3.159400
  H     -0.204140   -2.637330   -2.170480
  O      0.710500   -0.927510   -1.481770
  H     -1.013150   -1.657390   -4.231290
  H     -0.271230   -0.121420   -3.852590
  H     -1.584420   -0.723330   -2.869580

 Total Charge           Charge          ....   -1
 Multiplicity           Mult            ....    1
 Number of Electrons    NEL             ....   26
 Basis Dimension        Dim             ....  103

ORBITAL ENERGIES
----------------

  NO   OCC          E(Eh)            E(eV)
   0   2.0000     -18.647057      -507.4122
   1   2.0000      -9.939114      -270.4570
   2   2.0000      -9.917342      -269.8646
   3   2.0000      -0.830931       -22.6108
   4   2.0000      -0.688319       -18.7301
   5   2.0000      -0.522692       -14.2232
   6   2.0000      -0.395429       -10.7602
   7   2.0000      -0.367836       -10.0093
   8   2.0000      -0.310271        -8.4429
   9   2.0000      -0.288039        -7.8379
  10   2.0000      -0.240377        -6.5410
  11   2.0000      -0.091660        -2.4942
  12   2.0000      -0.088675        -2.4130
  13   0.0000       0.244419         6.6510
  14   0.0000       0.276918         7.5353
  15   0.0000       0.317395         8.6368
  16   0.0000       0.330190         8.9849
  17   0.0000       0.345116         9.3911

MULLIKEN ATOMIC CHARGES
-----------------------
   0 C :    0.143344
   1 C :   -0.031400
   2 H :   -0.086408
   3 H :   -0.092741
   4 O :   -0.873335
   5 H :   -0.003120
   6 H :   -0.030044
   7 H :   -0.026296
Sum of atomic charges:   -1.0000000

LOEWDIN ATOMIC CHARGES
----------------------
   0 C :    0.029010
   1 C :   -0.292129
   2 H :   -0.015694
   3 H :   -0.019519
   4 O :   -0.600141
   5 H :   -0.044066
   6 H :   -0.029098
   7 H :   -0.028363

  Mayer bond orders larger than 0.100000
B(  0-C ,  1-C ) :   1.1881 B(  0-C ,  5-H ) :   0.9015 B(  0-C ,  6-H ) :   0.9269
B(  0-C ,  7-H ) :   0.9225 B(  1-C ,  2-H ) :   1.0011 B(  1-C ,  3-H ) :   0.9952
B(  1-C ,  4-O ) :   1.2910 B(  1-C ,  6-H ) :   0.1396 B(  1-C ,  7-H ) :   0.1409

FINAL SINGLE POINT ENERGY      -153.847276773511

DIPOLE MOMENT
-------------
                                X             Y             Z
Electronic contribution:      1.35061       0.61489       2.15928
Nuclear contribution   :     -2.24828      -1.06600      -3.62481
                        -----------------------------------------
Total Dipole Moment    :     -0.89766      -0.45111      -1.46552
                        -----------------------------------------
Magnitude (a.u.)       :      1.77681
Magnitude (Debye)      :      4.51629

Rotational constants in cm-1:     1.278116     0.325414     0.286672
Rotational constants in MHz : 38316.964654  9755.653004  8594.216906

                             ****ORCA TERMINATED NORMALLY****
TOTAL RUN TIME: 0 days 0 hours 0 minutes 11 seconds 92 msec
