                         Program Version 5.0.0 -  RELEASE  -
|  1> !LC-PBE RIJCOSX def2-SVPD def2/J TightSCF
|  2> *xyz 1 1
|  3> C          3.48828        1.60092       -1.52204
|  4> C          4.34297        1.31342       -2.75683
|  5> N          2.81029        0.42878       -1.01420
|  6> H          2.71455        2.33145       -1.76030
|  7> H          4.09099        2.06315       -0.73338
|  8> C          3.29098       -0.41802       -0.12908
|  9> N          2.51754       -1.43202        0.23936
| 10> N          4.53549       -0.28441        0.39580
| 11> H          5.04363        0.57189        0.22290
| 12> H          4.72335       -0.73327        1.28180
| 13> H          1.93479        0.10230       -1.40379
| 14> H          1.67464       -1.50562       -0.31610
| 15> H          2.92850       -2.21850        0.72549
| 16> H          3.73575        0.86277       -3.51385
| 17> H          5.13754        0.64699       -2.49333
| 18> H          4.75374        2.22930       -3.12740
| 19> *
| 20> %MaxCore 64000
| 21>
| 22> %pal nprocs 4
| 23> end
| 24>
| 25> %scf
| 26>   MaxIter 150
| 27> end
| 28>
| 29>
| 30>                          ****END OF INPUT****

CARTESIAN COORDINATES (ANGSTROEM)
---------------------------------
  C      3.488280    1.600920   -1.522040
  C      4.342970    1.313420   -2.756830
  N      2.810290    0.428780   -1.014200
  H      2.714550    2.331450   -1.760300
  H      4.090990    2.063150   -0.733380
  C      3.290980   -0.418020   -0.129080
  N      2.517540   -1.432020    0.239360
  N      4.535490   -0.284410    0.395800
  H      5.043630    0.571890    0.222900
  H      4.723350   -0.733270    1.281800
  H      1.934790    0.102300   -1.403790
  H      1.674640   -1.505620   -0.316100
  H      2.928500   -2.218500    0.725490
  H      3.735750    0.862770   -3.513850
  H      5.137540    0.646990   -2.493330
  H      4.753740    2.229300   -3.127400

 Total Charge           Charge          ....    1
 Multiplicity           Mult            ....    1
 Number of Electrons    NEL             ....   48
 Basis Dimension        Dim             ....  200

ORBITAL ENERGIES
----------------

  NO   OCC          E(Eh)            E(eV)
   0   2.0000     -14.462966      -393.5573
   1   2.0000     -14.455802      -393.3624
   2   2.0000     -14.453153      -393.2903
   3   2.0000     -10.473803      -285.0067
   4   2.0000     -10.339318      -281.3472
   5   2.0000     -10.262892      -279.2675
   6   2.0000      -1.395872       -37.9836
   7   2.0000      -1.274323       -34.6761
   8   2.0000      -1.258242       -34.2385
   9   2.0000      -1.103459       -30.0266
  10   2.0000      -0.996254       -27.1094
  11   2.0000      -0.966431       -26.2979
  12   2.0000      -0.936697       -25.4888
  13   2.0000      -0.899139       -24.4668
  14   2.0000      -0.837406       -22.7870
  15   2.0000      -0.825484       -22.4626
  16   2.0000      -0.803621       -21.8676
  17   2.0000      -0.792328       -21.5603
  18   2.0000      -0.745827       -20.2950
  19   2.0000      -0.703439       -19.1415
  20   2.0000      -0.667353       -18.1596
  21   2.0000      -0.644260       -17.5312
  22   2.0000      -0.614587       -16.7238
  23   2.0000      -0.581870       -15.8335
  24   0.0000      -0.083033        -2.2594
  25   0.0000      -0.074584        -2.0295
  26   0.0000      -0.043342        -1.1794
  27   0.0000      -0.032493        -0.8842
  28   0.0000      -0.003574        -0.0972

MULLIKEN ATOMIC CHARGES
-----------------------
   0 C :    0.081855
   1 C :    0.411043
   2 N :   -0.445253
   3 H :   -0.136245
   4 H :    0.000349
   5 C :    1.273211
   6 N :   -0.101246
   7 N :   -0.086772
   8 H :    0.007705
   9 H :   -0.068764
  10 H :   -0.167101
  11 H :    0.068673
  12 H :   -0.011888
  13 H :    0.034451
  14 H :    0.018311
  15 H :    0.121673
Sum of atomic charges:    1.0000000

LOEWDIN ATOMIC CHARGES
----------------------
   0 C :    0.017733
   1 C :    0.129413
   2 N :    0.031058
   3 H :    0.053642
   4 H :    0.039867
   5 C :   -0.029211
   6 N :    0.247279
   7 N :    0.266494
   8 H :    0.017572
   9 H :    0.044306
  10 H :    0.068604
  11 H :    0.042290
  12 H :    0.054955
  13 H :    0.005722
  14 H :   -0.003565
  15 H :    0.013842

  Mayer bond orders larger than 0.100000
B(  0-C ,  1-C ) :   1.2574 B(  0-C ,  2-N ) :   0.9650 B(  0-C ,  3-H ) :   0.9790
B(  0-C ,  4-H ) :   0.8910 B(  0-C , 10-H ) :  -0.1909 B(  0-C , 13-H ) :   0.1876
B(  0-C , 14-H ) :   0.1566 B(  0-C , 15-H ) :   0.1210 B(  1-C , 13-H ) :   0.8433
B(  1-C , 14-H ) :   0.8658 B(  1-C , 15-H ) :   0.8289 B(  2-N ,  3-H ) :   0.1445
B(  2-N ,  4-H ) :   0.1267 B(  2-N ,  5-C ) :   1.0247 B(  2-N ,  6-N ) :   0.2573
B(  2-N ,  7-N ) :   0.1904 B(  2-N , 10-H ) :   1.3266 B(  5-C ,  6-N ) :   0.9095
B(  5-C ,  7-N ) :   0.9258 B(  5-C ,  9-H ) :  -0.1247 B(  5-C , 10-H ) :  -0.2584
B(  6-N ,  7-N ) :   0.1337 B(  6-N , 11-H ) :   1.0502 B(  6-N , 12-H ) :   1.1657
B(  7-N ,  8-H ) :   1.0243 B(  7-N ,  9-H ) :   1.2328 B(  8-H ,  9-H ) :  -0.1540
B( 11-H , 12-H ) :  -0.1327

FINAL SINGLE POINT ENERGY      -283.311797668116

DIPOLE MOMENT
-------------
                                X             Y             Z
Electronic contribution:     -1.93921      -3.01102       3.74821
Nuclear contribution   :      1.59382       2.33278      -3.02574
                        -----------------------------------------
Total Dipole Moment    :     -0.34540      -0.67824       0.72247
                        -----------------------------------------
Magnitude (a.u.)       :      1.04942
Magnitude (Debye)      :      2.66741

Rotational constants in cm-1:     0.232230     0.073139     0.063030
Rotational constants in MHz :  6962.079716  2192.649203  1889.578947

                             ****ORCA TERMINATED NORMALLY****
TOTAL RUN TIME: 0 days 0 hours 0 minutes 36 seconds 117 msec
