                         Program Version 5.0.0 -  RELEASE  -
|  1> !LC-PBE RIJCOSX def2-SVPD def2/J TightSCF
|  2> *xyz 0 1
|  3> C         -0.72184       -0.99951       -3.43931
|  4> C          0.28725       -1.71177       -2.52740
|  5> H          1.13178       -2.06738       -3.15940
|  6> H         -0.20414       -2.63733       -2.17048
|  7> F          0.71050       -0.92751       -1.48177
|  8> H         -1.01315       -1.65739       -4.23129
|  9> H         -0.27123       -0.12142       -3.85259
| 10> H         -1.58442       -0.72333       -2.86958
| 11> *
| 12> %MaxCore 64000
| 13>
| 14> %pal nprocs 4
| 15> end
| 16>
| 17> %scf
| 18>   MaxIter 150
| 19> end
| 20>
| 21>
| 22>                          ****END OF INPUT****

CARTESIAN COORDINATES (ANGSTROEM)
---------------------------------
  C     -0.721840   -0.999510   -3.439310
  C      0.287250   -1.711770   -2.527400
  H      1.131780   -2.067380   -3.159400
  H     -0.204140   -2.637330   -2.170480
  F      0.710500   -0.927510   -1.481770
  H     -1.013150   -1.657390   -4.231290
  H     -0.271230   -0.121420   -3.852590
  H     -1.584420   -0.723330   -2.869580

 Total Charge           Charge          ....    0
 Multiplicity           Mult            ....    1
 Number of Electrons    NEL             ....   26
 Basis Dimension        Dim             ....  103

ORBITAL ENERGIES
----------------

  NO   OCC          E(Eh)            E(eV)
   0   2.0000     -24.494303      -666.5239
   1   2.0000     -10.210228      -277.8344
   2   2.0000     -10.124138      -275.4918
   3   2.0000      -1.338969       -36.4352
   4   2.0000      -0.936086       -25.4722
   5   2.0000      -0.789937       -21.4953
   6   2.0000      -0.659508       -17.9461
   7   2.0000      -0.650110       -17.6904
   8   2.0000      -0.608403       -16.5555
   9   2.0000      -0.547658       -14.9025
  10   2.0000      -0.538605       -14.6562
  11   2.0000      -0.474149       -12.9022
  12   2.0000      -0.463861       -12.6223
  13   0.0000       0.091156         2.4805
  14   0.0000       0.121265         3.2998
  15   0.0000       0.155889         4.2420
  16   0.0000       0.158489         4.3127
  17   0.0000       0.186972         5.0878

MULLIKEN ATOMIC CHARGES
-----------------------
   0 C :    0.092519
   1 C :    0.215915
   2 H :    0.025244
   3 H :    0.015870
   4 F :   -0.422814
   5 H :    0.041160
   6 H :    0.014191
   7 H :    0.017914
Sum of atomic charges:    0.0000000

LOEWDIN ATOMIC CHARGES
----------------------
   0 C :    0.100242
   1 C :    0.033620
   2 H :    0.045099
   3 H :    0.040525
   4 F :   -0.213262
   5 H :   -0.001209
   6 H :   -0.002792
   7 H :   -0.002223

  Mayer bond orders larger than 0.100000
B(  0-C ,  1-C ) :   1.3171 B(  0-C ,  5-H ) :   0.8885 B(  0-C ,  6-H ) :   0.9239
B(  0-C ,  7-H ) :   0.9197 B(  1-C ,  2-H ) :   0.9701 B(  1-C ,  3-H ) :   0.9690
B(  1-C ,  4-F ) :   0.8132 B(  1-C ,  6-H ) :   0.1041 B(  1-C ,  7-H ) :   0.1065

FINAL SINGLE POINT ENERGY      -178.438757450286

DIPOLE MOMENT
-------------
                                X             Y             Z
Electronic contribution:      2.67929       1.00834       4.16963
Nuclear contribution   :     -2.97459      -1.40206      -4.79987
                        -----------------------------------------
Total Dipole Moment    :     -0.29530      -0.39372      -0.63024
                        -----------------------------------------
Magnitude (a.u.)       :      0.79964
Magnitude (Debye)      :      2.03252

Rotational constants in cm-1:     1.257024     0.302702     0.267953
Rotational constants in MHz : 37684.643733  9074.792567  8033.038070

                             ****ORCA TERMINATED NORMALLY****
TOTAL RUN TIME: 0 days 0 hours 0 minutes 9 seconds 285 msec
