                         Program Version 5.0.0 -  RELEASE  -
|  1> !LC-PBE RIJCOSX def2-SVPD def2/J TightSCF
|  2> *xyz 0 1
|  3> C          3.48828        1.60092       -1.52204
|  4> C          4.34297        1.31342       -2.75683
|  5> C          2.81029        0.42878       -1.01420
|  6> H          2.71455        2.33145       -1.76030
|  7> H          4.09099        2.06315       -0.73338
|  8> C          3.29098       -0.41802       -0.12908
|  9> N          2.51754       -1.43202        0.23936
| 10> N          4.53549       -0.28441        0.39580
| 11> H          5.04363        0.57189        0.22290
| 12> H          4.72335       -0.73327        1.28180
| 13> H          1.93479        0.10230       -1.40379
| 14> H          1.67464       -1.50562       -0.31610
| 15> H          2.92850       -2.21850        0.72549
| 16> H          3.73575        0.86277       -3.51385
| 17> H          5.13754        0.64699       -2.49333
| 18> H          4.75374        2.22930       -3.12740
| 19> *
| 20> %MaxCore 64000
| 21>
| 22> %pal nprocs 4
| 23> end
| 24>
| 25> %scf
| 26>   MaxIter 150
| 27> end
| 28>
| 29>
| 30>                          ****END OF INPUT****

CARTESIAN COORDINATES (ANGSTROEM)
---------------------------------
  C      3.488280    1.600920   -1.522040
  C      4.342970    1.313420   -2.756830
  C      2.810290    0.428780   -1.014200
  H      2.714550    2.331450   -1.760300
  H      4.090990    2.063150   -0.733380
  C      3.290980   -0.418020   -0.129080
  N      2.517540   -1.432020    0.239360
  N      4.535490   -0.284410    0.395800
  H      5.043630    0.571890    0.222900
  H      4.723350   -0.733270    1.281800
  H      1.934790    0.102300   -1.403790
  H      1.674640   -1.505620   -0.316100
  H      2.928500   -2.218500    0.725490
  H      3.735750    0.862770   -3.513850
  H      5.137540    0.646990   -2.493330
  H      4.753740    2.229300   -3.127400

 Total Charge           Charge          ....    0
 Multiplicity           Mult            ....    1
 Number of Electrons    NEL             ....   48
 Basis Dimension        Dim             ....  200

ORBITAL ENERGIES
----------------

  NO   OCC          E(Eh)            E(eV)
   0   2.0000     -14.229826      -387.2132
   1   2.0000     -14.224943      -387.0804
   2   2.0000     -10.172656      -276.8120
   3   2.0000     -10.105507      -274.9848
   4   2.0000     -10.092484      -274.6305
   5   2.0000     -10.052017      -273.5293
   6   2.0000      -1.129483       -30.7348
   7   2.0000      -1.031361       -28.0648
   8   2.0000      -0.948443       -25.8085
   9   2.0000      -0.859406       -23.3856
  10   2.0000      -0.771137       -20.9837
  11   2.0000      -0.733300       -19.9541
  12   2.0000      -0.687758       -18.7148
  13   2.0000      -0.657330       -17.8869
  14   2.0000      -0.605546       -16.4777
  15   2.0000      -0.582409       -15.8482
  16   2.0000      -0.563092       -15.3225
  17   2.0000      -0.545660       -14.8482
  18   2.0000      -0.519378       -14.1330
  19   2.0000      -0.490714       -13.3530
  20   2.0000      -0.463785       -12.6202
  21   2.0000      -0.448208       -12.1964
  22   2.0000      -0.401240       -10.9183
  23   2.0000      -0.280021        -7.6197
  24   0.0000       0.090985         2.4758
  25   0.0000       0.113890         3.0991
  26   0.0000       0.122188         3.3249
  27   0.0000       0.131779         3.5859
  28   0.0000       0.151680         4.1274

MULLIKEN ATOMIC CHARGES
-----------------------
   0 C :   -0.300026
   1 C :    0.408920
   2 C :   -0.355301
   3 H :    0.043250
   4 H :    0.023144
   5 C :    0.685316
   6 N :   -0.094519
   7 N :   -0.104536
   8 H :    0.022183
   9 H :   -0.170794
  10 H :   -0.232915
  11 H :    0.110797
  12 H :   -0.127320
  13 H :    0.022655
  14 H :    0.000241
  15 H :    0.068905
Sum of atomic charges:   -0.0000000

LOEWDIN ATOMIC CHARGES
----------------------
   0 C :   -0.120337
   1 C :    0.089424
   2 C :   -0.060138
   3 H :    0.027383
   4 H :    0.018448
   5 C :   -0.228392
   6 N :    0.155636
   7 N :    0.186359
   8 H :   -0.012071
   9 H :   -0.002685
  10 H :   -0.035645
  11 H :    0.009883
  12 H :    0.005338
  13 H :   -0.006591
  14 H :   -0.012266
  15 H :   -0.014346

  Mayer bond orders larger than 0.100000
B(  0-C ,  1-C ) :   1.2362 B(  0-C ,  2-C ) :   1.2291 B(  0-C ,  3-H ) :   0.8902
B(  0-C ,  4-H ) :   0.8697 B(  0-C , 10-H ) :   0.1891 B(  0-C , 13-H ) :   0.1827
B(  0-C , 14-H ) :   0.1695 B(  0-C , 15-H ) :   0.1263 B(  1-C , 13-H ) :   0.8591
B(  1-C , 14-H ) :   0.8731 B(  1-C , 15-H ) :   0.8391 B(  2-C ,  3-H ) :   0.1807
B(  2-C ,  4-H ) :   0.2022 B(  2-C ,  5-C ) :   1.8006 B(  2-C ,  6-N ) :   0.3106
B(  2-C ,  7-N ) :   0.1700 B(  2-C , 10-H ) :   0.9784 B(  5-C ,  6-N ) :   0.8826
B(  5-C ,  7-N ) :   0.8971 B(  5-C , 10-H ) :   0.1765 B(  6-N , 11-H ) :   1.0171
B(  6-N , 12-H ) :   1.1849 B(  7-N ,  8-H ) :   0.9956 B(  7-N ,  9-H ) :   1.2404
B(  8-H ,  9-H ) :  -0.1336 B( 11-H , 12-H ) :  -0.1286

FINAL SINGLE POINT ENERGY      -266.864810603473

DIPOLE MOMENT
-------------
                                X             Y             Z
Electronic contribution:     -1.26457      -2.89797       3.63195
Nuclear contribution   :      1.44676       2.38443      -3.07370
                        -----------------------------------------
Total Dipole Moment    :      0.18220      -0.51354       0.55825
                        -----------------------------------------
Magnitude (a.u.)       :      0.78011
Magnitude (Debye)      :      1.98288

Rotational constants in cm-1:     0.235977     0.073199     0.063283
Rotational constants in MHz :  7074.404583  2194.453291  1897.179599

                             ****ORCA TERMINATED NORMALLY****
TOTAL RUN TIME: 0 days 0 hours 0 minutes 35 seconds 25 msec
