                         Program Version 5.0.0 -  RELEASE  -
|  1> !LC-PBE RIJCOSX def2-SVPD def2/J TightSCF
|  2> *xyz 0 1
|  3> C          3.48828        1.60092       -1.52204
|  4> C          4.34297        1.31342       -2.75683
|  5> N          2.81029        0.42878       -1.01420
|  6> H          2.71455        2.33145       -1.76030
|  7> H          4.09099        2.06315       -0.73338
|  8> C          3.29098       -0.41802       -0.12908
|  9> C          2.51754       -1.43202        0.23936
| 10> N          4.53549       -0.28441        0.39580
| 11> H          5.04363        0.57189        0.22290
| 12> H          4.72335       -0.73327        1.28180
| 13> H          1.93479        0.10230       -1.40379
| 14> H          1.67464       -1.50562       -0.31610
| 15> H          2.92850       -2.21850        0.72549
| 16> H          3.73575        0.86277       -3.51385
| 17> H          5.13754        0.64699       -2.49333
| 18> H          4.75374        2.22930       -3.12740
| 19> *
| 20> %MaxCore 64000
| 21>
| 22> %pal nprocs 4
| 23> end
| 24>
| 25> %scf
| 26>   MaxIter 150
| 27> end
| 28>
| 29>
| 30>                          ****END OF INPUT****

CARTESIAN COORDINATES (ANGSTROEM)
---------------------------------
  C      3.488280    1.600920   -1.522040
  C      4.342970    1.313420   -2.756830
  N      2.810290    0.428780   -1.014200
  H      2.714550    2.331450   -1.760300
  H      4.090990    2.063150   -0.733380
  C      3.290980   -0.418020   -0.129080
  C      2.517540   -1.432020    0.239360
  N      4.535490   -0.284410    0.395800
  H      5.043630    0.571890    0.222900
  H      4.723350   -0.733270    1.281800
  H      1.934790    0.102300   -1.403790
  H      1.674640   -1.505620   -0.316100
  H      2.928500   -2.218500    0.725490
  H      3.735750    0.862770   -3.513850
  H      5.137540    0.646990   -2.493330
  H      4.753740    2.229300   -3.127400

 Total Charge           Charge          ....    0
 Multiplicity           Mult            ....    1
 Number of Electrons    NEL             ....   48
 Basis Dimension        Dim             ....  200

ORBITAL ENERGIES
----------------

  NO   OCC          E(Eh)            E(eV)
   0   2.0000     -14.232047      -387.2737
   1   2.0000     -14.229898      -387.2152
   2   2.0000     -10.178419      -276.9689
   3   2.0000     -10.171672      -276.7853
   4   2.0000     -10.117807      -275.3195
   5   2.0000     -10.035098      -273.0689
   6   2.0000      -1.141997       -31.0753
   7   2.0000      -1.047228       -28.4965
   8   2.0000      -0.946705       -25.7611
   9   2.0000      -0.866558       -23.5802
  10   2.0000      -0.787882       -21.4393
  11   2.0000      -0.752384       -20.4734
  12   2.0000      -0.687110       -18.6972
  13   2.0000      -0.648144       -17.6369
  14   2.0000      -0.620822       -16.8934
  15   2.0000      -0.582495       -15.8505
  16   2.0000      -0.577547       -15.7159
  17   2.0000      -0.544503       -14.8167
  18   2.0000      -0.513732       -13.9794
  19   2.0000      -0.506741       -13.7891
  20   2.0000      -0.503407       -13.6984
  21   2.0000      -0.487936       -13.2774
  22   2.0000      -0.390711       -10.6318
  23   2.0000      -0.280609        -7.6358
  24   0.0000       0.083780         2.2798
  25   0.0000       0.113577         3.0906
  26   0.0000       0.117826         3.2062
  27   0.0000       0.121434         3.3044
  28   0.0000       0.152981         4.1628

MULLIKEN ATOMIC CHARGES
-----------------------
   0 C :    0.106312
   1 C :    0.424193
   2 N :   -0.307964
   3 H :   -0.202642
   4 H :   -0.036360
   5 C :    0.601772
   6 C :    0.279147
   7 N :   -0.025166
   8 H :   -0.112347
   9 H :   -0.074159
  10 H :   -0.225226
  11 H :   -0.165564
  12 H :   -0.337825
  13 H :    0.001792
  14 H :    0.003738
  15 H :    0.070299
Sum of atomic charges:    0.0000000

LOEWDIN ATOMIC CHARGES
----------------------
   0 C :   -0.011943
   1 C :    0.101057
   2 N :   -0.033136
   3 H :    0.030883
   4 H :    0.023185
   5 C :   -0.233879
   6 C :    0.104815
   7 N :    0.186108
   8 H :   -0.024304
   9 H :    0.013514
  10 H :    0.042849
  11 H :   -0.091139
  12 H :   -0.083086
  13 H :   -0.006060
  14 H :   -0.010481
  15 H :   -0.008385

  Mayer bond orders larger than 0.100000
B(  0-C ,  1-C ) :   1.2411 B(  0-C ,  2-N ) :   0.9663 B(  0-C ,  3-H ) :   0.9868
B(  0-C ,  4-H ) :   0.8989 B(  0-C , 10-H ) :  -0.2127 B(  0-C , 13-H ) :   0.2013
B(  0-C , 14-H ) :   0.1675 B(  0-C , 15-H ) :   0.1294 B(  1-C , 13-H ) :   0.8432
B(  1-C , 14-H ) :   0.8652 B(  1-C , 15-H ) :   0.8425 B(  2-N ,  3-H ) :   0.1489
B(  2-N ,  4-H ) :   0.1298 B(  2-N ,  5-C ) :   1.0856 B(  2-N ,  6-C ) :   0.2484
B(  2-N ,  7-N ) :   0.1088 B(  2-N , 10-H ) :   1.2868 B(  5-C ,  6-C ) :   1.7411
B(  5-C ,  7-N ) :   0.8677 B(  5-C ,  9-H ) :  -0.1083 B(  5-C , 10-H ) :  -0.2079
B(  5-C , 11-H ) :   0.1805 B(  5-C , 12-H ) :   0.1731 B(  6-C ,  7-N ) :   0.1965
B(  6-C , 11-H ) :   0.8370 B(  6-C , 12-H ) :   0.7984 B(  7-N ,  8-H ) :   1.0306
B(  7-N ,  9-H ) :   1.1938 B(  8-H ,  9-H ) :  -0.1439

FINAL SINGLE POINT ENERGY      -266.850433842979

DIPOLE MOMENT
-------------
                                X             Y             Z
Electronic contribution:     -0.86727      -1.03300       2.41241
Nuclear contribution   :      1.38466       1.98967      -2.80776
                        -----------------------------------------
Total Dipole Moment    :      0.51738       0.95667      -0.39535
                        -----------------------------------------
Magnitude (a.u.)       :      1.15724
Magnitude (Debye)      :      2.94147

Rotational constants in cm-1:     0.235618     0.075969     0.065309
Rotational constants in MHz :  7063.646698  2277.495424  1957.925383

                             ****ORCA TERMINATED NORMALLY****
TOTAL RUN TIME: 0 days 0 hours 0 minutes 35 seconds 852 msec
