                         Program Version 5.0.0 -  RELEASE  -
|  1> !LC-PBE RIJCOSX def2-SVPD def2/J TightSCF
|  2> *xyz 0 1
|  3> C          3.48828        1.60092       -1.52204
|  4> C          4.34297        1.31342       -2.75683
|  5> N          2.81029        0.42878       -1.01420
|  6> H          2.71455        2.33145       -1.76030
|  7> H          4.09099        2.06315       -0.73338
|  8> C          3.29098       -0.41802       -0.12908
|  9> N          2.51754       -1.43202        0.23936
| 10> C          4.53549       -0.28441        0.39580
| 11> H          5.04363        0.57189        0.22290
| 12> H          4.72335       -0.73327        1.28180
| 13> H          1.93479        0.10230       -1.40379
| 14> H          1.67464       -1.50562       -0.31610
| 15> H          2.92850       -2.21850        0.72549
| 16> H          3.73575        0.86277       -3.51385
| 17> H          5.13754        0.64699       -2.49333
| 18> H          4.75374        2.22930       -3.12740
| 19> *
| 20> %MaxCore 64000
| 21>
| 22> %pal nprocs 4
| 23> end
| 24>
| 25> %scf
| 26>   MaxIter 150
| 27> end
| 28>
| 29>
| 30>                          ****END OF INPUT****

CARTESIAN COORDINATES (ANGSTROEM)
---------------------------------
  C      3.488280    1.600920   -1.522040
  C      4.342970    1.313420   -2.756830
  N      2.810290    0.428780   -1.014200
  H      2.714550    2.331450   -1.760300
  H      4.090990    2.063150   -0.733380
  C      3.290980   -0.418020   -0.129080
  N      2.517540   -1.432020    0.239360
  C      4.535490   -0.284410    0.395800
  H      5.043630    0.571890    0.222900
  H      4.723350   -0.733270    1.281800
  H      1.934790    0.102300   -1.403790
  H      1.674640   -1.505620   -0.316100
  H      2.928500   -2.218500    0.725490
  H      3.735750    0.862770   -3.513850
  H      5.137540    0.646990   -2.493330
  H      4.753740    2.229300   -3.127400

 Total Charge           Charge          ....    0
 Multiplicity           Mult            ....    1
 Number of Electrons    NEL             ....   48
 Basis Dimension        Dim             ....  200

ORBITAL ENERGIES
----------------

  NO   OCC          E(Eh)            E(eV)
   0   2.0000     -14.238876      -387.4595
   1   2.0000     -14.232522      -387.2866
   2   2.0000     -10.181936      -277.0646
   3   2.0000     -10.163648      -276.5669
   4   2.0000     -10.109803      -275.1017
   5   2.0000     -10.036815      -273.1156
   6   2.0000      -1.151239       -31.3268
   7   2.0000      -1.054077       -28.6829
   8   2.0000      -0.924231       -25.1496
   9   2.0000      -0.872308       -23.7367
  10   2.0000      -0.804069       -21.8798
  11   2.0000      -0.714361       -19.4388
  12   2.0000      -0.695325       -18.9208
  13   2.0000      -0.676969       -18.4213
  14   2.0000      -0.611837       -16.6489
  15   2.0000      -0.583905       -15.8889
  16   2.0000      -0.576894       -15.6981
  17   2.0000      -0.533079       -14.5058
  18   2.0000      -0.513986       -13.9863
  19   2.0000      -0.507616       -13.8129
  20   2.0000      -0.496117       -13.5000
  21   2.0000      -0.476687       -12.9713
  22   2.0000      -0.384047       -10.4505
  23   2.0000      -0.283706        -7.7200
  24   0.0000       0.085228         2.3192
  25   0.0000       0.108331         2.9478
  26   0.0000       0.119755         3.2587
  27   0.0000       0.123682         3.3656
  28   0.0000       0.155280         4.2254

MULLIKEN ATOMIC CHARGES
-----------------------
   0 C :    0.093059
   1 C :    0.438006
   2 N :   -0.444561
   3 H :   -0.189451
   4 H :    0.083719
   5 C :    0.625880
   6 N :   -0.041972
   7 C :    0.283448
   8 H :   -0.134579
   9 H :   -0.397736
  10 H :   -0.279907
  11 H :   -0.069775
  12 H :   -0.015031
  13 H :   -0.005995
  14 H :   -0.012714
  15 H :    0.067610
Sum of atomic charges:    0.0000000

LOEWDIN ATOMIC CHARGES
----------------------
   0 C :   -0.004374
   1 C :    0.105392
   2 N :   -0.034674
   3 H :    0.030319
   4 H :    0.030549
   5 C :   -0.239987
   6 N :    0.169246
   7 C :    0.125207
   8 H :   -0.114467
   9 H :   -0.094873
  10 H :    0.031718
  11 H :   -0.002303
  12 H :    0.024072
  13 H :   -0.009766
  14 H :   -0.008468
  15 H :   -0.007592

  Mayer bond orders larger than 0.100000
B(  0-C ,  1-C ) :   1.2145 B(  0-C ,  2-N ) :   0.9803 B(  0-C ,  3-H ) :   1.0062
B(  0-C ,  4-H ) :   0.8655 B(  0-C , 10-H ) :  -0.1903 B(  0-C , 13-H ) :   0.1769
B(  0-C , 14-H ) :   0.1705 B(  0-C , 15-H ) :   0.1293 B(  1-C , 13-H ) :   0.8551
B(  1-C , 14-H ) :   0.8767 B(  1-C , 15-H ) :   0.8463 B(  2-N ,  3-H ) :   0.1301
B(  2-N ,  4-H ) :   0.1179 B(  2-N ,  5-C ) :   0.9112 B(  2-N ,  6-N ) :   0.1741
B(  2-N ,  7-C ) :   0.3640 B(  2-N , 10-H ) :   1.3838 B(  5-C ,  6-N ) :   0.8672
B(  5-C ,  7-C ) :   1.8058 B(  5-C ,  8-H ) :   0.2399 B(  5-C ,  9-H ) :   0.1626
B(  5-C , 10-H ) :  -0.2765 B(  6-N ,  7-C ) :   0.2502 B(  6-N , 11-H ) :   1.0785
B(  6-N , 12-H ) :   1.1504 B(  7-C ,  8-H ) :   0.7189 B(  7-C ,  9-H ) :   0.8495
B(  8-H ,  9-H ) :   0.1201 B( 11-H , 12-H ) :  -0.1265

FINAL SINGLE POINT ENERGY      -266.850443233504

DIPOLE MOMENT
-------------
                                X             Y             Z
Electronic contribution:     -2.82276      -2.28573       2.18087
Nuclear contribution   :      1.81275       2.23313      -2.77458
                        -----------------------------------------
Total Dipole Moment    :     -1.01001      -0.05261      -0.59371
                        -----------------------------------------
Magnitude (a.u.)       :      1.17277
Magnitude (Debye)      :      2.98094

Rotational constants in cm-1:     0.245202     0.073668     0.064348
Rotational constants in MHz :  7350.977980  2208.513334  1929.108541

                             ****ORCA TERMINATED NORMALLY****
TOTAL RUN TIME: 0 days 0 hours 0 minutes 35 seconds 159 msec
