                         Program Version 5.0.0 -  RELEASE  -
|  1> !M062X D3Zero RIJCOSX def2-TZVP def2/J TightSCF
|  2> *xyz -1 1
|  3> C          0.84888        2.66797       -4.30235
|  4> C          2.09343        1.86104       -4.65684
|  5> H          2.44481        2.04157       -5.67499
|  6> H          2.90175        2.13786       -3.98034
|  7> S          1.87964        0.07859       -4.46297
|  8> O          3.20757       -0.46611       -4.42026
|  9> O          1.07506       -0.05616       -3.26876
| 10> O          1.13166       -0.31996       -5.67903
| 11> H          0.05064        2.40112       -4.96303
| 12> H          1.06043        3.71210       -4.40203
| 13> H          0.56237        2.45684       -3.29327
| 14> *
| 15>
| 16> %MaxCore 64000
| 17>
| 18> %pal nprocs 4
| 19> end
| 20>
| 21> %scf
| 22>   MaxIter 150
| 23> end
| 24>
| 25>
| 26>                          ****END OF INPUT****

CARTESIAN COORDINATES (ANGSTROEM)
---------------------------------
  C      0.848880    2.667970   -4.302350
  C      2.093430    1.861040   -4.656840
  H      2.444810    2.041570   -5.674990
  H      2.901750    2.137860   -3.980340
  S      1.879640    0.078590   -4.462970
  O      3.207570   -0.466110   -4.420260
  O      1.075060   -0.056160   -3.268760
  O      1.131660   -0.319960   -5.679030
  H      0.050640    2.401120   -4.963030
  H      1.060430    3.712100   -4.402030
  H      0.562370    2.456840   -3.293270

 Total Charge           Charge          ....   -1
 Multiplicity           Mult            ....    1
 Number of Electrons    NEL             ....   58
 Basis Dimension        Dim             ....  222

ORBITAL ENERGIES
----------------

  NO   OCC          E(Eh)            E(eV)
   0   2.0000     -89.883972     -2445.8672
   1   2.0000     -19.403495      -527.9959
   2   2.0000     -19.400385      -527.9113
   3   2.0000     -19.387149      -527.5511
   4   2.0000     -10.389445      -282.7112
   5   2.0000     -10.383882      -282.5598
   6   2.0000      -8.208588      -223.3670
   7   2.0000      -6.131349      -166.8425
   8   2.0000      -6.130112      -166.8088
   9   2.0000      -6.129924      -166.8037
  10   2.0000      -1.044655       -28.4265
  11   2.0000      -0.913644       -24.8615
  12   2.0000      -0.886822       -24.1316
  13   2.0000      -0.724230       -19.7073
  14   2.0000      -0.588080       -16.0025
  15   2.0000      -0.462423       -12.5832
  16   2.0000      -0.391381       -10.6500
  17   2.0000      -0.384038       -10.4502
  18   2.0000      -0.348850        -9.4927
  19   2.0000      -0.337670        -9.1885
  20   2.0000      -0.323110        -8.7923
  21   2.0000      -0.289002        -7.8641
  22   2.0000      -0.273732        -7.4486
  23   2.0000      -0.225808        -6.1445
  24   2.0000      -0.224801        -6.1172
  25   2.0000      -0.188362        -5.1256
  26   2.0000      -0.174943        -4.7604
  27   2.0000      -0.161872        -4.4048
  28   2.0000      -0.135661        -3.6915
  29   0.0000       0.208075         5.6620
  30   0.0000       0.250131         6.8064
  31   0.0000       0.266165         7.2427
  32   0.0000       0.270579         7.3628
  33   0.0000       0.298489         8.1223

MULLIKEN ATOMIC CHARGES
-----------------------
   0 C :   -0.399882
   1 C :   -0.309334
   2 H :    0.113904
   3 H :    0.107216
   4 S :    0.915971
   5 O :   -0.577844
   6 O :   -0.588267
   7 O :   -0.623612
   8 H :    0.132457
   9 H :    0.088863
  10 H :    0.140527
Sum of atomic charges:   -1.0000000

LOEWDIN ATOMIC CHARGES
----------------------
   0 C :   -0.347093
   1 C :   -0.431804
   2 H :    0.118041
   3 H :    0.116933
   4 S :    0.424025
   5 O :   -0.379997
   6 O :   -0.388076
   7 O :   -0.442554
   8 H :    0.115105
   9 H :    0.099345
  10 H :    0.116075

  Mayer bond orders larger than 0.100000
B(  0-C ,  1-C ) :   0.9308 B(  0-C ,  8-H ) :   0.9745 B(  0-C ,  9-H ) :   0.9684
B(  0-C , 10-H ) :   0.9727 B(  1-C ,  2-H ) :   0.9659 B(  1-C ,  3-H ) :   0.9602
B(  1-C ,  4-S ) :   0.8844 B(  4-S ,  5-O ) :   1.8032 B(  4-S ,  6-O ) :   1.7404
B(  4-S ,  7-O ) :   1.7307

Dispersion correction           -0.000144194
FINAL SINGLE POINT ENERGY      -703.156823490406

DIPOLE MOMENT
-------------
                                X             Y             Z
Electronic contribution:      1.62253      -7.70229       0.05748
Nuclear contribution   :     -1.55288       9.51857       0.00420
                        -----------------------------------------
Total Dipole Moment    :      0.06965       1.81628       0.06169
                        -----------------------------------------
Magnitude (a.u.)       :      1.81866
Magnitude (Debye)      :      4.62267

Rotational constants in cm-1:     0.163401     0.083833     0.082462
Rotational constants in MHz :  4898.624208  2513.264548  2472.149188

                             ****ORCA TERMINATED NORMALLY****
TOTAL RUN TIME: 0 days 0 hours 0 minutes 31 seconds 170 msec
