                         Program Version 5.0.0 -  RELEASE  -
|  1> !M062X D3Zero RIJCOSX def2-TZVP def2/J TightSCF
|  2> *xyz 1 1
|  3> C         -0.46129        2.23469       -4.98962
|  4> C          0.84888        2.66797       -4.30235
|  5> C         -0.42384        2.39877       -6.47432
|  6> N         -0.95947        3.49265       -7.00740
|  7> N          0.14558        1.48689       -7.20399
|  8> H          0.56537        0.69681       -6.72386
|  9> H          0.22068        1.58177       -8.20752
| 10> H         -1.40624        4.18151       -6.40326
| 11> H         -0.93421        3.68160       -7.99947
| 12> H         -1.28888        2.82674       -4.59500
| 13> H         -0.65170        1.18634       -4.75655
| 14> H          1.66208        2.08894       -4.68750
| 15> H          0.76716        2.51042       -3.24717
| 16> H          1.02677        3.70527       -4.49537
| 17> *
| 18>
| 19> %MaxCore 64000
| 20>
| 21> %pal nprocs 4
| 22> end
| 23>
| 24> %scf
| 25>   MaxIter 150
| 26> end
| 27>
| 28>
| 29>                          ****END OF INPUT****

CARTESIAN COORDINATES (ANGSTROEM)
---------------------------------
  C     -0.461290    2.234690   -4.989620
  C      0.848880    2.667970   -4.302350
  C     -0.423840    2.398770   -6.474320
  N     -0.959470    3.492650   -7.007400
  N      0.145580    1.486890   -7.203990
  H      0.565370    0.696810   -6.723860
  H      0.220680    1.581770   -8.207520
  H     -1.406240    4.181510   -6.403260
  H     -0.934210    3.681600   -7.999470
  H     -1.288880    2.826740   -4.595000
  H     -0.651700    1.186340   -4.756550
  H      1.662080    2.088940   -4.687500
  H      0.767160    2.510420   -3.247170
  H      1.026770    3.705270   -4.495370

 Total Charge           Charge          ....    1
 Multiplicity           Mult            ....    1
 Number of Electrons    NEL             ....   40
 Basis Dimension        Dim             ....  209

ORBITAL ENERGIES
----------------

  NO   OCC          E(Eh)            E(eV)
   0   2.0000     -14.996464      -408.0745
   1   2.0000     -14.992212      -407.9588
   2   2.0000     -10.863208      -295.6029
   3   2.0000     -10.734409      -292.0981
   4   2.0000     -10.690196      -290.8950
   5   2.0000      -1.317372       -35.8475
   6   2.0000      -1.214994       -33.0617
   7   2.0000      -1.066809       -29.0294
   8   2.0000      -0.950000       -25.8508
   9   2.0000      -0.899083       -24.4653
  10   2.0000      -0.853216       -23.2172
  11   2.0000      -0.829246       -22.5649
  12   2.0000      -0.770870       -20.9764
  13   2.0000      -0.722414       -19.6579
  14   2.0000      -0.693158       -18.8618
  15   2.0000      -0.683571       -18.6009
  16   2.0000      -0.607890       -16.5415
  17   2.0000      -0.597900       -16.2697
  18   2.0000      -0.592568       -16.1246
  19   2.0000      -0.555663       -15.1204
  20   0.0000      -0.166310        -4.5255
  21   0.0000      -0.130525        -3.5518
  22   0.0000      -0.085694        -2.3319
  23   0.0000      -0.084219        -2.2917
  24   0.0000      -0.052407        -1.4261

MULLIKEN ATOMIC CHARGES
-----------------------
   0 C :   -0.380748
   1 C :   -0.365597
   2 C :    0.468169
   3 N :   -0.431257
   4 N :   -0.393656
   5 H :    0.316519
   6 H :    0.296353
   7 H :    0.316264
   8 H :    0.294444
   9 H :    0.177353
  10 H :    0.198699
  11 H :    0.154113
  12 H :    0.188059
  13 H :    0.161285
Sum of atomic charges:    1.0000000

LOEWDIN ATOMIC CHARGES
----------------------
   0 C :   -0.223362
   1 C :   -0.258081
   2 C :   -0.291515
   3 N :    0.096858
   4 N :    0.122370
   5 H :    0.217010
   6 H :    0.204207
   7 H :    0.213007
   8 H :    0.197726
   9 H :    0.162101
  10 H :    0.165781
  11 H :    0.125709
  12 H :    0.139138
  13 H :    0.129051

  Mayer bond orders larger than 0.100000
B(  0-C ,  1-C ) :   0.9255 B(  0-C ,  2-C ) :   0.9526 B(  0-C ,  9-H ) :   0.9704
B(  0-C , 10-H ) :   0.9591 B(  1-C , 11-H ) :   0.9625 B(  1-C , 12-H ) :   0.9673
B(  1-C , 13-H ) :   0.9565 B(  2-C ,  3-N ) :   1.3915 B(  2-C ,  4-N ) :   1.4300
B(  3-N ,  7-H ) :   0.8850 B(  3-N ,  8-H ) :   0.8950 B(  4-N ,  5-H ) :   0.8844
B(  4-N ,  6-H ) :   0.8934

Dispersion correction           -0.000203841
FINAL SINGLE POINT ENERGY      -229.005002132822

DIPOLE MOMENT
-------------
                                X             Y             Z
Electronic contribution:     -1.55423      -0.27073      -3.86995
Nuclear contribution   :      1.33202       0.27544       2.83701
                        -----------------------------------------
Total Dipole Moment    :     -0.22221       0.00471      -1.03295
                        -----------------------------------------
Magnitude (a.u.)       :      1.05659
Magnitude (Debye)      :      2.68564

Rotational constants in cm-1:     0.258570     0.126296     0.098869
Rotational constants in MHz :  7751.748523  3786.267300  2964.011691

                             ****ORCA TERMINATED NORMALLY****
TOTAL RUN TIME: 0 days 0 hours 0 minutes 29 seconds 199 msec
