                         Program Version 5.0.0 -  RELEASE  -
|  1> !M062X D3Zero RIJCOSX def2-TZVP def2/J TightSCF
|  2> *xyz 0 1
|  3> C          0.84888        2.66797       -4.30235
|  4> C          2.09343        1.86104       -4.65684
|  5> H          2.44481        2.04157       -5.67499
|  6> H          2.90175        2.13786       -3.98034
|  7> S          1.87964        0.07859       -4.46297
|  8> F          3.20757       -0.46611       -4.42026
|  9> O          1.07506       -0.05616       -3.26876
| 10> O          1.13166       -0.31996       -5.67903
| 11> H          0.05064        2.40112       -4.96303
| 12> H          1.06043        3.71210       -4.40203
| 13> H          0.56237        2.45684       -3.29327
| 14> *
| 15>
| 16> %MaxCore 64000
| 17>
| 18> %pal nprocs 4
| 19> end
| 20>
| 21> %scf
| 22>   MaxIter 150
| 23> end
| 24>
| 25>
| 26>                          ****END OF INPUT****

CARTESIAN COORDINATES (ANGSTROEM)
---------------------------------
  C      0.848880    2.667970   -4.302350
  C      2.093430    1.861040   -4.656840
  H      2.444810    2.041570   -5.674990
  H      2.901750    2.137860   -3.980340
  S      1.879640    0.078590   -4.462970
  F      3.207570   -0.466110   -4.420260
  O      1.075060   -0.056160   -3.268760
  O      1.131660   -0.319960   -5.679030
  H      0.050640    2.401120   -4.963030
  H      1.060430    3.712100   -4.402030
  H      0.562370    2.456840   -3.293270

 Total Charge           Charge          ....    0
 Multiplicity           Mult            ....    1
 Number of Electrons    NEL             ....   58
 Basis Dimension        Dim             ....  222

ORBITAL ENERGIES
----------------

  NO   OCC          E(Eh)            E(eV)
   0   2.0000     -90.152111     -2453.1637
   1   2.0000     -25.373287      -690.4422
   2   2.0000     -19.639865      -534.4279
   3   2.0000     -19.627142      -534.0817
   4   2.0000     -10.595441      -288.3166
   5   2.0000     -10.550366      -287.0900
   6   2.0000      -8.477344      -230.6803
   7   2.0000      -6.402085      -174.2096
   8   2.0000      -6.397205      -174.0768
   9   2.0000      -6.396644      -174.0615
  10   2.0000      -1.538271       -41.8585
  11   2.0000      -1.227248       -33.3951
  12   2.0000      -1.124380       -30.5959
  13   2.0000      -0.918563       -24.9954
  14   2.0000      -0.840160       -22.8619
  15   2.0000      -0.766337       -20.8531
  16   2.0000      -0.695388       -18.9225
  17   2.0000      -0.688234       -18.7278
  18   2.0000      -0.642486       -17.4829
  19   2.0000      -0.566188       -15.4068
  20   2.0000      -0.562705       -15.3120
  21   2.0000      -0.521036       -14.1781
  22   2.0000      -0.498523       -13.5655
  23   2.0000      -0.472818       -12.8660
  24   2.0000      -0.459405       -12.5010
  25   2.0000      -0.450512       -12.2591
  26   2.0000      -0.407953       -11.1010
  27   2.0000      -0.388781       -10.5793
  28   2.0000      -0.381470       -10.3803
  29   0.0000       0.055803         1.5185
  30   0.0000       0.075555         2.0559
  31   0.0000       0.097598         2.6558
  32   0.0000       0.101096         2.7510
  33   0.0000       0.112423         3.0592

MULLIKEN ATOMIC CHARGES
-----------------------
   0 C :   -0.403138
   1 C :   -0.310381
   2 H :    0.173815
   3 H :    0.157274
   4 S :    0.929362
   5 F :   -0.102627
   6 O :   -0.445147
   7 O :   -0.476537
   8 H :    0.166157
   9 H :    0.145955
  10 H :    0.165267
Sum of atomic charges:   -0.0000000

LOEWDIN ATOMIC CHARGES
----------------------
   0 C :   -0.304839
   1 C :   -0.397756
   2 H :    0.139471
   3 H :    0.134472
   4 S :    0.549173
   5 F :    0.099403
   6 O :   -0.275709
   7 O :   -0.325082
   8 H :    0.128414
   9 H :    0.124941
  10 H :    0.127512

  Mayer bond orders larger than 0.100000
B(  0-C ,  1-C ) :   0.9442 B(  0-C ,  8-H ) :   0.9658 B(  0-C ,  9-H ) :   0.9606
B(  0-C , 10-H ) :   0.9642 B(  1-C ,  2-H ) :   0.9411 B(  1-C ,  3-H ) :   0.9394
B(  1-C ,  4-S ) :   0.9261 B(  4-S ,  5-F ) :   1.1303 B(  4-S ,  6-O ) :   1.8952
B(  4-S ,  7-O ) :   1.8724

Dispersion correction           -0.000140026
FINAL SINGLE POINT ENERGY      -727.666977356191

DIPOLE MOMENT
-------------
                                X             Y             Z
Electronic contribution:      4.19618      -9.31070       0.10639
Nuclear contribution   :     -3.08754      10.54185      -0.04092
                        -----------------------------------------
Total Dipole Moment    :      1.10864       1.23115       0.06547
                        -----------------------------------------
Magnitude (a.u.)       :      1.65804
Magnitude (Debye)      :      4.21440

Rotational constants in cm-1:     0.158925     0.081210     0.079022
Rotational constants in MHz :  4764.450166  2434.603461  2369.014434

                             ****ORCA TERMINATED NORMALLY****
TOTAL RUN TIME: 0 days 0 hours 0 minutes 30 seconds 147 msec
