                         Program Version 5.0.0 -  RELEASE  -
|  1> !M062X D3Zero RIJCOSX def2-TZVP def2/J TightSCF
|  2> *xyz 0 1
|  3> C         -0.46129        2.23469       -4.98962
|  4> C          0.84888        2.66797       -4.30235
|  5> C         -0.42384        2.39877       -6.47432
|  6> C         -0.95947        3.49265       -7.00740
|  7> N          0.14558        1.48689       -7.20399
|  8> H          0.56537        0.69681       -6.72386
|  9> H          0.22068        1.58177       -8.20752
| 10> H         -1.40624        4.18151       -6.40326
| 11> H         -0.93421        3.68160       -7.99947
| 12> H         -1.28888        2.82674       -4.59500
| 13> H         -0.65170        1.18634       -4.75655
| 14> H          1.66208        2.08894       -4.68750
| 15> H          0.76716        2.51042       -3.24717
| 16> H          1.02677        3.70527       -4.49537
| 17> *
| 18>
| 19> %MaxCore 64000
| 20>
| 21> %pal nprocs 4
| 22> end
| 23>
| 24> %scf
| 25>   MaxIter 150
| 26> end
| 27>
| 28>
| 29>                          ****END OF INPUT****

CARTESIAN COORDINATES (ANGSTROEM)
---------------------------------
  C     -0.461290    2.234690   -4.989620
  C      0.848880    2.667970   -4.302350
  C     -0.423840    2.398770   -6.474320
  C     -0.959470    3.492650   -7.007400
  N      0.145580    1.486890   -7.203990
  H      0.565370    0.696810   -6.723860
  H      0.220680    1.581770   -8.207520
  H     -1.406240    4.181510   -6.403260
  H     -0.934210    3.681600   -7.999470
  H     -1.288880    2.826740   -4.595000
  H     -0.651700    1.186340   -4.756550
  H      1.662080    2.088940   -4.687500
  H      0.767160    2.510420   -3.247170
  H      1.026770    3.705270   -4.495370

 Total Charge           Charge          ....    0
 Multiplicity           Mult            ....    1
 Number of Electrons    NEL             ....   40
 Basis Dimension        Dim             ....  209

ORBITAL ENERGIES
----------------

  NO   OCC          E(Eh)            E(eV)
   0   2.0000     -14.748762      -401.3342
   1   2.0000     -10.555540      -287.2308
   2   2.0000     -10.533618      -286.6343
   3   2.0000     -10.518852      -286.2325
   4   2.0000     -10.465400      -284.7780
   5   2.0000      -1.045105       -28.4388
   6   2.0000      -0.876109       -23.8401
   7   2.0000      -0.807326       -21.9685
   8   2.0000      -0.722808       -19.6686
   9   2.0000      -0.648409       -17.6441
  10   2.0000      -0.604678       -16.4541
  11   2.0000      -0.551856       -15.0168
  12   2.0000      -0.505771       -13.7627
  13   2.0000      -0.487288       -13.2598
  14   2.0000      -0.457421       -12.4470
  15   2.0000      -0.447910       -12.1882
  16   2.0000      -0.414343       -11.2748
  17   2.0000      -0.396274       -10.7832
  18   2.0000      -0.394723       -10.7410
  19   2.0000      -0.239985        -6.5303
  20   0.0000       0.054015         1.4698
  21   0.0000       0.083391         2.2692
  22   0.0000       0.098899         2.6912
  23   0.0000       0.108607         2.9553
  24   0.0000       0.119628         3.2553

MULLIKEN ATOMIC CHARGES
-----------------------
   0 C :   -0.366680
   1 C :   -0.363744
   2 C :    0.340917
   3 C :   -0.467908
   4 N :   -0.529924
   5 H :    0.247048
   6 H :    0.247672
   7 H :    0.106550
   8 H :    0.105971
   9 H :    0.146004
  10 H :    0.133398
  11 H :    0.123503
  12 H :    0.134650
  13 H :    0.142543
Sum of atomic charges:   -0.0000000

LOEWDIN ATOMIC CHARGES
----------------------
   0 C :   -0.241793
   1 C :   -0.292894
   2 C :   -0.379076
   3 C :   -0.279033
   4 N :    0.005055
   5 H :    0.176090
   6 H :    0.177483
   7 H :    0.105880
   8 H :    0.094570
   9 H :    0.149008
  10 H :    0.135989
  11 H :    0.113659
  12 H :    0.115058
  13 H :    0.120004

  Mayer bond orders larger than 0.100000
B(  0-C ,  1-C ) :   0.9260 B(  0-C ,  2-C ) :   0.9189 B(  0-C ,  9-H ) :   0.9968
B(  0-C , 10-H ) :   0.9861 B(  1-C , 11-H ) :   0.9710 B(  1-C , 12-H ) :   0.9799
B(  1-C , 13-H ) :   0.9717 B(  2-C ,  3-C ) :   1.7186 B(  2-C ,  4-N ) :   1.1075
B(  3-C ,  7-H ) :   1.0029 B(  3-C ,  8-H ) :   0.9985 B(  4-N ,  5-H ) :   0.9267
B(  4-N ,  6-H ) :   0.9256

Dispersion correction           -0.000200400
FINAL SINGLE POINT ENERGY      -212.537145744115

DIPOLE MOMENT
-------------
                                X             Y             Z
Electronic contribution:     -0.71735      -1.17827      -2.58262
Nuclear contribution   :      1.14741       0.51394       2.60761
                        -----------------------------------------
Total Dipole Moment    :      0.43006      -0.66433       0.02499
                        -----------------------------------------
Magnitude (a.u.)       :      0.79178
Magnitude (Debye)      :      2.01254

Rotational constants in cm-1:     0.269157     0.129188     0.102123
Rotational constants in MHz :  8069.118715  3872.945231  3061.580645

                             ****ORCA TERMINATED NORMALLY****
TOTAL RUN TIME: 0 days 0 hours 0 minutes 29 seconds 561 msec
