                         Program Version 5.0.0 -  RELEASE  -
|  1> !M062X D3Zero RIJCOSX def2-TZVP def2/J TightSCF
|  2> *xyz 0 1
|  3> C          0.84888        2.66797       -4.30235
|  4> C          2.09343        1.86104       -4.65684
|  5> H          2.44481        2.04157       -5.67499
|  6> H          2.90175        2.13786       -3.98034
|  7> S          1.87964        0.07859       -4.46297
|  8> O          3.20757       -0.46611       -4.42026
|  9> F          1.07506       -0.05616       -3.26876
| 10> O          1.13166       -0.31996       -5.67903
| 11> H          0.05064        2.40112       -4.96303
| 12> H          1.06043        3.71210       -4.40203
| 13> H          0.56237        2.45684       -3.29327
| 14> *
| 15>
| 16> %MaxCore 64000
| 17>
| 18> %pal nprocs 4
| 19> end
| 20>
| 21> %scf
| 22>   MaxIter 150
| 23> end
| 24>
| 25>
| 26>                          ****END OF INPUT****

CARTESIAN COORDINATES (ANGSTROEM)
---------------------------------
  C      0.848880    2.667970   -4.302350
  C      2.093430    1.861040   -4.656840
  H      2.444810    2.041570   -5.674990
  H      2.901750    2.137860   -3.980340
  S      1.879640    0.078590   -4.462970
  O      3.207570   -0.466110   -4.420260
  F      1.075060   -0.056160   -3.268760
  O      1.131660   -0.319960   -5.679030
  H      0.050640    2.401120   -4.963030
  H      1.060430    3.712100   -4.402030
  H      0.562370    2.456840   -3.293270

 Total Charge           Charge          ....    0
 Multiplicity           Mult            ....    1
 Number of Electrons    NEL             ....   58
 Basis Dimension        Dim             ....  222

ORBITAL ENERGIES
----------------

  NO   OCC          E(Eh)            E(eV)
   0   2.0000     -90.151584     -2453.1493
   1   2.0000     -25.367832      -690.2938
   2   2.0000     -19.643346      -534.5226
   3   2.0000     -19.627309      -534.0862
   4   2.0000     -10.595521      -288.3188
   5   2.0000     -10.557342      -287.2799
   6   2.0000      -8.476795      -230.6653
   7   2.0000      -6.401731      -174.2000
   8   2.0000      -6.396549      -174.0590
   9   2.0000      -6.396045      -174.0452
  10   2.0000      -1.529471       -41.6190
  11   2.0000      -1.231654       -33.5150
  12   2.0000      -1.127540       -30.6819
  13   2.0000      -0.924129       -25.1468
  14   2.0000      -0.833308       -22.6755
  15   2.0000      -0.768478       -20.9114
  16   2.0000      -0.696084       -18.9414
  17   2.0000      -0.688204       -18.7270
  18   2.0000      -0.634214       -17.2578
  19   2.0000      -0.568601       -15.4724
  20   2.0000      -0.555679       -15.1208
  21   2.0000      -0.528894       -14.3919
  22   2.0000      -0.510865       -13.9013
  23   2.0000      -0.481046       -13.0899
  24   2.0000      -0.464549       -12.6410
  25   2.0000      -0.454324       -12.3628
  26   2.0000      -0.407866       -11.0986
  27   2.0000      -0.389947       -10.6110
  28   2.0000      -0.384651       -10.4669
  29   0.0000       0.045343         1.2339
  30   0.0000       0.084950         2.3116
  31   0.0000       0.095418         2.5965
  32   0.0000       0.100331         2.7301
  33   0.0000       0.112503         3.0614

MULLIKEN ATOMIC CHARGES
-----------------------
   0 C :   -0.416878
   1 C :   -0.306539
   2 H :    0.186869
   3 H :    0.168742
   4 S :    0.932250
   5 O :   -0.432978
   6 F :   -0.115013
   7 O :   -0.479441
   8 H :    0.168405
   9 H :    0.149573
  10 H :    0.145010
Sum of atomic charges:   -0.0000000

LOEWDIN ATOMIC CHARGES
----------------------
   0 C :   -0.319820
   1 C :   -0.389504
   2 H :    0.149432
   3 H :    0.139009
   4 S :    0.551261
   5 O :   -0.265949
   6 F :    0.089781
   7 O :   -0.325817
   8 H :    0.126613
   9 H :    0.125966
  10 H :    0.119030

  Mayer bond orders larger than 0.100000
B(  0-C ,  1-C ) :   0.9329 B(  0-C ,  8-H ) :   0.9642 B(  0-C ,  9-H ) :   0.9634
B(  0-C , 10-H ) :   0.9675 B(  1-C ,  2-H ) :   0.9432 B(  1-C ,  3-H ) :   0.9444
B(  1-C ,  4-S ) :   0.9181 B(  4-S ,  5-O ) :   1.9396 B(  4-S ,  6-F ) :   1.1074
B(  4-S ,  7-O ) :   1.8709

Dispersion correction           -0.000151158
FINAL SINGLE POINT ENERGY      -727.671318001278

DIPOLE MOMENT
-------------
                                X             Y             Z
Electronic contribution:      0.55942      -8.58273       2.05510
Nuclear contribution   :     -0.86540      10.11467      -1.24082
                        -----------------------------------------
Total Dipole Moment    :     -0.30598       1.53194       0.81429
                        -----------------------------------------
Magnitude (a.u.)       :      1.76168
Magnitude (Debye)      :      4.47784

Rotational constants in cm-1:     0.154065     0.083345     0.080357
Rotational constants in MHz :  4618.752213  2498.631937  2409.037217

                             ****ORCA TERMINATED NORMALLY****
TOTAL RUN TIME: 0 days 0 hours 0 minutes 28 seconds 938 msec
