                         Program Version 5.0.0 -  RELEASE  -
|  1> !M062X D3Zero RIJCOSX def2-TZVP def2/J TightSCF
|  2> *xyz 0 1
|  3> C         -0.46129        2.23469       -4.98962
|  4> C          0.84888        2.66797       -4.30235
|  5> C         -0.42384        2.39877       -6.47432
|  6> N         -0.95947        3.49265       -7.00740
|  7> C          0.14558        1.48689       -7.20399
|  8> H          0.56537        0.69681       -6.72386
|  9> H          0.22068        1.58177       -8.20752
| 10> H         -1.40624        4.18151       -6.40326
| 11> H         -0.93421        3.68160       -7.99947
| 12> H         -1.28888        2.82674       -4.59500
| 13> H         -0.65170        1.18634       -4.75655
| 14> H          1.66208        2.08894       -4.68750
| 15> H          0.76716        2.51042       -3.24717
| 16> H          1.02677        3.70527       -4.49537
| 17> *
| 18>
| 19> %MaxCore 64000
| 20>
| 21> %pal nprocs 4
| 22> end
| 23>
| 24> %scf
| 25>   MaxIter 150
| 26> end
| 27>
| 28>
| 29>                          ****END OF INPUT****

CARTESIAN COORDINATES (ANGSTROEM)
---------------------------------
  C     -0.461290    2.234690   -4.989620
  C      0.848880    2.667970   -4.302350
  C     -0.423840    2.398770   -6.474320
  N     -0.959470    3.492650   -7.007400
  C      0.145580    1.486890   -7.203990
  H      0.565370    0.696810   -6.723860
  H      0.220680    1.581770   -8.207520
  H     -1.406240    4.181510   -6.403260
  H     -0.934210    3.681600   -7.999470
  H     -1.288880    2.826740   -4.595000
  H     -0.651700    1.186340   -4.756550
  H      1.662080    2.088940   -4.687500
  H      0.767160    2.510420   -3.247170
  H      1.026770    3.705270   -4.495370

 Total Charge           Charge          ....    0
 Multiplicity           Mult            ....    1
 Number of Electrons    NEL             ....   40
 Basis Dimension        Dim             ....  209

ORBITAL ENERGIES
----------------

  NO   OCC          E(Eh)            E(eV)
   0   2.0000     -14.745097      -401.2345
   1   2.0000     -10.553142      -287.1656
   2   2.0000     -10.533269      -286.6248
   3   2.0000     -10.517452      -286.1944
   4   2.0000     -10.463979      -284.7393
   5   2.0000      -1.031864       -28.0785
   6   2.0000      -0.877928       -23.8896
   7   2.0000      -0.811549       -22.0834
   8   2.0000      -0.723773       -19.6949
   9   2.0000      -0.642237       -17.4762
  10   2.0000      -0.593879       -16.1603
  11   2.0000      -0.554496       -15.0886
  12   2.0000      -0.507562       -13.8115
  13   2.0000      -0.481879       -13.1126
  14   2.0000      -0.458199       -12.4682
  15   2.0000      -0.448084       -12.1930
  16   2.0000      -0.411807       -11.2058
  17   2.0000      -0.397700       -10.8220
  18   2.0000      -0.392458       -10.6793
  19   2.0000      -0.244859        -6.6630
  20   0.0000       0.056384         1.5343
  21   0.0000       0.082872         2.2551
  22   0.0000       0.100684         2.7397
  23   0.0000       0.106379         2.8947
  24   0.0000       0.122272         3.3272

MULLIKEN ATOMIC CHARGES
-----------------------
   0 C :   -0.358244
   1 C :   -0.370563
   2 C :    0.372837
   3 N :   -0.562541
   4 C :   -0.467151
   5 H :    0.110808
   6 H :    0.106178
   7 H :    0.245515
   8 H :    0.244943
   9 H :    0.118796
  10 H :    0.154808
  11 H :    0.141615
  12 H :    0.132325
  13 H :    0.130672
Sum of atomic charges:   -0.0000000

LOEWDIN ATOMIC CHARGES
----------------------
   0 C :   -0.240133
   1 C :   -0.291020
   2 C :   -0.369987
   3 N :   -0.018776
   4 C :   -0.265535
   5 H :    0.110673
   6 H :    0.099550
   7 H :    0.171380
   8 H :    0.170790
   9 H :    0.134621
  10 H :    0.148676
  11 H :    0.119142
  12 H :    0.114145
  13 H :    0.116475

  Mayer bond orders larger than 0.100000
B(  0-C ,  1-C ) :   0.9316 B(  0-C ,  2-C ) :   0.8984 B(  0-C ,  9-H ) :   0.9919
B(  0-C , 10-H ) :   0.9965 B(  1-C , 11-H ) :   0.9732 B(  1-C , 12-H ) :   0.9802
B(  1-C , 13-H ) :   0.9710 B(  2-C ,  3-N ) :   1.0693 B(  2-C ,  4-C ) :   1.7460
B(  3-N ,  7-H ) :   0.9269 B(  3-N ,  8-H ) :   0.9265 B(  4-C ,  5-H ) :   1.0039
B(  4-C ,  6-H ) :   1.0002

Dispersion correction           -0.000200509
FINAL SINGLE POINT ENERGY      -212.537488846892

DIPOLE MOMENT
-------------
                                X             Y             Z
Electronic contribution:     -1.70346       0.58379      -2.40557
Nuclear contribution   :      1.40335       0.04939       2.56207
                        -----------------------------------------
Total Dipole Moment    :     -0.30011       0.63317       0.15650
                        -----------------------------------------
Magnitude (a.u.)       :      0.71796
Magnitude (Debye)      :      1.82491

Rotational constants in cm-1:     0.271383     0.128194     0.101873
Rotational constants in MHz :  8135.853259  3843.152748  3054.074278

                             ****ORCA TERMINATED NORMALLY****
TOTAL RUN TIME: 0 days 0 hours 0 minutes 29 seconds 408 msec
