                         Program Version 5.0.0 -  RELEASE  -
|  1> !M062X D3Zero RIJCOSX def2-TZVP def2/J TightSCF
|  2> *xyz 0 1
|  3> C          0.84888        2.66797       -4.30235
|  4> C          2.09343        1.86104       -4.65684
|  5> H          2.44481        2.04157       -5.67499
|  6> H          2.90175        2.13786       -3.98034
|  7> S          1.87964        0.07859       -4.46297
|  8> O          3.20757       -0.46611       -4.42026
|  9> O          1.07506       -0.05616       -3.26876
| 10> F          1.13166       -0.31996       -5.67903
| 11> H          0.05064        2.40112       -4.96303
| 12> H          1.06043        3.71210       -4.40203
| 13> H          0.56237        2.45684       -3.29327
| 14> *
| 15>
| 16> %MaxCore 64000
| 17>
| 18> %pal nprocs 4
| 19> end
| 20>
| 21> %scf
| 22>   MaxIter 150
| 23> end
| 24>
| 25>
| 26>                          ****END OF INPUT****

CARTESIAN COORDINATES (ANGSTROEM)
---------------------------------
  C      0.848880    2.667970   -4.302350
  C      2.093430    1.861040   -4.656840
  H      2.444810    2.041570   -5.674990
  H      2.901750    2.137860   -3.980340
  S      1.879640    0.078590   -4.462970
  O      3.207570   -0.466110   -4.420260
  O      1.075060   -0.056160   -3.268760
  F      1.131660   -0.319960   -5.679030
  H      0.050640    2.401120   -4.963030
  H      1.060430    3.712100   -4.402030
  H      0.562370    2.456840   -3.293270

 Total Charge           Charge          ....    0
 Multiplicity           Mult            ....    1
 Number of Electrons    NEL             ....   58
 Basis Dimension        Dim             ....  222

ORBITAL ENERGIES
----------------

  NO   OCC          E(Eh)            E(eV)
   0   2.0000     -90.150021     -2453.1068
   1   2.0000     -25.349231      -689.7876
   2   2.0000     -19.643078      -534.5153
   3   2.0000     -19.639906      -534.4290
   4   2.0000     -10.594698      -288.2964
   5   2.0000     -10.551621      -287.1242
   6   2.0000      -8.475201      -230.6220
   7   2.0000      -6.400085      -174.1552
   8   2.0000      -6.395194      -174.0221
   9   2.0000      -6.394424      -174.0011
  10   2.0000      -1.498645       -40.7802
  11   2.0000      -1.240950       -33.7680
  12   2.0000      -1.147392       -31.2221
  13   2.0000      -0.919737       -25.0273
  14   2.0000      -0.820438       -22.3253
  15   2.0000      -0.760565       -20.6960
  16   2.0000      -0.673775       -18.3344
  17   2.0000      -0.666245       -18.1294
  18   2.0000      -0.637106       -17.3365
  19   2.0000      -0.571198       -15.5431
  20   2.0000      -0.555606       -15.1188
  21   2.0000      -0.538904       -14.6643
  22   2.0000      -0.502679       -13.6786
  23   2.0000      -0.478750       -13.0275
  24   2.0000      -0.468359       -12.7447
  25   2.0000      -0.449692       -12.2368
  26   2.0000      -0.417029       -11.3479
  27   2.0000      -0.399818       -10.8796
  28   2.0000      -0.396999       -10.8029
  29   0.0000       0.049857         1.3567
  30   0.0000       0.085473         2.3258
  31   0.0000       0.092169         2.5080
  32   0.0000       0.102760         2.7962
  33   0.0000       0.116215         3.1624

MULLIKEN ATOMIC CHARGES
-----------------------
   0 C :   -0.402302
   1 C :   -0.320035
   2 H :    0.168765
   3 H :    0.181199
   4 S :    0.939794
   5 O :   -0.441183
   6 O :   -0.453517
   7 F :   -0.137445
   8 H :    0.146655
   9 H :    0.146106
  10 H :    0.171964
Sum of atomic charges:    0.0000000

LOEWDIN ATOMIC CHARGES
----------------------
   0 C :   -0.316448
   1 C :   -0.393292
   2 H :    0.136513
   3 H :    0.149057
   4 S :    0.556534
   5 O :   -0.269381
   6 O :   -0.278307
   7 F :    0.042128
   8 H :    0.121217
   9 H :    0.124145
  10 H :    0.127833

  Mayer bond orders larger than 0.100000
B(  0-C ,  1-C ) :   0.9339 B(  0-C ,  8-H ) :   0.9687 B(  0-C ,  9-H ) :   0.9622
B(  0-C , 10-H ) :   0.9631 B(  1-C ,  2-H ) :   0.9465 B(  1-C ,  3-H ) :   0.9434
B(  1-C ,  4-S ) :   0.9185 B(  4-S ,  5-O ) :   1.9376 B(  4-S ,  6-O ) :   1.8929
B(  4-S ,  7-F ) :   1.0799

Dispersion correction           -0.000149483
FINAL SINGLE POINT ENERGY      -727.686971199393

DIPOLE MOMENT
-------------
                                X             Y             Z
Electronic contribution:      0.64241      -9.06396      -2.06800
Nuclear contribution   :     -0.92438      10.38956       1.27076
                        -----------------------------------------
Total Dipole Moment    :     -0.28197       1.32560      -0.79724
                        -----------------------------------------
Magnitude (a.u.)       :      1.57236
Magnitude (Debye)      :      3.99662

Rotational constants in cm-1:     0.154243     0.082247     0.080562
Rotational constants in MHz :  4624.087322  2465.703680  2415.175852

                             ****ORCA TERMINATED NORMALLY****
TOTAL RUN TIME: 0 days 0 hours 0 minutes 30 seconds 211 msec
