                         Program Version 5.0.0 -  RELEASE  -
|  1> !M062X D3Zero RIJCOSX def2-TZVP def2/J TightSCF xyzfile
|  2>
|  3> *xyzfile 0 1 D6.xyz
|  4>
|  5> %MaxCore 64000
|  6>
|  7> %pal nprocs 18
|  8> end
|  9>
| 10> %scf
| 11>   MaxIter 150
| 12> end
| 13>
| 14>
| 15>                          ****END OF INPUT****

CARTESIAN COORDINATES (ANGSTROEM)
---------------------------------
  C     -0.461293    2.234686   -4.989619
  C      0.848883    2.667967   -4.302351
  C      2.093434    1.861037   -4.656845
  H      2.444814    2.041567   -5.674990
  H      2.901748    2.137864   -3.980338
  S      1.879644    0.078594   -4.462965
  C     -0.423841    2.398772   -6.474317
  N     -0.959467    3.492647   -7.007401
  C      0.145585    1.486891   -7.203987
  H      0.565371    0.696807   -6.723858
  H      0.220682    1.581768   -8.207520
  H     -1.406243    4.181507   -6.403261
  H     -0.934215    3.681601   -7.999468
  O      3.207574   -0.466111   -4.420259
  O      1.075064   -0.056160   -3.268758
  F      1.131661   -0.319960   -5.679031
  H      0.668432    2.559427   -3.232850
  H      1.034074    3.729426   -4.497081
  H     -1.288884    2.826737   -4.594997
  H     -0.651696    1.186343   -4.756552

 Total Charge           Charge          ....    0
 Multiplicity           Mult            ....    1
 Number of Electrons    NEL             ....   88
 Basis Dimension        Dim             ....  376

ORBITAL ENERGIES
----------------

  NO   OCC          E(Eh)            E(eV)
   0   2.0000     -90.149160     -2453.0834
   1   2.0000     -25.349136      -689.7851
   2   2.0000     -19.641893      -534.4831
   3   2.0000     -19.639399      -534.4152
   4   2.0000     -14.756499      -401.5447
   5   2.0000     -10.588762      -288.1349
   6   2.0000     -10.566164      -287.5199
   7   2.0000     -10.563225      -287.4400
   8   2.0000     -10.551192      -287.1125
   9   2.0000     -10.469061      -284.8776
  10   2.0000      -8.474516      -230.6033
  11   2.0000      -6.399478      -174.1386
  12   2.0000      -6.394445      -174.0017
  13   2.0000      -6.393652      -173.9801
  14   2.0000      -1.504768       -40.9468
  15   2.0000      -1.240908       -33.7668
  16   2.0000      -1.146830       -31.2068
  17   2.0000      -1.044368       -28.4187
  18   2.0000      -0.932699       -25.3800
  19   2.0000      -0.870423       -23.6854
  20   2.0000      -0.820719       -22.3329
  21   2.0000      -0.808738       -22.0069
  22   2.0000      -0.727114       -19.7858
  23   2.0000      -0.691683       -18.8216
  24   2.0000      -0.671566       -18.2742
  25   2.0000      -0.645076       -17.5534
  26   2.0000      -0.633603       -17.2412
  27   2.0000      -0.608703       -16.5637
  28   2.0000      -0.575599       -15.6628
  29   2.0000      -0.562907       -15.3175
  30   2.0000      -0.543031       -14.7766
  31   2.0000      -0.537205       -14.6181
  32   2.0000      -0.522153       -14.2085
  33   2.0000      -0.484584       -13.1862
  34   2.0000      -0.472033       -12.8447
  35   2.0000      -0.462567       -12.5871
  36   2.0000      -0.449480       -12.2310
  37   2.0000      -0.442342       -12.0367
  38   2.0000      -0.418463       -11.3870
  39   2.0000      -0.408201       -11.1077
  40   2.0000      -0.402146       -10.9429
  41   2.0000      -0.396808       -10.7977
  42   2.0000      -0.391738       -10.6597
  43   2.0000      -0.257746        -7.0136
  44   0.0000       0.044315         1.2059
  45   0.0000       0.064331         1.7505
  46   0.0000       0.072185         1.9643
  47   0.0000       0.084179         2.2906
  48   0.0000       0.092323         2.5122

MULLIKEN ATOMIC CHARGES
-----------------------
   0 C :   -0.505846
   1 C :   -0.207930
   2 C :   -0.430155
   3 H :    0.214359
   4 H :    0.194719
   5 S :    0.951876
   6 C :    0.429938
   7 N :   -0.565326
   8 C :   -0.495769
   9 H :    0.114702
  10 H :    0.110553
  11 H :    0.245793
  12 H :    0.248090
  13 O :   -0.448424
  14 O :   -0.447702
  15 F :   -0.115332
  16 H :    0.177386
  17 H :    0.159044
  18 H :    0.149979
  19 H :    0.220044
Sum of atomic charges:   -0.0000000

LOEWDIN ATOMIC CHARGES
----------------------
   0 C :   -0.219973
   1 C :   -0.274342
   2 C :   -0.364003
   3 H :    0.144719
   4 H :    0.151421
   5 S :    0.568033
   6 C :   -0.371810
   7 N :   -0.015609
   8 C :   -0.270510
   9 H :    0.091210
  10 H :    0.100024
  11 H :    0.171601
  12 H :    0.172226
  13 O :   -0.266558
  14 O :   -0.274868
  15 F :    0.067220
  16 H :    0.149528
  17 H :    0.146188
  18 H :    0.143842
  19 H :    0.151659

  Mayer bond orders larger than 0.100000
B(  0-C ,  1-C ) :   0.8790 B(  0-C ,  6-C ) :   0.8271 B(  0-C , 18-H ) :   0.9957
B(  0-C , 19-H ) :   1.0123 B(  1-C ,  2-C ) :   0.9034 B(  1-C , 16-H ) :   0.9774
B(  1-C , 17-H ) :   0.9534 B(  2-C ,  3-H ) :   0.9368 B(  2-C ,  4-H ) :   0.9496
B(  2-C ,  5-S ) :   0.9267 B(  5-S , 13-O ) :   1.9443 B(  5-S , 14-O ) :   1.8779
B(  5-S , 15-F ) :   1.0511 B(  6-C ,  7-N ) :   1.0619 B(  6-C ,  8-C ) :   1.6843
B(  7-N , 11-H ) :   0.9259 B(  7-N , 12-H ) :   0.9278 B(  8-C ,  9-H ) :   1.0391
B(  8-C , 10-H ) :   0.9971

Dispersion correction           -0.000721408
FINAL SINGLE POINT ENERGY      -899.705615457250

DIPOLE MOMENT
-------------
                                X             Y             Z
Electronic contribution:      5.53342     -11.94501       3.15475
Nuclear contribution   :     -6.15577      13.80449      -3.81895
                        -----------------------------------------
Total Dipole Moment    :     -0.62235       1.85949      -0.66420
                        -----------------------------------------
Magnitude (a.u.)       :      2.07030
Magnitude (Debye)      :      5.26230

Rotational constants in cm-1:     0.081431     0.024887     0.022470
Rotational constants in MHz :  2441.231544   746.086417   673.646914

                             ****ORCA TERMINATED NORMALLY****
TOTAL RUN TIME: 0 days 0 hours 0 minutes 23 seconds 195 msec
