                         Program Version 5.0.0 -  RELEASE  -
|  1> !wB97X-D3 RIJCOSX def2-SVPD def2/J TightSCF CPCM(Water)
|  2> *xyz -1 1
|  3> C          4.08422        1.74208       -2.11472
|  4> C          4.26524        2.50052       -0.79589
|  5> H          4.86853        3.39267       -0.98113
|  6> H          3.30764        2.82457       -0.38781
|  7> C          4.98224        1.65026        0.24742
|  8> O          4.36806        1.38927        1.31371
|  9> O          6.12892        1.23351       -0.04562
| 10> C          3.41275        0.37689       -1.96550
| 11> H          5.06847        1.59850       -2.56573
| 12> H          3.50336        2.36394       -2.80457
| 13> H          3.32456       -0.08422       -2.92701
| 14> H          2.43923        0.50287       -1.53972
| 15> H          4.00446       -0.24355       -1.32531
| 16> *
| 17> %MaxCore 64000
| 18> %pal nprocs 8
| 19> end
| 20> %scf
| 21>   MaxIter 150
| 22> end
| 23>
| 24>
| 25>                          ****END OF INPUT****

CARTESIAN COORDINATES (ANGSTROEM)
---------------------------------
  C      4.084220    1.742080   -2.114720
  C      4.265240    2.500520   -0.795890
  H      4.868530    3.392670   -0.981130
  H      3.307640    2.824570   -0.387810
  C      4.982240    1.650260    0.247420
  O      4.368060    1.389270    1.313710
  O      6.128920    1.233510   -0.045620
  C      3.412750    0.376890   -1.965500
  H      5.068470    1.598500   -2.565730
  H      3.503360    2.363940   -2.804570
  H      3.324560   -0.084220   -2.927010
  H      2.439230    0.502870   -1.539720
  H      4.004460   -0.243550   -1.325310

 Total Charge           Charge          ....   -1
 Multiplicity           Mult            ....    1
 Number of Electrons    NEL             ....   48
 Basis Dimension        Dim             ....  182

ORBITAL ENERGIES
----------------

  NO   OCC          E(Eh)            E(eV)
   0   2.0000     -19.178191      -521.8651
   1   2.0000     -19.177132      -521.8363
   2   2.0000     -10.365665      -282.0641
   3   2.0000     -10.276975      -279.6507
   4   2.0000     -10.268058      -279.4081
   5   2.0000     -10.262496      -279.2567
   6   2.0000      -1.123923       -30.5835
   7   2.0000      -1.028070       -27.9752
   8   2.0000      -0.888774       -24.1848
   9   2.0000      -0.794864       -21.6293
  10   2.0000      -0.692573       -18.8459
  11   2.0000      -0.589450       -16.0397
  12   2.0000      -0.550416       -14.9776
  13   2.0000      -0.549626       -14.9561
  14   2.0000      -0.518681       -14.1140
  15   2.0000      -0.506813       -13.7911
  16   2.0000      -0.479534       -13.0488
  17   2.0000      -0.471248       -12.8233
  18   2.0000      -0.436089       -11.8666
  19   2.0000      -0.418634       -11.3916
  20   2.0000      -0.413631       -11.2555
  21   2.0000      -0.343709        -9.3528
  22   2.0000      -0.328989        -8.9523
  23   2.0000      -0.323065        -8.7910
  24   0.0000       0.094993         2.5849
  25   0.0000       0.115830         3.1519
  26   0.0000       0.122918         3.3448
  27   0.0000       0.133560         3.6343
  28   0.0000       0.147808         4.0221

MULLIKEN ATOMIC CHARGES
-----------------------
   0 C :   -0.418154
   1 C :    0.137392
   2 H :    0.009964
   3 H :   -0.023131
   4 C :    0.381020
   5 O :   -0.713315
   6 O :   -0.751160
   7 C :    0.593435
   8 H :   -0.002307
   9 H :   -0.127306
  10 H :   -0.034454
  11 H :   -0.006081
  12 H :   -0.045903
Sum of atomic charges:   -1.0000000

LOEWDIN ATOMIC CHARGES
----------------------
   0 C :   -0.077982
   1 C :   -0.000149
   2 H :    0.024956
   3 H :    0.013514
   4 C :   -0.332827
   5 O :   -0.365503
   6 O :   -0.357514
   7 C :    0.118316
   8 H :    0.013839
   9 H :    0.019100
  10 H :   -0.017610
  11 H :   -0.013591
  12 H :   -0.024551

  Mayer bond orders larger than 0.100000
B(  0-C ,  1-C ) :   1.1850 B(  0-C ,  2-H ) :   0.1217 B(  0-C ,  3-H ) :   0.1382
B(  0-C ,  7-C ) :   1.3160 B(  0-C ,  8-H ) :   0.9159 B(  0-C ,  9-H ) :   0.9984
B(  0-C , 10-H ) :   0.1914 B(  0-C , 11-H ) :   0.1911 B(  0-C , 12-H ) :   0.2019
B(  1-C ,  2-H ) :   0.8382 B(  1-C ,  3-H ) :   0.8878 B(  1-C ,  4-C ) :   1.0472
B(  1-C ,  8-H ) :   0.1062 B(  2-H ,  4-C ) :   0.1133 B(  3-H ,  4-C ) :   0.1796
B(  4-C ,  5-O ) :   1.4726 B(  4-C ,  6-O ) :   1.4929 B(  5-O ,  6-O ) :   0.1501
B(  7-C , 10-H ) :   0.7918 B(  7-C , 11-H ) :   0.8005 B(  7-C , 12-H ) :   0.8451

Dispersion correction           -0.003443983
FINAL SINGLE POINT ENERGY      -306.971666452129

DIPOLE MOMENT
-------------
                                X             Y             Z
Electronic contribution:      3.28694       0.66511       5.29301
Nuclear contribution   :     -4.94481       0.08097      -8.10693
                        -----------------------------------------
Total Dipole Moment    :     -1.65787       0.74608      -2.81391
                        -----------------------------------------
Magnitude (a.u.)       :      3.35011
Magnitude (Debye)      :      8.51532

Rotational constants in cm-1:     0.192263     0.082741     0.079730
Rotational constants in MHz :  5763.914333  2480.509926  2390.233107

                             ****ORCA TERMINATED NORMALLY****
TOTAL RUN TIME: 0 days 0 hours 0 minutes 18 seconds 833 msec
