                         Program Version 5.0.0 -  RELEASE  -
|  1> !wB97X-D3 RIJCOSX def2-SVPD def2/J TightSCF CPCM(Water)
|  2> *xyz 1 1
|  3> C          3.91385       -1.65829        3.01513
|  4> N          5.03927       -0.90115        2.49282
|  5> C          6.21038       -1.41726        2.17824
|  6> N          6.53591       -2.67712        2.55608
|  7> N          7.07675       -0.70082        1.47891
|  8> H          7.95464       -1.12155        1.20755
|  9> H          6.75616        0.10664        0.96028
| 10> H          4.84217        0.01761        2.11519
| 11> H          5.99388       -3.12692        3.28278
| 12> H          7.49844       -2.97548        2.46878
| 13> C          3.13916       -2.37657        1.91061
| 14> H          3.26723       -0.93940        3.52069
| 15> H          4.24720       -2.35509        3.79006
| 16> C          2.39995       -1.38958        1.00949
| 17> H          2.44075       -3.08712        2.36298
| 18> H          3.84448       -2.97046        1.31868
| 19> H          1.87065       -1.92698        0.25058
| 20> H          3.10498       -0.72749        0.55181
| 21> H          1.70633       -0.82279        1.59477
| 22> *
| 23> %MaxCore 64000
| 24> %pal nprocs 8
| 25> end
| 26> %scf
| 27>   MaxIter 150
| 28> end
| 29>
| 30>
| 31>                          ****END OF INPUT****

CARTESIAN COORDINATES (ANGSTROEM)
---------------------------------
  C      3.913850   -1.658290    3.015130
  N      5.039270   -0.901150    2.492820
  C      6.210380   -1.417260    2.178240
  N      6.535910   -2.677120    2.556080
  N      7.076750   -0.700820    1.478910
  H      7.954640   -1.121550    1.207550
  H      6.756160    0.106640    0.960280
  H      4.842170    0.017610    2.115190
  H      5.993880   -3.126920    3.282780
  H      7.498440   -2.975480    2.468780
  C      3.139160   -2.376570    1.910610
  H      3.267230   -0.939400    3.520690
  H      4.247200   -2.355090    3.790060
  C      2.399950   -1.389580    1.009490
  H      2.440750   -3.087120    2.362980
  H      3.844480   -2.970460    1.318680
  H      1.870650   -1.926980    0.250580
  H      3.104980   -0.727490    0.551810
  H      1.706330   -0.822790    1.594770

 Total Charge           Charge          ....    1
 Multiplicity           Mult            ....    1
 Number of Electrons    NEL             ....   56
 Basis Dimension        Dim             ....  236

ORBITAL ENERGIES
----------------

  NO   OCC          E(Eh)            E(eV)
   0   2.0000     -14.492167      -394.3519
   1   2.0000     -14.484327      -394.1386
   2   2.0000     -14.484019      -394.1302
   3   2.0000     -10.456979      -284.5489
   4   2.0000     -10.338556      -281.3264
   5   2.0000     -10.291671      -280.0506
   6   2.0000     -10.272659      -279.5333
   7   2.0000      -1.155400       -31.4400
   8   2.0000      -1.045408       -28.4470
   9   2.0000      -1.023220       -27.8432
  10   2.0000      -0.903352       -24.5815
  11   2.0000      -0.820846       -22.3364
  12   2.0000      -0.762705       -20.7543
  13   2.0000      -0.721084       -19.6217
  14   2.0000      -0.711875       -19.3711
  15   2.0000      -0.672016       -18.2865
  16   2.0000      -0.617875       -16.8132
  17   2.0000      -0.610235       -16.6053
  18   2.0000      -0.596891       -16.2422
  19   2.0000      -0.570327       -15.5194
  20   2.0000      -0.547555       -14.8997
  21   2.0000      -0.534159       -14.5352
  22   2.0000      -0.503942       -13.7130
  23   2.0000      -0.460760       -12.5379
  24   2.0000      -0.443264       -12.0618
  25   2.0000      -0.439109       -11.9488
  26   2.0000      -0.400285       -10.8923
  27   2.0000      -0.375875       -10.2281
  28   0.0000       0.078363         2.1324
  29   0.0000       0.087182         2.3723
  30   0.0000       0.112586         3.0636
  31   0.0000       0.114874         3.1259
  32   0.0000       0.126487         3.4419

MULLIKEN ATOMIC CHARGES
-----------------------
   0 C :    0.676807
   1 N :   -0.522317
   2 C :    1.296968
   3 N :   -0.053671
   4 N :   -0.143751
   5 H :    0.049085
   6 H :    0.014914
   7 H :   -0.144605
   8 H :    0.024131
   9 H :   -0.088786
  10 C :   -0.334449
  11 H :   -0.213286
  12 H :   -0.044743
  13 C :    0.605319
  14 H :   -0.068485
  15 H :    0.003815
  16 H :   -0.035401
  17 H :   -0.064243
  18 H :    0.042700
Sum of atomic charges:    1.0000000

LOEWDIN ATOMIC CHARGES
----------------------
   0 C :    0.072677
   1 N :    0.046861
   2 C :   -0.029799
   3 N :    0.277348
   4 N :    0.263228
   5 H :    0.047604
   6 H :    0.049944
   7 H :    0.069911
   8 H :    0.018484
   9 H :    0.042897
  10 C :   -0.056230
  11 H :    0.041487
  12 H :    0.028163
  13 C :    0.121390
  14 H :    0.029728
  15 H :    0.020713
  16 H :   -0.013689
  17 H :   -0.019656
  18 H :   -0.011061

  Mayer bond orders larger than 0.100000
B(  0-C ,  1-N ) :   0.8817 B(  0-C ,  7-H ) :  -0.1625 B(  0-C , 10-C ) :   1.1103
B(  0-C , 11-H ) :   0.8089 B(  0-C , 12-H ) :   0.9412 B(  0-C , 15-H ) :   0.1196
B(  1-N ,  2-C ) :   1.0374 B(  1-N ,  3-N ) :   0.1844 B(  1-N ,  4-N ) :   0.2634
B(  1-N ,  7-H ) :   1.2984 B(  1-N , 11-H ) :   0.2347 B(  2-C ,  3-N ) :   0.9442
B(  2-C ,  4-N ) :   0.8610 B(  2-C ,  6-H ) :  -0.1465 B(  2-C ,  7-H ) :  -0.2404
B(  2-C ,  9-H ) :  -0.1059 B(  3-N ,  4-N ) :   0.1226 B(  3-N ,  8-H ) :   1.0263
B(  3-N ,  9-H ) :   1.2356 B(  4-N ,  5-H ) :   1.1132 B(  4-N ,  6-H ) :   1.1638
B(  5-H ,  6-H ) :  -0.1544 B(  8-H ,  9-H ) :  -0.1876 B( 10-C , 13-C ) :   1.2563
B( 10-C , 14-H ) :   1.0144 B( 10-C , 15-H ) :   0.9474 B( 10-C , 16-H ) :   0.1987
B( 10-C , 17-H ) :   0.1677 B( 10-C , 18-H ) :   0.1657 B( 13-C , 16-H ) :   0.8260
B( 13-C , 17-H ) :   0.8554 B( 13-C , 18-H ) :   0.8103

Dispersion correction           -0.005320907
FINAL SINGLE POINT ENERGY      -323.515283207546

DIPOLE MOMENT
-------------
                                X             Y             Z
Electronic contribution:      7.32375       1.13319       1.51000
Nuclear contribution   :     -5.22950      -0.81973      -1.43960
                        -----------------------------------------
Total Dipole Moment    :      2.09424       0.31346       0.07041
                        -----------------------------------------
Magnitude (a.u.)       :      2.11874
Magnitude (Debye)      :      5.38541

Rotational constants in cm-1:     0.158118     0.049676     0.044442
Rotational constants in MHz :  4740.256785  1489.254255  1332.331442

                             ****ORCA TERMINATED NORMALLY****
TOTAL RUN TIME: 0 days 0 hours 0 minutes 34 seconds 18 msec
