                         Program Version 5.0.0 -  RELEASE  -
|  1> !wB97X-D3 RIJCOSX def2-SVPD def2/J TightSCF CPCM(Water) xyzfile
|  2>
|  3> *xyzfile 0 1 B.xyz
|  4>
|  5> %MaxCore 64000
|  6>
|  7> %pal nprocs 18
|  8> end
|  9>
| 10> %scf
| 11>   MaxIter 150
| 12> end
| 13>
| 14>
| 15>                          ****END OF INPUT****

CARTESIAN COORDINATES (ANGSTROEM)
---------------------------------
  C      3.913853   -1.658291    3.015134
  N      5.039266   -0.901154    2.492821
  C      4.084215    1.742081   -2.114724
  C      4.265245    2.500518   -0.795890
  H      4.868534    3.392674   -0.981134
  H      3.307640    2.824571   -0.387809
  C      4.982240    1.650257    0.247422
  C      6.210384   -1.417261    2.178244
  N      6.535913   -2.677122    2.556078
  N      7.076754   -0.700820    1.478906
  H      7.954643   -1.121554    1.207554
  H      6.756161    0.106637    0.960278
  H      4.842168    0.017609    2.115191
  H      5.993876   -3.126918    3.282784
  H      7.498441   -2.975482    2.468776
  O      4.368065    1.389270    1.313706
  O      6.128919    1.233512   -0.045620
  C      3.139159   -2.376572    1.910609
  H      3.267235   -0.939401    3.520693
  H      4.247195   -2.355095    3.790065
  C      1.997274    0.430918   -1.399218
  C      3.412746    0.376886   -1.965497
  H      4.047407   -0.246590   -1.326706
  H      3.390774   -0.118719   -2.942839
  H      5.068475    1.598504   -2.565728
  H      3.503356    2.363939   -2.804565
  C      2.399946   -1.389579    1.009490
  H      2.440750   -3.087118    2.362976
  H      3.844475   -2.970462    1.318677
  C      2.070177   -1.936705   -0.372401
  H      1.481611   -1.061542    1.509912
  H      3.008628   -0.490001    0.897451
  C      1.322238   -0.935775   -1.256413
  H      1.472747   -2.850902   -0.283997
  H      3.003539   -2.234041   -0.862535
  H      1.376444    1.058920   -2.047420
  H      2.015341    0.929780   -0.426535
  H      0.316648   -0.787213   -0.848278
  H      1.185611   -1.379252   -2.248613

 Total Charge           Charge          ....    0
 Multiplicity           Mult            ....    1
 Number of Electrons    NEL             ....  126
 Basis Dimension        Dim             ....  510

ORBITAL ENERGIES
----------------

  NO   OCC          E(Eh)            E(eV)
   0   2.0000     -19.199138      -522.4351
   1   2.0000     -19.198656      -522.4220
   2   2.0000     -14.469921      -393.7466
   3   2.0000     -14.456325      -393.3766
   4   2.0000     -14.447782      -393.1441
   5   2.0000     -10.434236      -283.9300
   6   2.0000     -10.386020      -282.6180
   7   2.0000     -10.327793      -281.0335
   8   2.0000     -10.283045      -279.8159
   9   2.0000     -10.279264      -279.7130
  10   2.0000     -10.274942      -279.5954
  11   2.0000     -10.274919      -279.5948
  12   2.0000     -10.274301      -279.5779
  13   2.0000     -10.274222      -279.5758
  14   2.0000     -10.272751      -279.5358
  15   2.0000     -10.272089      -279.5177
  16   2.0000      -1.151666       -31.3384
  17   2.0000      -1.131565       -30.7915
  18   2.0000      -1.055714       -28.7274
  19   2.0000      -1.021890       -27.8070
  20   2.0000      -1.003224       -27.2991
  21   2.0000      -0.924173       -25.1480
  22   2.0000      -0.901912       -24.5423
  23   2.0000      -0.872777       -23.7495
  24   2.0000      -0.830325       -22.5943
  25   2.0000      -0.792565       -21.5668
  26   2.0000      -0.761054       -20.7093
  27   2.0000      -0.734375       -19.9834
  28   2.0000      -0.710388       -19.3306
  29   2.0000      -0.699697       -19.0397
  30   2.0000      -0.684772       -18.6336
  31   2.0000      -0.656264       -17.8579
  32   2.0000      -0.650072       -17.6894
  33   2.0000      -0.619842       -16.8667
  34   2.0000      -0.601790       -16.3755
  35   2.0000      -0.591480       -16.0950
  36   2.0000      -0.578639       -15.7456
  37   2.0000      -0.577257       -15.7080
  38   2.0000      -0.559760       -15.2318
  39   2.0000      -0.552797       -15.0424
  40   2.0000      -0.549511       -14.9530
  41   2.0000      -0.544036       -14.8040
  42   2.0000      -0.525220       -14.2920
  43   2.0000      -0.519938       -14.1482
  44   2.0000      -0.515900       -14.0384
  45   2.0000      -0.506845       -13.7919
  46   2.0000      -0.494703       -13.4616
  47   2.0000      -0.483321       -13.1518
  48   2.0000      -0.470012       -12.7897
  49   2.0000      -0.459517       -12.5041
  50   2.0000      -0.448064       -12.1924
  51   2.0000      -0.440989       -11.9999
  52   2.0000      -0.426283       -11.5998
  53   2.0000      -0.417131       -11.3507
  54   2.0000      -0.412807       -11.2331
  55   2.0000      -0.399772       -10.8783
  56   2.0000      -0.395769       -10.7694
  57   2.0000      -0.391546       -10.6545
  58   2.0000      -0.384050       -10.4505
  59   2.0000      -0.368209       -10.0195
  60   2.0000      -0.351277        -9.5587
  61   2.0000      -0.347974        -9.4689
  62   2.0000      -0.343796        -9.3552
  63   0.0000       0.088067         2.3964
  64   0.0000       0.092134         2.5071
  65   0.0000       0.101760         2.7690
  66   0.0000       0.105898         2.8816
  67   0.0000       0.109914         2.9909

MULLIKEN ATOMIC CHARGES
-----------------------
   0 C :    1.139293
   1 N :    0.047889
   2 C :    0.371970
   3 C :    0.273623
   4 H :   -0.083606
   5 H :    0.144604
   6 C :    0.217143
   7 C :    1.216752
   8 N :   -0.019584
   9 N :    0.286001
  10 H :   -0.006233
  11 H :   -0.410181
  12 H :   -0.970371
  13 H :    0.029578
  14 H :   -0.092881
  15 O :   -0.700172
  16 O :   -0.613033
  17 C :    0.248509
  18 H :   -0.229418
  19 H :   -0.179251
  20 C :   -0.142438
  21 C :   -0.151954
  22 H :   -0.012810
  23 H :   -0.148130
  24 H :    0.005476
  25 H :   -0.099334
  26 C :    0.603586
  27 H :   -0.074178
  28 H :   -0.021387
  29 C :   -0.023494
  30 H :    0.005868
  31 H :   -0.916193
  32 C :    0.658933
  33 H :   -0.362305
  34 H :    0.138425
  35 H :   -0.360744
  36 H :    0.188861
  37 H :    0.031761
  38 H :    0.009428
Sum of atomic charges:    0.0000000

LOEWDIN ATOMIC CHARGES
----------------------
   0 C :    0.081481
   1 N :    0.060990
   2 C :   -0.024902
   3 C :    0.028157
   4 H :    0.031541
   5 H :    0.015093
   6 C :   -0.196740
   7 C :   -0.028366
   8 N :    0.263020
   9 N :    0.273957
  10 H :    0.041378
  11 H :   -0.120416
  12 H :   -0.088749
  13 H :    0.010919
  14 H :    0.034907
  15 O :   -0.267318
  16 O :   -0.261102
  17 C :   -0.011501
  18 H :    0.040523
  19 H :    0.021822
  20 C :   -0.034254
  21 C :   -0.031016
  22 H :    0.011103
  23 H :    0.029659
  24 H :    0.018674
  25 H :    0.024952
  26 C :   -0.031961
  27 H :    0.031154
  28 H :    0.020439
  29 C :   -0.040626
  30 H :    0.039413
  31 H :   -0.028592
  32 C :   -0.034120
  33 H :    0.024898
  34 H :    0.018832
  35 H :    0.026409
  36 H :    0.005000
  37 H :    0.023190
  38 H :    0.022151

  Mayer bond orders larger than 0.100000
B(  0-C ,  1-N ) :   0.8602 B(  0-C , 12-H ) :  -0.4498 B(  0-C , 17-C ) :   1.0808
B(  0-C , 18-H ) :   0.6746 B(  0-C , 19-H ) :   0.8291 B(  0-C , 26-C ) :   0.1151
B(  1-N ,  7-C ) :   1.1491 B(  1-N ,  8-N ) :   0.2022 B(  1-N , 12-H ) :   1.2208
B(  1-N , 18-H ) :   0.2198 B(  1-N , 19-H ) :   0.1029 B(  2-C ,  3-C ) :   1.1716
B(  2-C ,  4-H ) :   0.1547 B(  2-C ,  5-H ) :   0.1006 B(  2-C , 21-C ) :   1.2306
B(  2-C , 24-H ) :   0.6910 B(  2-C , 25-H ) :   0.8354 B(  3-C ,  4-H ) :   0.7018
B(  3-C ,  5-H ) :   0.7539 B(  3-C ,  6-C ) :   1.1677 B(  3-C , 24-H ) :   0.1087
B(  3-C , 25-H ) :   0.1402 B(  4-H ,  6-C ) :   0.2588 B(  5-H ,  6-C ) :   0.2183
B(  6-C , 15-O ) :   1.4296 B(  6-C , 16-O ) :   1.3552 B(  7-C ,  8-N ) :   0.9143
B(  7-C ,  9-N ) :   0.9814 B(  7-C , 11-H ) :  -0.2253 B(  7-C , 12-H ) :  -0.5864
B(  8-N ,  9-N ) :   0.1247 B(  8-N , 13-H ) :   1.0249 B(  8-N , 14-H ) :   1.2072
B(  9-N , 10-H ) :   1.1685 B(  9-N , 11-H ) :   1.1185 B( 10-H , 11-H ) :  -0.2469
B( 11-H , 16-O ) :   0.1587 B( 12-H , 15-O ) :   0.2609 B( 12-H , 18-H ) :   0.1517
B( 13-H , 14-H ) :  -0.1897 B( 15-O , 31-H ) :   0.1072 B( 17-C , 19-H ) :   0.1587
B( 17-C , 26-C ) :   1.1100 B( 17-C , 27-H ) :   0.9144 B( 17-C , 28-H ) :   0.9066
B( 17-C , 30-H ) :   0.1266 B( 18-H , 19-H ) :  -0.1974 B( 20-C , 21-C ) :   1.2139
B( 20-C , 22-H ) :   0.1055 B( 20-C , 23-H ) :   0.1454 B( 20-C , 32-C ) :   1.1507
B( 20-C , 35-H ) :   1.0489 B( 20-C , 36-H ) :   0.8205 B( 20-C , 37-H ) :   0.2547
B( 20-C , 38-H ) :   0.1370 B( 21-C , 22-H ) :   0.9339 B( 21-C , 23-H ) :   0.9019
B( 21-C , 24-H ) :   0.2318 B( 21-C , 25-H ) :   0.1732 B( 21-C , 35-H ) :   0.1191
B( 21-C , 36-H ) :   0.1030 B( 24-H , 25-H ) :  -0.1150 B( 26-C , 27-H ) :   0.1437
B( 26-C , 29-C ) :   1.2388 B( 26-C , 30-H ) :   0.6601 B( 26-C , 31-H ) :   0.2617
B( 26-C , 33-H ) :   0.1022 B( 26-C , 34-H ) :   0.1533 B( 27-H , 31-H ) :   0.1163
B( 29-C , 31-H ) :   0.1302 B( 29-C , 32-C ) :   1.1125 B( 29-C , 33-H ) :   1.0567
B( 29-C , 34-H ) :   0.8232 B( 29-C , 37-H ) :   0.1083 B( 29-C , 38-H ) :   0.2105
B( 30-H , 31-H ) :   0.2609 B( 31-H , 36-H ) :   0.1054 B( 32-C , 37-H ) :   0.6841
B( 32-C , 38-H ) :   0.7075 B( 37-H , 38-H ) :  -0.1033

Dispersion correction           -0.020324763
FINAL SINGLE POINT ENERGY      -747.154096817006

DIPOLE MOMENT
-------------
                                X             Y             Z
Electronic contribution:     12.39156       2.38590       7.93439
Nuclear contribution   :    -11.44764      -6.21818      -6.18483
                        -----------------------------------------
Total Dipole Moment    :      0.94392      -3.83227       1.74956
                        -----------------------------------------
Magnitude (a.u.)       :      4.31720
Magnitude (Debye)      :     10.97346

Rotational constants in cm-1:     0.020281     0.013510     0.009451
Rotational constants in MHz :   608.005987   405.034308   283.324538

                             ****ORCA TERMINATED NORMALLY****
TOTAL RUN TIME: 0 days 0 hours 1 minutes 38 seconds 816 msec
