                         Program Version 5.0.0 -  RELEASE  -
|  1> !wB97X-D3 RIJCOSX def2-SVPD def2/J TightSCF CPCM(Water)
|  2> *xyz 0 1
|  3> C          4.08422        1.74208       -2.11472
|  4> C          4.26524        2.50052       -0.79589
|  5> H          4.86853        3.39267       -0.98113
|  6> H          3.30764        2.82457       -0.38781
|  7> C          4.98224        1.65026        0.24742
|  8> F          4.36806        1.38927        1.31371
|  9> O          6.12892        1.23351       -0.04562
| 10> C          3.41275        0.37689       -1.96550
| 11> H          5.06847        1.59850       -2.56573
| 12> H          3.50336        2.36394       -2.80457
| 13> H          3.32456       -0.08422       -2.92701
| 14> H          2.43923        0.50287       -1.53972
| 15> H          4.00446       -0.24355       -1.32531
| 16> *
| 17> %MaxCore 64000
| 18> %pal nprocs 8
| 19> end
| 20> %scf
| 21>   MaxIter 150
| 22> end
| 23>
| 24>
| 25>                          ****END OF INPUT****

CARTESIAN COORDINATES (ANGSTROEM)
---------------------------------
  C      4.084220    1.742080   -2.114720
  C      4.265240    2.500520   -0.795890
  H      4.868530    3.392670   -0.981130
  H      3.307640    2.824570   -0.387810
  C      4.982240    1.650260    0.247420
  F      4.368060    1.389270    1.313710
  O      6.128920    1.233510   -0.045620
  C      3.412750    0.376890   -1.965500
  H      5.068470    1.598500   -2.565730
  H      3.503360    2.363940   -2.804570
  H      3.324560   -0.084220   -2.927010
  H      2.439230    0.502870   -1.539720
  H      4.004460   -0.243550   -1.325310

 Total Charge           Charge          ....    0
 Multiplicity           Mult            ....    1
 Number of Electrons    NEL             ....   48
 Basis Dimension        Dim             ....  182

ORBITAL ENERGIES
----------------

  NO   OCC          E(Eh)            E(eV)
   0   2.0000     -24.876393      -676.9211
   1   2.0000     -19.263113      -524.1759
   2   2.0000     -10.480723      -285.1950
   3   2.0000     -10.309209      -280.5278
   4   2.0000     -10.294845      -280.1370
   5   2.0000     -10.272141      -279.5192
   6   2.0000      -1.424783       -38.7703
   7   2.0000      -1.151824       -31.3427
   8   2.0000      -0.917658       -24.9707
   9   2.0000      -0.831601       -22.6290
  10   2.0000      -0.770447       -20.9649
  11   2.0000      -0.711298       -19.3554
  12   2.0000      -0.658054       -17.9066
  13   2.0000      -0.637029       -17.3344
  14   2.0000      -0.617404       -16.8004
  15   2.0000      -0.559863       -15.2346
  16   2.0000      -0.552806       -15.0426
  17   2.0000      -0.507949       -13.8220
  18   2.0000      -0.504684       -13.7331
  19   2.0000      -0.472100       -12.8465
  20   2.0000      -0.444078       -12.0840
  21   2.0000      -0.438706       -11.9378
  22   2.0000      -0.431277       -11.7356
  23   2.0000      -0.401316       -10.9204
  24   0.0000       0.047736         1.2990
  25   0.0000       0.091323         2.4850
  26   0.0000       0.119646         3.2557
  27   0.0000       0.125949         3.4273
  28   0.0000       0.133483         3.6322

MULLIKEN ATOMIC CHARGES
-----------------------
   0 C :   -0.420031
   1 C :   -0.027144
   2 H :    0.094433
   3 H :    0.067383
   4 C :    0.794351
   5 F :   -0.385376
   6 O :   -0.572671
   7 C :    0.544170
   8 H :    0.023983
   9 H :   -0.088823
  10 H :   -0.013033
  11 H :    0.012401
  12 H :   -0.029642
Sum of atomic charges:    0.0000000

LOEWDIN ATOMIC CHARGES
----------------------
   0 C :   -0.060439
   1 C :    0.046138
   2 H :    0.048808
   3 H :    0.035298
   4 C :   -0.002666
   5 F :   -0.031771
   6 O :   -0.178990
   7 C :    0.126884
   8 H :    0.024810
   9 H :    0.031330
  10 H :   -0.011283
  11 H :   -0.008760
  12 H :   -0.019360

  Mayer bond orders larger than 0.100000
B(  0-C ,  1-C ) :   1.1993 B(  0-C ,  2-H ) :   0.1189 B(  0-C ,  3-H ) :   0.1307
B(  0-C ,  7-C ) :   1.3327 B(  0-C ,  8-H ) :   0.9238 B(  0-C ,  9-H ) :   1.0032
B(  0-C , 10-H ) :   0.1848 B(  0-C , 11-H ) :   0.1807 B(  0-C , 12-H ) :   0.1854
B(  1-C ,  2-H ) :   0.8513 B(  1-C ,  3-H ) :   0.9062 B(  1-C ,  4-C ) :   1.0977
B(  4-C ,  5-F ) :   0.7176 B(  4-C ,  6-O ) :   1.7841 B(  7-C , 10-H ) :   0.7967
B(  7-C , 11-H ) :   0.8150 B(  7-C , 12-H ) :   0.8560

Dispersion correction           -0.003354679
FINAL SINGLE POINT ENERGY      -331.403528384209

DIPOLE MOMENT
-------------
                                X             Y             Z
Electronic contribution:      3.45544       0.57203       9.75422
Nuclear contribution   :     -4.74589       0.16790     -10.21257
                        -----------------------------------------
Total Dipole Moment    :     -1.29045       0.73993      -0.45836
                        -----------------------------------------
Magnitude (a.u.)       :      1.55655
Magnitude (Debye)      :      3.95645

Rotational constants in cm-1:     0.185977     0.079908     0.076069
Rotational constants in MHz :  5575.451195  2395.576856  2280.481791

                             ****ORCA TERMINATED NORMALLY****
TOTAL RUN TIME: 0 days 0 hours 0 minutes 21 seconds 61 msec
