                         Program Version 5.0.0 -  RELEASE  -
|  1> !wB97X-D3 RIJCOSX def2-SVPD def2/J TightSCF CPCM(Water)
|  2> *xyz 0 1
|  3> C          3.91385       -1.65829        3.01513
|  4> C          5.03927       -0.90115        2.49282
|  5> C          6.21038       -1.41726        2.17824
|  6> N          6.53591       -2.67712        2.55608
|  7> N          7.07675       -0.70082        1.47891
|  8> H          7.95464       -1.12155        1.20755
|  9> H          6.75616        0.10664        0.96028
| 10> H          4.84217        0.01761        2.11519
| 11> H          5.99388       -3.12692        3.28278
| 12> H          7.49844       -2.97548        2.46878
| 13> C          3.13916       -2.37657        1.91061
| 14> H          3.26723       -0.93940        3.52069
| 15> H          4.24720       -2.35509        3.79006
| 16> C          2.39995       -1.38958        1.00949
| 17> H          2.44075       -3.08712        2.36298
| 18> H          3.84448       -2.97046        1.31868
| 19> H          1.87065       -1.92698        0.25058
| 20> H          3.10498       -0.72749        0.55181
| 21> H          1.70633       -0.82279        1.59477
| 22> *
| 23> %MaxCore 64000
| 24> %pal nprocs 8
| 25> end
| 26> %scf
| 27>   MaxIter 150
| 28> end
| 29>
| 30>
| 31>                          ****END OF INPUT****

CARTESIAN COORDINATES (ANGSTROEM)
---------------------------------
  C      3.913850   -1.658290    3.015130
  C      5.039270   -0.901150    2.492820
  C      6.210380   -1.417260    2.178240
  N      6.535910   -2.677120    2.556080
  N      7.076750   -0.700820    1.478910
  H      7.954640   -1.121550    1.207550
  H      6.756160    0.106640    0.960280
  H      4.842170    0.017610    2.115190
  H      5.993880   -3.126920    3.282780
  H      7.498440   -2.975480    2.468780
  C      3.139160   -2.376570    1.910610
  H      3.267230   -0.939400    3.520690
  H      4.247200   -2.355090    3.790060
  C      2.399950   -1.389580    1.009490
  H      2.440750   -3.087120    2.362980
  H      3.844480   -2.970460    1.318680
  H      1.870650   -1.926980    0.250580
  H      3.104980   -0.727490    0.551810
  H      1.706330   -0.822790    1.594770

 Total Charge           Charge          ....    0
 Multiplicity           Mult            ....    1
 Number of Electrons    NEL             ....   56
 Basis Dimension        Dim             ....  236

ORBITAL ENERGIES
----------------

  NO   OCC          E(Eh)            E(eV)
   0   2.0000     -14.432007      -392.7149
   1   2.0000     -14.429057      -392.6346
   2   2.0000     -10.336255      -281.2638
   3   2.0000     -10.270359      -279.4707
   4   2.0000     -10.265997      -279.3520
   5   2.0000     -10.261500      -279.2296
   6   2.0000     -10.212646      -277.9002
   7   2.0000      -1.066715       -29.0268
   8   2.0000      -0.971031       -26.4231
   9   2.0000      -0.901890       -24.5417
  10   2.0000      -0.833007       -22.6673
  11   2.0000      -0.765776       -20.8378
  12   2.0000      -0.699549       -19.0357
  13   2.0000      -0.672324       -18.2949
  14   2.0000      -0.638321       -17.3696
  15   2.0000      -0.607004       -16.5174
  16   2.0000      -0.565209       -15.3801
  17   2.0000      -0.545660       -14.8482
  18   2.0000      -0.539413       -14.6782
  19   2.0000      -0.509553       -13.8656
  20   2.0000      -0.493091       -13.4177
  21   2.0000      -0.471107       -12.8195
  22   2.0000      -0.459004       -12.4901
  23   2.0000      -0.427959       -11.6453
  24   2.0000      -0.412101       -11.2138
  25   2.0000      -0.407440       -11.0870
  26   2.0000      -0.359221        -9.7749
  27   2.0000      -0.252233        -6.8636
  28   0.0000       0.095852         2.6083
  29   0.0000       0.116371         3.1666
  30   0.0000       0.121468         3.3053
  31   0.0000       0.123721         3.3666
  32   0.0000       0.149454         4.0668

MULLIKEN ATOMIC CHARGES
-----------------------
   0 C :    0.205891
   1 C :   -0.345464
   2 C :    0.774280
   3 N :   -0.113367
   4 N :   -0.091434
   5 H :   -0.065295
   6 H :    0.021326
   7 H :   -0.208441
   8 H :    0.032180
   9 H :   -0.183500
  10 C :   -0.259585
  11 H :   -0.041305
  12 H :   -0.098042
  13 C :    0.647692
  14 H :   -0.099282
  15 H :   -0.060372
  16 H :   -0.029242
  17 H :   -0.121096
  18 H :    0.035057
Sum of atomic charges:   -0.0000000

LOEWDIN ATOMIC CHARGES
----------------------
   0 C :   -0.074408
   1 C :   -0.062725
   2 C :   -0.233836
   3 N :    0.202432
   4 N :    0.176628
   5 H :    0.008566
   6 H :    0.019008
   7 H :   -0.050881
   8 H :   -0.006625
   9 H :    0.004875
  10 C :   -0.080248
  11 H :    0.014822
  12 H :    0.004975
  13 C :    0.112817
  14 H :    0.013974
  15 H :    0.013197
  16 H :   -0.020440
  17 H :   -0.026064
  18 H :   -0.016068

  Mayer bond orders larger than 0.100000
B(  0-C ,  1-C ) :   1.2522 B(  0-C ,  7-H ) :   0.3247 B(  0-C , 10-C ) :   1.0918
B(  0-C , 11-H ) :   0.7312 B(  0-C , 12-H ) :   0.9230 B(  0-C , 15-H ) :   0.1402
B(  1-C ,  2-C ) :   1.7780 B(  1-C ,  3-N ) :   0.2263 B(  1-C ,  4-N ) :   0.2944
B(  1-C ,  7-H ) :   0.7441 B(  1-C , 11-H ) :   0.2871 B(  1-C , 12-H ) :   0.2341
B(  2-C ,  3-N ) :   0.8854 B(  2-C ,  4-N ) :   0.8576 B(  2-C ,  7-H ) :   0.2369
B(  2-C ,  9-H ) :  -0.1476 B(  2-C , 12-H ) :  -0.1140 B(  3-N ,  8-H ) :   0.9790
B(  3-N ,  9-H ) :   1.2958 B(  4-N ,  5-H ) :   1.1194 B(  4-N ,  6-H ) :   1.1274
B(  5-H ,  6-H ) :  -0.1493 B(  8-H ,  9-H ) :  -0.1809 B( 10-C , 13-C ) :   1.2673
B( 10-C , 14-H ) :   0.9893 B( 10-C , 15-H ) :   0.9556 B( 10-C , 16-H ) :   0.2046
B( 10-C , 17-H ) :   0.1990 B( 10-C , 18-H ) :   0.1958 B( 13-C , 16-H ) :   0.7957
B( 13-C , 17-H ) :   0.8412 B( 13-C , 18-H ) :   0.7809

Dispersion correction           -0.005293992
FINAL SINGLE POINT ENERGY      -306.961518317618

DIPOLE MOMENT
-------------
                                X             Y             Z
Electronic contribution:      6.35013       0.24423       0.97660
Nuclear contribution   :     -5.20491      -0.66934      -1.34917
                        -----------------------------------------
Total Dipole Moment    :      1.14522      -0.42511      -0.37257
                        -----------------------------------------
Magnitude (a.u.)       :      1.27713
Magnitude (Debye)      :      3.24620

Rotational constants in cm-1:     0.160002     0.049848     0.044470
Rotational constants in MHz :  4796.743477  1494.412607  1333.165890

                             ****ORCA TERMINATED NORMALLY****
TOTAL RUN TIME: 0 days 0 hours 0 minutes 34 seconds 12 msec
