                         Program Version 5.0.0 -  RELEASE  -
|  1> !wB97X-D3 RIJCOSX def2-SVPD def2/J TightSCF CPCM(Water)
|  2> *xyz 0 1
|  3> C          4.08422        1.74208       -2.11472
|  4> C          4.26524        2.50052       -0.79589
|  5> H          4.86853        3.39267       -0.98113
|  6> H          3.30764        2.82457       -0.38781
|  7> C          4.98224        1.65026        0.24742
|  8> O          4.36806        1.38927        1.31371
|  9> F          6.12892        1.23351       -0.04562
| 10> C          3.41275        0.37689       -1.96550
| 11> H          5.06847        1.59850       -2.56573
| 12> H          3.50336        2.36394       -2.80457
| 13> H          3.32456       -0.08422       -2.92701
| 14> H          2.43923        0.50287       -1.53972
| 15> H          4.00446       -0.24355       -1.32531
| 16> *
| 17> %MaxCore 64000
| 18> %pal nprocs 8
| 19> end
| 20> %scf
| 21>   MaxIter 150
| 22> end
| 23>
| 24>
| 25>                          ****END OF INPUT****

CARTESIAN COORDINATES (ANGSTROEM)
---------------------------------
  C      4.084220    1.742080   -2.114720
  C      4.265240    2.500520   -0.795890
  H      4.868530    3.392670   -0.981130
  H      3.307640    2.824570   -0.387810
  C      4.982240    1.650260    0.247420
  O      4.368060    1.389270    1.313710
  F      6.128920    1.233510   -0.045620
  C      3.412750    0.376890   -1.965500
  H      5.068470    1.598500   -2.565730
  H      3.503360    2.363940   -2.804570
  H      3.324560   -0.084220   -2.927010
  H      2.439230    0.502870   -1.539720
  H      4.004460   -0.243550   -1.325310

 Total Charge           Charge          ....    0
 Multiplicity           Mult            ....    1
 Number of Electrons    NEL             ....   48
 Basis Dimension        Dim             ....  182

ORBITAL ENERGIES
----------------

  NO   OCC          E(Eh)            E(eV)
   0   2.0000     -24.877829      -676.9601
   1   2.0000     -19.263565      -524.1883
   2   2.0000     -10.481073      -285.2045
   3   2.0000     -10.309210      -280.5279
   4   2.0000     -10.295509      -280.1550
   5   2.0000     -10.272930      -279.5406
   6   2.0000      -1.427648       -38.8483
   7   2.0000      -1.149863       -31.2894
   8   2.0000      -0.920204       -25.0400
   9   2.0000      -0.831105       -22.6155
  10   2.0000      -0.770046       -20.9540
  11   2.0000      -0.713358       -19.4115
  12   2.0000      -0.661233       -17.9931
  13   2.0000      -0.647399       -17.6166
  14   2.0000      -0.604783       -16.4570
  15   2.0000      -0.562245       -15.2995
  16   2.0000      -0.551023       -14.9941
  17   2.0000      -0.515888       -14.0380
  18   2.0000      -0.495662       -13.4877
  19   2.0000      -0.473654       -12.8888
  20   2.0000      -0.454350       -12.3635
  21   2.0000      -0.439649       -11.9634
  22   2.0000      -0.432652       -11.7731
  23   2.0000      -0.395014       -10.7489
  24   0.0000       0.050072         1.3625
  25   0.0000       0.090070         2.4509
  26   0.0000       0.120399         3.2762
  27   0.0000       0.125673         3.4197
  28   0.0000       0.133412         3.6303

MULLIKEN ATOMIC CHARGES
-----------------------
   0 C :   -0.455757
   1 C :   -0.006223
   2 H :    0.099053
   3 H :    0.031579
   4 C :    0.814523
   5 O :   -0.541384
   6 F :   -0.415950
   7 C :    0.563584
   8 H :    0.028583
   9 H :   -0.088910
  10 H :   -0.018634
  11 H :    0.013357
  12 H :   -0.023822
Sum of atomic charges:   -0.0000000

LOEWDIN ATOMIC CHARGES
----------------------
   0 C :   -0.063188
   1 C :    0.047907
   2 H :    0.047418
   3 H :    0.039571
   4 C :   -0.008667
   5 O :   -0.184050
   6 F :   -0.026549
   7 C :    0.126806
   8 H :    0.026605
   9 H :    0.031251
  10 H :   -0.011275
  11 H :   -0.007719
  12 H :   -0.018110

  Mayer bond orders larger than 0.100000
B(  0-C ,  1-C ) :   1.1825 B(  0-C ,  2-H ) :   0.1130 B(  0-C ,  3-H ) :   0.1263
B(  0-C ,  7-C ) :   1.3313 B(  0-C ,  8-H ) :   0.9231 B(  0-C ,  9-H ) :   1.0058
B(  0-C , 10-H ) :   0.1895 B(  0-C , 11-H ) :   0.1854 B(  0-C , 12-H ) :   0.1872
B(  1-C ,  2-H ) :   0.8503 B(  1-C ,  3-H ) :   0.9414 B(  1-C ,  4-C ) :   1.0603
B(  3-H ,  4-C ) :   0.1153 B(  4-C ,  5-O ) :   1.7822 B(  4-C ,  6-F ) :   0.6916
B(  5-O ,  6-F ) :   0.1093 B(  7-C , 10-H ) :   0.7952 B(  7-C , 11-H ) :   0.8126
B(  7-C , 12-H ) :   0.8492

Dispersion correction           -0.003364086
FINAL SINGLE POINT ENERGY      -331.403204572456

DIPOLE MOMENT
-------------
                                X             Y             Z
Electronic contribution:      6.83020       0.28065       7.12746
Nuclear contribution   :     -6.73491       0.34384      -8.67711
                        -----------------------------------------
Total Dipole Moment    :      0.09529       0.62449      -1.54965
                        -----------------------------------------
Magnitude (a.u.)       :      1.67346
Magnitude (Debye)      :      4.25360

Rotational constants in cm-1:     0.183378     0.080817     0.077085
Rotational constants in MHz :  5497.543257  2422.830825  2310.936171

                             ****ORCA TERMINATED NORMALLY****
TOTAL RUN TIME: 0 days 0 hours 0 minutes 20 seconds 995 msec
