                         Program Version 5.0.0 -  RELEASE  -
|  1> !wB97X-D3 RIJCOSX def2-SVPD def2/J TightSCF CPCM(Water)
|  2> *xyz 0 1
|  3> C          3.91385       -1.65829        3.01513
|  4> N          5.03927       -0.90115        2.49282
|  5> C          6.21038       -1.41726        2.17824
|  6> C          6.53591       -2.67712        2.55608
|  7> N          7.07675       -0.70082        1.47891
|  8> H          7.95464       -1.12155        1.20755
|  9> H          6.75616        0.10664        0.96028
| 10> H          4.84217        0.01761        2.11519
| 11> H          5.99388       -3.12692        3.28278
| 12> H          7.49844       -2.97548        2.46878
| 13> C          3.13916       -2.37657        1.91061
| 14> H          3.26723       -0.93940        3.52069
| 15> H          4.24720       -2.35509        3.79006
| 16> C          2.39995       -1.38958        1.00949
| 17> H          2.44075       -3.08712        2.36298
| 18> H          3.84448       -2.97046        1.31868
| 19> H          1.87065       -1.92698        0.25058
| 20> H          3.10498       -0.72749        0.55181
| 21> H          1.70633       -0.82279        1.59477
| 22> *
| 23> %MaxCore 64000
| 24> %pal nprocs 8
| 25> end
| 26> %scf
| 27>   MaxIter 150
| 28> end
| 29>
| 30>
| 31>                          ****END OF INPUT****

CARTESIAN COORDINATES (ANGSTROEM)
---------------------------------
  C      3.913850   -1.658290    3.015130
  N      5.039270   -0.901150    2.492820
  C      6.210380   -1.417260    2.178240
  C      6.535910   -2.677120    2.556080
  N      7.076750   -0.700820    1.478910
  H      7.954640   -1.121550    1.207550
  H      6.756160    0.106640    0.960280
  H      4.842170    0.017610    2.115190
  H      5.993880   -3.126920    3.282780
  H      7.498440   -2.975480    2.468780
  C      3.139160   -2.376570    1.910610
  H      3.267230   -0.939400    3.520690
  H      4.247200   -2.355090    3.790060
  C      2.399950   -1.389580    1.009490
  H      2.440750   -3.087120    2.362980
  H      3.844480   -2.970460    1.318680
  H      1.870650   -1.926980    0.250580
  H      3.104980   -0.727490    0.551810
  H      1.706330   -0.822790    1.594770

 Total Charge           Charge          ....    0
 Multiplicity           Mult            ....    1
 Number of Electrons    NEL             ....   56
 Basis Dimension        Dim             ....  236

ORBITAL ENERGIES
----------------

  NO   OCC          E(Eh)            E(eV)
   0   2.0000     -14.439731      -392.9251
   1   2.0000     -14.434960      -392.7952
   2   2.0000     -10.348252      -281.5903
   3   2.0000     -10.315360      -280.6952
   4   2.0000     -10.278771      -279.6996
   5   2.0000     -10.266347      -279.3615
   6   2.0000     -10.208700      -277.7928
   7   2.0000      -1.084043       -29.4983
   8   2.0000      -0.995844       -27.0983
   9   2.0000      -0.885225       -24.0882
  10   2.0000      -0.822457       -22.3802
  11   2.0000      -0.794355       -21.6155
  12   2.0000      -0.711088       -19.3497
  13   2.0000      -0.659123       -17.9357
  14   2.0000      -0.652779       -17.7630
  15   2.0000      -0.620266       -16.8783
  16   2.0000      -0.572711       -15.5843
  17   2.0000      -0.547715       -14.9041
  18   2.0000      -0.527637       -14.3577
  19   2.0000      -0.503463       -13.6999
  20   2.0000      -0.499493       -13.5919
  21   2.0000      -0.481498       -13.1022
  22   2.0000      -0.470343       -12.7987
  23   2.0000      -0.441742       -12.0204
  24   2.0000      -0.429544       -11.6885
  25   2.0000      -0.426192       -11.5973
  26   2.0000      -0.343745        -9.3538
  27   2.0000      -0.263089        -7.1590
  28   0.0000       0.094498         2.5714
  29   0.0000       0.114097         3.1047
  30   0.0000       0.118514         3.2249
  31   0.0000       0.122561         3.3351
  32   0.0000       0.142598         3.8803

MULLIKEN ATOMIC CHARGES
-----------------------
   0 C :    0.657242
   1 N :   -0.515128
   2 C :    0.577639
   3 C :    0.474935
   4 N :   -0.080635
   5 H :    0.035846
   6 H :   -0.081617
   7 H :   -0.238221
   8 H :   -0.133618
   9 H :   -0.544939
  10 C :   -0.302834
  11 H :   -0.275648
  12 H :    0.045256
  13 C :    0.616609
  14 H :   -0.104971
  15 H :   -0.045937
  16 H :   -0.042521
  17 H :   -0.078085
  18 H :    0.036626
Sum of atomic charges:    0.0000000

LOEWDIN ATOMIC CHARGES
----------------------
   0 C :    0.053417
   1 N :   -0.013250
   2 C :   -0.245136
   3 C :    0.119585
   4 N :    0.187516
   5 H :    0.020064
   6 H :    0.015433
   7 H :    0.041549
   8 H :   -0.131651
   9 H :   -0.116778
  10 C :   -0.064445
  11 H :    0.029095
  12 H :    0.014785
  13 C :    0.114738
  14 H :    0.022673
  15 H :    0.008108
  16 H :   -0.017654
  17 H :   -0.023175
  18 H :   -0.014874

  Mayer bond orders larger than 0.100000
B(  0-C ,  1-N ) :   0.8427 B(  0-C ,  3-C ) :   0.1030 B(  0-C ,  7-H ) :  -0.1657
B(  0-C , 10-C ) :   1.0848 B(  0-C , 11-H ) :   0.8617 B(  0-C , 12-H ) :   0.8931
B(  0-C , 15-H ) :   0.1288 B(  1-N ,  2-C ) :   0.9278 B(  1-N ,  3-C ) :   0.3318
B(  1-N ,  4-N ) :   0.1749 B(  1-N ,  7-H ) :   1.3629 B(  1-N , 11-H ) :   0.2026
B(  2-C ,  3-C ) :   1.7453 B(  2-C ,  4-N ) :   0.8979 B(  2-C ,  7-H ) :  -0.2633
B(  2-C ,  8-H ) :   0.3123 B(  2-C ,  9-H ) :   0.2492 B(  3-C ,  4-N ) :   0.1979
B(  3-C ,  8-H ) :   0.6288 B(  3-C ,  9-H ) :   0.7758 B(  4-N ,  5-H ) :   1.0900
B(  4-N ,  6-H ) :   1.1761 B(  5-H ,  6-H ) :  -0.1526 B(  8-H , 12-H ) :   0.1189
B( 10-C , 13-C ) :   1.2571 B( 10-C , 14-H ) :   1.0303 B( 10-C , 15-H ) :   0.9585
B( 10-C , 16-H ) :   0.2050 B( 10-C , 17-H ) :   0.1748 B( 10-C , 18-H ) :   0.1683
B( 11-H , 12-H ) :  -0.1386 B( 13-C , 16-H ) :   0.8194 B( 13-C , 17-H ) :   0.8541
B( 13-C , 18-H ) :   0.8059

Dispersion correction           -0.005320703
FINAL SINGLE POINT ENERGY      -306.953475831716

DIPOLE MOMENT
-------------
                                X             Y             Z
Electronic contribution:      4.34536       2.48798       0.73855
Nuclear contribution   :     -4.87706      -1.05838      -1.33532
                        -----------------------------------------
Total Dipole Moment    :     -0.53170       1.42961      -0.59677
                        -----------------------------------------
Magnitude (a.u.)       :      1.63787
Magnitude (Debye)      :      4.16313

Rotational constants in cm-1:     0.163042     0.050484     0.045356
Rotational constants in MHz :  4887.864082  1513.473419  1359.735450

                             ****ORCA TERMINATED NORMALLY****
TOTAL RUN TIME: 0 days 0 hours 0 minutes 32 seconds 562 msec
