                         Program Version 5.0.0 -  RELEASE  -
|  1> !wB97X-D3 RIJCOSX def2-SVPD def2/J TightSCF CPCM(Water)
|  2> *xyz 0 1
|  3> C          3.91385       -1.65829        3.01513
|  4> N          5.03927       -0.90115        2.49282
|  5> C          6.21038       -1.41726        2.17824
|  6> N          6.53591       -2.67712        2.55608
|  7> C          7.07675       -0.70082        1.47891
|  8> H          7.95464       -1.12155        1.20755
|  9> H          6.75616        0.10664        0.96028
| 10> H          4.84217        0.01761        2.11519
| 11> H          5.99388       -3.12692        3.28278
| 12> H          7.49844       -2.97548        2.46878
| 13> C          3.13916       -2.37657        1.91061
| 14> H          3.26723       -0.93940        3.52069
| 15> H          4.24720       -2.35509        3.79006
| 16> C          2.39995       -1.38958        1.00949
| 17> H          2.44075       -3.08712        2.36298
| 18> H          3.84448       -2.97046        1.31868
| 19> H          1.87065       -1.92698        0.25058
| 20> H          3.10498       -0.72749        0.55181
| 21> H          1.70633       -0.82279        1.59477
| 22> *
| 23> %MaxCore 64000
| 24> %pal nprocs 8
| 25> end
| 26> %scf
| 27>   MaxIter 150
| 28> end
| 29>
| 30>
| 31>                          ****END OF INPUT****

CARTESIAN COORDINATES (ANGSTROEM)
---------------------------------
  C      3.913850   -1.658290    3.015130
  N      5.039270   -0.901150    2.492820
  C      6.210380   -1.417260    2.178240
  N      6.535910   -2.677120    2.556080
  C      7.076750   -0.700820    1.478910
  H      7.954640   -1.121550    1.207550
  H      6.756160    0.106640    0.960280
  H      4.842170    0.017610    2.115190
  H      5.993880   -3.126920    3.282780
  H      7.498440   -2.975480    2.468780
  C      3.139160   -2.376570    1.910610
  H      3.267230   -0.939400    3.520690
  H      4.247200   -2.355090    3.790060
  C      2.399950   -1.389580    1.009490
  H      2.440750   -3.087120    2.362980
  H      3.844480   -2.970460    1.318680
  H      1.870650   -1.926980    0.250580
  H      3.104980   -0.727490    0.551810
  H      1.706330   -0.822790    1.594770

 Total Charge           Charge          ....    0
 Multiplicity           Mult            ....    1
 Number of Electrons    NEL             ....   56
 Basis Dimension        Dim             ....  236

ORBITAL ENERGIES
----------------

  NO   OCC          E(Eh)            E(eV)
   0   2.0000     -14.436808      -392.8455
   1   2.0000     -14.434945      -392.7948
   2   2.0000     -10.346079      -281.5311
   3   2.0000     -10.317072      -280.7418
   4   2.0000     -10.279891      -279.7301
   5   2.0000     -10.267125      -279.3827
   6   2.0000     -10.207392      -277.7573
   7   2.0000      -1.079948       -29.3869
   8   2.0000      -0.988718       -26.9044
   9   2.0000      -0.893207       -24.3054
  10   2.0000      -0.834532       -22.7088
  11   2.0000      -0.774445       -21.0737
  12   2.0000      -0.713966       -19.4280
  13   2.0000      -0.686693       -18.6859
  14   2.0000      -0.636283       -17.3141
  15   2.0000      -0.600347       -16.3363
  16   2.0000      -0.571808       -15.5597
  17   2.0000      -0.554430       -15.0868
  18   2.0000      -0.533981       -14.5303
  19   2.0000      -0.506275       -13.7764
  20   2.0000      -0.493655       -13.4330
  21   2.0000      -0.490444       -13.3457
  22   2.0000      -0.468050       -12.7363
  23   2.0000      -0.441206       -12.0058
  24   2.0000      -0.431868       -11.7517
  25   2.0000      -0.427967       -11.6456
  26   2.0000      -0.348849        -9.4927
  27   2.0000      -0.262032        -7.1303
  28   0.0000       0.093248         2.5374
  29   0.0000       0.115853         3.1525
  30   0.0000       0.117571         3.1993
  31   0.0000       0.124461         3.3868
  32   0.0000       0.144938         3.9440

MULLIKEN ATOMIC CHARGES
-----------------------
   0 C :    0.714175
   1 N :   -0.410668
   2 C :    0.524548
   3 N :    0.043268
   4 C :    0.333167
   5 H :   -0.330811
   6 H :   -0.214989
   7 H :   -0.210031
   8 H :   -0.080020
   9 H :   -0.098904
  10 C :   -0.333781
  11 H :   -0.258781
  12 H :   -0.086693
  13 C :    0.635118
  14 H :   -0.124747
  15 H :   -0.007473
  16 H :   -0.048008
  17 H :   -0.089935
  18 H :    0.044564
Sum of atomic charges:   -0.0000000

LOEWDIN ATOMIC CHARGES
----------------------
   0 C :    0.050613
   1 N :   -0.014098
   2 C :   -0.250753
   3 N :    0.204365
   4 C :    0.101989
   5 H :   -0.110676
   6 H :   -0.107154
   7 H :    0.045638
   8 H :   -0.013218
   9 H :    0.015591
  10 C :   -0.067140
  11 H :    0.028921
  12 H :    0.016319
  13 C :    0.115905
  14 H :    0.022026
  15 H :    0.015078
  16 H :   -0.017209
  17 H :   -0.022175
  18 H :   -0.014023

  Mayer bond orders larger than 0.100000
B(  0-C ,  1-N ) :   0.8986 B(  0-C ,  7-H ) :  -0.1710 B(  0-C , 10-C ) :   1.0939
B(  0-C , 11-H ) :   0.7810 B(  0-C , 12-H ) :   0.9354 B(  0-C , 15-H ) :   0.1176
B(  1-N ,  2-C ) :   1.0774 B(  1-N ,  3-N ) :   0.1283 B(  1-N ,  4-C ) :   0.2511
B(  1-N ,  7-H ) :   1.2251 B(  1-N , 11-H ) :   0.2543 B(  1-N , 12-H ) :   0.1124
B(  2-C ,  3-N ) :   0.9655 B(  2-C ,  4-C ) :   1.6570 B(  2-C ,  5-H ) :   0.2020
B(  2-C ,  6-H ) :   0.1215 B(  2-C ,  7-H ) :  -0.1922 B(  3-N ,  4-C ) :   0.1761
B(  3-N ,  8-H ) :   1.0107 B(  3-N ,  9-H ) :   1.1872 B(  4-C ,  5-H ) :   0.7721
B(  4-C ,  6-H ) :   0.8369 B(  5-H ,  6-H ) :   0.1701 B(  8-H ,  9-H ) :  -0.1806
B( 10-C , 13-C ) :   1.2461 B( 10-C , 14-H ) :   1.0454 B( 10-C , 15-H ) :   0.9355
B( 10-C , 16-H ) :   0.2008 B( 10-C , 17-H ) :   0.1820 B( 10-C , 18-H ) :   0.1700
B( 11-H , 12-H ) :  -0.1078 B( 13-C , 16-H ) :   0.8204 B( 13-C , 17-H ) :   0.8513
B( 13-C , 18-H ) :   0.8012

Dispersion correction           -0.005364493
FINAL SINGLE POINT ENERGY      -306.952510956482

DIPOLE MOMENT
-------------
                                X             Y             Z
Electronic contribution:      3.64398      -0.11660       2.28741
Nuclear contribution   :     -4.75859      -0.62546      -1.57128
                        -----------------------------------------
Total Dipole Moment    :     -1.11461      -0.74206       0.71613
                        -----------------------------------------
Magnitude (a.u.)       :      1.51850
Magnitude (Debye)      :      3.85973

Rotational constants in cm-1:     0.161886     0.051080     0.045854
Rotational constants in MHz :  4853.220099  1531.326912  1374.680035

                             ****ORCA TERMINATED NORMALLY****
TOTAL RUN TIME: 0 days 0 hours 0 minutes 32 seconds 476 msec
