                         Program Version 5.0.0 -  RELEASE  -
|  1> !wB97X-D3 RIJCOSX def2-SVPD def2/J TightSCF CPCM(Water) xyzfile
|  2>
|  3> *xyzfile 0 1 D1.xyz
|  4>
|  5> %MaxCore 64000
|  6>
|  7> %pal nprocs 18
|  8> end
|  9>
| 10> %scf
| 11>   MaxIter 150
| 12> end
| 13>
| 14>
| 15>                          ****END OF INPUT****

CARTESIAN COORDINATES (ANGSTROEM)
---------------------------------
  C      3.913853   -1.658291    3.015134
  C      5.039266   -0.901154    2.492821
  C      4.084215    1.742081   -2.114724
  C      4.265245    2.500518   -0.795890
  H      4.868534    3.392674   -0.981134
  H      3.307640    2.824571   -0.387809
  C      4.982240    1.650257    0.247422
  C      6.210384   -1.417261    2.178244
  N      6.535913   -2.677122    2.556078
  N      7.076754   -0.700820    1.478906
  H      7.954643   -1.121554    1.207554
  H      6.756161    0.106637    0.960278
  H      4.842168    0.017609    2.115191
  H      5.993876   -3.126918    3.282784
  H      7.498441   -2.975482    2.468776
  F      4.368065    1.389270    1.313706
  O      6.128919    1.233512   -0.045620
  C      3.139159   -2.376572    1.910609
  H      3.267235   -0.939401    3.520693
  H      4.247195   -2.355095    3.790065
  C      1.997274    0.430918   -1.399218
  C      3.412746    0.376886   -1.965497
  H      4.047407   -0.246590   -1.326706
  H      3.390774   -0.118719   -2.942839
  H      5.068475    1.598504   -2.565728
  H      3.503356    2.363939   -2.804565
  C      2.399946   -1.389579    1.009490
  H      2.440750   -3.087118    2.362976
  H      3.844475   -2.970462    1.318677
  C      2.070177   -1.936705   -0.372401
  H      1.481611   -1.061542    1.509912
  H      3.008628   -0.490001    0.897451
  C      1.322238   -0.935775   -1.256413
  H      1.472747   -2.850902   -0.283997
  H      3.003539   -2.234041   -0.862535
  H      1.376444    1.058920   -2.047420
  H      2.015341    0.929780   -0.426535
  H      0.316648   -0.787213   -0.848278
  H      1.185611   -1.379252   -2.248613

 Total Charge           Charge          ....    0
 Multiplicity           Mult            ....    1
 Number of Electrons    NEL             ....  126
 Basis Dimension        Dim             ....  510

ORBITAL ENERGIES
----------------

  NO   OCC          E(Eh)            E(eV)
   0   2.0000     -24.886311      -677.1909
   1   2.0000     -19.276148      -524.5306
   2   2.0000     -14.427198      -392.5840
   3   2.0000     -14.406421      -392.0186
   4   2.0000     -10.493630      -285.5462
   5   2.0000     -10.327595      -281.0282
   6   2.0000     -10.312674      -280.6221
   7   2.0000     -10.295242      -280.1478
   8   2.0000     -10.282758      -279.8081
   9   2.0000     -10.277809      -279.6734
  10   2.0000     -10.276135      -279.6279
  11   2.0000     -10.273213      -279.5483
  12   2.0000     -10.269420      -279.4451
  13   2.0000     -10.267029      -279.3801
  14   2.0000     -10.263095      -279.2730
  15   2.0000     -10.198636      -277.5190
  16   2.0000      -1.438788       -39.1514
  17   2.0000      -1.170062       -31.8390
  18   2.0000      -1.057311       -28.7709
  19   2.0000      -0.961984       -26.1769
  20   2.0000      -0.934465       -25.4281
  21   2.0000      -0.914418       -24.8826
  22   2.0000      -0.887117       -24.1397
  23   2.0000      -0.854418       -23.2499
  24   2.0000      -0.817379       -22.2420
  25   2.0000      -0.796110       -21.6633
  26   2.0000      -0.769114       -20.9286
  27   2.0000      -0.742337       -20.2000
  28   2.0000      -0.706826       -19.2337
  29   2.0000      -0.697799       -18.9881
  30   2.0000      -0.674568       -18.3559
  31   2.0000      -0.671020       -18.2594
  32   2.0000      -0.663105       -18.0440
  33   2.0000      -0.653558       -17.7842
  34   2.0000      -0.624866       -17.0035
  35   2.0000      -0.623585       -16.9686
  36   2.0000      -0.597993       -16.2722
  37   2.0000      -0.577277       -15.7085
  38   2.0000      -0.572427       -15.5765
  39   2.0000      -0.558809       -15.2060
  40   2.0000      -0.549792       -14.9606
  41   2.0000      -0.538762       -14.6605
  42   2.0000      -0.527758       -14.3610
  43   2.0000      -0.518928       -14.1208
  44   2.0000      -0.511298       -13.9131
  45   2.0000      -0.505945       -13.7675
  46   2.0000      -0.492278       -13.3956
  47   2.0000      -0.487371       -13.2620
  48   2.0000      -0.473303       -12.8792
  49   2.0000      -0.463263       -12.6060
  50   2.0000      -0.457365       -12.4455
  51   2.0000      -0.456207       -12.4140
  52   2.0000      -0.440975       -11.9995
  53   2.0000      -0.432241       -11.7619
  54   2.0000      -0.424651       -11.5553
  55   2.0000      -0.416300       -11.3281
  56   2.0000      -0.405741       -11.0408
  57   2.0000      -0.401034       -10.9127
  58   2.0000      -0.395894       -10.7728
  59   2.0000      -0.393119       -10.6973
  60   2.0000      -0.389964       -10.6115
  61   2.0000      -0.349995        -9.5238
  62   2.0000      -0.244578        -6.6553
  63   0.0000       0.035934         0.9778
  64   0.0000       0.090755         2.4696
  65   0.0000       0.102725         2.7953
  66   0.0000       0.106630         2.9015
  67   0.0000       0.108070         2.9407

MULLIKEN ATOMIC CHARGES
-----------------------
   0 C :    0.536312
   1 C :    0.317793
   2 C :    0.358616
   3 C :    0.161306
   4 H :   -0.024856
   5 H :    0.230426
   6 C :    0.522645
   7 C :    0.607624
   8 N :   -0.097358
   9 N :    0.281061
  10 H :   -0.096382
  11 H :   -0.399867
  12 H :   -0.744474
  13 H :    0.023786
  14 H :   -0.195462
  15 F :   -0.506634
  16 O :   -0.472094
  17 C :    0.373171
  18 H :    0.043500
  19 H :   -0.207044
  20 C :   -0.148926
  21 C :   -0.155689
  22 H :   -0.017311
  23 H :   -0.127122
  24 H :    0.038230
  25 H :   -0.058205
  26 C :    0.558501
  27 H :   -0.083347
  28 H :   -0.091419
  29 C :   -0.051688
  30 H :    0.071212
  31 H :   -0.957062
  32 C :    0.652767
  33 H :   -0.371456
  34 H :    0.145299
  35 H :   -0.366770
  36 H :    0.191531
  37 H :    0.035158
  38 H :    0.024228
Sum of atomic charges:   -0.0000000

LOEWDIN ATOMIC CHARGES
----------------------
   0 C :   -0.057255
   1 C :   -0.040201
   2 C :   -0.009883
   3 C :    0.068009
   4 H :    0.053296
   5 H :    0.033080
   6 C :    0.071449
   7 C :   -0.214688
   8 N :    0.198808
   9 N :    0.197028
  10 H :    0.007794
  11 H :   -0.127323
  12 H :   -0.115171
  13 H :   -0.009460
  14 H :    0.001886
  15 F :   -0.034696
  16 O :   -0.126716
  17 C :   -0.031861
  18 H :    0.018095
  19 H :    0.003051
  20 C :   -0.034346
  21 C :   -0.028955
  22 H :    0.012467
  23 H :    0.035101
  24 H :    0.028729
  25 H :    0.036186
  26 C :   -0.033396
  27 H :    0.018717
  28 H :    0.015174
  29 C :   -0.042192
  30 H :    0.037180
  31 H :   -0.021948
  32 C :   -0.033424
  33 H :    0.024749
  34 H :    0.017943
  35 H :    0.028811
  36 H :    0.006974
  37 H :    0.023994
  38 H :    0.022993

  Mayer bond orders larger than 0.100000
B(  0-C ,  1-C ) :   0.9578 B(  0-C , 12-H ) :   0.6795 B(  0-C , 17-C ) :   1.0349
B(  0-C , 18-H ) :   0.7044 B(  0-C , 19-H ) :   0.6477 B(  0-C , 28-H ) :   0.1017
B(  1-C ,  7-C ) :   1.7557 B(  1-C ,  8-N ) :   0.2589 B(  1-C ,  9-N ) :   0.2150
B(  1-C , 12-H ) :  -0.4103 B(  1-C , 13-H ) :  -0.1328 B(  1-C , 18-H ) :   0.2886
B(  1-C , 19-H ) :   0.3021 B(  2-C ,  3-C ) :   1.1623 B(  2-C ,  4-H ) :   0.1618
B(  2-C , 21-C ) :   1.2445 B(  2-C , 24-H ) :   0.7085 B(  2-C , 25-H ) :   0.8433
B(  3-C ,  4-H ) :   0.6830 B(  3-C ,  5-H ) :   0.7610 B(  3-C ,  6-C ) :   1.2937
B(  3-C , 24-H ) :   0.1030 B(  3-C , 25-H ) :   0.1385 B(  4-H ,  6-C ) :   0.2794
B(  5-H ,  6-C ) :   0.1747 B(  6-C , 15-F ) :   0.7112 B(  6-C , 16-O ) :   1.6177
B(  7-C ,  8-N ) :   0.8600 B(  7-C ,  9-N ) :   0.8564 B(  7-C , 11-H ) :  -0.2281
B(  7-C , 12-H ) :   0.4806 B(  7-C , 13-H ) :   0.1069 B(  7-C , 14-H ) :  -0.1475
B(  8-N , 13-H ) :   0.9876 B(  8-N , 14-H ) :   1.2924 B(  9-N , 10-H ) :   1.1513
B(  9-N , 11-H ) :   1.1545 B( 10-H , 11-H ) :  -0.2108 B( 11-H , 16-O ) :   0.1176
B( 12-H , 15-F ) :   0.2263 B( 13-H , 14-H ) :  -0.1836 B( 15-F , 31-H ) :   0.1083
B( 17-C , 19-H ) :   0.1053 B( 17-C , 26-C ) :   1.1019 B( 17-C , 27-H ) :   0.8596
B( 17-C , 28-H ) :   0.8994 B( 17-C , 30-H ) :   0.1532 B( 18-H , 19-H ) :  -0.1090
B( 20-C , 21-C ) :   1.2083 B( 20-C , 23-H ) :   0.1477 B( 20-C , 32-C ) :   1.1395
B( 20-C , 35-H ) :   1.0784 B( 20-C , 36-H ) :   0.8171 B( 20-C , 37-H ) :   0.2561
B( 20-C , 38-H ) :   0.1324 B( 21-C , 22-H ) :   0.9438 B( 21-C , 23-H ) :   0.9023
B( 21-C , 24-H ) :   0.2267 B( 21-C , 25-H ) :   0.1721 B( 21-C , 35-H ) :   0.1151
B( 24-H , 25-H ) :  -0.1079 B( 26-C , 27-H ) :   0.1738 B( 26-C , 28-H ) :   0.1273
B( 26-C , 29-C ) :   1.2246 B( 26-C , 30-H ) :   0.6491 B( 26-C , 31-H ) :   0.3614
B( 26-C , 33-H ) :   0.1238 B( 26-C , 34-H ) :   0.1240 B( 29-C , 31-H ) :   0.1252
B( 29-C , 32-C ) :   1.1144 B( 29-C , 33-H ) :   1.0549 B( 29-C , 34-H ) :   0.8367
B( 29-C , 37-H ) :   0.1107 B( 29-C , 38-H ) :   0.2251 B( 30-H , 31-H ) :   0.2221
B( 31-H , 36-H ) :   0.1071 B( 32-C , 37-H ) :   0.6867 B( 32-C , 38-H ) :   0.6936

Dispersion correction           -0.020017275
FINAL SINGLE POINT ENERGY      -754.992172402420

DIPOLE MOMENT
-------------
                                X             Y             Z
Electronic contribution:     11.13890       9.09740       5.70283
Nuclear contribution   :    -11.48003      -8.36271      -6.78621
                        -----------------------------------------
Total Dipole Moment    :     -0.34113       0.73469      -1.08338
                        -----------------------------------------
Magnitude (a.u.)       :      1.35272
Magnitude (Debye)      :      3.43834

Rotational constants in cm-1:     0.020055     0.013548     0.009477
Rotational constants in MHz :   601.234832   406.162779   284.104317

                             ****ORCA TERMINATED NORMALLY****
TOTAL RUN TIME: 0 days 0 hours 2 minutes 40 seconds 541 msec
