                         Program Version 5.0.0 -  RELEASE  -
|  1> !wB97X-D3 RIJCOSX def2-SVPD def2/J TightSCF CPCM(Water) xyzfile
|  2>
|  3> *xyzfile 0 1 D2.xyz
|  4>
|  5> %MaxCore 64000
|  6>
|  7> %pal nprocs 18
|  8> end
|  9>
| 10> %scf
| 11>   MaxIter 150
| 12> end
| 13>
| 14>
| 15>                          ****END OF INPUT****

CARTESIAN COORDINATES (ANGSTROEM)
---------------------------------
  C      3.913853   -1.658291    3.015134
  N      5.039266   -0.901154    2.492821
  C      4.084215    1.742081   -2.114724
  C      4.265245    2.500518   -0.795890
  H      4.868534    3.392674   -0.981134
  H      3.307640    2.824571   -0.387809
  C      4.982240    1.650257    0.247422
  C      6.210384   -1.417261    2.178244
  C      6.535913   -2.677122    2.556078
  N      7.076754   -0.700820    1.478906
  H      7.954643   -1.121554    1.207554
  H      6.756161    0.106637    0.960278
  H      4.842168    0.017609    2.115191
  H      5.993876   -3.126918    3.282784
  H      7.498441   -2.975482    2.468776
  F      4.368065    1.389270    1.313706
  O      6.128919    1.233512   -0.045620
  C      3.139159   -2.376572    1.910609
  H      3.267235   -0.939401    3.520693
  H      4.247195   -2.355095    3.790065
  C      1.997274    0.430918   -1.399218
  C      3.412746    0.376886   -1.965497
  H      4.047407   -0.246590   -1.326706
  H      3.390774   -0.118719   -2.942839
  H      5.068475    1.598504   -2.565728
  H      3.503356    2.363939   -2.804565
  C      2.399946   -1.389579    1.009490
  H      2.440750   -3.087118    2.362976
  H      3.844475   -2.970462    1.318677
  C      2.070177   -1.936705   -0.372401
  H      1.481611   -1.061542    1.509912
  H      3.008628   -0.490001    0.897451
  C      1.322238   -0.935775   -1.256413
  H      1.472747   -2.850902   -0.283997
  H      3.003539   -2.234041   -0.862535
  H      1.376444    1.058920   -2.047420
  H      2.015341    0.929780   -0.426535
  H      0.316648   -0.787213   -0.848278
  H      1.185611   -1.379252   -2.248613

 Total Charge           Charge          ....    0
 Multiplicity           Mult            ....    1
 Number of Electrons    NEL             ....  126
 Basis Dimension        Dim             ....  510

ORBITAL ENERGIES
----------------

  NO   OCC          E(Eh)            E(eV)
   0   2.0000     -24.902513      -677.6318
   1   2.0000     -19.282269      -524.6972
   2   2.0000     -14.430420      -392.6717
   3   2.0000     -14.413439      -392.2096
   4   2.0000     -10.500146      -285.7235
   5   2.0000     -10.341201      -281.3984
   6   2.0000     -10.315606      -280.7019
   7   2.0000     -10.313758      -280.6516
   8   2.0000     -10.296685      -280.1870
   9   2.0000     -10.283912      -279.8395
  10   2.0000     -10.278928      -279.7039
  11   2.0000     -10.277458      -279.6639
  12   2.0000     -10.276367      -279.6342
  13   2.0000     -10.275890      -279.6212
  14   2.0000     -10.275720      -279.6165
  15   2.0000     -10.203421      -277.6492
  16   2.0000      -1.453083       -39.5404
  17   2.0000      -1.176170       -32.0052
  18   2.0000      -1.077121       -29.3100
  19   2.0000      -0.987539       -26.8723
  20   2.0000      -0.936654       -25.4877
  21   2.0000      -0.912690       -24.8356
  22   2.0000      -0.879745       -23.9391
  23   2.0000      -0.845668       -23.0118
  24   2.0000      -0.817438       -22.2436
  25   2.0000      -0.811977       -22.0950
  26   2.0000      -0.784159       -21.3380
  27   2.0000      -0.753918       -20.5152
  28   2.0000      -0.717626       -19.5276
  29   2.0000      -0.703202       -19.1351
  30   2.0000      -0.685698       -18.6588
  31   2.0000      -0.678021       -18.4499
  32   2.0000      -0.665630       -18.1127
  33   2.0000      -0.655024       -17.8241
  34   2.0000      -0.636728       -17.3262
  35   2.0000      -0.624139       -16.9837
  36   2.0000      -0.602981       -16.4079
  37   2.0000      -0.582486       -15.8502
  38   2.0000      -0.575508       -15.6604
  39   2.0000      -0.563421       -15.3315
  40   2.0000      -0.549995       -14.9661
  41   2.0000      -0.541650       -14.7390
  42   2.0000      -0.528891       -14.3918
  43   2.0000      -0.526693       -14.3320
  44   2.0000      -0.509457       -13.8630
  45   2.0000      -0.504849       -13.7376
  46   2.0000      -0.500672       -13.6240
  47   2.0000      -0.482045       -13.1171
  48   2.0000      -0.479697       -13.0532
  49   2.0000      -0.473790       -12.8925
  50   2.0000      -0.469315       -12.7707
  51   2.0000      -0.460519       -12.5314
  52   2.0000      -0.450933       -12.2705
  53   2.0000      -0.445119       -12.1123
  54   2.0000      -0.432088       -11.7577
  55   2.0000      -0.423095       -11.5130
  56   2.0000      -0.416445       -11.3320
  57   2.0000      -0.409458       -11.1419
  58   2.0000      -0.401177       -10.9166
  59   2.0000      -0.398204       -10.8357
  60   2.0000      -0.396806       -10.7977
  61   2.0000      -0.335385        -9.1263
  62   2.0000      -0.258118        -7.0237
  63   0.0000       0.030094         0.8189
  64   0.0000       0.089999         2.4490
  65   0.0000       0.100518         2.7352
  66   0.0000       0.107335         2.9207
  67   0.0000       0.108462         2.9514

MULLIKEN ATOMIC CHARGES
-----------------------
   0 C :    1.098791
   1 N :    0.293081
   2 C :    0.348070
   3 C :    0.153612
   4 H :   -0.020811
   5 H :    0.229915
   6 C :    0.576607
   7 C :    0.522378
   8 C :    0.586419
   9 N :    0.393588
  10 H :   -0.014172
  11 H :   -0.556760
  12 H :   -1.137512
  13 H :   -0.080085
  14 H :   -0.612253
  15 F :   -0.516446
  16 O :   -0.498435
  17 C :    0.281914
  18 H :   -0.288500
  19 H :   -0.093977
  20 C :   -0.137829
  21 C :   -0.160716
  22 H :   -0.019593
  23 H :   -0.127231
  24 H :    0.042390
  25 H :   -0.055352
  26 C :    0.544928
  27 H :   -0.099437
  28 H :   -0.060073
  29 C :   -0.032509
  30 H :   -0.005350
  31 H :   -0.854745
  32 C :    0.648018
  33 H :   -0.355425
  34 H :    0.132422
  35 H :   -0.354195
  36 H :    0.176992
  37 H :    0.033832
  38 H :    0.018449
Sum of atomic charges:    0.0000000

LOEWDIN ATOMIC CHARGES
----------------------
   0 C :    0.067961
   1 N :    0.009116
   2 C :   -0.008510
   3 C :    0.070160
   4 H :    0.054786
   5 H :    0.034196
   6 C :    0.072638
   7 C :   -0.230277
   8 C :    0.113759
   9 N :    0.210716
  10 H :    0.021012
  11 H :   -0.129434
  12 H :   -0.051029
  13 H :   -0.135941
  14 H :   -0.120465
  15 F :   -0.018014
  16 O :   -0.122696
  17 C :   -0.015817
  18 H :    0.032486
  19 H :    0.013758
  20 C :   -0.033943
  21 C :   -0.028630
  22 H :    0.012978
  23 H :    0.035721
  24 H :    0.029542
  25 H :    0.037132
  26 C :   -0.035034
  27 H :    0.028177
  28 H :    0.010042
  29 C :   -0.039843
  30 H :    0.039009
  31 H :   -0.022942
  32 C :   -0.031947
  33 H :    0.026568
  34 H :    0.019579
  35 H :    0.029457
  36 H :    0.007133
  37 H :    0.024722
  38 H :    0.023876

  Mayer bond orders larger than 0.100000
B(  0-C ,  1-N ) :   0.9032 B(  0-C , 12-H ) :  -0.4886 B(  0-C , 17-C ) :   1.0538
B(  0-C , 18-H ) :   0.7487 B(  0-C , 19-H ) :   0.7746 B(  0-C , 26-C ) :   0.1149
B(  1-N ,  7-C ) :   0.9530 B(  1-N ,  8-C ) :   0.3910 B(  1-N , 12-H ) :   0.7971
B(  1-N , 18-H ) :   0.1951 B(  2-C ,  3-C ) :   1.1715 B(  2-C ,  4-H ) :   0.1660
B(  2-C , 21-C ) :   1.2471 B(  2-C , 24-H ) :   0.7128 B(  2-C , 25-H ) :   0.8465
B(  3-C ,  4-H ) :   0.7035 B(  3-C ,  5-H ) :   0.7603 B(  3-C ,  6-C ) :   1.2663
B(  3-C , 25-H ) :   0.1340 B(  4-H ,  6-C ) :   0.2596 B(  5-H ,  6-C ) :   0.1686
B(  6-C , 15-F ) :   0.6624 B(  6-C , 16-O ) :   1.6329 B(  7-C ,  8-C ) :   1.6842
B(  7-C ,  9-N ) :   0.9707 B(  7-C , 11-H ) :  -0.1266 B(  7-C , 12-H ) :  -0.5240
B(  7-C , 13-H ) :   0.3792 B(  7-C , 14-H ) :   0.3696 B(  8-C ,  9-N ) :   0.2319
B(  8-C , 13-H ) :   0.5690 B(  8-C , 14-H ) :   0.5986 B(  9-N , 10-H ) :   1.1297
B(  9-N , 11-H ) :   1.0083 B( 10-H , 11-H ) :  -0.2527 B( 11-H , 12-H ) :   0.1006
B( 11-H , 16-O ) :   0.1461 B( 12-H , 15-F ) :   0.2847 B( 12-H , 18-H ) :   0.1284
B( 13-H , 19-H ) :   0.1359 B( 17-C , 19-H ) :   0.1404 B( 17-C , 26-C ) :   1.1174
B( 17-C , 27-H ) :   0.9342 B( 17-C , 28-H ) :   0.9199 B( 17-C , 30-H ) :   0.1242
B( 18-H , 19-H ) :  -0.2313 B( 20-C , 21-C ) :   1.2043 B( 20-C , 23-H ) :   0.1484
B( 20-C , 32-C ) :   1.1549 B( 20-C , 35-H ) :   1.0577 B( 20-C , 36-H ) :   0.8228
B( 20-C , 37-H ) :   0.2572 B( 20-C , 38-H ) :   0.1372 B( 21-C , 22-H ) :   0.9471
B( 21-C , 23-H ) :   0.9087 B( 21-C , 24-H ) :   0.2216 B( 21-C , 25-H ) :   0.1732
B( 21-C , 35-H ) :   0.1207 B( 24-H , 25-H ) :  -0.1086 B( 26-C , 27-H ) :   0.1469
B( 26-C , 29-C ) :   1.2368 B( 26-C , 30-H ) :   0.6462 B( 26-C , 31-H ) :   0.3819
B( 26-C , 33-H ) :   0.1022 B( 26-C , 34-H ) :   0.1433 B( 27-H , 31-H ) :   0.1010
B( 29-C , 31-H ) :   0.1265 B( 29-C , 32-C ) :   1.1124 B( 29-C , 33-H ) :   1.0620
B( 29-C , 34-H ) :   0.8341 B( 29-C , 37-H ) :   0.1109 B( 29-C , 38-H ) :   0.2121
B( 30-H , 31-H ) :   0.2948 B( 31-H , 36-H ) :   0.1089 B( 32-C , 37-H ) :   0.6840
B( 32-C , 38-H ) :   0.7113 B( 37-H , 38-H ) :  -0.1002

Dispersion correction           -0.020061608
FINAL SINGLE POINT ENERGY      -754.990905889370

DIPOLE MOMENT
-------------
                                X             Y             Z
Electronic contribution:      9.20126      11.29432       5.37401
Nuclear contribution   :    -11.22009      -8.67117      -6.77523
                        -----------------------------------------
Total Dipole Moment    :     -2.01883       2.62315      -1.40122
                        -----------------------------------------
Magnitude (a.u.)       :      3.59444
Magnitude (Debye)      :      9.13634

Rotational constants in cm-1:     0.020086     0.013778     0.009581
Rotational constants in MHz :   602.172053   413.051122   287.243919

                             ****ORCA TERMINATED NORMALLY****
TOTAL RUN TIME: 0 days 0 hours 2 minutes 39 seconds 171 msec
