                         Program Version 5.0.0 -  RELEASE  -
|  1> !CAM-B3LYP RIJCOSX def2-SVPD def2/J TightSCF
|  2> *xyz -1 1
|  3> C         -1.36353       -1.98134       -2.29361
|  4> O         -0.35039       -2.74969       -1.79601
|  5> H         -2.22523       -2.59288       -2.46214
|  6> H         -1.05452       -1.53818       -3.21720
|  7> H         -1.60477       -1.21086       -1.59143
|  8> *
|  9>
| 10> %MaxCore 64000
| 11> %pal nprocs 4
| 12> end
| 13>
| 14> %scf
| 15>   MaxIter 150
| 16> end
| 17>
| 18>
| 19>                          ****END OF INPUT****

CARTESIAN COORDINATES (ANGSTROEM)
---------------------------------
  C     -1.363530   -1.981340   -2.293610
  O     -0.350390   -2.749690   -1.796010
  H     -2.225230   -2.592880   -2.462140
  H     -1.054520   -1.538180   -3.217200
  H     -1.604770   -1.210860   -1.591430

 Total Charge           Charge          ....   -1
 Multiplicity           Mult            ....    1
 Number of Electrons    NEL             ....   18
 Basis Dimension        Dim             ....   67

ORBITAL ENERGIES
----------------

  NO   OCC          E(Eh)            E(eV)
   0   2.0000     -18.857658      -513.1430
   1   2.0000     -10.044855      -273.3344
   2   2.0000      -0.730454       -19.8767
   3   2.0000      -0.467442       -12.7197
   4   2.0000      -0.266404        -7.2492
   5   2.0000      -0.266396        -7.2490
   6   2.0000      -0.165140        -4.4937
   7   2.0000      -0.012893        -0.3508
   8   2.0000      -0.012883        -0.3506
   9   0.0000       0.225929         6.1478
  10   0.0000       0.300184         8.1684
  11   0.0000       0.300187         8.1685
  12   0.0000       0.309279         8.4159
  13   0.0000       0.345053         9.3894

MULLIKEN ATOMIC CHARGES
-----------------------
   0 C :    0.972982
   1 O :   -1.015008
   2 H :   -0.319606
   3 H :   -0.319459
   4 H :   -0.318909
Sum of atomic charges:   -1.0000000

LOEWDIN ATOMIC CHARGES
----------------------
   0 C :   -0.117361
   1 O :   -0.651450
   2 H :   -0.077074
   3 H :   -0.077065
   4 H :   -0.077049

  Mayer bond orders larger than 0.100000
B(  0-C ,  1-O ) :   1.1996 B(  0-C ,  2-H ) :   0.8746 B(  0-C ,  3-H ) :   0.8748
B(  0-C ,  4-H ) :   0.8744

FINAL SINGLE POINT ENERGY      -114.968397388413

DIPOLE MOMENT
-------------
                                X             Y             Z
Electronic contribution:      1.33454      -1.01235       0.65554
Nuclear contribution   :     -2.13467       1.61890      -1.04844
                        -----------------------------------------
Total Dipole Moment    :     -0.80013       0.60655      -0.39290
                        -----------------------------------------
Magnitude (a.u.)       :      1.07819
Magnitude (Debye)      :      2.74053

Rotational constants in cm-1:     5.477725     0.944113     0.944112
Rotational constants in MHz : 164218.064700 28303.798445 28303.757130

                             ****ORCA TERMINATED NORMALLY****
TOTAL RUN TIME: 0 days 0 hours 0 minutes 4 seconds 551 msec
