                         Program Version 5.0.0 -  RELEASE  -
|  1> !CAM-B3LYP RIJCOSX def2-SVPD def2/J TightSCF
|  2> *xyz 1 1
|  3> C          2.20996       -2.81239       -3.66571
|  4> C          2.48901       -1.66851       -2.73754
|  5> N          3.59631       -0.94761       -2.95225
|  6> N          1.66394       -1.41369       -1.77781
|  7> H          0.81164       -1.96318       -1.70275
|  8> H          1.84550       -0.63508       -1.15875
|  9> H          4.20535       -1.17600       -3.73383
| 10> H          3.81723       -0.12585       -2.40604
| 11> H          2.99011       -2.87840       -4.39503
| 12> H          1.27381       -2.65174       -4.15838
| 13> H          2.16680       -3.72339       -3.10614
| 14> *
| 15>
| 16> %MaxCore 64000
| 17> %pal nprocs 4
| 18> end
| 19>
| 20> %scf
| 21>   MaxIter 150
| 22> end
| 23>
| 24>
| 25>                          ****END OF INPUT****

CARTESIAN COORDINATES (ANGSTROEM)
---------------------------------
  C      2.209960   -2.812390   -3.665710
  C      2.489010   -1.668510   -2.737540
  N      3.596310   -0.947610   -2.952250
  N      1.663940   -1.413690   -1.777810
  H      0.811640   -1.963180   -1.702750
  H      1.845500   -0.635080   -1.158750
  H      4.205350   -1.176000   -3.733830
  H      3.817230   -0.125850   -2.406040
  H      2.990110   -2.878400   -4.395030
  H      1.273810   -2.651740   -4.158380
  H      2.166800   -3.723390   -3.106140

 Total Charge           Charge          ....    1
 Multiplicity           Mult            ....    1
 Number of Electrons    NEL             ....   32
 Basis Dimension        Dim             ....  136

ORBITAL ENERGIES
----------------

  NO   OCC          E(Eh)            E(eV)
   0   2.0000     -14.662461      -398.9858
   1   2.0000     -14.656250      -398.8168
   2   2.0000     -10.596127      -288.3353
   3   2.0000     -10.458648      -284.5943
   4   2.0000      -1.289097       -35.0781
   5   2.0000      -1.190434       -32.3934
   6   2.0000      -1.032139       -28.0859
   7   2.0000      -0.918344       -24.9894
   8   2.0000      -0.858798       -23.3691
   9   2.0000      -0.844206       -22.9720
  10   2.0000      -0.781764       -21.2729
  11   2.0000      -0.736610       -20.0442
  12   2.0000      -0.686479       -18.6800
  13   2.0000      -0.671083       -18.2611
  14   2.0000      -0.646763       -17.5993
  15   2.0000      -0.566161       -15.4060
  16   0.0000      -0.168281        -4.5792
  17   0.0000      -0.130903        -3.5620
  18   0.0000      -0.084299        -2.2939
  19   0.0000      -0.082858        -2.2547
  20   0.0000      -0.058898        -1.6027

MULLIKEN ATOMIC CHARGES
-----------------------
   0 C :    0.778363
   1 C :    0.257047
   2 N :    0.068865
   3 N :    0.319940
   4 H :    0.004336
   5 H :   -0.166437
   6 H :    0.032122
   7 H :   -0.155865
   8 H :   -0.048698
   9 H :   -0.048880
  10 H :   -0.040794
Sum of atomic charges:    1.0000000

LOEWDIN ATOMIC CHARGES
----------------------
   0 C :    0.233438
   1 C :   -0.066072
   2 N :    0.281556
   3 N :    0.283156
   4 H :    0.068041
   5 H :    0.054812
   6 H :    0.049634
   7 H :    0.044058
   8 H :    0.005274
   9 H :    0.022921
  10 H :    0.023183

  Mayer bond orders larger than 0.100000
B(  0-C ,  1-C ) :   1.2575 B(  0-C ,  8-H ) :   0.7454 B(  0-C ,  9-H ) :   0.7421
B(  0-C , 10-H ) :   0.7216 B(  1-C ,  2-N ) :   1.0245 B(  1-C ,  3-N ) :   1.2971
B(  1-C ,  5-H ) :  -0.1349 B(  1-C ,  7-H ) :  -0.2429 B(  1-C ,  8-H ) :   0.2786
B(  1-C ,  9-H ) :   0.1741 B(  1-C , 10-H ) :   0.1913 B(  2-N ,  3-N ) :   0.1391
B(  2-N ,  6-H ) :   1.0816 B(  2-N ,  7-H ) :   1.3479 B(  3-N ,  4-H ) :   1.1188
B(  3-N ,  5-H ) :   1.2226 B(  4-H ,  5-H ) :  -0.1505 B(  6-H ,  7-H ) :  -0.1830
B(  8-H , 10-H ) :   0.1010 B(  9-H , 10-H ) :   0.1072

FINAL SINGLE POINT ENERGY      -189.491900059901

DIPOLE MOMENT
-------------
                                X             Y             Z
Electronic contribution:      0.31450       1.61621       1.44260
Nuclear contribution   :     -0.32363      -1.20411      -1.15396
                        -----------------------------------------
Total Dipole Moment    :     -0.00913       0.41210       0.28864
                        -----------------------------------------
Magnitude (a.u.)       :      0.50321
Magnitude (Debye)      :      1.27906

Rotational constants in cm-1:     0.327805     0.304052     0.162439
Rotational constants in MHz :  9827.347355  9115.244333  4869.808750

                             ****ORCA TERMINATED NORMALLY****
TOTAL RUN TIME: 0 days 0 hours 0 minutes 15 seconds 253 msec
