                         Program Version 5.0.0 -  RELEASE  -
|  1> !CAM-B3LYP RIJCOSX def2-SVPD def2/J TightSCF
|  2> *xyz 0 1
|  3> C         -1.36353       -1.98134       -2.29361
|  4> F         -0.35039       -2.74969       -1.79601
|  5> H         -2.22523       -2.59288       -2.46214
|  6> H         -1.05452       -1.53818       -3.21720
|  7> H         -1.60477       -1.21086       -1.59143
|  8> *
|  9>
| 10> %MaxCore 64000
| 11> %pal nprocs 4
| 12> end
| 13>
| 14> %scf
| 15>   MaxIter 150
| 16> end
| 17>
| 18>
| 19>                          ****END OF INPUT****

CARTESIAN COORDINATES (ANGSTROEM)
---------------------------------
  C     -1.363530   -1.981340   -2.293610
  F     -0.350390   -2.749690   -1.796010
  H     -2.225230   -2.592880   -2.462140
  H     -1.054520   -1.538180   -3.217200
  H     -1.604770   -1.210860   -1.591430

 Total Charge           Charge          ....    0
 Multiplicity           Mult            ....    1
 Number of Electrons    NEL             ....   18
 Basis Dimension        Dim             ....   67

ORBITAL ENERGIES
----------------

  NO   OCC          E(Eh)            E(eV)
   0   2.0000     -24.759043      -673.7278
   1   2.0000     -10.331801      -281.1426
   2   2.0000      -1.266617       -34.4664
   3   2.0000      -0.782679       -21.2978
   4   2.0000      -0.572500       -15.5785
   5   2.0000      -0.567811       -15.4509
   6   2.0000      -0.567804       -15.4507
   7   2.0000      -0.422657       -11.5011
   8   2.0000      -0.422644       -11.5007
   9   0.0000       0.053450         1.4544
  10   0.0000       0.098929         2.6920
  11   0.0000       0.132627         3.6090
  12   0.0000       0.132633         3.6091
  13   0.0000       0.174414         4.7460

MULLIKEN ATOMIC CHARGES
-----------------------
   0 C :    1.048189
   1 F :   -0.474502
   2 H :   -0.191458
   3 H :   -0.191556
   4 H :   -0.190673
Sum of atomic charges:   -0.0000000

LOEWDIN ATOMIC CHARGES
----------------------
   0 C :    0.263949
   1 F :   -0.249723
   2 H :   -0.004755
   3 H :   -0.004752
   4 H :   -0.004720

  Mayer bond orders larger than 0.100000
B(  0-C ,  1-F ) :   0.8571 B(  0-C ,  2-H ) :   0.9095 B(  0-C ,  3-H ) :   0.9095
B(  0-C ,  4-H ) :   0.9090

FINAL SINGLE POINT ENERGY      -139.595547691837

DIPOLE MOMENT
-------------
                                X             Y             Z
Electronic contribution:      2.15576      -1.63511       1.05881
Nuclear contribution   :     -2.70693       2.05289      -1.32950
                        -----------------------------------------
Total Dipole Moment    :     -0.55116       0.41778      -0.27069
                        -----------------------------------------
Magnitude (a.u.)       :      0.74270
Magnitude (Debye)      :      1.88778

Rotational constants in cm-1:     5.477725     0.878859     0.878857
Rotational constants in MHz : 164218.064700 26347.517988 26347.482187

                             ****ORCA TERMINATED NORMALLY****
TOTAL RUN TIME: 0 days 0 hours 0 minutes 4 seconds 198 msec
