                         Program Version 5.0.0 -  RELEASE  -
|  1> !CAM-B3LYP RIJCOSX def2-SVPD def2/J TightSCF
|  2> *xyz 0 1
|  3> C          2.20996       -2.81239       -3.66571
|  4> C          2.48901       -1.66851       -2.73754
|  5> C          3.59631       -0.94761       -2.95225
|  6> N          1.66394       -1.41369       -1.77781
|  7> H          0.81164       -1.96318       -1.70275
|  8> H          1.84550       -0.63508       -1.15875
|  9> H          4.20535       -1.17600       -3.73383
| 10> H          3.81723       -0.12585       -2.40604
| 11> H          2.99011       -2.87840       -4.39503
| 12> H          1.27381       -2.65174       -4.15838
| 13> H          2.16680       -3.72339       -3.10614
| 14> *
| 15>
| 16> %MaxCore 64000
| 17> %pal nprocs 4
| 18> end
| 19>
| 20> %scf
| 21>   MaxIter 150
| 22> end
| 23>
| 24>
| 25>                          ****END OF INPUT****

CARTESIAN COORDINATES (ANGSTROEM)
---------------------------------
  C      2.209960   -2.812390   -3.665710
  C      2.489010   -1.668510   -2.737540
  C      3.596310   -0.947610   -2.952250
  N      1.663940   -1.413690   -1.777810
  H      0.811640   -1.963180   -1.702750
  H      1.845500   -0.635080   -1.158750
  H      4.205350   -1.176000   -3.733830
  H      3.817230   -0.125850   -2.406040
  H      2.990110   -2.878400   -4.395030
  H      1.273810   -2.651740   -4.158380
  H      2.166800   -3.723390   -3.106140

 Total Charge           Charge          ....    0
 Multiplicity           Mult            ....    1
 Number of Electrons    NEL             ....   32
 Basis Dimension        Dim             ....  136

ORBITAL ENERGIES
----------------

  NO   OCC          E(Eh)            E(eV)
   0   2.0000     -14.410504      -392.1298
   1   2.0000     -10.283373      -279.8248
   2   2.0000     -10.248903      -278.8868
   3   2.0000     -10.190739      -277.3041
   4   2.0000      -1.014969       -27.6187
   5   2.0000      -0.831308       -22.6210
   6   2.0000      -0.760125       -20.6841
   7   2.0000      -0.649162       -17.6646
   8   2.0000      -0.606194       -16.4954
   9   2.0000      -0.543992       -14.8028
  10   2.0000      -0.504522       -13.7287
  11   2.0000      -0.465669       -12.6715
  12   2.0000      -0.459712       -12.5094
  13   2.0000      -0.416423       -11.3314
  14   2.0000      -0.408989       -11.1292
  15   2.0000      -0.246647        -6.7116
  16   0.0000       0.048595         1.3223
  17   0.0000       0.084385         2.2962
  18   0.0000       0.091026         2.4769
  19   0.0000       0.092303         2.5117
  20   0.0000       0.121901         3.3171

MULLIKEN ATOMIC CHARGES
-----------------------
   0 C :    1.044515
   1 C :   -0.612683
   2 C :    0.601480
   3 N :    0.459405
   4 H :   -0.193043
   5 H :   -0.210896
   6 H :   -0.218812
   7 H :   -0.583310
   8 H :   -0.048587
   9 H :   -0.124425
  10 H :   -0.113644
Sum of atomic charges:    0.0000000

LOEWDIN ATOMIC CHARGES
----------------------
   0 C :    0.163016
   1 C :   -0.299649
   2 C :    0.172580
   3 N :    0.165299
   4 H :    0.011182
   5 H :    0.013582
   6 H :   -0.090498
   7 H :   -0.094862
   8 H :   -0.015627
   9 H :   -0.012428
  10 H :   -0.012594

  Mayer bond orders larger than 0.100000
B(  0-C ,  1-C ) :   1.2445 B(  0-C ,  8-H ) :   0.7532 B(  0-C ,  9-H ) :   0.6068
B(  0-C , 10-H ) :   0.6165 B(  1-C ,  2-C ) :   1.6889 B(  1-C ,  3-N ) :   1.2907
B(  1-C ,  7-H ) :   0.1359 B(  1-C ,  8-H ) :   0.2644 B(  1-C ,  9-H ) :   0.3049
B(  1-C , 10-H ) :   0.2986 B(  2-C ,  3-N ) :   0.2346 B(  2-C ,  6-H ) :   0.9401
B(  2-C ,  7-H ) :   0.7113 B(  3-N ,  4-H ) :   1.1441 B(  3-N ,  5-H ) :   1.1707
B(  4-H ,  5-H ) :  -0.1236 B(  8-H ,  9-H ) :   0.1033 B(  8-H , 10-H ) :   0.1041

FINAL SINGLE POINT ENERGY      -173.035988154110

DIPOLE MOMENT
-------------
                                X             Y             Z
Electronic contribution:     -0.65742       0.86252       1.52991
Nuclear contribution   :     -0.07639      -1.03653      -1.19368
                        -----------------------------------------
Total Dipole Moment    :     -0.73381      -0.17400       0.33623
                        -----------------------------------------
Magnitude (a.u.)       :      0.82572
Magnitude (Debye)      :      2.09880

Rotational constants in cm-1:     0.347569     0.308531     0.168494
Rotational constants in MHz : 10419.863808  9249.512495  5051.317883

                             ****ORCA TERMINATED NORMALLY****
TOTAL RUN TIME: 0 days 0 hours 0 minutes 15 seconds 815 msec
