                         Program Version 5.0.0 -  RELEASE  -
|  1> !CAM-B3LYP RIJCOSX def2-SVPD def2/J TightSCF
|  2> *xyz 0 1
|  3> C          2.20996       -2.81239       -3.66571
|  4> C          2.48901       -1.66851       -2.73754
|  5> N          3.59631       -0.94761       -2.95225
|  6> C          1.66394       -1.41369       -1.77781
|  7> H          0.81164       -1.96318       -1.70275
|  8> H          1.84550       -0.63508       -1.15875
|  9> H          4.20535       -1.17600       -3.73383
| 10> H          3.81723       -0.12585       -2.40604
| 11> H          2.99011       -2.87840       -4.39503
| 12> H          1.27381       -2.65174       -4.15838
| 13> H          2.16680       -3.72339       -3.10614
| 14> *
| 15>
| 16> %MaxCore 64000
| 17> %pal nprocs 4
| 18> end
| 19>
| 20> %scf
| 21>   MaxIter 150
| 22> end
| 23>
| 24>
| 25>                          ****END OF INPUT****

CARTESIAN COORDINATES (ANGSTROEM)
---------------------------------
  C      2.209960   -2.812390   -3.665710
  C      2.489010   -1.668510   -2.737540
  N      3.596310   -0.947610   -2.952250
  C      1.663940   -1.413690   -1.777810
  H      0.811640   -1.963180   -1.702750
  H      1.845500   -0.635080   -1.158750
  H      4.205350   -1.176000   -3.733830
  H      3.817230   -0.125850   -2.406040
  H      2.990110   -2.878400   -4.395030
  H      1.273810   -2.651740   -4.158380
  H      2.166800   -3.723390   -3.106140

 Total Charge           Charge          ....    0
 Multiplicity           Mult            ....    1
 Number of Electrons    NEL             ....   32
 Basis Dimension        Dim             ....  136

ORBITAL ENERGIES
----------------

  NO   OCC          E(Eh)            E(eV)
   0   2.0000     -14.405264      -391.9872
   1   2.0000     -10.279517      -279.7199
   2   2.0000     -10.248715      -278.8817
   3   2.0000     -10.188444      -277.2416
   4   2.0000      -0.996571       -27.1181
   5   2.0000      -0.836108       -22.7516
   6   2.0000      -0.766250       -20.8507
   7   2.0000      -0.640998       -17.4424
   8   2.0000      -0.593250       -16.1431
   9   2.0000      -0.545878       -14.8541
  10   2.0000      -0.500656       -13.6235
  11   2.0000      -0.468210       -12.7406
  12   2.0000      -0.461753       -12.5649
  13   2.0000      -0.420159       -11.4331
  14   2.0000      -0.401597       -10.9280
  15   2.0000      -0.252886        -6.8814
  16   0.0000       0.049867         1.3570
  17   0.0000       0.084468         2.2985
  18   0.0000       0.091244         2.4829
  19   0.0000       0.091351         2.4858
  20   0.0000       0.121299         3.3007

MULLIKEN ATOMIC CHARGES
-----------------------
   0 C :    0.989614
   1 C :   -0.299108
   2 N :    0.205841
   3 C :    0.472221
   4 H :   -0.271826
   5 H :   -0.430385
   6 H :   -0.127577
   7 H :   -0.212209
   8 H :   -0.210252
   9 H :   -0.058281
  10 H :   -0.058036
Sum of atomic charges:   -0.0000000

LOEWDIN ATOMIC CHARGES
----------------------
   0 C :    0.165113
   1 C :   -0.287082
   2 N :    0.167997
   3 C :    0.154985
   4 H :   -0.069723
   5 H :   -0.081948
   6 H :   -0.008240
   7 H :    0.000757
   8 H :   -0.029228
   9 H :   -0.006401
  10 H :   -0.006229

  Mayer bond orders larger than 0.100000
B(  0-C ,  1-C ) :   1.0677 B(  0-C ,  2-N ) :   0.1138 B(  0-C ,  3-C ) :   0.1048
B(  0-C ,  8-H ) :   0.6636 B(  0-C ,  9-H ) :   0.7048 B(  0-C , 10-H ) :   0.6981
B(  1-C ,  2-N ) :   1.0410 B(  1-C ,  3-C ) :   1.8200 B(  1-C ,  4-H ) :   0.1173
B(  1-C ,  5-H ) :   0.2780 B(  1-C ,  7-H ) :  -0.1523 B(  1-C ,  8-H ) :   0.3001
B(  1-C ,  9-H ) :   0.1949 B(  1-C , 10-H ) :   0.2045 B(  2-N ,  3-C ) :   0.2397
B(  2-N ,  6-H ) :   1.1167 B(  2-N ,  7-H ) :   1.3050 B(  3-C ,  4-H ) :   0.7988
B(  3-C ,  5-H ) :   0.6506 B(  6-H ,  7-H ) :  -0.1675

FINAL SINGLE POINT ENERGY      -173.035993517613

DIPOLE MOMENT
-------------
                                X             Y             Z
Electronic contribution:      1.03351       1.25017       0.48017
Nuclear contribution   :     -0.50975      -1.14105      -0.93029
                        -----------------------------------------
Total Dipole Moment    :      0.52376       0.10912      -0.45012
                        -----------------------------------------
Magnitude (a.u.)       :      0.69916
Magnitude (Debye)      :      1.77714

Rotational constants in cm-1:     0.350603     0.305690     0.168346
Rotational constants in MHz : 10510.799277  9164.357607  5046.873498

                             ****ORCA TERMINATED NORMALLY****
TOTAL RUN TIME: 0 days 0 hours 0 minutes 15 seconds 867 msec
