                         Program Version 5.0.0 -  RELEASE  -
|  1> !CAM-B3LYP RIJCOSX def2-SVPD def2/J TightSCF xyzfile
|  2>
|  3> *xyzfile 0 1 D1.xyz
|  4>
|  5> %MaxCore 64000
|  6>
|  7> %pal nprocs 4
|  8> end
|  9>
| 10> %scf
| 11>   MaxIter 150
| 12> end
| 13>
| 14>
| 15>                          ****END OF INPUT****

CARTESIAN COORDINATES (ANGSTROEM)
---------------------------------
  C      1.647032   -2.345276   -5.020411
  C      0.217628   -1.814022   -4.924389
  C      2.209964   -2.812388   -3.665708
  C     -0.811356   -2.908780   -4.607625
  C     -1.916579   -2.485081   -3.643665
  H     -2.554525   -1.712428   -4.091993
  C     -1.363531   -1.981337   -2.293608
  H     -2.553448   -3.355667   -3.458815
  F     -0.350395   -2.749689   -1.796006
  H      2.308385   -1.588704   -5.457128
  H      1.674286   -3.203478   -5.697392
  C      2.489007   -1.668510   -2.737538
  C      3.596314   -0.947608   -2.952247
  N      1.663936   -1.413685   -1.777806
  H      0.811642   -1.963178   -1.702755
  H      1.845503   -0.635078   -1.158749
  H      4.205351   -1.176003   -3.733825
  H      3.817230   -0.125845   -2.406041
  H     -1.244829   -3.280884   -5.541040
  H     -0.306331   -3.757746   -4.142734
  H     -0.036244   -1.318555   -5.865303
  H      0.175004   -1.035382   -4.158095
  H      3.143106   -3.362803   -3.811524
  H      1.487683   -3.458935   -3.165211
  H     -2.226220   -1.908386   -1.602039
  H     -1.051353   -0.915671   -2.443331

 Total Charge           Charge          ....    0
 Multiplicity           Mult            ....    1
 Number of Electrons    NEL             ....   80
 Basis Dimension        Dim             ....  331

ORBITAL ENERGIES
----------------

  NO   OCC          E(Eh)            E(eV)
   0   2.0000     -24.810150      -675.1185
   1   2.0000     -14.373921      -391.1343
   2   2.0000     -10.360692      -281.9288
   3   2.0000     -10.277484      -279.6646
   4   2.0000     -10.263685      -279.2891
   5   2.0000     -10.260385      -279.1993
   6   2.0000     -10.251965      -278.9702
   7   2.0000     -10.248523      -278.8765
   8   2.0000     -10.244202      -278.7589
   9   2.0000     -10.172024      -276.7949
  10   2.0000      -1.324631       -36.0450
  11   2.0000      -0.993048       -27.0222
  12   2.0000      -0.900218       -24.4962
  13   2.0000      -0.857245       -23.3268
  14   2.0000      -0.812098       -22.0983
  15   2.0000      -0.766998       -20.8711
  16   2.0000      -0.742266       -20.1981
  17   2.0000      -0.686661       -18.6850
  18   2.0000      -0.665937       -18.1211
  19   2.0000      -0.650491       -17.7008
  20   2.0000      -0.612131       -16.6569
  21   2.0000      -0.603003       -16.4086
  22   2.0000      -0.586742       -15.9661
  23   2.0000      -0.558632       -15.2011
  24   2.0000      -0.538181       -14.6446
  25   2.0000      -0.531326       -14.4581
  26   2.0000      -0.510951       -13.9037
  27   2.0000      -0.489355       -13.3160
  28   2.0000      -0.488728       -13.2990
  29   2.0000      -0.457694       -12.4545
  30   2.0000      -0.438253       -11.9255
  31   2.0000      -0.430942       -11.7265
  32   2.0000      -0.428712       -11.6658
  33   2.0000      -0.422503       -11.4969
  34   2.0000      -0.406060       -11.0495
  35   2.0000      -0.397710       -10.8222
  36   2.0000      -0.385812       -10.4985
  37   2.0000      -0.375781       -10.2255
  38   2.0000      -0.373024       -10.1505
  39   2.0000      -0.225523        -6.1368
  40   0.0000       0.044132         1.2009
  41   0.0000       0.058676         1.5966
  42   0.0000       0.066521         1.8101
  43   0.0000       0.071252         1.9389
  44   0.0000       0.087423         2.3789

MULLIKEN ATOMIC CHARGES
-----------------------
   0 C :    0.352619
   1 C :    0.316515
   2 C :    0.743733
   3 C :    0.199382
   4 C :    0.366350
   5 H :   -0.180734
   6 C :    0.781800
   7 H :   -0.058135
   8 F :   -0.461934
   9 H :   -0.124799
  10 H :   -0.196193
  11 C :   -0.217957
  12 C :    0.447421
  13 N :    0.793923
  14 H :   -0.567925
  15 H :   -0.172489
  16 H :   -0.221291
  17 H :   -0.463366
  18 H :   -0.304209
  19 H :   -0.038473
  20 H :   -0.246449
  21 H :   -0.164687
  22 H :   -0.064145
  23 H :   -0.322529
  24 H :   -0.367996
  25 H :    0.171571
Sum of atomic charges:   -0.0000000

LOEWDIN ATOMIC CHARGES
----------------------
   0 C :   -0.014392
   1 C :   -0.015103
   2 C :    0.023022
   3 C :   -0.025550
   4 C :   -0.009010
   5 H :    0.035435
   6 C :    0.143460
   7 H :    0.024302
   8 F :   -0.170172
   9 H :    0.021030
  10 H :    0.020639
  11 C :   -0.246961
  12 C :    0.166142
  13 N :    0.206647
  14 H :   -0.137944
  15 H :    0.017733
  16 H :   -0.089769
  17 H :   -0.098812
  18 H :    0.024896
  19 H :    0.006034
  20 H :    0.021044
  21 H :   -0.000319
  22 H :    0.029096
  23 H :   -0.006906
  24 H :    0.038654
  25 H :    0.036802

  Mayer bond orders larger than 0.100000
B(  0-C ,  1-C ) :   1.2319 B(  0-C ,  2-C ) :   1.1360 B(  0-C ,  9-H ) :   0.7254
B(  0-C , 10-H ) :   0.8449 B(  0-C , 20-H ) :   0.1024 B(  0-C , 21-H ) :   0.1807
B(  0-C , 22-H ) :   0.1269 B(  0-C , 23-H ) :   0.1817 B(  1-C ,  2-C ) :   0.1142
B(  1-C ,  3-C ) :   1.1450 B(  1-C ,  9-H ) :   0.2104 B(  1-C , 10-H ) :   0.1346
B(  1-C , 18-H ) :   0.2249 B(  1-C , 20-H ) :   0.7900 B(  1-C , 21-H ) :   0.7537
B(  2-C ,  9-H ) :   0.1660 B(  2-C , 11-C ) :   0.9521 B(  2-C , 13-N ) :   0.1211
B(  2-C , 14-H ) :  -0.1131 B(  2-C , 17-H ) :   0.1224 B(  2-C , 22-H ) :   0.7148
B(  2-C , 23-H ) :   0.5630 B(  3-C ,  4-C ) :   1.2184 B(  3-C ,  5-H ) :   0.1383
B(  3-C ,  7-H ) :   0.2320 B(  3-C , 18-H ) :   0.8481 B(  3-C , 19-H ) :   0.7976
B(  3-C , 20-H ) :   0.1268 B(  3-C , 21-H ) :   0.1724 B(  4-C ,  5-H ) :   0.8523
B(  4-C ,  6-C ) :   1.2284 B(  4-C ,  7-H ) :   0.6557 B(  4-C , 24-H ) :   0.1533
B(  5-H ,  6-C ) :   0.1068 B(  6-C ,  7-H ) :   0.1049 B(  6-C ,  8-F ) :   0.5899
B(  6-C , 24-H ) :   0.9547 B(  6-C , 25-H ) :   0.7804 B(  8-F , 14-H ) :   0.2076
B(  9-H , 10-H ) :  -0.1504 B( 11-C , 12-C ) :   1.6967 B( 11-C , 13-N ) :   1.2332
B( 11-C , 14-H ) :   0.1284 B( 11-C , 17-H ) :   0.1782 B( 11-C , 22-H ) :   0.1943
B( 11-C , 23-H ) :   0.2768 B( 12-C , 13-N ) :   0.1627 B( 12-C , 16-H ) :   0.8205
B( 12-C , 17-H ) :   0.6041 B( 13-N , 14-H ) :   0.7685 B( 13-N , 15-H ) :   1.1737
B( 14-H , 15-H ) :  -0.2020 B( 14-H , 23-H ) :   0.1143 B( 19-H , 23-H ) :   0.1153

FINAL SINGLE POINT ENERGY      -468.471993632764

DIPOLE MOMENT
-------------
                                X             Y             Z
Electronic contribution:     -1.31696      -1.73281       6.90766
Nuclear contribution   :     -0.37390       1.73388      -6.94752
                        -----------------------------------------
Total Dipole Moment    :     -1.69086       0.00107      -0.03986
                        -----------------------------------------
Magnitude (a.u.)       :      1.69133
Magnitude (Debye)      :      4.29902

Rotational constants in cm-1:     0.062220     0.032742     0.024374
Rotational constants in MHz :  1865.297979   981.573941   730.711364

                             ****ORCA TERMINATED NORMALLY****
TOTAL RUN TIME: 0 days 0 hours 2 minutes 28 seconds 172 msec
