                         Program Version 5.0.0 -  RELEASE  -
|  1> !PBE0 D3BJ RIJCOSX def2-SVPD def2/J TightSCF
|  2> *xyz -1 1
|  3> C         -7.33044       -2.67899       -3.20681
|  4> S         -6.01966       -2.92697       -4.41913
|  5> O         -5.64583       -1.58838       -4.91931
|  6> O         -4.88196       -3.50370       -3.66724
|  7> O         -6.54927       -3.80515       -5.42507
|  8> C         -7.46900       -1.24615       -2.71383
|  9> H         -7.11825       -3.37982       -2.39805
| 10> H         -8.24184       -3.00474       -3.70651
| 11> H         -7.67580       -0.60214       -3.54292
| 12> H         -6.55749       -0.94096       -2.24382
| 13> H         -8.27114       -1.18777       -2.00810
| 14> *
| 15> %MaxCore 64000
| 16>
| 17> %pal nprocs 4
| 18> end
| 19>
| 20> %scf
| 21>   MaxIter 150
| 22> end
| 23>
| 24>
| 25>                          ****END OF INPUT****

CARTESIAN COORDINATES (ANGSTROEM)
---------------------------------
  C     -7.330440   -2.678990   -3.206810
  S     -6.019660   -2.926970   -4.419130
  O     -5.645830   -1.588380   -4.919310
  O     -4.881960   -3.503700   -3.667240
  O     -6.549270   -3.805150   -5.425070
  C     -7.469000   -1.246150   -2.713830
  H     -7.118250   -3.379820   -2.398050
  H     -8.241840   -3.004740   -3.706510
  H     -7.675800   -0.602140   -3.542920
  H     -6.557490   -0.940960   -2.243820
  H     -8.271140   -1.187770   -2.008100

 Total Charge           Charge          ....   -1
 Multiplicity           Mult            ....    1
 Number of Electrons    NEL             ....   58
 Basis Dimension        Dim             ....  176

ORBITAL ENERGIES
----------------

  NO   OCC          E(Eh)            E(eV)
   0   2.0000     -89.036269     -2422.8000
   1   2.0000     -19.000115      -517.0194
   2   2.0000     -18.989397      -516.7278
   3   2.0000     -18.985977      -516.6347
   4   2.0000     -10.099466      -274.8204
   5   2.0000     -10.091781      -274.6113
   6   2.0000      -7.995860      -217.5784
   7   2.0000      -5.938092      -161.5837
   8   2.0000      -5.937974      -161.5805
   9   2.0000      -5.937497      -161.5675
  10   2.0000      -0.953966       -25.9587
  11   2.0000      -0.813089       -22.1253
  12   2.0000      -0.789779       -21.4910
  13   2.0000      -0.654711       -17.8156
  14   2.0000      -0.526315       -14.3218
  15   2.0000      -0.400287       -10.8924
  16   2.0000      -0.337277        -9.1778
  17   2.0000      -0.332628        -9.0513
  18   2.0000      -0.294165        -8.0046
  19   2.0000      -0.276262        -7.5175
  20   2.0000      -0.273405        -7.4397
  21   2.0000      -0.244894        -6.6639
  22   2.0000      -0.234343        -6.3768
  23   2.0000      -0.163377        -4.4457
  24   2.0000      -0.161952        -4.4069
  25   2.0000      -0.126939        -3.4542
  26   2.0000      -0.120050        -3.2667
  27   2.0000      -0.112014        -3.0481
  28   2.0000      -0.075562        -2.0561
  29   0.0000       0.146771         3.9938
  30   0.0000       0.175363         4.7719
  31   0.0000       0.182982         4.9792
  32   0.0000       0.189645         5.1605
  33   0.0000       0.210226         5.7205

MULLIKEN ATOMIC CHARGES
-----------------------
   0 C :   -0.506941
   1 S :    1.427224
   2 O :   -0.869716
   3 O :   -0.863236
   4 O :   -0.815583
   5 C :    0.590360
   6 H :    0.035186
   7 H :    0.050167
   8 H :    0.041339
   9 H :    0.011398
  10 H :   -0.100199
Sum of atomic charges:   -1.0000000

LOEWDIN ATOMIC CHARGES
----------------------
   0 C :   -0.128746
   1 S :    0.880382
   2 O :   -0.591426
   3 O :   -0.605886
   4 O :   -0.580676
   5 C :    0.089434
   6 H :    0.003009
   7 H :   -0.003345
   8 H :   -0.019213
   9 H :   -0.010703
  10 H :   -0.032829

  Mayer bond orders larger than 0.100000
B(  0-C ,  1-S ) :   0.8890 B(  0-C ,  5-C ) :   1.2978 B(  0-C ,  6-H ) :   0.9931
B(  0-C ,  7-H ) :   0.9931 B(  0-C ,  8-H ) :   0.1761 B(  0-C ,  9-H ) :   0.1713
B(  0-C , 10-H ) :   0.1818 B(  1-S ,  2-O ) :   1.2532 B(  1-S ,  3-O ) :   1.2518
B(  1-S ,  4-O ) :   1.3065 B(  5-C ,  8-H ) :   0.8282 B(  5-C ,  9-H ) :   0.8373
B(  5-C , 10-H ) :   0.8273

Dispersion correction           -0.008239706
FINAL SINGLE POINT ENERGY      -702.317137175381

DIPOLE MOMENT
-------------
                                X             Y             Z
Electronic contribution:      4.63894      -3.49615      -5.06251
Nuclear contribution   :     -6.18165       4.01759       6.33106
                        -----------------------------------------
Total Dipole Moment    :     -1.54271       0.52144       1.26855
                        -----------------------------------------
Magnitude (a.u.)       :      2.06423
Magnitude (Debye)      :      5.24686

Rotational constants in cm-1:     0.161711     0.082788     0.081165
Rotational constants in MHz :  4847.971521  2481.906910  2433.276832

                             ****ORCA TERMINATED NORMALLY****
TOTAL RUN TIME: 0 days 0 hours 0 minutes 22 seconds 68 msec
