                         Program Version 5.0.0 -  RELEASE  -
|  1> !PBE0 D3BJ RIJCOSX def2-SVPD def2/J TightSCF
|  2> *xyz 1 1
|  3> C         -2.16038       -1.36949       -3.46710
|  4> N         -3.03011       -1.91086       -4.54107
|  5> C         -2.04772        0.14658       -3.51177
|  6> H         -3.47744       -2.79151       -4.25710
|  7> H         -2.53801       -2.01786       -5.43808
|  8> H         -3.89159       -1.37604       -4.71437
|  9> H         -1.18444       -1.84400       -3.56639
| 10> H         -2.59819       -1.70838       -2.52848
| 11> H         -1.61525        0.44478       -4.44395
| 12> H         -1.42718        0.48198       -2.70720
| 13> H         -3.02145        0.57958       -3.41560
| 14> *
| 15> %MaxCore 64000
| 16>
| 17> %pal nprocs 4
| 18> end
| 19>
| 20> %scf
| 21>   MaxIter 150
| 22> end
| 23>
| 24>
| 25>                          ****END OF INPUT****

CARTESIAN COORDINATES (ANGSTROEM)
---------------------------------
  C     -2.160380   -1.369490   -3.467100
  N     -3.030110   -1.910860   -4.541070
  C     -2.047720    0.146580   -3.511770
  H     -3.477440   -2.791510   -4.257100
  H     -2.538010   -2.017860   -5.438080
  H     -3.891590   -1.376040   -4.714370
  H     -1.184440   -1.844000   -3.566390
  H     -2.598190   -1.708380   -2.528480
  H     -1.615250    0.444780   -4.443950
  H     -1.427180    0.481980   -2.707200
  H     -3.021450    0.579580   -3.415600

 Total Charge           Charge          ....    1
 Multiplicity           Mult            ....    1
 Number of Electrons    NEL             ....   26
 Basis Dimension        Dim             ....  124

ORBITAL ENERGIES
----------------

  NO   OCC          E(Eh)            E(eV)
   0   2.0000     -14.733198      -400.9107
   1   2.0000     -10.488126      -285.3964
   2   2.0000     -10.407370      -283.1989
   3   2.0000      -1.236251       -33.6401
   4   2.0000      -0.985373       -26.8134
   5   2.0000      -0.863349       -23.4929
   6   2.0000      -0.827241       -22.5104
   7   2.0000      -0.786805       -21.4101
   8   2.0000      -0.716747       -19.5037
   9   2.0000      -0.657417       -17.8892
  10   2.0000      -0.596480       -16.2310
  11   2.0000      -0.581206       -15.8154
  12   2.0000      -0.562424       -15.3043
  13   0.0000      -0.186253        -5.0682
  14   0.0000      -0.127704        -3.4750
  15   0.0000      -0.125838        -3.4242
  16   0.0000      -0.114171        -3.1067
  17   0.0000      -0.084028        -2.2865

MULLIKEN ATOMIC CHARGES
-----------------------
   0 C :    0.163298
   1 N :   -0.908100
   2 C :    0.431499
   3 H :    0.381964
   4 H :    0.423654
   5 H :    0.398388
   6 H :   -0.027355
   7 H :    0.004559
   8 H :    0.065376
   9 H :    0.049055
  10 H :    0.017662
Sum of atomic charges:    1.0000000

LOEWDIN ATOMIC CHARGES
----------------------
   0 C :    0.053938
   1 N :    0.319022
   2 C :    0.167989
   3 H :    0.106394
   4 H :    0.114136
   5 H :    0.105945
   6 H :    0.056362
   7 H :    0.054006
   8 H :    0.003669
   9 H :    0.016995
  10 H :    0.001545

  Mayer bond orders larger than 0.100000
B(  0-C ,  1-N ) :   0.6735 B(  0-C ,  2-C ) :   1.3377 B(  0-C ,  6-H ) :   0.9392
B(  0-C ,  7-H ) :   0.9373 B(  0-C ,  8-H ) :   0.1302 B(  0-C ,  9-H ) :   0.1572
B(  0-C , 10-H ) :   0.1408 B(  1-N ,  3-H ) :   0.7536 B(  1-N ,  4-H ) :   0.6910
B(  1-N ,  5-H ) :   0.7295 B(  1-N ,  6-H ) :   0.1092 B(  2-C ,  8-H ) :   0.8374
B(  2-C ,  9-H ) :   0.8487 B(  2-C , 10-H ) :   0.8697

Dispersion correction           -0.004996590
FINAL SINGLE POINT ENERGY      -135.280775586417

DIPOLE MOMENT
-------------
                                X             Y             Z
Electronic contribution:     -0.65017      -1.49122      -0.77643
Nuclear contribution   :     -0.15215       0.37393      -0.04773
                        -----------------------------------------
Total Dipole Moment    :     -0.80232      -1.11728      -0.82417
                        -----------------------------------------
Magnitude (a.u.)       :      1.60352
Magnitude (Debye)      :      4.07583

Rotational constants in cm-1:     1.020762     0.277172     0.247319
Rotational constants in MHz : 30601.664035  8309.399682  7414.438136

                             ****ORCA TERMINATED NORMALLY****
TOTAL RUN TIME: 0 days 0 hours 0 minutes 11 seconds 316 msec
