                         Program Version 5.0.0 -  RELEASE  -
|  1> !PBE0 D3BJ RIJCOSX def2-SVPD def2/J TightSCF
|  2> *xyz 0 1
|  3> C         -7.33044       -2.67899       -3.20681
|  4> S         -6.01966       -2.92697       -4.41913
|  5> F         -5.64583       -1.58838       -4.91931
|  6> O         -4.88196       -3.50370       -3.66724
|  7> O         -6.54927       -3.80515       -5.42507
|  8> C         -7.46900       -1.24615       -2.71383
|  9> H         -7.11825       -3.37982       -2.39805
| 10> H         -8.24184       -3.00474       -3.70651
| 11> H         -7.67580       -0.60214       -3.54292
| 12> H         -6.55749       -0.94096       -2.24382
| 13> H         -8.27114       -1.18777       -2.00810
| 14> *
| 15> %MaxCore 64000
| 16>
| 17> %pal nprocs 4
| 18> end
| 19>
| 20> %scf
| 21>   MaxIter 150
| 22> end
| 23>
| 24>
| 25>                          ****END OF INPUT****

CARTESIAN COORDINATES (ANGSTROEM)
---------------------------------
  C     -7.330440   -2.678990   -3.206810
  S     -6.019660   -2.926970   -4.419130
  F     -5.645830   -1.588380   -4.919310
  O     -4.881960   -3.503700   -3.667240
  O     -6.549270   -3.805150   -5.425070
  C     -7.469000   -1.246150   -2.713830
  H     -7.118250   -3.379820   -2.398050
  H     -8.241840   -3.004740   -3.706510
  H     -7.675800   -0.602140   -3.542920
  H     -6.557490   -0.940960   -2.243820
  H     -8.271140   -1.187770   -2.008100

 Total Charge           Charge          ....    0
 Multiplicity           Mult            ....    1
 Number of Electrons    NEL             ....   58
 Basis Dimension        Dim             ....  176

ORBITAL ENERGIES
----------------

  NO   OCC          E(Eh)            E(eV)
   0   2.0000     -89.295172     -2429.8452
   1   2.0000     -24.888697      -677.2559
   2   2.0000     -19.235483      -523.4241
   3   2.0000     -19.220729      -523.0226
   4   2.0000     -10.301843      -280.3274
   5   2.0000     -10.263445      -279.2825
   6   2.0000      -8.255617      -224.6468
   7   2.0000      -6.201780      -168.7590
   8   2.0000      -6.195626      -168.5916
   9   2.0000      -6.194318      -168.5560
  10   2.0000      -1.381968       -37.6053
  11   2.0000      -1.140261       -31.0281
  12   2.0000      -1.035600       -28.1801
  13   2.0000      -0.851959       -23.1830
  14   2.0000      -0.747369       -20.3369
  15   2.0000      -0.698660       -19.0115
  16   2.0000      -0.608930       -16.5698
  17   2.0000      -0.590340       -16.0640
  18   2.0000      -0.564457       -15.3596
  19   2.0000      -0.518168       -14.1001
  20   2.0000      -0.495013       -13.4700
  21   2.0000      -0.470009       -12.7896
  22   2.0000      -0.463966       -12.6252
  23   2.0000      -0.432642       -11.7728
  24   2.0000      -0.414702       -11.2846
  25   2.0000      -0.403685       -10.9848
  26   2.0000      -0.352682        -9.5970
  27   2.0000      -0.339246        -9.2313
  28   2.0000      -0.326492        -8.8843
  29   0.0000      -0.006306        -0.1716
  30   0.0000       0.035686         0.9711
  31   0.0000       0.040673         1.1068
  32   0.0000       0.044455         1.2097
  33   0.0000       0.048287         1.3140

MULLIKEN ATOMIC CHARGES
-----------------------
   0 C :   -0.488562
   1 S :    1.566373
   2 F :   -0.449676
   3 O :   -0.729601
   4 O :   -0.681727
   5 C :    0.586700
   6 H :    0.081814
   7 H :    0.098494
   8 H :    0.045246
   9 H :    0.026652
  10 H :   -0.055714
Sum of atomic charges:    0.0000000

LOEWDIN ATOMIC CHARGES
----------------------
   0 C :   -0.079794
   1 S :    1.140173
   2 F :   -0.274837
   3 O :   -0.489176
   4 O :   -0.465083
   5 C :    0.120853
   6 H :    0.033733
   7 H :    0.022366
   8 H :   -0.006721
   9 H :    0.000876
  10 H :   -0.002390

  Mayer bond orders larger than 0.100000
B(  0-C ,  1-S ) :   0.9693 B(  0-C ,  5-C ) :   1.3113 B(  0-C ,  6-H ) :   0.9760
B(  0-C ,  7-H ) :   0.9824 B(  0-C ,  8-H ) :   0.1577 B(  0-C ,  9-H ) :   0.1524
B(  0-C , 10-H ) :   0.1783 B(  1-S ,  2-F ) :   0.6178 B(  1-S ,  3-O ) :   1.4668
B(  1-S ,  4-O ) :   1.5210 B(  5-C ,  8-H ) :   0.8337 B(  5-C ,  9-H ) :   0.8431
B(  5-C , 10-H ) :   0.8276

Dispersion correction           -0.007824341
FINAL SINGLE POINT ENERGY      -726.802144099087

DIPOLE MOMENT
-------------
                                X             Y             Z
Electronic contribution:      5.60901      -1.70922      -6.34800
Nuclear contribution   :     -6.81251       2.87933       7.15058
                        -----------------------------------------
Total Dipole Moment    :     -1.20350       1.17011       0.80257
                        -----------------------------------------
Magnitude (a.u.)       :      1.86057
Magnitude (Debye)      :      4.72918

Rotational constants in cm-1:     0.152543     0.082494     0.078987
Rotational constants in MHz :  4573.135887  2473.116216  2367.980829

                             ****ORCA TERMINATED NORMALLY****
TOTAL RUN TIME: 0 days 0 hours 0 minutes 22 seconds 912 msec
