                         Program Version 5.0.0 -  RELEASE  -
|  1> !PBE0 D3BJ RIJCOSX def2-SVPD def2/J TightSCF
|  2> *xyz 0 1
|  3> C         -2.16038       -1.36949       -3.46710
|  4> C         -3.03011       -1.91086       -4.54107
|  5> C         -2.04772        0.14658       -3.51177
|  6> H         -3.47744       -2.79151       -4.25710
|  7> H         -2.53801       -2.01786       -5.43808
|  8> H         -3.89159       -1.37604       -4.71437
|  9> H         -1.18444       -1.84400       -3.56639
| 10> H         -2.59819       -1.70838       -2.52848
| 11> H         -1.61525        0.44478       -4.44395
| 12> H         -1.42718        0.48198       -2.70720
| 13> H         -3.02145        0.57958       -3.41560
| 14> *
| 15> %MaxCore 64000
| 16>
| 17> %pal nprocs 4
| 18> end
| 19>
| 20> %scf
| 21>   MaxIter 150
| 22> end
| 23>
| 24>
| 25>                          ****END OF INPUT****

CARTESIAN COORDINATES (ANGSTROEM)
---------------------------------
  C     -2.160380   -1.369490   -3.467100
  C     -3.030110   -1.910860   -4.541070
  C     -2.047720    0.146580   -3.511770
  H     -3.477440   -2.791510   -4.257100
  H     -2.538010   -2.017860   -5.438080
  H     -3.891590   -1.376040   -4.714370
  H     -1.184440   -1.844000   -3.566390
  H     -2.598190   -1.708380   -2.528480
  H     -1.615250    0.444780   -4.443950
  H     -1.427180    0.481980   -2.707200
  H     -3.021450    0.579580   -3.415600

 Total Charge           Charge          ....    0
 Multiplicity           Mult            ....    1
 Number of Electrons    NEL             ....   26
 Basis Dimension        Dim             ....  124

ORBITAL ENERGIES
----------------

  NO   OCC          E(Eh)            E(eV)
   0   2.0000     -10.220328      -278.1093
   1   2.0000     -10.210656      -277.8461
   2   2.0000     -10.193024      -277.3663
   3   2.0000      -0.808193       -21.9921
   4   2.0000      -0.706624       -19.2282
   5   2.0000      -0.601539       -16.3687
   6   2.0000      -0.483763       -13.1639
   7   2.0000      -0.453520       -12.3409
   8   2.0000      -0.415440       -11.3047
   9   2.0000      -0.406406       -11.0589
  10   2.0000      -0.352161        -9.5828
  11   2.0000      -0.339783        -9.2460
  12   2.0000      -0.338297        -9.2055
  13   0.0000       0.033994         0.9250
  14   0.0000       0.063174         1.7191
  15   0.0000       0.069722         1.8972
  16   0.0000       0.091858         2.4996
  17   0.0000       0.113208         3.0805

MULLIKEN ATOMIC CHARGES
-----------------------
   0 C :   -0.692771
   1 C :    0.754472
   2 C :    0.482741
   3 H :   -0.136158
   4 H :   -0.134486
   5 H :   -0.196595
   6 H :   -0.059864
   7 H :    0.001222
   8 H :   -0.008421
   9 H :   -0.025233
  10 H :    0.015094
Sum of atomic charges:   -0.0000000

LOEWDIN ATOMIC CHARGES
----------------------
   0 C :   -0.119687
   1 C :    0.104975
   2 C :    0.111584
   3 H :   -0.034811
   4 H :   -0.025222
   5 H :   -0.033297
   6 H :    0.023617
   7 H :    0.022013
   8 H :   -0.013669
   9 H :   -0.020490
  10 H :   -0.015015

  Mayer bond orders larger than 0.100000
B(  0-C ,  1-C ) :   1.3126 B(  0-C ,  2-C ) :   1.2604 B(  0-C ,  3-H ) :   0.1877
B(  0-C ,  4-H ) :   0.2067 B(  0-C ,  5-H ) :   0.1762 B(  0-C ,  6-H ) :   0.9814
B(  0-C ,  7-H ) :   0.9428 B(  0-C ,  8-H ) :   0.1657 B(  0-C ,  9-H ) :   0.1667
B(  0-C , 10-H ) :   0.1352 B(  1-C ,  3-H ) :   0.7142 B(  1-C ,  4-H ) :   0.7658
B(  1-C ,  5-H ) :   0.7430 B(  1-C ,  6-H ) :   0.1042 B(  2-C ,  8-H ) :   0.8582
B(  2-C ,  9-H ) :   0.8503 B(  2-C , 10-H ) :   0.8652 B(  3-H ,  5-H ) :   0.2129
B(  4-H ,  5-H ) :   0.1142

Dispersion correction           -0.005016279
FINAL SINGLE POINT ENERGY      -118.892989359122

DIPOLE MOMENT
-------------
                                X             Y             Z
Electronic contribution:      0.31633      -0.13174       0.27477
Nuclear contribution   :     -0.34625       0.09603      -0.26933
                        -----------------------------------------
Total Dipole Moment    :     -0.02991      -0.03571       0.00544
                        -----------------------------------------
Magnitude (a.u.)       :      0.04690
Magnitude (Debye)      :      0.11920

Rotational constants in cm-1:     1.028617     0.291238     0.258956
Rotational constants in MHz : 30837.159054  8731.095379  7763.318586

                             ****ORCA TERMINATED NORMALLY****
TOTAL RUN TIME: 0 days 0 hours 0 minutes 11 seconds 616 msec
