                         Program Version 5.0.0 -  RELEASE  -
|  1> !PBE0 D3BJ RIJCOSX def2-SVPD def2/J TightSCF
|  2> *xyz 0 1
|  3> C         -7.33044       -2.67899       -3.20681
|  4> S         -6.01966       -2.92697       -4.41913
|  5> O         -5.64583       -1.58838       -4.91931
|  6> F         -4.88196       -3.50370       -3.66724
|  7> O         -6.54927       -3.80515       -5.42507
|  8> C         -7.46900       -1.24615       -2.71383
|  9> H         -7.11825       -3.37982       -2.39805
| 10> H         -8.24184       -3.00474       -3.70651
| 11> H         -7.67580       -0.60214       -3.54292
| 12> H         -6.55749       -0.94096       -2.24382
| 13> H         -8.27114       -1.18777       -2.00810
| 14> *
| 15> %MaxCore 64000
| 16>
| 17> %pal nprocs 4
| 18> end
| 19>
| 20> %scf
| 21>   MaxIter 150
| 22> end
| 23>
| 24>
| 25>                          ****END OF INPUT****

CARTESIAN COORDINATES (ANGSTROEM)
---------------------------------
  C     -7.330440   -2.678990   -3.206810
  S     -6.019660   -2.926970   -4.419130
  O     -5.645830   -1.588380   -4.919310
  F     -4.881960   -3.503700   -3.667240
  O     -6.549270   -3.805150   -5.425070
  C     -7.469000   -1.246150   -2.713830
  H     -7.118250   -3.379820   -2.398050
  H     -8.241840   -3.004740   -3.706510
  H     -7.675800   -0.602140   -3.542920
  H     -6.557490   -0.940960   -2.243820
  H     -8.271140   -1.187770   -2.008100

 Total Charge           Charge          ....    0
 Multiplicity           Mult            ....    1
 Number of Electrons    NEL             ....   58
 Basis Dimension        Dim             ....  176

ORBITAL ENERGIES
----------------

  NO   OCC          E(Eh)            E(eV)
   0   2.0000     -89.295184     -2429.8455
   1   2.0000     -24.885827      -677.1778
   2   2.0000     -19.235448      -523.4232
   3   2.0000     -19.224019      -523.1122
   4   2.0000     -10.302098      -280.3343
   5   2.0000     -10.254638      -279.0429
   6   2.0000      -8.255630      -224.6471
   7   2.0000      -6.201702      -168.7569
   8   2.0000      -6.195650      -168.5922
   9   2.0000      -6.194431      -168.5590
  10   2.0000      -1.378315       -37.5059
  11   2.0000      -1.141176       -31.0530
  12   2.0000      -1.038987       -28.2723
  13   2.0000      -0.847616       -23.0648
  14   2.0000      -0.748355       -20.3638
  15   2.0000      -0.691862       -18.8265
  16   2.0000      -0.599177       -16.3044
  17   2.0000      -0.586586       -15.9618
  18   2.0000      -0.572508       -15.5787
  19   2.0000      -0.512893       -13.9565
  20   2.0000      -0.501986       -13.6597
  21   2.0000      -0.475566       -12.9408
  22   2.0000      -0.448397       -12.2015
  23   2.0000      -0.421641       -11.4734
  24   2.0000      -0.414551       -11.2805
  25   2.0000      -0.400913       -10.9094
  26   2.0000      -0.352044        -9.5796
  27   2.0000      -0.345189        -9.3931
  28   2.0000      -0.329437        -8.9644
  29   0.0000       0.001295         0.0352
  30   0.0000       0.022958         0.6247
  31   0.0000       0.036441         0.9916
  32   0.0000       0.044902         1.2219
  33   0.0000       0.051913         1.4126

MULLIKEN ATOMIC CHARGES
-----------------------
   0 C :   -0.522430
   1 S :    1.584542
   2 O :   -0.741768
   3 F :   -0.439450
   4 O :   -0.688492
   5 C :    0.617345
   6 H :    0.077006
   7 H :    0.092582
   8 H :    0.065292
   9 H :    0.017344
  10 H :   -0.061970
Sum of atomic charges:    0.0000000

LOEWDIN ATOMIC CHARGES
----------------------
   0 C :   -0.086181
   1 S :    1.143047
   2 O :   -0.479416
   3 F :   -0.280044
   4 O :   -0.465823
   5 C :    0.125573
   6 H :    0.020862
   7 H :    0.026765
   8 H :   -0.001573
   9 H :    0.000028
  10 H :   -0.003238

  Mayer bond orders larger than 0.100000
B(  0-C ,  1-S ) :   0.9596 B(  0-C ,  5-C ) :   1.3384 B(  0-C ,  6-H ) :   0.9608
B(  0-C ,  7-H ) :   0.9874 B(  0-C ,  8-H ) :   0.1696 B(  0-C ,  9-H ) :   0.1670
B(  0-C , 10-H ) :   0.1749 B(  1-S ,  2-O ) :   1.4702 B(  1-S ,  3-F ) :   0.6077
B(  1-S ,  4-O ) :   1.5196 B(  5-C ,  8-H ) :   0.8294 B(  5-C ,  9-H ) :   0.8344
B(  5-C , 10-H ) :   0.8221

Dispersion correction           -0.007860089
FINAL SINGLE POINT ENERGY      -726.805302960879

DIPOLE MOMENT
-------------
                                X             Y             Z
Electronic contribution:      6.94344      -4.95953      -4.24597
Nuclear contribution   :     -7.60849       4.87515       5.84588
                        -----------------------------------------
Total Dipole Moment    :     -0.66504      -0.08438       1.59991
                        -----------------------------------------
Magnitude (a.u.)       :      1.73468
Magnitude (Debye)      :      4.40920

Rotational constants in cm-1:     0.153704     0.080342     0.079431
Rotational constants in MHz :  4607.928650  2408.599360  2381.267225

                             ****ORCA TERMINATED NORMALLY****
TOTAL RUN TIME: 0 days 0 hours 0 minutes 21 seconds 871 msec
