                         Program Version 5.0.0 -  RELEASE  -
|  1> !PBE0 D3BJ RIJCOSX def2-SVPD def2/J TightSCF
|  2> *xyz 0 1
|  3> C         -7.33044       -2.67899       -3.20681
|  4> S         -6.01966       -2.92697       -4.41913
|  5> O         -5.64583       -1.58838       -4.91931
|  6> O         -4.88196       -3.50370       -3.66724
|  7> F         -6.54927       -3.80515       -5.42507
|  8> C         -7.46900       -1.24615       -2.71383
|  9> H         -7.11825       -3.37982       -2.39805
| 10> H         -8.24184       -3.00474       -3.70651
| 11> H         -7.67580       -0.60214       -3.54292
| 12> H         -6.55749       -0.94096       -2.24382
| 13> H         -8.27114       -1.18777       -2.00810
| 14> *
| 15> %MaxCore 64000
| 16>
| 17> %pal nprocs 4
| 18> end
| 19>
| 20> %scf
| 21>   MaxIter 150
| 22> end
| 23>
| 24>
| 25>                          ****END OF INPUT****

CARTESIAN COORDINATES (ANGSTROEM)
---------------------------------
  C     -7.330440   -2.678990   -3.206810
  S     -6.019660   -2.926970   -4.419130
  O     -5.645830   -1.588380   -4.919310
  O     -4.881960   -3.503700   -3.667240
  F     -6.549270   -3.805150   -5.425070
  C     -7.469000   -1.246150   -2.713830
  H     -7.118250   -3.379820   -2.398050
  H     -8.241840   -3.004740   -3.706510
  H     -7.675800   -0.602140   -3.542920
  H     -6.557490   -0.940960   -2.243820
  H     -8.271140   -1.187770   -2.008100

 Total Charge           Charge          ....    0
 Multiplicity           Mult            ....    1
 Number of Electrons    NEL             ....   58
 Basis Dimension        Dim             ....  176

ORBITAL ENERGIES
----------------

  NO   OCC          E(Eh)            E(eV)
   0   2.0000     -89.297409     -2429.9060
   1   2.0000     -24.907652      -677.7717
   2   2.0000     -19.224411      -523.1228
   3   2.0000     -19.221343      -523.0393
   4   2.0000     -10.302954      -280.3576
   5   2.0000     -10.254862      -279.0490
   6   2.0000      -8.257894      -224.7087
   7   2.0000      -6.204203      -168.8250
   8   2.0000      -6.197685      -168.6476
   9   2.0000      -6.196468      -168.6145
  10   2.0000      -1.416044       -38.5325
  11   2.0000      -1.125205       -30.6184
  12   2.0000      -1.021412       -27.7940
  13   2.0000      -0.848155       -23.0795
  14   2.0000      -0.763513       -20.7762
  15   2.0000      -0.699328       -19.0297
  16   2.0000      -0.614547       -16.7227
  17   2.0000      -0.612275       -16.6609
  18   2.0000      -0.577357       -15.7107
  19   2.0000      -0.513971       -13.9859
  20   2.0000      -0.501612       -13.6496
  21   2.0000      -0.464700       -12.6451
  22   2.0000      -0.445825       -12.1315
  23   2.0000      -0.423824       -11.5328
  24   2.0000      -0.406041       -11.0489
  25   2.0000      -0.396895       -10.8001
  26   2.0000      -0.343718        -9.3530
  27   2.0000      -0.337429        -9.1819
  28   2.0000      -0.315794        -8.5932
  29   0.0000       0.001358         0.0369
  30   0.0000       0.020144         0.5481
  31   0.0000       0.037706         1.0260
  32   0.0000       0.043791         1.1916
  33   0.0000       0.052971         1.4414

MULLIKEN ATOMIC CHARGES
-----------------------
   0 C :   -0.524241
   1 S :    1.582821
   2 O :   -0.731516
   3 O :   -0.721758
   4 F :   -0.411181
   5 C :    0.591308
   6 H :    0.076321
   7 H :    0.095506
   8 H :    0.064509
   9 H :    0.039300
  10 H :   -0.061068
Sum of atomic charges:    0.0000000

LOEWDIN ATOMIC CHARGES
----------------------
   0 C :   -0.091596
   1 S :    1.146453
   2 O :   -0.480269
   3 O :   -0.488229
   4 F :   -0.260677
   5 C :    0.132292
   6 H :    0.026289
   7 H :    0.014653
   8 H :   -0.003376
   9 H :    0.006212
  10 H :   -0.001753

  Mayer bond orders larger than 0.100000
B(  0-C ,  1-S ) :   0.9492 B(  0-C ,  5-C ) :   1.3543 B(  0-C ,  6-H ) :   0.9872
B(  0-C ,  7-H ) :   0.9480 B(  0-C ,  8-H ) :   0.1730 B(  0-C ,  9-H ) :   0.1603
B(  0-C , 10-H ) :   0.1750 B(  1-S ,  2-O ) :   1.4654 B(  1-S ,  3-O ) :   1.4678
B(  1-S ,  4-F ) :   0.6617 B(  5-C ,  8-H ) :   0.8233 B(  5-C ,  9-H ) :   0.8378
B(  5-C , 10-H ) :   0.8237

Dispersion correction           -0.007873420
FINAL SINGLE POINT ENERGY      -726.786445806309

DIPOLE MOMENT
-------------
                                X             Y             Z
Electronic contribution:      4.11216      -5.45074      -7.23003
Nuclear contribution   :     -5.87110       5.18927       7.67759
                        -----------------------------------------
Total Dipole Moment    :     -1.75894      -0.26147       0.44756
                        -----------------------------------------
Magnitude (a.u.)       :      1.83372
Magnitude (Debye)      :      4.66095

Rotational constants in cm-1:     0.155988     0.080452     0.078187
Rotational constants in MHz :  4676.405251  2411.902056  2343.983816

                             ****ORCA TERMINATED NORMALLY****
TOTAL RUN TIME: 0 days 0 hours 0 minutes 22 seconds 889 msec
