                         Program Version 5.0.0 -  RELEASE  -
|  1> !M062X D3Zero RIJCOSX def2-TZVPD def2/J TightSCF
|  2> *xyz -1 1
|  3> C          0.13297        2.38587       -4.02462
|  4> C         -1.36646        2.47911       -4.31393
|  5> C         -2.35773        2.30686       -3.13675
|  6> H         -1.63680        1.72709       -5.06399
|  7> H         -1.58235        3.44561       -4.76869
|  8> O         -3.44376        2.84652       -3.25274
|  9> O         -1.97092        1.58304       -2.15123
| 10> H          0.68084        2.52514       -4.93310
| 11> H          0.35823        1.42282       -3.61633
| 12> H          0.40851        3.14443       -3.32208
| 13> *
| 14> %MaxCore 64000
| 15>
| 16> %pal nprocs 4
| 17> end
| 18>
| 19> %scf
| 20>   MaxIter 150
| 21> end
| 22>
| 23>
| 24>                          ****END OF INPUT****

CARTESIAN COORDINATES (ANGSTROEM)
---------------------------------
  C      0.132970    2.385870   -4.024620
  C     -1.366460    2.479110   -4.313930
  C     -2.357730    2.306860   -3.136750
  H     -1.636800    1.727090   -5.063990
  H     -1.582350    3.445610   -4.768690
  O     -3.443760    2.846520   -3.252740
  O     -1.970920    1.583040   -2.151230
  H      0.680840    2.525140   -4.933100
  H      0.358230    1.422820   -3.616330
  H      0.408510    3.144430   -3.322080

 Total Charge           Charge          ....   -1
 Multiplicity           Mult            ....    1
 Number of Electrons    NEL             ....   40
 Basis Dimension        Dim             ....  236

ORBITAL ENERGIES
----------------

  NO   OCC          E(Eh)            E(eV)
   0   2.0000     -19.366054      -526.9771
   1   2.0000     -19.355936      -526.7018
   2   2.0000     -10.422527      -283.6114
   3   2.0000     -10.367220      -282.1064
   4   2.0000     -10.359212      -281.8885
   5   2.0000      -0.951003       -25.8781
   6   2.0000      -0.844484       -22.9796
   7   2.0000      -0.699306       -19.0291
   8   2.0000      -0.560487       -15.2516
   9   2.0000      -0.394404       -10.7323
  10   2.0000      -0.363193        -9.8830
  11   2.0000      -0.338735        -9.2174
  12   2.0000      -0.301962        -8.2168
  13   2.0000      -0.285552        -7.7703
  14   2.0000      -0.281833        -7.6691
  15   2.0000      -0.245748        -6.6871
  16   2.0000      -0.229245        -6.2381
  17   2.0000      -0.114500        -3.1157
  18   2.0000      -0.111524        -3.0347
  19   2.0000      -0.105302        -2.8654
  20   0.0000       0.141187         3.8419
  21   0.0000       0.161900         4.4055
  22   0.0000       0.171960         4.6793
  23   0.0000       0.190040         5.1712
  24   0.0000       0.201382         5.4799

MULLIKEN ATOMIC CHARGES
-----------------------
   0 C :   -1.032057
   1 C :   -0.370530
   2 C :    0.608326
   3 H :    0.251589
   4 H :    0.271766
   5 O :   -0.756404
   6 O :   -0.820298
   7 H :    0.321195
   8 H :    0.243169
   9 H :    0.283244
Sum of atomic charges:   -1.0000000

LOEWDIN ATOMIC CHARGES
----------------------
   0 C :   -0.142366
   1 C :   -0.209426
   2 C :   -0.774851
   3 H :    0.098019
   4 H :    0.087916
   5 O :   -0.076236
   6 O :   -0.139504
   7 H :    0.042772
   8 H :    0.054641
   9 H :    0.059035

  Mayer bond orders larger than 0.100000
B(  0-C ,  1-C ) :   0.4509 B(  0-C ,  7-H ) :   0.9516 B(  0-C ,  8-H ) :   1.0449
B(  0-C ,  9-H ) :   0.9926 B(  1-C ,  2-C ) :   0.9396 B(  1-C ,  3-H ) :   0.9722
B(  1-C ,  4-H ) :   0.9953 B(  2-C ,  5-O ) :   1.3975 B(  2-C ,  6-O ) :   1.3445

Dispersion correction           -0.000092436
FINAL SINGLE POINT ENERGY      -267.830372069740

DIPOLE MOMENT
-------------
                                X             Y             Z
Electronic contribution:     -5.24532      -0.36263       3.17856
Nuclear contribution   :      6.75610       0.63068      -4.53972
                        -----------------------------------------
Total Dipole Moment    :      1.51078       0.26805      -1.36117
                        -----------------------------------------
Magnitude (a.u.)       :      2.05111
Magnitude (Debye)      :      5.21352

Rotational constants in cm-1:     0.335096     0.130241     0.099025
Rotational constants in MHz : 10045.924902  3904.536250  2968.708333

                             ****ORCA TERMINATED NORMALLY****
TOTAL RUN TIME: 0 days 0 hours 0 minutes 32 seconds 182 msec
