                         Program Version 5.0.0 -  RELEASE  -
|  1> !M062X D3Zero RIJCOSX def2-TZVPD def2/J TightSCF
|  2> *xyz 1 1
|  3> C          0.64866        1.00359       -3.64560
|  4> N          0.28128        0.67645       -2.24018
|  5> C          0.13297        2.38587       -4.02462
|  6> H          0.39079       -0.31925       -2.02649
|  7> H         -0.69269        0.99010       -2.13812
|  8> H          0.85421        1.21221       -1.57528
|  9> H          0.19099        0.23965       -4.27575
| 10> H          1.73157        0.93173       -3.75075
| 11> H          0.40589        2.60338       -5.03610
| 12> H          0.56342        3.11797       -3.37374
| 13> H         -0.93265        2.40724       -3.93025
| 14> *
| 15> %MaxCore 64000
| 16>
| 17> %pal nprocs 4
| 18> end
| 19>
| 20> %scf
| 21>   MaxIter 150
| 22> end
| 23>
| 24>
| 25>                          ****END OF INPUT****

CARTESIAN COORDINATES (ANGSTROEM)
---------------------------------
  C      0.648660    1.003590   -3.645600
  N      0.281280    0.676450   -2.240180
  C      0.132970    2.385870   -4.024620
  H      0.390790   -0.319250   -2.026490
  H     -0.692690    0.990100   -2.138120
  H      0.854210    1.212210   -1.575280
  H      0.190990    0.239650   -4.275750
  H      1.731570    0.931730   -3.750750
  H      0.405890    2.603380   -5.036100
  H      0.563420    3.117970   -3.373740
  H     -0.932650    2.407240   -3.930250

 Total Charge           Charge          ....    1
 Multiplicity           Mult            ....    1
 Number of Electrons    NEL             ....   26
 Basis Dimension        Dim             ....  183

ORBITAL ENERGIES
----------------

  NO   OCC          E(Eh)            E(eV)
   0   2.0000     -15.080842      -410.3706
   1   2.0000     -10.790882      -293.6348
   2   2.0000     -10.711799      -291.4829
   3   2.0000      -1.325855       -36.0783
   4   2.0000      -1.062588       -28.9145
   5   2.0000      -0.931533       -25.3483
   6   2.0000      -0.875504       -23.8237
   7   2.0000      -0.868417       -23.6308
   8   2.0000      -0.763966       -20.7886
   9   2.0000      -0.711657       -19.3652
  10   2.0000      -0.649085       -17.6625
  11   2.0000      -0.634304       -17.2603
  12   2.0000      -0.617485       -16.8026
  13   0.0000      -0.176317        -4.7978
  14   0.0000      -0.120970        -3.2918
  15   0.0000      -0.117291        -3.1917
  16   0.0000      -0.116140        -3.1603
  17   0.0000      -0.081578        -2.2199

MULLIKEN ATOMIC CHARGES
-----------------------
   0 C :   -0.282771
   1 N :   -0.470057
   2 C :   -1.205933
   3 H :    0.394797
   4 H :    0.382601
   5 H :    0.393746
   6 H :    0.334262
   7 H :    0.340223
   8 H :    0.322194
   9 H :    0.379937
  10 H :    0.411000
Sum of atomic charges:    1.0000000

LOEWDIN ATOMIC CHARGES
----------------------
   0 C :   -0.201229
   1 N :    0.176625
   2 C :   -0.056320
   3 H :    0.182128
   4 H :    0.177320
   5 H :    0.184470
   6 H :    0.136588
   7 H :    0.137092
   8 H :    0.094039
   9 H :    0.085207
  10 H :    0.084080

  Mayer bond orders larger than 0.100000
B(  0-C ,  1-N ) :   0.8077 B(  0-C ,  2-C ) :   0.4951 B(  0-C ,  6-H ) :   0.9254
B(  0-C ,  7-H ) :   0.9271 B(  1-N ,  3-H ) :   0.8425 B(  1-N ,  4-H ) :   0.8500
B(  1-N ,  5-H ) :   0.8455 B(  2-C ,  8-H ) :   0.9887 B(  2-C ,  9-H ) :   0.9240
B(  2-C , 10-H ) :   0.8753

Dispersion correction           -0.000050982
FINAL SINGLE POINT ENERGY      -135.508565071587

DIPOLE MOMENT
-------------
                                X             Y             Z
Electronic contribution:      0.17201      -1.29141       1.30288
Nuclear contribution   :     -0.22655       0.48066      -0.09136
                        -----------------------------------------
Total Dipole Moment    :     -0.05454      -0.81075       1.21152
                        -----------------------------------------
Magnitude (a.u.)       :      1.45879
Magnitude (Debye)      :      3.70795

Rotational constants in cm-1:     0.998155     0.284845     0.251232
Rotational constants in MHz : 29923.943568  8539.431565  7531.732866

                             ****ORCA TERMINATED NORMALLY****
TOTAL RUN TIME: 0 days 0 hours 0 minutes 19 seconds 964 msec
