                         Program Version 5.0.0 -  RELEASE  -
|  1> !M062X D3Zero RIJCOSX def2-TZVPD def2/J TightSCF xyzfile
|  2>
|  3> *xyzfile 0 1 B.xyz
|  4>
|  5> %MaxCore 64000
|  6>
|  7> %pal nprocs 4
|  8> end
|  9>
| 10> %scf
| 11>   MaxIter 150
| 12> end
| 13>
| 14>
| 15>                          ****END OF INPUT****

CARTESIAN COORDINATES (ANGSTROEM)
---------------------------------
  C      0.648656    1.003595   -3.645601
  N      0.281280    0.676454   -2.240179
  C      0.132968    2.385869   -4.024618
  C     -1.366462    2.479106   -4.313932
  C     -2.357732    2.306858   -3.136753
  H     -1.636802    1.727095   -5.063993
  H     -1.582347    3.445605   -4.768687
  H      0.390790   -0.319253   -2.026495
  H     -0.692686    0.990104   -2.138123
  H      0.854206    1.212214   -1.575279
  O     -3.443763    2.846518   -3.252744
  O     -1.970922    1.583042   -2.151229
  H      0.190993    0.239655   -4.275752
  H      1.731572    0.931729   -3.750751
  H      0.414839    3.102847   -3.245165
  H      0.683167    2.687560   -4.919721

 Total Charge           Charge          ....    0
 Multiplicity           Mult            ....    1
 Number of Electrons    NEL             ....   56
 Basis Dimension        Dim             ....  346

ORBITAL ENERGIES
----------------

  NO   OCC          E(Eh)            E(eV)
   0   2.0000     -19.553076      -532.0662
   1   2.0000     -19.533634      -531.5372
   2   2.0000     -14.856526      -404.2666
   3   2.0000     -10.625884      -289.1450
   4   2.0000     -10.602217      -288.5010
   5   2.0000     -10.564577      -287.4768
   6   2.0000     -10.526656      -286.4449
   7   2.0000      -1.140118       -31.0242
   8   2.0000      -1.117660       -30.4131
   9   2.0000      -1.038525       -28.2597
  10   2.0000      -0.911102       -24.7923
  11   2.0000      -0.809712       -22.0334
  12   2.0000      -0.723580       -19.6896
  13   2.0000      -0.683881       -18.6093
  14   2.0000      -0.670008       -18.2319
  15   2.0000      -0.596713       -16.2374
  16   2.0000      -0.561448       -15.2778
  17   2.0000      -0.551458       -15.0059
  18   2.0000      -0.505921       -13.7668
  19   2.0000      -0.499206       -13.5841
  20   2.0000      -0.463449       -12.6111
  21   2.0000      -0.457828       -12.4581
  22   2.0000      -0.448840       -12.2136
  23   2.0000      -0.425939       -11.5904
  24   2.0000      -0.404426       -11.0050
  25   2.0000      -0.307083        -8.3561
  26   2.0000      -0.302043        -8.2190
  27   2.0000      -0.278498        -7.5783
  28   0.0000      -0.025760        -0.7010
  29   0.0000       0.007903         0.2150
  30   0.0000       0.010329         0.2811
  31   0.0000       0.030719         0.8359
  32   0.0000       0.050670         1.3788

MULLIKEN ATOMIC CHARGES
-----------------------
   0 C :   -0.631833
   1 N :   -0.469447
   2 C :   -0.503176
   3 C :   -0.713603
   4 C :    0.776457
   5 H :    0.278598
   6 H :    0.297357
   7 H :    0.362774
   8 H :    0.523541
   9 H :    0.371758
  10 O :   -0.726407
  11 O :   -0.929419
  12 H :    0.368136
  13 H :    0.326922
  14 H :    0.316618
  15 H :    0.351724
Sum of atomic charges:   -0.0000000

LOEWDIN ATOMIC CHARGES
----------------------
   0 C :   -0.169288
   1 N :    0.138216
   2 C :   -0.193279
   3 C :   -0.117151
   4 C :   -0.663390
   5 H :    0.121401
   6 H :    0.114095
   7 H :    0.164150
   8 H :    0.000015
   9 H :    0.168786
  10 O :    0.015938
  11 O :   -0.072441
  12 H :    0.132820
  13 H :    0.119732
  14 H :    0.125430
  15 H :    0.114966

  Mayer bond orders larger than 0.100000
B(  0-C ,  1-N ) :   0.8459 B(  0-C ,  2-C ) :   0.6139 B(  0-C , 12-H ) :   0.9221
B(  0-C , 13-H ) :   0.9707 B(  1-N ,  7-H ) :   0.8867 B(  1-N ,  8-H ) :   0.6096
B(  1-N ,  9-H ) :   0.8743 B(  1-N , 11-O ) :  -0.1261 B(  2-C ,  3-C ) :   0.6143
B(  2-C , 14-H ) :   0.9513 B(  2-C , 15-H ) :   0.9592 B(  3-C ,  4-C ) :   1.0078
B(  3-C ,  5-H ) :   0.9769 B(  3-C ,  6-H ) :   1.0101 B(  4-C , 10-O ) :   1.4038
B(  4-C , 11-O ) :   1.0745

Dispersion correction           -0.000327361
FINAL SINGLE POINT ENERGY      -363.024084420176

DIPOLE MOMENT
-------------
                                X             Y             Z
Electronic contribution:     -5.80713       0.94801       2.50695
Nuclear contribution   :      9.92875      -2.62114      -2.63866
                        -----------------------------------------
Total Dipole Moment    :      4.12162      -1.67313      -0.13171
                        -----------------------------------------
Magnitude (a.u.)       :      4.45022
Magnitude (Debye)      :     11.31157

Rotational constants in cm-1:     0.159108     0.062474     0.047603
Rotational constants in MHz :  4769.938632  1872.932224  1427.103830

                             ****ORCA TERMINATED NORMALLY****
TOTAL RUN TIME: 0 days 0 hours 1 minutes 15 seconds 29 msec
