                         Program Version 5.0.0 -  RELEASE  -
|  1> !M062X D3Zero RIJCOSX def2-TZVPD def2/J TightSCF
|  2> *xyz 0 1
|  3> C          0.13297        2.38587       -4.02462
|  4> C         -1.36646        2.47911       -4.31393
|  5> C         -2.35773        2.30686       -3.13675
|  6> H         -1.63680        1.72709       -5.06399
|  7> H         -1.58235        3.44561       -4.76869
|  8> F         -3.44376        2.84652       -3.25274
|  9> O         -1.97092        1.58304       -2.15123
| 10> H          0.68084        2.52514       -4.93310
| 11> H          0.35823        1.42282       -3.61633
| 12> H          0.40851        3.14443       -3.32208
| 13> *
| 14> %MaxCore 64000
| 15>
| 16> %pal nprocs 4
| 17> end
| 18>
| 19> %scf
| 20>   MaxIter 150
| 21> end
| 22>
| 23>
| 24>                          ****END OF INPUT****

CARTESIAN COORDINATES (ANGSTROEM)
---------------------------------
  C      0.132970    2.385870   -4.024620
  C     -1.366460    2.479110   -4.313930
  C     -2.357730    2.306860   -3.136750
  H     -1.636800    1.727090   -5.063990
  H     -1.582350    3.445610   -4.768690
  F     -3.443760    2.846520   -3.252740
  O     -1.970920    1.583040   -2.151230
  H      0.680840    2.525140   -4.933100
  H      0.358230    1.422820   -3.616330
  H      0.408510    3.144430   -3.322080

 Total Charge           Charge          ....    0
 Multiplicity           Mult            ....    1
 Number of Electrons    NEL             ....   40
 Basis Dimension        Dim             ....  236

ORBITAL ENERGIES
----------------

  NO   OCC          E(Eh)            E(eV)
   0   2.0000     -25.330228      -689.2705
   1   2.0000     -19.631183      -534.1916
   2   2.0000     -10.725318      -291.8507
   3   2.0000     -10.569314      -287.6056
   4   2.0000     -10.535539      -286.6866
   5   2.0000      -1.495010       -40.6813
   6   2.0000      -1.139090       -30.9962
   7   2.0000      -0.896794       -24.4030
   8   2.0000      -0.800070       -21.7710
   9   2.0000      -0.739061       -20.1109
  10   2.0000      -0.662877       -18.0378
  11   2.0000      -0.645751       -17.5718
  12   2.0000      -0.591652       -16.0997
  13   2.0000      -0.538940       -14.6653
  14   2.0000      -0.505232       -13.7481
  15   2.0000      -0.458224       -12.4689
  16   2.0000      -0.442405       -12.0385
  17   2.0000      -0.438241       -11.9252
  18   2.0000      -0.409833       -11.1521
  19   2.0000      -0.365360        -9.9420
  20   0.0000       0.005443         0.1481
  21   0.0000       0.018419         0.5012
  22   0.0000       0.032728         0.8906
  23   0.0000       0.041910         1.1404
  24   0.0000       0.054059         1.4710

MULLIKEN ATOMIC CHARGES
-----------------------
   0 C :   -1.084768
   1 C :   -0.443755
   2 C :    0.779713
   3 H :    0.318316
   4 H :    0.336138
   5 F :   -0.237371
   6 O :   -0.603813
   7 H :    0.333761
   8 H :    0.287702
   9 H :    0.314077
Sum of atomic charges:   -0.0000000

LOEWDIN ATOMIC CHARGES
----------------------
   0 C :   -0.093356
   1 C :   -0.157904
   2 C :   -0.482787
   3 H :    0.122987
   4 H :    0.108964
   5 F :    0.239128
   6 O :    0.047281
   7 H :    0.068966
   8 H :    0.071878
   9 H :    0.074843

  Mayer bond orders larger than 0.100000
B(  0-C ,  1-C ) :   0.5581 B(  0-C ,  7-H ) :   0.9457 B(  0-C ,  8-H ) :   1.0036
B(  0-C ,  9-H ) :   0.9584 B(  1-C ,  2-C ) :   0.9236 B(  1-C ,  3-H ) :   0.9308
B(  1-C ,  4-H ) :   0.9250 B(  2-C ,  5-F ) :   0.9378 B(  2-C ,  6-O ) :   1.6218

Dispersion correction           -0.000090785
FINAL SINGLE POINT ENERGY      -292.381931925477

DIPOLE MOMENT
-------------
                                X             Y             Z
Electronic contribution:     -8.35428       0.48077       3.55668
Nuclear contribution   :      8.54799       0.05434      -4.66633
                        -----------------------------------------
Total Dipole Moment    :      0.19371       0.53511      -1.10965
                        -----------------------------------------
Magnitude (a.u.)       :      1.24707
Magnitude (Debye)      :      3.16980

Rotational constants in cm-1:     0.325803     0.123345     0.094275
Rotational constants in MHz :  9767.324172  3697.779805  2826.305733

                             ****ORCA TERMINATED NORMALLY****
TOTAL RUN TIME: 0 days 0 hours 0 minutes 33 seconds 868 msec
