                         Program Version 5.0.0 -  RELEASE  -
|  1> !M062X D3Zero RIJCOSX def2-TZVPD def2/J TightSCF
|  2> *xyz 0 1
|  3> C          0.64866        1.00359       -3.64560
|  4> C          0.28128        0.67645       -2.24018
|  5> C          0.13297        2.38587       -4.02462
|  6> H          0.39079       -0.31925       -2.02649
|  7> H         -0.69269        0.99010       -2.13812
|  8> H          0.85421        1.21221       -1.57528
|  9> H          0.19099        0.23965       -4.27575
| 10> H          1.73157        0.93173       -3.75075
| 11> H          0.40589        2.60338       -5.03610
| 12> H          0.56342        3.11797       -3.37374
| 13> H         -0.93265        2.40724       -3.93025
| 14> *
| 15> %MaxCore 64000
| 16>
| 17> %pal nprocs 4
| 18> end
| 19>
| 20> %scf
| 21>   MaxIter 150
| 22> end
| 23>
| 24>
| 25>                          ****END OF INPUT****

CARTESIAN COORDINATES (ANGSTROEM)
---------------------------------
  C      0.648660    1.003590   -3.645600
  C      0.281280    0.676450   -2.240180
  C      0.132970    2.385870   -4.024620
  H      0.390790   -0.319250   -2.026490
  H     -0.692690    0.990100   -2.138120
  H      0.854210    1.212210   -1.575280
  H      0.190990    0.239650   -4.275750
  H      1.731570    0.931730   -3.750750
  H      0.405890    2.603380   -5.036100
  H      0.563420    3.117970   -3.373740
  H     -0.932650    2.407240   -3.930250

 Total Charge           Charge          ....    0
 Multiplicity           Mult            ....    1
 Number of Electrons    NEL             ....   26
 Basis Dimension        Dim             ....  183

ORBITAL ENERGIES
----------------

  NO   OCC          E(Eh)            E(eV)
   0   2.0000     -10.518936      -286.2348
   1   2.0000     -10.510881      -286.0156
   2   2.0000     -10.491943      -285.5003
   3   2.0000      -0.892019       -24.2731
   4   2.0000      -0.780878       -21.2488
   5   2.0000      -0.668976       -18.2038
   6   2.0000      -0.539049       -14.6683
   7   2.0000      -0.518822       -14.1179
   8   2.0000      -0.467813       -12.7298
   9   2.0000      -0.451756       -12.2929
  10   2.0000      -0.397025       -10.8036
  11   2.0000      -0.393790       -10.7156
  12   2.0000      -0.387693       -10.5497
  13   0.0000       0.024719         0.6726
  14   0.0000       0.043910         1.1948
  15   0.0000       0.046535         1.2663
  16   0.0000       0.074292         2.0216
  17   0.0000       0.094012         2.5582

MULLIKEN ATOMIC CHARGES
-----------------------
   0 C :   -0.112591
   1 C :   -1.270941
   2 C :   -1.177321
   3 H :    0.323582
   4 H :    0.345918
   5 H :    0.352172
   6 H :    0.298184
   7 H :    0.289713
   8 H :    0.297873
   9 H :    0.320007
  10 H :    0.333403
Sum of atomic charges:   -0.0000000

LOEWDIN ATOMIC CHARGES
----------------------
   0 C :   -0.322613
   1 C :   -0.128052
   2 C :   -0.120520
   3 H :    0.051625
   4 H :    0.053839
   5 H :    0.057452
   6 H :    0.104655
   7 H :    0.104514
   8 H :    0.061978
   9 H :    0.069667
  10 H :    0.067456

  Mayer bond orders larger than 0.100000
B(  0-C ,  1-C ) :   0.4216 B(  0-C ,  2-C ) :   0.5098 B(  0-C ,  6-H ) :   0.9594
B(  0-C ,  7-H ) :   0.9398 B(  1-C ,  2-C ) :   0.1382 B(  1-C ,  3-H ) :   0.9633
B(  1-C ,  4-H ) :   0.9375 B(  1-C ,  5-H ) :   0.9724 B(  2-C ,  8-H ) :   0.9955
B(  2-C ,  9-H ) :   0.9707 B(  2-C , 10-H ) :   0.9672

Dispersion correction           -0.000049624
FINAL SINGLE POINT ENERGY      -119.098917983475

DIPOLE MOMENT
-------------
                                X             Y             Z
Electronic contribution:      0.25964      -0.27967      -0.24611
Nuclear contribution   :     -0.24754       0.26111       0.24628
                        -----------------------------------------
Total Dipole Moment    :      0.01210      -0.01856       0.00017
                        -----------------------------------------
Magnitude (a.u.)       :      0.02215
Magnitude (Debye)      :      0.05631

Rotational constants in cm-1:     1.006509     0.299509     0.263145
Rotational constants in MHz : 30174.379724  8979.049324  7888.875355

                             ****ORCA TERMINATED NORMALLY****
TOTAL RUN TIME: 0 days 0 hours 0 minutes 22 seconds 330 msec
