                         Program Version 5.0.0 -  RELEASE  -
|  1> !M062X D3Zero RIJCOSX def2-TZVPD def2/J TightSCF
|  2> *xyz 0 1
|  3> C          0.13297        2.38587       -4.02462
|  4> C         -1.36646        2.47911       -4.31393
|  5> C         -2.35773        2.30686       -3.13675
|  6> H         -1.63680        1.72709       -5.06399
|  7> H         -1.58235        3.44561       -4.76869
|  8> O         -3.44376        2.84652       -3.25274
|  9> F         -1.97092        1.58304       -2.15123
| 10> H          0.68084        2.52514       -4.93310
| 11> H          0.35823        1.42282       -3.61633
| 12> H          0.40851        3.14443       -3.32208
| 13> *
| 14> %MaxCore 64000
| 15>
| 16> %pal nprocs 4
| 17> end
| 18>
| 19> %scf
| 20>   MaxIter 150
| 21> end
| 22>
| 23>
| 24>                          ****END OF INPUT****

CARTESIAN COORDINATES (ANGSTROEM)
---------------------------------
  C      0.132970    2.385870   -4.024620
  C     -1.366460    2.479110   -4.313930
  C     -2.357730    2.306860   -3.136750
  H     -1.636800    1.727090   -5.063990
  H     -1.582350    3.445610   -4.768690
  O     -3.443760    2.846520   -3.252740
  F     -1.970920    1.583040   -2.151230
  H      0.680840    2.525140   -4.933100
  H      0.358230    1.422820   -3.616330
  H      0.408510    3.144430   -3.322080

 Total Charge           Charge          ....    0
 Multiplicity           Mult            ....    1
 Number of Electrons    NEL             ....   40
 Basis Dimension        Dim             ....  236

ORBITAL ENERGIES
----------------

  NO   OCC          E(Eh)            E(eV)
   0   2.0000     -25.306792      -688.6328
   1   2.0000     -19.639787      -534.4258
   2   2.0000     -10.719076      -291.6809
   3   2.0000     -10.567681      -287.5612
   4   2.0000     -10.540225      -286.8141
   5   2.0000      -1.446072       -39.3496
   6   2.0000      -1.181143       -32.1405
   7   2.0000      -0.898696       -24.4548
   8   2.0000      -0.777438       -21.1552
   9   2.0000      -0.730962       -19.8905
  10   2.0000      -0.634782       -17.2733
  11   2.0000      -0.630561       -17.1584
  12   2.0000      -0.584868       -15.9151
  13   2.0000      -0.540016       -14.6946
  14   2.0000      -0.509033       -13.8515
  15   2.0000      -0.479219       -13.0402
  16   2.0000      -0.461838       -12.5673
  17   2.0000      -0.440193       -11.9783
  18   2.0000      -0.421125       -11.4594
  19   2.0000      -0.373238       -10.1563
  20   0.0000       0.005722         0.1557
  21   0.0000       0.022301         0.6068
  22   0.0000       0.034613         0.9419
  23   0.0000       0.039256         1.0682
  24   0.0000       0.053505         1.4559

MULLIKEN ATOMIC CHARGES
-----------------------
   0 C :   -1.100254
   1 C :   -0.373864
   2 C :    0.702984
   3 H :    0.309261
   4 H :    0.299354
   5 O :   -0.547111
   6 F :   -0.250980
   7 H :    0.321553
   8 H :    0.307503
   9 H :    0.331554
Sum of atomic charges:    0.0000000

LOEWDIN ATOMIC CHARGES
----------------------
   0 C :   -0.100642
   1 C :   -0.149805
   2 C :   -0.474005
   3 H :    0.123495
   4 H :    0.116532
   5 O :    0.106286
   6 F :    0.167889
   7 H :    0.068992
   8 H :    0.068477
   9 H :    0.072782

  Mayer bond orders larger than 0.100000
B(  0-C ,  1-C ) :   0.4907 B(  0-C ,  7-H ) :   0.9735 B(  0-C ,  8-H ) :   0.9781
B(  0-C ,  9-H ) :   0.9551 B(  1-C ,  2-C ) :   0.9209 B(  1-C ,  3-H ) :   0.9357
B(  1-C ,  4-H ) :   0.9594 B(  2-C ,  5-O ) :   1.6783 B(  2-C ,  6-F ) :   0.9201

Dispersion correction           -0.000098456
FINAL SINGLE POINT ENERGY      -292.399684128300

DIPOLE MOMENT
-------------
                                X             Y             Z
Electronic contribution:     -5.88072      -1.62218       5.37756
Nuclear contribution   :      6.94213       1.43193      -5.86732
                        -----------------------------------------
Total Dipole Moment    :      1.06141      -0.19025      -0.48975
                        -----------------------------------------
Magnitude (a.u.)       :      1.18433
Magnitude (Debye)      :      3.01033

Rotational constants in cm-1:     0.306336     0.129048     0.095707
Rotational constants in MHz :  9183.725605  3868.769583  2869.236577

                             ****ORCA TERMINATED NORMALLY****
TOTAL RUN TIME: 0 days 0 hours 0 minutes 33 seconds 874 msec
