                         Program Version 5.0.0 -  RELEASE  -
|  1> !M062X D3Zero RIJCOSX def2-TZVPD def2/J TightSCF xyzfile
|  2>
|  3> *xyzfile 0 1 D1.xyz
|  4>
|  5> %MaxCore 64000
|  6>
|  7> %pal nprocs 4
|  8> end
|  9>
| 10> %scf
| 11>   MaxIter 150
| 12> end
| 13>
| 14>
| 15>                          ****END OF INPUT****

CARTESIAN COORDINATES (ANGSTROEM)
---------------------------------
  C      0.648656    1.003595   -3.645601
  C      0.281280    0.676454   -2.240179
  C      0.132968    2.385869   -4.024618
  C     -1.366462    2.479106   -4.313932
  C     -2.357732    2.306858   -3.136753
  H     -1.636802    1.727095   -5.063993
  H     -1.582347    3.445605   -4.768687
  H      0.390790   -0.319253   -2.026495
  H     -0.692686    0.990104   -2.138123
  H      0.854206    1.212214   -1.575279
  F     -3.443763    2.846518   -3.252744
  O     -1.970922    1.583042   -2.151229
  H      0.190993    0.239655   -4.275752
  H      1.731572    0.931729   -3.750751
  H      0.414839    3.102847   -3.245165
  H      0.683167    2.687560   -4.919721

 Total Charge           Charge          ....    0
 Multiplicity           Mult            ....    1
 Number of Electrons    NEL             ....   56
 Basis Dimension        Dim             ....  346

ORBITAL ENERGIES
----------------

  NO   OCC          E(Eh)            E(eV)
   0   2.0000     -25.341082      -689.5659
   1   2.0000     -19.639177      -534.4092
   2   2.0000     -10.740730      -292.2701
   3   2.0000     -10.574431      -287.7449
   4   2.0000     -10.543283      -286.8973
   5   2.0000     -10.513933      -286.0987
   6   2.0000     -10.441877      -284.1379
   7   2.0000      -1.505698       -40.9721
   8   2.0000      -1.164057       -31.6756
   9   2.0000      -0.916951       -24.9515
  10   2.0000      -0.857654       -23.3379
  11   2.0000      -0.790523       -21.5112
  12   2.0000      -0.751433       -20.4475
  13   2.0000      -0.675218       -18.3736
  14   2.0000      -0.664669       -18.0866
  15   2.0000      -0.655389       -17.8340
  16   2.0000      -0.608742       -16.5647
  17   2.0000      -0.557819       -15.1790
  18   2.0000      -0.525895       -14.3103
  19   2.0000      -0.504571       -13.7301
  20   2.0000      -0.481824       -13.1111
  21   2.0000      -0.451543       -12.2871
  22   2.0000      -0.443912       -12.0795
  23   2.0000      -0.421965       -11.4823
  24   2.0000      -0.408912       -11.1271
  25   2.0000      -0.381183       -10.3725
  26   2.0000      -0.371742       -10.1156
  27   2.0000      -0.313864        -8.5407
  28   0.0000      -0.001630        -0.0444
  29   0.0000       0.010120         0.2754
  30   0.0000       0.030041         0.8175
  31   0.0000       0.034212         0.9310
  32   0.0000       0.040151         1.0926

MULLIKEN ATOMIC CHARGES
-----------------------
   0 C :   -0.353509
   1 C :   -1.146877
   2 C :   -0.578338
   3 C :   -0.735779
   4 C :    0.862861
   5 H :    0.332178
   6 H :    0.339544
   7 H :    0.353241
   8 H :    0.297913
   9 H :    0.378313
  10 F :   -0.297533
  11 O :   -0.667557
  12 H :    0.284739
  13 H :    0.286066
  14 H :    0.318508
  15 H :    0.326229
Sum of atomic charges:   -0.0000000

LOEWDIN ATOMIC CHARGES
----------------------
   0 C :   -0.255298
   1 C :   -0.122646
   2 C :   -0.204656
   3 C :   -0.088206
   4 C :   -0.413949
   5 H :    0.132761
   6 H :    0.115074
   7 H :    0.057656
   8 H :   -0.052007
   9 H :    0.064457
  10 F :    0.255024
  11 O :    0.054697
  12 H :    0.113194
  13 H :    0.106518
  14 H :    0.126178
  15 H :    0.111203

  Mayer bond orders larger than 0.100000
B(  0-C ,  1-C ) :   0.4002 B(  0-C ,  2-C ) :   0.6578 B(  0-C ,  8-H ) :  -0.1075
B(  0-C ,  9-H ) :  -0.1077 B(  0-C , 12-H ) :   0.9942 B(  0-C , 13-H ) :   0.9701
B(  1-C ,  7-H ) :   1.0757 B(  1-C ,  8-H ) :   0.9606 B(  1-C ,  9-H ) :   1.1393
B(  2-C ,  3-C ) :   0.7113 B(  2-C , 14-H ) :   0.9525 B(  2-C , 15-H ) :   0.9658
B(  3-C ,  4-C ) :   0.9198 B(  3-C ,  5-H ) :   0.9598 B(  3-C ,  6-H ) :   0.9481
B(  4-C , 10-F ) :   0.8667 B(  4-C , 11-O ) :   1.6291 B(  8-H , 11-O ) :  -0.3364

Dispersion correction           -0.000311909
FINAL SINGLE POINT ENERGY      -370.938506195868

DIPOLE MOMENT
-------------
                                X             Y             Z
Electronic contribution:    -12.98466       4.58539       1.40669
Nuclear contribution   :     12.79331      -3.91961      -2.45895
                        -----------------------------------------
Total Dipole Moment    :     -0.19135       0.66578      -1.05225
                        -----------------------------------------
Magnitude (a.u.)       :      1.25981
Magnitude (Debye)      :      3.20218

Rotational constants in cm-1:     0.162888     0.059977     0.046450
Rotational constants in MHz :  4883.250030  1798.063289  1392.548669

                             ****ORCA TERMINATED NORMALLY****
TOTAL RUN TIME: 0 days 0 hours 1 minutes 16 seconds 907 msec
