                         Program Version 5.0.0 -  RELEASE  -
|  1> !M062X D3Zero RIJCOSX def2-TZVPD def2/J TightSCF xyzfile
|  2>
|  3> *xyzfile 0 1 D2.xyz
|  4>
|  5> %MaxCore 64000
|  6>
|  7> %pal nprocs 4
|  8> end
|  9>
| 10> %scf
| 11>   MaxIter 150
| 12> end
| 13>
| 14>
| 15>                          ****END OF INPUT****

CARTESIAN COORDINATES (ANGSTROEM)
---------------------------------
  C      0.648656    1.003595   -3.645601
  C      0.281280    0.676454   -2.240179
  C      0.132968    2.385869   -4.024618
  C     -1.366462    2.479106   -4.313932
  C     -2.357732    2.306858   -3.136753
  H     -1.636802    1.727095   -5.063993
  H     -1.582347    3.445605   -4.768687
  H      0.390790   -0.319253   -2.026495
  H     -0.692686    0.990104   -2.138123
  H      0.854206    1.212214   -1.575279
  O     -3.443763    2.846518   -3.252744
  F     -1.970922    1.583042   -2.151229
  H      0.190993    0.239655   -4.275752
  H      1.731572    0.931729   -3.750751
  H      0.414839    3.102847   -3.245165
  H      0.683167    2.687560   -4.919721

 Total Charge           Charge          ....    0
 Multiplicity           Mult            ....    1
 Number of Electrons    NEL             ....   56
 Basis Dimension        Dim             ....  346

ORBITAL ENERGIES
----------------

  NO   OCC          E(Eh)            E(eV)
   0   2.0000     -25.317768      -688.9315
   1   2.0000     -19.646995      -534.6219
   2   2.0000     -10.726609      -291.8859
   3   2.0000     -10.570366      -287.6343
   4   2.0000     -10.546866      -286.9948
   5   2.0000     -10.527578      -286.4699
   6   2.0000     -10.474222      -285.0181
   7   2.0000      -1.468903       -39.9709
   8   2.0000      -1.188882       -32.3511
   9   2.0000      -0.925214       -25.1763
  10   2.0000      -0.862791       -23.4777
  11   2.0000      -0.776715       -21.1355
  12   2.0000      -0.769323       -20.9344
  13   2.0000      -0.670827       -18.2541
  14   2.0000      -0.657212       -17.8836
  15   2.0000      -0.646531       -17.5930
  16   2.0000      -0.593521       -16.1505
  17   2.0000      -0.547376       -14.8949
  18   2.0000      -0.527807       -14.3624
  19   2.0000      -0.518666       -14.1136
  20   2.0000      -0.493441       -13.4272
  21   2.0000      -0.460912       -12.5421
  22   2.0000      -0.452871       -12.3233
  23   2.0000      -0.431423       -11.7396
  24   2.0000      -0.402052       -10.9404
  25   2.0000      -0.395231       -10.7548
  26   2.0000      -0.387923       -10.5559
  27   2.0000      -0.361845        -9.8463
  28   0.0000       0.006389         0.1738
  29   0.0000       0.016526         0.4497
  30   0.0000       0.030306         0.8247
  31   0.0000       0.032158         0.8751
  32   0.0000       0.034213         0.9310

MULLIKEN ATOMIC CHARGES
-----------------------
   0 C :   -0.314000
   1 C :   -1.294330
   2 C :   -0.577838
   3 C :   -0.640545
   4 C :    0.769919
   5 H :    0.305321
   6 H :    0.295747
   7 H :    0.369495
   8 H :    0.389050
   9 H :    0.396877
  10 O :   -0.593793
  11 F :   -0.343801
  12 H :    0.294114
  13 H :    0.293082
  14 H :    0.320658
  15 H :    0.330044
Sum of atomic charges:    0.0000000

LOEWDIN ATOMIC CHARGES
----------------------
   0 C :   -0.255494
   1 C :   -0.103413
   2 C :   -0.212093
   3 C :   -0.086868
   4 C :   -0.437536
   5 H :    0.132407
   6 H :    0.122177
   7 H :    0.060794
   8 H :   -0.010604
   9 H :    0.067245
  10 O :    0.120691
  11 F :    0.143565
  12 H :    0.114190
  13 H :    0.108940
  14 H :    0.124366
  15 H :    0.111630

  Mayer bond orders larger than 0.100000
B(  0-C ,  1-C ) :   0.3792 B(  0-C ,  2-C ) :   0.5991 B(  0-C ,  8-H ) :  -0.1061
B(  0-C ,  9-H ) :  -0.1061 B(  0-C , 12-H ) :   0.9996 B(  0-C , 13-H ) :   0.9646
B(  1-C ,  2-C ) :   0.1158 B(  1-C ,  7-H ) :   1.0088 B(  1-C ,  8-H ) :   0.8638
B(  1-C ,  9-H ) :   1.0594 B(  1-C , 11-F ) :   0.1298 B(  2-C ,  3-C ) :   0.6426
B(  2-C , 14-H ) :   0.9744 B(  2-C , 15-H ) :   0.9662 B(  3-C ,  4-C ) :   0.9078
B(  3-C ,  5-H ) :   0.9710 B(  3-C ,  6-H ) :   1.0048 B(  4-C , 10-O ) :   1.6213
B(  4-C , 11-F ) :   0.8916 B(  8-H , 11-F ) :  -0.2697

Dispersion correction           -0.000327543
FINAL SINGLE POINT ENERGY      -370.958006064607

DIPOLE MOMENT
-------------
                                X             Y             Z
Electronic contribution:    -10.25705       2.33632       3.29099
Nuclear contribution   :     11.08738      -2.45618      -3.73478
                        -----------------------------------------
Total Dipole Moment    :      0.83033      -0.11987      -0.44380
                        -----------------------------------------
Magnitude (a.u.)       :      0.94909
Magnitude (Debye)      :      2.41240

Rotational constants in cm-1:     0.156244     0.063730     0.048063
Rotational constants in MHz :  4684.071402  1910.571278  1440.877811

                             ****ORCA TERMINATED NORMALLY****
TOTAL RUN TIME: 0 days 0 hours 1 minutes 23 seconds 762 msec
