                         Program Version 5.0.0 -  RELEASE  -
|  1> !wB97X-D3 RIJCOSX def2-SVP def2/J TightSCF
|  2> *xyz -1 1
|  3> C         -0.71189        0.84252       -4.21834
|  4> C         -0.39762       -0.20587       -5.28802
|  5> O          0.61717       -0.00535       -5.99827
|  6> O         -1.13317       -1.22138       -5.34147
|  7> H         -0.00939        1.64646       -4.28960
|  8> H         -0.64409        0.39449       -3.24902
|  9> H         -1.70192        1.21961       -4.36851
| 10> *
| 11>
| 12> %MaxCore 64000
| 13>
| 14> %pal nprocs 18
| 15> end
| 16>
| 17> %scf
| 18>   MaxIter 150
| 19> end
| 20>
| 21>
| 22>                          ****END OF INPUT****

CARTESIAN COORDINATES (ANGSTROEM)
---------------------------------
  C     -0.711890    0.842520   -4.218340
  C     -0.397620   -0.205870   -5.288020
  O      0.617170   -0.005350   -5.998270
  O     -1.133170   -1.221380   -5.341470
  H     -0.009390    1.646460   -4.289600
  H     -0.644090    0.394490   -3.249020
  H     -1.701920    1.219610   -4.368510

 Total Charge           Charge          ....   -1
 Multiplicity           Mult            ....    1
 Number of Electrons    NEL             ....   32
 Basis Dimension        Dim             ....   71

ORBITAL ENERGIES
----------------

  NO   OCC          E(Eh)            E(eV)
   0   2.0000     -18.930887      -515.1356
   1   2.0000     -18.929402      -515.0952
   2   2.0000     -10.138741      -275.8892
   3   2.0000     -10.083606      -274.3889
   4   2.0000      -0.885166       -24.0866
   5   2.0000      -0.788311       -21.4510
   6   2.0000      -0.633793       -17.2464
   7   2.0000      -0.378661       -10.3039
   8   2.0000      -0.342544        -9.3211
   9   2.0000      -0.326539        -8.8856
  10   2.0000      -0.290351        -7.9009
  11   2.0000      -0.247363        -6.7311
  12   2.0000      -0.233397        -6.3511
  13   2.0000      -0.098887        -2.6909
  14   2.0000      -0.098675        -2.6851
  15   2.0000      -0.082022        -2.2319
  16   0.0000       0.330488         8.9930
  17   0.0000       0.358576         9.7573
  18   0.0000       0.393992        10.7211
  19   0.0000       0.425830        11.5874
  20   0.0000       0.517052        14.0697

MULLIKEN ATOMIC CHARGES
-----------------------
   0 C :   -0.015187
   1 C :    0.028268
   2 O :   -0.459116
   3 O :   -0.469125
   4 H :   -0.038127
   5 H :   -0.020884
   6 H :   -0.025829
Sum of atomic charges:   -1.0000000

LOEWDIN ATOMIC CHARGES
----------------------
   0 C :   -0.125397
   1 C :   -0.047060
   2 O :   -0.412872
   3 O :   -0.420173
   4 H :   -0.003660
   5 H :    0.005718
   6 H :    0.003444

  Mayer bond orders larger than 0.100000
B(  0-C ,  1-C ) :   0.9401 B(  0-C ,  4-H ) :   0.9655 B(  0-C ,  5-H ) :   0.9675
B(  0-C ,  6-H ) :   0.9652 B(  1-C ,  2-O ) :   1.8567 B(  1-C ,  3-O ) :   1.8357
B(  2-O ,  3-O ) :   0.1091

Dispersion correction           -0.000904839
FINAL SINGLE POINT ENERGY      -228.264433948606

DIPOLE MOMENT
-------------
                                X             Y             Z
Electronic contribution:      0.77443      -2.58199      -2.60399
Nuclear contribution   :     -1.06347       3.45957       3.47855
                        -----------------------------------------
Total Dipole Moment    :     -0.28904       0.87759       0.87456
                        -----------------------------------------
Magnitude (a.u.)       :      1.27223
Magnitude (Debye)      :      3.23375

Rotational constants in cm-1:     0.393276     0.333956     0.186777
Rotational constants in MHz : 11790.103634 10011.747201  5599.422324

                             ****ORCA TERMINATED NORMALLY****
TOTAL RUN TIME: 0 days 0 hours 0 minutes 3 seconds 796 msec
