                         Program Version 5.0.0 -  RELEASE  -
|  1> !wB97X-D3 RIJCOSX def2-SVP def2/J TightSCF
|  2> *xyz 1 1
|  3> C          2.23447       -2.98975       -2.39762
|  4> N          2.75680       -2.94555       -3.76503
|  5> C          1.98721       -2.59045       -4.81898
|  6> N          0.74322       -3.01749       -4.91352
|  7> N          2.49964       -1.84860       -5.80324
|  8> H          3.30978       -1.29282       -5.55895
|  9> H          1.80103       -1.30430       -6.28913
| 10> H          3.71612       -2.62880       -3.82953
| 11> H          0.39583       -3.62775       -4.18502
| 12> H          0.03920       -2.45438       -5.37137
| 13> H          1.22098       -3.33251       -2.41386
| 14> H          2.27280       -2.00995       -1.96933
| 15> H          2.82798       -3.65908       -1.81056
| 16> *
| 17>
| 18> %MaxCore 64000
| 19>
| 20> %pal nprocs 18
| 21> end
| 22>
| 23> %scf
| 24>   MaxIter 150
| 25> end
| 26>
| 27>
| 28>                          ****END OF INPUT****

CARTESIAN COORDINATES (ANGSTROEM)
---------------------------------
  C      2.234470   -2.989750   -2.397620
  N      2.756800   -2.945550   -3.765030
  C      1.987210   -2.590450   -4.818980
  N      0.743220   -3.017490   -4.913520
  N      2.499640   -1.848600   -5.803240
  H      3.309780   -1.292820   -5.558950
  H      1.801030   -1.304300   -6.289130
  H      3.716120   -2.628800   -3.829530
  H      0.395830   -3.627750   -4.185020
  H      0.039200   -2.454380   -5.371370
  H      1.220980   -3.332510   -2.413860
  H      2.272800   -2.009950   -1.969330
  H      2.827980   -3.659080   -1.810560

 Total Charge           Charge          ....    1
 Multiplicity           Mult            ....    1
 Number of Electrons    NEL             ....   40
 Basis Dimension        Dim             ....  110

ORBITAL ENERGIES
----------------

  NO   OCC          E(Eh)            E(eV)
   0   2.0000     -14.670402      -399.2019
   1   2.0000     -14.665705      -399.0741
   2   2.0000     -14.664404      -399.0387
   3   2.0000     -10.636058      -289.4219
   4   2.0000     -10.497229      -285.6441
   5   2.0000      -1.336954       -36.3804
   6   2.0000      -1.219042       -33.1718
   7   2.0000      -1.214243       -33.0412
   8   2.0000      -1.013096       -27.5677
   9   2.0000      -0.938730       -25.5441
  10   2.0000      -0.894810       -24.3490
  11   2.0000      -0.857773       -23.3412
  12   2.0000      -0.806859       -21.9557
  13   2.0000      -0.789843       -21.4927
  14   2.0000      -0.748774       -20.3752
  15   2.0000      -0.742095       -20.1934
  16   2.0000      -0.695775       -18.9330
  17   2.0000      -0.680152       -18.5079
  18   2.0000      -0.586590       -15.9619
  19   2.0000      -0.551786       -15.0149
  20   0.0000      -0.109407        -2.9771
  21   0.0000      -0.054242        -1.4760
  22   0.0000      -0.018266        -0.4970
  23   0.0000      -0.006132        -0.1668
  24   0.0000       0.014636         0.3983

MULLIKEN ATOMIC CHARGES
-----------------------
   0 C :    0.074359
   1 N :   -0.206111
   2 C :    0.088746
   3 N :   -0.058322
   4 N :   -0.042236
   5 H :    0.176191
   6 H :    0.177583
   7 H :    0.175740
   8 H :    0.183555
   9 H :    0.189688
  10 H :    0.054625
  11 H :    0.083905
  12 H :    0.102278
Sum of atomic charges:    1.0000000

LOEWDIN ATOMIC CHARGES
----------------------
   0 C :    0.058509
   1 N :   -0.001795
   2 C :    0.159320
   3 N :    0.059114
   4 N :    0.044553
   5 H :    0.109507
   6 H :    0.111784
   7 H :    0.105302
   8 H :    0.111564
   9 H :    0.116578
  10 H :    0.032379
  11 H :    0.040450
  12 H :    0.052734

  Mayer bond orders larger than 0.100000
B(  0-C ,  1-N ) :   0.9294 B(  0-C , 10-H ) :   0.9771 B(  0-C , 11-H ) :   0.9765
B(  0-C , 12-H ) :   0.9715 B(  1-N ,  2-C ) :   1.3535 B(  1-N ,  7-H ) :   0.9137
B(  2-C ,  3-N ) :   1.4163 B(  2-C ,  4-N ) :   1.3814 B(  3-N ,  8-H ) :   0.9237
B(  3-N ,  9-H ) :   0.9242 B(  4-N ,  5-H ) :   0.9269 B(  4-N ,  6-H ) :   0.9277

Dispersion correction           -0.002421492
FINAL SINGLE POINT ENERGY      -244.824834591359

DIPOLE MOMENT
-------------
                                X             Y             Z
Electronic contribution:      0.23827       0.01047      -3.02815
Nuclear contribution   :     -0.61773       0.88991       3.03801
                        -----------------------------------------
Total Dipole Moment    :     -0.37945       0.90039       0.00986
                        -----------------------------------------
Magnitude (a.u.)       :      0.97713
Magnitude (Debye)      :      2.48366

Rotational constants in cm-1:     0.302561     0.133407     0.098295
Rotational constants in MHz :  9070.558660  3999.431512  2946.819102

                             ****ORCA TERMINATED NORMALLY****
TOTAL RUN TIME: 0 days 0 hours 0 minutes 5 seconds 719 msec
