                         Program Version 5.0.0 -  RELEASE  -
|  1> !wB97X-D3 RIJCOSX def2-SVP def2/J TightSCF
|  2> *xyz 0 1
|  3> C         -0.71189        0.84252       -4.21834
|  4> C         -0.39762       -0.20587       -5.28802
|  5> F          0.61717       -0.00535       -5.99827
|  6> O         -1.13317       -1.22138       -5.34147
|  7> H         -0.00939        1.64646       -4.28960
|  8> H         -0.64409        0.39449       -3.24902
|  9> H         -1.70192        1.21961       -4.36851
| 10> *
| 11>
| 12> %MaxCore 64000
| 13>
| 14> %pal nprocs 18
| 15> end
| 16>
| 17> %scf
| 18>   MaxIter 150
| 19> end
| 20>
| 21>
| 22>                          ****END OF INPUT****

CARTESIAN COORDINATES (ANGSTROEM)
---------------------------------
  C     -0.711890    0.842520   -4.218340
  C     -0.397620   -0.205870   -5.288020
  F      0.617170   -0.005350   -5.998270
  O     -1.133170   -1.221380   -5.341470
  H     -0.009390    1.646460   -4.289600
  H     -0.644090    0.394490   -3.249020
  H     -1.701920    1.219610   -4.368510

 Total Charge           Charge          ....    0
 Multiplicity           Mult            ....    1
 Number of Electrons    NEL             ....   32
 Basis Dimension        Dim             ....   71

ORBITAL ENERGIES
----------------

  NO   OCC          E(Eh)            E(eV)
   0   2.0000     -24.859174      -676.4525
   1   2.0000     -19.240338      -523.5562
   2   2.0000     -10.466790      -284.8158
   3   2.0000     -10.312598      -280.6201
   4   2.0000      -1.415658       -38.5220
   5   2.0000      -1.132591       -30.8194
   6   2.0000      -0.878742       -23.9118
   7   2.0000      -0.757963       -20.6252
   8   2.0000      -0.649181       -17.6651
   9   2.0000      -0.645889       -17.5755
  10   2.0000      -0.598956       -16.2984
  11   2.0000      -0.541880       -14.7453
  12   2.0000      -0.528719       -14.3872
  13   2.0000      -0.494484       -13.4556
  14   2.0000      -0.442819       -12.0497
  15   2.0000      -0.384935       -10.4746
  16   0.0000       0.065174         1.7735
  17   0.0000       0.152192         4.1414
  18   0.0000       0.204534         5.5657
  19   0.0000       0.224044         6.0966
  20   0.0000       0.267853         7.2887

MULLIKEN ATOMIC CHARGES
-----------------------
   0 C :   -0.075898
   1 C :    0.226082
   2 F :   -0.083764
   3 O :   -0.275683
   4 H :    0.044830
   5 H :    0.083395
   6 H :    0.081039
Sum of atomic charges:    0.0000000

LOEWDIN ATOMIC CHARGES
----------------------
   0 C :   -0.082260
   1 C :    0.111154
   2 F :    0.038523
   3 O :   -0.206715
   4 H :    0.031599
   5 H :    0.054369
   6 H :    0.053329

  Mayer bond orders larger than 0.100000
B(  0-C ,  1-C ) :   1.0218 B(  0-C ,  4-H ) :   0.9623 B(  0-C ,  5-H ) :   0.9609
B(  0-C ,  6-H ) :   0.9610 B(  1-C ,  2-F ) :   1.1883 B(  1-C ,  3-O ) :   2.0678

Dispersion correction           -0.000909835
FINAL SINGLE POINT ENERGY      -252.819967330037

DIPOLE MOMENT
-------------
                                X             Y             Z
Electronic contribution:      2.40007      -2.31460      -3.83333
Nuclear contribution   :     -2.12043       3.31297       4.29327
                        -----------------------------------------
Total Dipole Moment    :      0.27964       0.99837       0.45995
                        -----------------------------------------
Magnitude (a.u.)       :      1.13424
Magnitude (Debye)      :      2.88301

Rotational constants in cm-1:     0.368089     0.321934     0.177312
Rotational constants in MHz : 11035.034199  9651.332398  5315.666874

                             ****ORCA TERMINATED NORMALLY****
TOTAL RUN TIME: 0 days 0 hours 0 minutes 4 seconds 9 msec
