                         Program Version 5.0.0 -  RELEASE  -
|  1> !wB97X-D3 RIJCOSX def2-SVP def2/J TightSCF
|  2> *xyz 0 1
|  3> C          2.23447       -2.98975       -2.39762
|  4> C          2.75680       -2.94555       -3.76503
|  5> C          1.98721       -2.59045       -4.81898
|  6> N          0.74322       -3.01749       -4.91352
|  7> N          2.49964       -1.84860       -5.80324
|  8> H          3.30978       -1.29282       -5.55895
|  9> H          1.80103       -1.30430       -6.28913
| 10> H          3.71612       -2.62880       -3.82953
| 11> H          0.39583       -3.62775       -4.18502
| 12> H          0.03920       -2.45438       -5.37137
| 13> H          1.22098       -3.33251       -2.41386
| 14> H          2.27280       -2.00995       -1.96933
| 15> H          2.82798       -3.65908       -1.81056
| 16> *
| 17>
| 18> %MaxCore 64000
| 19>
| 20> %pal nprocs 18
| 21> end
| 22>
| 23> %scf
| 24>   MaxIter 150
| 25> end
| 26>
| 27>
| 28>                          ****END OF INPUT****

CARTESIAN COORDINATES (ANGSTROEM)
---------------------------------
  C      2.234470   -2.989750   -2.397620
  C      2.756800   -2.945550   -3.765030
  C      1.987210   -2.590450   -4.818980
  N      0.743220   -3.017490   -4.913520
  N      2.499640   -1.848600   -5.803240
  H      3.309780   -1.292820   -5.558950
  H      1.801030   -1.304300   -6.289130
  H      3.716120   -2.628800   -3.829530
  H      0.395830   -3.627750   -4.185020
  H      0.039200   -2.454380   -5.371370
  H      1.220980   -3.332510   -2.413860
  H      2.272800   -2.009950   -1.969330
  H      2.827980   -3.659080   -1.810560

 Total Charge           Charge          ....    0
 Multiplicity           Mult            ....    1
 Number of Electrons    NEL             ....   40
 Basis Dimension        Dim             ....  110

ORBITAL ENERGIES
----------------

  NO   OCC          E(Eh)            E(eV)
   0   2.0000     -14.434800      -392.7909
   1   2.0000     -14.429093      -392.6356
   2   2.0000     -10.330211      -281.0993
   3   2.0000     -10.251459      -278.9564
   4   2.0000     -10.204175      -277.6697
   5   2.0000      -1.073225       -29.2039
   6   2.0000      -0.978715       -26.6322
   7   2.0000      -0.854230       -23.2448
   8   2.0000      -0.754668       -20.5356
   9   2.0000      -0.685696       -18.6587
  10   2.0000      -0.639593       -17.4042
  11   2.0000      -0.601705       -16.3732
  12   2.0000      -0.562672       -15.3111
  13   2.0000      -0.531080       -14.4514
  14   2.0000      -0.495699       -13.4886
  15   2.0000      -0.468230       -12.7412
  16   2.0000      -0.448647       -12.2083
  17   2.0000      -0.426008       -11.5923
  18   2.0000      -0.362347        -9.8600
  19   2.0000      -0.235378        -6.4050
  20   0.0000       0.126110         3.4316
  21   0.0000       0.150644         4.0992
  22   0.0000       0.175721         4.7816
  23   0.0000       0.185981         5.0608
  24   0.0000       0.210859         5.7378

MULLIKEN ATOMIC CHARGES
-----------------------
   0 C :    0.043353
   1 C :   -0.195305
   2 C :   -0.061218
   3 N :   -0.100102
   4 N :   -0.092873
   5 H :    0.127323
   6 H :    0.104935
   7 H :   -0.073200
   8 H :    0.131132
   9 H :    0.112904
  10 H :   -0.025347
  11 H :    0.012004
  12 H :    0.016395
Sum of atomic charges:    0.0000000

LOEWDIN ATOMIC CHARGES
----------------------
   0 C :   -0.051219
   1 C :   -0.243064
   2 C :    0.023212
   3 N :   -0.015850
   4 N :   -0.028487
   5 H :    0.079610
   6 H :    0.064353
   7 H :   -0.013829
   8 H :    0.081754
   9 H :    0.065487
  10 H :    0.005899
  11 H :    0.013224
  12 H :    0.018911

  Mayer bond orders larger than 0.100000
B(  0-C ,  1-C ) :   1.0721 B(  0-C , 10-H ) :   0.9716 B(  0-C , 11-H ) :   0.9719
B(  0-C , 12-H ) :   0.9634 B(  1-C ,  2-C ) :   1.6780 B(  1-C ,  7-H ) :   0.9426
B(  2-C ,  3-N ) :   1.2542 B(  2-C ,  4-N ) :   1.2012 B(  3-N ,  8-H ) :   0.9485
B(  3-N ,  9-H ) :   0.9475 B(  4-N ,  5-H ) :   0.9464 B(  4-N ,  6-H ) :   0.9578

Dispersion correction           -0.002422996
FINAL SINGLE POINT ENERGY      -228.357986493530

DIPOLE MOMENT
-------------
                                X             Y             Z
Electronic contribution:     -0.39203       0.10029      -3.53749
Nuclear contribution   :     -0.47056       0.83150       3.15332
                        -----------------------------------------
Total Dipole Moment    :     -0.86259       0.93179      -0.38417
                        -----------------------------------------
Magnitude (a.u.)       :      1.32661
Magnitude (Debye)      :      3.37197

Rotational constants in cm-1:     0.307275     0.134774     0.099280
Rotational constants in MHz :  9211.860934  4040.421317  2976.324646

                             ****ORCA TERMINATED NORMALLY****
TOTAL RUN TIME: 0 days 0 hours 0 minutes 6 seconds 278 msec
