                         Program Version 5.0.0 -  RELEASE  -
|  1> !wB97X-D3 RIJCOSX def2-SVP def2/J TightSCF
|  2> *xyz 0 1
|  3> C         -0.71189        0.84252       -4.21834
|  4> C         -0.39762       -0.20587       -5.28802
|  5> O          0.61717       -0.00535       -5.99827
|  6> F         -1.13317       -1.22138       -5.34147
|  7> H         -0.00939        1.64646       -4.28960
|  8> H         -0.64409        0.39449       -3.24902
|  9> H         -1.70192        1.21961       -4.36851
| 10> *
| 11>
| 12> %MaxCore 64000
| 13>
| 14> %pal nprocs 18
| 15> end
| 16>
| 17> %scf
| 18>   MaxIter 150
| 19> end
| 20>
| 21>
| 22>                          ****END OF INPUT****

CARTESIAN COORDINATES (ANGSTROEM)
---------------------------------
  C     -0.711890    0.842520   -4.218340
  C     -0.397620   -0.205870   -5.288020
  O      0.617170   -0.005350   -5.998270
  F     -1.133170   -1.221380   -5.341470
  H     -0.009390    1.646460   -4.289600
  H     -0.644090    0.394490   -3.249020
  H     -1.701920    1.219610   -4.368510

 Total Charge           Charge          ....    0
 Multiplicity           Mult            ....    1
 Number of Electrons    NEL             ....   32
 Basis Dimension        Dim             ....   71

ORBITAL ENERGIES
----------------

  NO   OCC          E(Eh)            E(eV)
   0   2.0000     -24.860111      -676.4780
   1   2.0000     -19.240489      -523.5603
   2   2.0000     -10.466495      -284.8078
   3   2.0000     -10.312088      -280.6062
   4   2.0000      -1.416129       -38.5348
   5   2.0000      -1.133028       -30.8313
   6   2.0000      -0.878261       -23.8987
   7   2.0000      -0.758295       -20.6343
   8   2.0000      -0.650242       -17.6940
   9   2.0000      -0.645828       -17.5739
  10   2.0000      -0.598369       -16.2824
  11   2.0000      -0.541325       -14.7302
  12   2.0000      -0.529274       -14.4023
  13   2.0000      -0.494396       -13.4532
  14   2.0000      -0.445195       -12.1144
  15   2.0000      -0.383080       -10.4241
  16   0.0000       0.068749         1.8708
  17   0.0000       0.151476         4.1219
  18   0.0000       0.211356         5.7513
  19   0.0000       0.215463         5.8630
  20   0.0000       0.262825         7.1518

MULLIKEN ATOMIC CHARGES
-----------------------
   0 C :   -0.070623
   1 C :    0.224716
   2 O :   -0.271908
   3 F :   -0.084812
   4 H :    0.072763
   5 H :    0.067056
   6 H :    0.062809
Sum of atomic charges:   -0.0000000

LOEWDIN ATOMIC CHARGES
----------------------
   0 C :   -0.081175
   1 C :    0.110868
   2 O :   -0.203833
   3 F :    0.037520
   4 H :    0.048215
   5 H :    0.045339
   6 H :    0.043065

  Mayer bond orders larger than 0.100000
B(  0-C ,  1-C ) :   1.0265 B(  0-C ,  4-H ) :   0.9714 B(  0-C ,  5-H ) :   0.9566
B(  0-C ,  6-H ) :   0.9561 B(  1-C ,  2-O ) :   2.0813 B(  1-C ,  3-F ) :   1.1806

Dispersion correction           -0.000897078
FINAL SINGLE POINT ENERGY      -252.819954662887

DIPOLE MOMENT
-------------
                                X             Y             Z
Electronic contribution:     -0.41780      -4.28258      -2.78236
Nuclear contribution   :     -0.31181       4.56949       3.61460
                        -----------------------------------------
Total Dipole Moment    :     -0.72961       0.28692       0.83224
                        -----------------------------------------
Magnitude (a.u.)       :      1.14336
Magnitude (Debye)      :      2.90620

Rotational constants in cm-1:     0.370228     0.320104     0.177247
Rotational constants in MHz : 11099.151631  9596.483000  5313.726171

                             ****ORCA TERMINATED NORMALLY****
TOTAL RUN TIME: 0 days 0 hours 0 minutes 4 seconds 176 msec
