                         Program Version 5.0.0 -  RELEASE  -
|  1> !wB97X-D3 RIJCOSX def2-SVP def2/J TightSCF
|  2> *xyz 0 1
|  3> C          2.23447       -2.98975       -2.39762
|  4> N          2.75680       -2.94555       -3.76503
|  5> C          1.98721       -2.59045       -4.81898
|  6> C          0.74322       -3.01749       -4.91352
|  7> N          2.49964       -1.84860       -5.80324
|  8> H          3.30978       -1.29282       -5.55895
|  9> H          1.80103       -1.30430       -6.28913
| 10> H          3.71612       -2.62880       -3.82953
| 11> H          0.39583       -3.62775       -4.18502
| 12> H          0.03920       -2.45438       -5.37137
| 13> H          1.22098       -3.33251       -2.41386
| 14> H          2.27280       -2.00995       -1.96933
| 15> H          2.82798       -3.65908       -1.81056
| 16> *
| 17>
| 18> %MaxCore 64000
| 19>
| 20> %pal nprocs 18
| 21> end
| 22>
| 23> %scf
| 24>   MaxIter 150
| 25> end
| 26>
| 27>
| 28>                          ****END OF INPUT****

CARTESIAN COORDINATES (ANGSTROEM)
---------------------------------
  C      2.234470   -2.989750   -2.397620
  N      2.756800   -2.945550   -3.765030
  C      1.987210   -2.590450   -4.818980
  C      0.743220   -3.017490   -4.913520
  N      2.499640   -1.848600   -5.803240
  H      3.309780   -1.292820   -5.558950
  H      1.801030   -1.304300   -6.289130
  H      3.716120   -2.628800   -3.829530
  H      0.395830   -3.627750   -4.185020
  H      0.039200   -2.454380   -5.371370
  H      1.220980   -3.332510   -2.413860
  H      2.272800   -2.009950   -1.969330
  H      2.827980   -3.659080   -1.810560

 Total Charge           Charge          ....    0
 Multiplicity           Mult            ....    1
 Number of Electrons    NEL             ....   40
 Basis Dimension        Dim             ....  110

ORBITAL ENERGIES
----------------

  NO   OCC          E(Eh)            E(eV)
   0   2.0000     -14.431416      -392.6988
   1   2.0000     -14.429227      -392.6392
   2   2.0000     -10.329542      -281.0811
   3   2.0000     -10.311198      -280.5820
   4   2.0000     -10.198979      -277.5283
   5   2.0000      -1.071424       -29.1549
   6   2.0000      -0.988219       -26.8908
   7   2.0000      -0.826617       -22.4934
   8   2.0000      -0.798019       -21.7152
   9   2.0000      -0.663741       -18.0613
  10   2.0000      -0.641657       -17.4604
  11   2.0000      -0.609583       -16.5876
  12   2.0000      -0.547415       -14.8959
  13   2.0000      -0.534166       -14.5354
  14   2.0000      -0.513396       -13.9702
  15   2.0000      -0.483693       -13.1620
  16   2.0000      -0.467504       -12.7214
  17   2.0000      -0.448440       -12.2027
  18   2.0000      -0.340102        -9.2547
  19   2.0000      -0.255392        -6.9496
  20   0.0000       0.131737         3.5847
  21   0.0000       0.150389         4.0923
  22   0.0000       0.181387         4.9358
  23   0.0000       0.187457         5.1010
  24   0.0000       0.207127         5.6362

MULLIKEN ATOMIC CHARGES
-----------------------
   0 C :    0.117609
   1 N :   -0.248338
   2 C :    0.002950
   3 C :   -0.138994
   4 N :   -0.097139
   5 H :    0.097784
   6 H :    0.127773
   7 H :    0.106775
   8 H :   -0.031029
   9 H :   -0.030766
  10 H :    0.044736
  11 H :    0.016650
  12 H :    0.031990
Sum of atomic charges:   -0.0000000

LOEWDIN ATOMIC CHARGES
----------------------
   0 C :    0.041904
   1 N :   -0.060125
   2 C :    0.036557
   3 C :   -0.237947
   4 N :   -0.031459
   5 H :    0.058490
   6 H :    0.082734
   7 H :    0.061517
   8 H :   -0.006261
   9 H :   -0.005682
  10 H :    0.029822
  11 H :    0.009989
  12 H :    0.020461

  Mayer bond orders larger than 0.100000
B(  0-C ,  1-N ) :   0.9845 B(  0-C , 10-H ) :   0.9767 B(  0-C , 11-H ) :   0.9793
B(  0-C , 12-H ) :   0.9802 B(  1-N ,  2-C ) :   1.1538 B(  1-N ,  7-H ) :   0.9435
B(  2-C ,  3-C ) :   1.7691 B(  2-C ,  4-N ) :   1.2033 B(  3-C ,  8-H ) :   0.9540
B(  3-C ,  9-H ) :   0.9585 B(  4-N ,  5-H ) :   0.9508 B(  4-N ,  6-H ) :   0.9480

Dispersion correction           -0.002419930
FINAL SINGLE POINT ENERGY      -228.350741155661

DIPOLE MOMENT
-------------
                                X             Y             Z
Electronic contribution:      1.60918       0.19075      -2.35706
Nuclear contribution   :     -0.87840       0.81693       2.92070
                        -----------------------------------------
Total Dipole Moment    :      0.73078       1.00768       0.56364
                        -----------------------------------------
Magnitude (a.u.)       :      1.36644
Magnitude (Debye)      :      3.47320

Rotational constants in cm-1:     0.323282     0.134248     0.100848
Rotational constants in MHz :  9691.753357  4024.663509  3023.338831

                             ****ORCA TERMINATED NORMALLY****
TOTAL RUN TIME: 0 days 0 hours 0 minutes 7 seconds 187 msec
