                         Program Version 5.0.0 -  RELEASE  -
|  1> !wB97X-D3 RIJCOSX def2-SVP def2/J TightSCF
|  2> *xyz 0 1
|  3> C          2.23447       -2.98975       -2.39762
|  4> N          2.75680       -2.94555       -3.76503
|  5> C          1.98721       -2.59045       -4.81898
|  6> N          0.74322       -3.01749       -4.91352
|  7> C          2.49964       -1.84860       -5.80324
|  8> H          3.30978       -1.29282       -5.55895
|  9> H          1.80103       -1.30430       -6.28913
| 10> H          3.71612       -2.62880       -3.82953
| 11> H          0.39583       -3.62775       -4.18502
| 12> H          0.03920       -2.45438       -5.37137
| 13> H          1.22098       -3.33251       -2.41386
| 14> H          2.27280       -2.00995       -1.96933
| 15> H          2.82798       -3.65908       -1.81056
| 16> *
| 17>
| 18> %MaxCore 64000
| 19>
| 20> %pal nprocs 18
| 21> end
| 22>
| 23> %scf
| 24>   MaxIter 150
| 25> end
| 26>
| 27>
| 28>                          ****END OF INPUT****

CARTESIAN COORDINATES (ANGSTROEM)
---------------------------------
  C      2.234470   -2.989750   -2.397620
  N      2.756800   -2.945550   -3.765030
  C      1.987210   -2.590450   -4.818980
  N      0.743220   -3.017490   -4.913520
  C      2.499640   -1.848600   -5.803240
  H      3.309780   -1.292820   -5.558950
  H      1.801030   -1.304300   -6.289130
  H      3.716120   -2.628800   -3.829530
  H      0.395830   -3.627750   -4.185020
  H      0.039200   -2.454380   -5.371370
  H      1.220980   -3.332510   -2.413860
  H      2.272800   -2.009950   -1.969330
  H      2.827980   -3.659080   -1.810560

 Total Charge           Charge          ....    0
 Multiplicity           Mult            ....    1
 Number of Electrons    NEL             ....   40
 Basis Dimension        Dim             ....  110

ORBITAL ENERGIES
----------------

  NO   OCC          E(Eh)            E(eV)
   0   2.0000     -14.433174      -392.7466
   1   2.0000     -14.430659      -392.6782
   2   2.0000     -10.333495      -281.1887
   3   2.0000     -10.321129      -280.8522
   4   2.0000     -10.194220      -277.3988
   5   2.0000      -1.073709       -29.2171
   6   2.0000      -0.988415       -26.8961
   7   2.0000      -0.846144       -23.0247
   8   2.0000      -0.774944       -21.0873
   9   2.0000      -0.700256       -19.0549
  10   2.0000      -0.636718       -17.3260
  11   2.0000      -0.586542       -15.9606
  12   2.0000      -0.578359       -15.7379
  13   2.0000      -0.547812       -14.9067
  14   2.0000      -0.501862       -13.6564
  15   2.0000      -0.481318       -13.0973
  16   2.0000      -0.463087       -12.6012
  17   2.0000      -0.451774       -12.2934
  18   2.0000      -0.342959        -9.3324
  19   2.0000      -0.250856        -6.8261
  20   0.0000       0.131109         3.5677
  21   0.0000       0.145966         3.9719
  22   0.0000       0.168041         4.5726
  23   0.0000       0.190352         5.1797
  24   0.0000       0.211901         5.7661

MULLIKEN ATOMIC CHARGES
-----------------------
   0 C :    0.102223
   1 N :   -0.234706
   2 C :   -0.031039
   3 N :   -0.115652
   4 C :   -0.085386
   5 H :   -0.049426
   6 H :   -0.045562
   7 H :    0.130233
   8 H :    0.111626
   9 H :    0.139492
  10 H :    0.012610
  11 H :    0.026356
  12 H :    0.039230
Sum of atomic charges:   -0.0000000

LOEWDIN ATOMIC CHARGES
----------------------
   0 C :    0.033071
   1 N :   -0.061325
   2 C :    0.042914
   3 N :   -0.014546
   4 C :   -0.262647
   5 H :   -0.011999
   6 H :   -0.007630
   7 H :    0.081243
   8 H :    0.064816
   9 H :    0.085098
  10 H :    0.015563
  11 H :    0.012434
  12 H :    0.023008

  Mayer bond orders larger than 0.100000
B(  0-C ,  1-N ) :   0.9977 B(  0-C , 10-H ) :   0.9773 B(  0-C , 11-H ) :   0.9745
B(  0-C , 12-H ) :   0.9796 B(  1-N ,  2-C ) :   1.1724 B(  1-N ,  7-H ) :   0.9356
B(  2-C ,  3-N ) :   1.2137 B(  2-C ,  4-C ) :   1.7512 B(  3-N ,  8-H ) :   0.9568
B(  3-N ,  9-H ) :   0.9478 B(  4-C ,  5-H ) :   0.9517 B(  4-C ,  6-H ) :   0.9554

Dispersion correction           -0.002432462
FINAL SINGLE POINT ENERGY      -228.346076504014

DIPOLE MOMENT
-------------
                                X             Y             Z
Electronic contribution:     -0.14178      -1.06739      -1.44464
Nuclear contribution   :     -0.52265       1.05368       2.74049
                        -----------------------------------------
Total Dipole Moment    :     -0.66443      -0.01370       1.29585
                        -----------------------------------------
Magnitude (a.u.)       :      1.45633
Magnitude (Debye)      :      3.70169

Rotational constants in cm-1:     0.310125     0.138772     0.101978
Rotational constants in MHz :  9297.312912  4160.277024  3057.230514

                             ****ORCA TERMINATED NORMALLY****
TOTAL RUN TIME: 0 days 0 hours 0 minutes 6 seconds 949 msec
