                         Program Version 5.0.0 -  RELEASE  -
|  1> !wB97X-D3 RIJCOSX def2-SVP def2/J TightSCF xyzfile
|  2>
|  3> *xyzfile 0 1 D6.xyz
|  4>
|  5> %MaxCore 64000
|  6>
|  7> %pal nprocs 18
|  8> end
|  9>
| 10> %scf
| 11>   MaxIter 150
| 12> end
| 13>
| 14>
| 15>                          ****END OF INPUT****

CARTESIAN COORDINATES (ANGSTROEM)
---------------------------------
  C      2.234473   -2.989754   -2.397622
  N      2.756799   -2.945553   -3.765029
  C     -1.104325    0.251374   -2.860056
  C     -0.711893    0.842517   -4.218344
  H      0.154626    1.499800   -4.130909
  H     -1.538134    1.459222   -4.582671
  C     -0.397624   -0.205875   -5.288018
  C      1.987208   -2.590451   -4.818975
  N      0.743221   -3.017493   -4.913524
  C      2.499636   -1.848598   -5.803241
  H      3.309780   -1.292818   -5.558947
  H      1.801025   -1.304298   -6.289129
  H      3.716116   -2.628797   -3.829533
  H      0.395828   -3.627747   -4.185024
  H      0.039201   -2.454383   -5.371367
  O      0.617165   -0.005348   -5.998273
  F     -1.133173   -1.221380   -5.341465
  C      2.191199   -1.619503   -1.715492
  H      2.872783   -3.666368   -1.828014
  H      1.246188   -3.447444   -2.407842
  C      1.298729   -0.554314   -2.359773
  H      1.872917   -1.787955   -0.681310
  H      3.216809   -1.238432   -1.654428
  C     -0.196255   -0.863365   -2.325763
  H      1.612531   -0.371346   -3.393065
  H      1.480944    0.388638   -1.834444
  H     -0.404105   -1.761825   -2.909448
  H     -0.490439   -1.087880   -1.294131
  H     -1.143842    1.066711   -2.129680
  H     -2.114401   -0.156834   -2.930323

 Total Charge           Charge          ....    0
 Multiplicity           Mult            ....    1
 Number of Electrons    NEL             ....  102
 Basis Dimension        Dim             ....  267

ORBITAL ENERGIES
----------------

  NO   OCC          E(Eh)            E(eV)
   0   2.0000     -24.886576      -677.1982
   1   2.0000     -19.256987      -524.0093
   2   2.0000     -14.419788      -392.3824
   3   2.0000     -14.419023      -392.3616
   4   2.0000     -10.477151      -285.0978
   5   2.0000     -10.324396      -280.9411
   6   2.0000     -10.322681      -280.8944
   7   2.0000     -10.317928      -280.7651
   8   2.0000     -10.311005      -280.5767
   9   2.0000     -10.298427      -280.2344
  10   2.0000     -10.291648      -280.0500
  11   2.0000     -10.291170      -280.0370
  12   2.0000     -10.172012      -276.7945
  13   2.0000      -1.444582       -39.3091
  14   2.0000      -1.151416       -31.3316
  15   2.0000      -1.064630       -28.9701
  16   2.0000      -0.983129       -26.7523
  17   2.0000      -0.943763       -25.6811
  18   2.0000      -0.899660       -24.4810
  19   2.0000      -0.849876       -23.1263
  20   2.0000      -0.815086       -22.1796
  21   2.0000      -0.787503       -21.4290
  22   2.0000      -0.767385       -20.8816
  23   2.0000      -0.722532       -19.6611
  24   2.0000      -0.707622       -19.2554
  25   2.0000      -0.685883       -18.6638
  26   2.0000      -0.669019       -18.2049
  27   2.0000      -0.661677       -18.0052
  28   2.0000      -0.628625       -17.1058
  29   2.0000      -0.608867       -16.5681
  30   2.0000      -0.594506       -16.1773
  31   2.0000      -0.582345       -15.8464
  32   2.0000      -0.568523       -15.4703
  33   2.0000      -0.559407       -15.2222
  34   2.0000      -0.544825       -14.8254
  35   2.0000      -0.535569       -14.5736
  36   2.0000      -0.512444       -13.9443
  37   2.0000      -0.507357       -13.8059
  38   2.0000      -0.484287       -13.1781
  39   2.0000      -0.478996       -13.0341
  40   2.0000      -0.476520       -12.9668
  41   2.0000      -0.465809       -12.6753
  42   2.0000      -0.459600       -12.5064
  43   2.0000      -0.452281       -12.3072
  44   2.0000      -0.429653       -11.6914
  45   2.0000      -0.425973       -11.5913
  46   2.0000      -0.424419       -11.5490
  47   2.0000      -0.417392       -11.3578
  48   2.0000      -0.378356       -10.2956
  49   2.0000      -0.332586        -9.0501
  50   2.0000      -0.234823        -6.3899
  51   0.0000       0.048471         1.3190
  52   0.0000       0.122955         3.3458
  53   0.0000       0.140623         3.8266
  54   0.0000       0.144801         3.9402
  55   0.0000       0.165901         4.5144

MULLIKEN ATOMIC CHARGES
-----------------------
   0 C :    0.078630
   1 N :   -0.188521
   2 C :   -0.038544
   3 C :   -0.066582
   4 H :    0.075425
   5 H :    0.071859
   6 C :    0.268089
   7 C :   -0.088901
   8 N :   -0.108381
   9 C :   -0.056708
  10 H :   -0.063282
  11 H :   -0.020281
  12 H :    0.124043
  13 H :    0.111637
  14 H :    0.123535
  15 O :   -0.233078
  16 F :   -0.092826
  17 C :   -0.018716
  18 H :    0.031763
  19 H :    0.011423
  20 C :   -0.047326
  21 H :    0.014919
  22 H :    0.023028
  23 C :   -0.060532
  24 H :    0.044540
  25 H :    0.020414
  26 H :   -0.016898
  27 H :    0.025256
  28 H :    0.040072
  29 H :    0.035940
Sum of atomic charges:   -0.0000000

LOEWDIN ATOMIC CHARGES
----------------------
   0 C :    0.029545
   1 N :   -0.050962
   2 C :   -0.039329
   3 C :   -0.065418
   4 H :    0.049586
   5 H :    0.051117
   6 C :    0.116742
   7 C :    0.028187
   8 N :   -0.013714
   9 C :   -0.255843
  10 H :   -0.016225
  11 H :   -0.018548
  12 H :    0.078899
  13 H :    0.059213
  14 H :    0.048182
  15 O :   -0.143400
  16 F :    0.061048
  17 C :   -0.049591
  18 H :    0.024655
  19 H :    0.013045
  20 C :   -0.046948
  21 H :    0.022086
  22 H :    0.024825
  23 C :   -0.049365
  24 H :    0.027727
  25 H :    0.024680
  26 H :    0.004511
  27 H :    0.026772
  28 H :    0.031597
  29 H :    0.026925

  Mayer bond orders larger than 0.100000
B(  0-C ,  1-N ) :   1.0233 B(  0-C , 17-C ) :   1.0504 B(  0-C , 18-H ) :   0.9556
B(  0-C , 19-H ) :   0.9566 B(  1-N ,  7-C ) :   1.1616 B(  1-N , 12-H ) :   0.9293
B(  2-C ,  3-C ) :   1.0441 B(  2-C , 23-C ) :   1.0855 B(  2-C , 28-H ) :   0.9475
B(  2-C , 29-H ) :   0.9512 B(  3-C ,  4-H ) :   0.9451 B(  3-C ,  5-H ) :   0.9283
B(  3-C ,  6-C ) :   0.9959 B(  6-C , 15-O ) :   2.0262 B(  6-C , 16-F ) :   1.1115
B(  7-C ,  8-N ) :   1.2147 B(  7-C ,  9-C ) :   1.7599 B(  8-N , 13-H ) :   0.9505
B(  8-N , 14-H ) :   0.9323 B(  9-C , 10-H ) :   0.9440 B(  9-C , 11-H ) :   0.9351
B( 17-C , 20-C ) :   1.0813 B( 17-C , 21-H ) :   0.9414 B( 17-C , 22-H ) :   0.9459
B( 20-C , 23-C ) :   1.0588 B( 20-C , 24-H ) :   0.9221 B( 20-C , 25-H ) :   0.9472
B( 23-C , 26-H ) :   0.9297 B( 23-C , 27-H ) :   0.9449

Dispersion correction           -0.015903772
FINAL SINGLE POINT ENERGY      -637.068119266957

DIPOLE MOMENT
-------------
                                X             Y             Z
Electronic contribution:     -5.72242      -0.74514     -11.78173
Nuclear contribution   :      4.34606       1.32859      13.65749
                        -----------------------------------------
Total Dipole Moment    :     -1.37636       0.58345       1.87575
                        -----------------------------------------
Magnitude (a.u.)       :      2.39859
Magnitude (Debye)      :      6.09672

Rotational constants in cm-1:     0.033551     0.023540     0.017085
Rotational constants in MHz :  1005.818710   705.725032   512.192443

                             ****ORCA TERMINATED NORMALLY****
TOTAL RUN TIME: 0 days 0 hours 0 minutes 30 seconds 833 msec
