                         Program Version 5.0.0 -  RELEASE  -
|  1> !TPSS D3BJ RIJCOSX def2-TZVP def2/J TightSCF
|  2> *xyz -1 1
|  3> C          2.49556        1.81615       -2.13636
|  4> C          1.87218        0.42790       -2.07750
|  5> H          2.61427       -0.36583       -2.19889
|  6> H          1.38995        0.27309       -1.11236
|  7> S          0.57902        0.14047       -3.29794
|  8> O          0.22886       -1.24687       -3.12787
|  9> O         -0.43927        1.11897       -3.01455
| 10> O          1.24788        0.40347       -4.59565
| 11> H          2.96535        1.95613       -3.08747
| 12> H          3.22581        1.91242       -1.36024
| 13> H          1.73350        2.55528       -2.00274
| 14> *
| 15>
| 16> %MaxCore 64000
| 17>
| 18> %pal nprocs 4
| 19> end
| 20>
| 21> %scf
| 22>   MaxIter 150
| 23> end
| 24>
| 25>
| 26>                          ****END OF INPUT****

CARTESIAN COORDINATES (ANGSTROEM)
---------------------------------
  C      2.495560    1.816150   -2.136360
  C      1.872180    0.427900   -2.077500
  H      2.614270   -0.365830   -2.198890
  H      1.389950    0.273090   -1.112360
  S      0.579020    0.140470   -3.297940
  O      0.228860   -1.246870   -3.127870
  O     -0.439270    1.118970   -3.014550
  O      1.247880    0.403470   -4.595650
  H      2.965350    1.956130   -3.087470
  H      3.225810    1.912420   -1.360240
  H      1.733500    2.555280   -2.002740

 Total Charge           Charge          ....   -1
 Multiplicity           Mult            ....    1
 Number of Electrons    NEL             ....   58
 Basis Dimension        Dim             ....  222

ORBITAL ENERGIES
----------------

  NO   OCC          E(Eh)            E(eV)
   0   2.0000     -88.316935     -2403.2260
   1   2.0000     -18.654293      -507.6091
   2   2.0000     -18.654151      -507.6053
   3   2.0000     -18.639648      -507.2106
   4   2.0000      -9.834913      -267.6216
   5   2.0000      -9.832621      -267.5592
   6   2.0000      -7.665659      -208.5932
   7   2.0000      -5.645177      -153.6131
   8   2.0000      -5.644341      -153.5903
   9   2.0000      -5.644128      -153.5845
  10   2.0000      -0.841234       -22.8911
  11   2.0000      -0.720677       -19.6106
  12   2.0000      -0.695146       -18.9159
  13   2.0000      -0.567411       -15.4400
  14   2.0000      -0.446016       -12.1367
  15   2.0000      -0.323066        -8.7911
  16   2.0000      -0.267968        -7.2918
  17   2.0000      -0.260215        -7.0808
  18   2.0000      -0.221506        -6.0275
  19   2.0000      -0.207054        -5.6342
  20   2.0000      -0.202320        -5.5054
  21   2.0000      -0.181838        -4.9481
  22   2.0000      -0.167383        -4.5547
  23   2.0000      -0.098536        -2.6813
  24   2.0000      -0.098041        -2.6678
  25   2.0000      -0.067545        -1.8380
  26   2.0000      -0.060544        -1.6475
  27   2.0000      -0.049596        -1.3496
  28   2.0000      -0.014016        -0.3814
  29   0.0000       0.167657         4.5622
  30   0.0000       0.209156         5.6914
  31   0.0000       0.223902         6.0927
  32   0.0000       0.229036         6.2324
  33   0.0000       0.256127         6.9696

MULLIKEN ATOMIC CHARGES
-----------------------
   0 C :   -0.315866
   1 C :   -0.204026
   2 H :    0.066410
   3 H :    0.055232
   4 S :    0.753147
   5 O :   -0.524080
   6 O :   -0.524653
   7 O :   -0.573672
   8 H :    0.105450
   9 H :    0.057037
  10 H :    0.105022
Sum of atomic charges:   -1.0000000

LOEWDIN ATOMIC CHARGES
----------------------
   0 C :   -0.339973
   1 C :   -0.433262
   2 H :    0.112325
   3 H :    0.111050
   4 S :    0.365500
   5 O :   -0.359366
   6 O :   -0.358918
   7 O :   -0.413434
   8 H :    0.110634
   9 H :    0.094622
  10 H :    0.110822

  Mayer bond orders larger than 0.100000
B(  0-C ,  1-C ) :   0.9961 B(  0-C ,  8-H ) :   0.9664 B(  0-C ,  9-H ) :   0.9547
B(  0-C , 10-H ) :   0.9693 B(  1-C ,  2-H ) :   0.9485 B(  1-C ,  3-H ) :   0.9459
B(  1-C ,  4-S ) :   0.8667 B(  4-S ,  5-O ) :   1.8334 B(  4-S ,  6-O ) :   1.7961
B(  4-S ,  7-O ) :   1.7410

Dispersion correction           -0.012152819
FINAL SINGLE POINT ENERGY      -703.373251455672

DIPOLE MOMENT
-------------
                                X             Y             Z
Electronic contribution:     -5.79679      -3.64178      -4.19439
Nuclear contribution   :      6.89220       4.11756       5.35566
                        -----------------------------------------
Total Dipole Moment    :      1.09540       0.47578       1.16127
                        -----------------------------------------
Magnitude (a.u.)       :      1.66578
Magnitude (Debye)      :      4.23407

Rotational constants in cm-1:     0.162183     0.084017     0.082390
Rotational constants in MHz :  4862.117324  2518.774315  2469.980309

                             ****ORCA TERMINATED NORMALLY****
TOTAL RUN TIME: 0 days 0 hours 0 minutes 9 seconds 638 msec
