                         Program Version 5.0.0 -  RELEASE  -
|  1> !TPSS D3BJ RIJCOSX def2-TZVP def2/J TightSCF
|  2> *xyz 1 1
|  3> C          3.38093        2.08304       -3.35013
|  4> N          4.53592        1.18245       -3.42852
|  5> C          2.49556        1.81615       -2.13636
|  6> C          4.67196        0.12227       -4.22060
|  7> N          5.86602       -0.50785       -4.22428
|  8> N          3.69888       -0.31284       -4.98699
|  9> H          2.73141       -0.05009       -4.84900
| 10> H          3.89005       -1.05517       -5.64373
| 11> H          5.25193        1.30346       -2.72101
| 12> H          6.69516       -0.06232       -3.85160
| 13> H          5.97538       -1.39688       -4.69141
| 14> H          2.80646        1.98651       -4.26848
| 15> H          3.77871        3.09828       -3.30738
| 16> H          2.11090        0.81901       -2.18783
| 17> H          1.68276        2.51198       -2.12786
| 18> H          3.07216        1.93031       -1.24227
| 19> *
| 20>
| 21> %MaxCore 64000
| 22>
| 23> %pal nprocs 4
| 24> end
| 25>
| 26> %scf
| 27>   MaxIter 150
| 28> end
| 29>
| 30>
| 31>                          ****END OF INPUT****

CARTESIAN COORDINATES (ANGSTROEM)
---------------------------------
  C      3.380930    2.083040   -3.350130
  N      4.535920    1.182450   -3.428520
  C      2.495560    1.816150   -2.136360
  C      4.671960    0.122270   -4.220600
  N      5.866020   -0.507850   -4.224280
  N      3.698880   -0.312840   -4.986990
  H      2.731410   -0.050090   -4.849000
  H      3.890050   -1.055170   -5.643730
  H      5.251930    1.303460   -2.721010
  H      6.695160   -0.062320   -3.851600
  H      5.975380   -1.396880   -4.691410
  H      2.806460    1.986510   -4.268480
  H      3.778710    3.098280   -3.307380
  H      2.110900    0.819010   -2.187830
  H      1.682760    2.511980   -2.127860
  H      3.072160    1.930310   -1.242270

 Total Charge           Charge          ....    1
 Multiplicity           Mult            ....    1
 Number of Electrons    NEL             ....   48
 Basis Dimension        Dim             ....  246

ORBITAL ENERGIES
----------------

  NO   OCC          E(Eh)            E(eV)
   0   2.0000     -14.325318      -389.8117
   1   2.0000     -14.319839      -389.6626
   2   2.0000     -14.317685      -389.6040
   3   2.0000     -10.307249      -280.4745
   4   2.0000     -10.190661      -277.3020
   5   2.0000     -10.120303      -275.3875
   6   2.0000      -1.143965       -31.1289
   7   2.0000      -1.041507       -28.3409
   8   2.0000      -1.027681       -27.9646
   9   2.0000      -0.873776       -23.7767
  10   2.0000      -0.790502       -21.5107
  11   2.0000      -0.752271       -20.4703
  12   2.0000      -0.736301       -20.0358
  13   2.0000      -0.694551       -18.8997
  14   2.0000      -0.651023       -17.7152
  15   2.0000      -0.647084       -17.6081
  16   2.0000      -0.598510       -16.2863
  17   2.0000      -0.584340       -15.9007
  18   2.0000      -0.562971       -15.3192
  19   2.0000      -0.516760       -14.0618
  20   2.0000      -0.493126       -13.4186
  21   2.0000      -0.478614       -13.0237
  22   2.0000      -0.437441       -11.9034
  23   2.0000      -0.409319       -11.1381
  24   0.0000      -0.189233        -5.1493
  25   0.0000      -0.163710        -4.4548
  26   0.0000      -0.131054        -3.5662
  27   0.0000      -0.121235        -3.2990
  28   0.0000      -0.106967        -2.9107

MULLIKEN ATOMIC CHARGES
-----------------------
   0 C :   -0.158192
   1 N :   -0.252385
   2 C :   -0.300523
   3 C :    0.445277
   4 N :   -0.435372
   5 N :   -0.412243
   6 H :    0.296741
   7 H :    0.283198
   8 H :    0.256017
   9 H :    0.291578
  10 H :    0.285076
  11 H :    0.127939
  12 H :    0.160707
  13 H :    0.117925
  14 H :    0.159391
  15 H :    0.134864
Sum of atomic charges:    1.0000000

LOEWDIN ATOMIC CHARGES
----------------------
   0 C :   -0.272091
   1 N :    0.173905
   2 C :   -0.275919
   3 C :   -0.421438
   4 N :    0.054432
   5 N :    0.088345
   6 H :    0.198218
   7 H :    0.199021
   8 H :    0.208489
   9 H :    0.194634
  10 H :    0.191607
  11 H :    0.136111
  12 H :    0.147771
  13 H :    0.118302
  14 H :    0.134470
  15 H :    0.124143

  Mayer bond orders larger than 0.100000
B(  0-C ,  1-N ) :   0.9063 B(  0-C ,  2-C ) :   1.0299 B(  0-C , 11-H ) :   0.9539
B(  0-C , 12-H ) :   0.9438 B(  1-N ,  3-C ) :   1.3805 B(  1-N ,  8-H ) :   0.8957
B(  2-C , 13-H ) :   0.9553 B(  2-C , 14-H ) :   0.9581 B(  2-C , 15-H ) :   0.9648
B(  3-C ,  4-N ) :   1.2993 B(  3-C ,  5-N ) :   1.3521 B(  4-N ,  9-H ) :   0.8898
B(  4-N , 10-H ) :   0.8921 B(  5-N ,  6-H ) :   0.8843 B(  5-N ,  7-H ) :   0.8905

Dispersion correction           -0.014912475
FINAL SINGLE POINT ENERGY      -284.559944298341

DIPOLE MOMENT
-------------
                                X             Y             Z
Electronic contribution:      3.56875      -2.65385      -2.81625
Nuclear contribution   :     -2.93277       1.85779       2.25966
                        -----------------------------------------
Total Dipole Moment    :      0.63598      -0.79605      -0.55659
                        -----------------------------------------
Magnitude (a.u.)       :      1.16102
Magnitude (Debye)      :      2.95108

Rotational constants in cm-1:     0.245511     0.068839     0.059711
Rotational constants in MHz :  7360.233487  2063.743353  1790.088408

                             ****ORCA TERMINATED NORMALLY****
TOTAL RUN TIME: 0 days 0 hours 0 minutes 13 seconds 283 msec
