                         Program Version 5.0.0 -  RELEASE  -
|  1> !TPSS D3BJ RIJCOSX def2-TZVP def2/J TightSCF xyzfile
|  2>
|  3> *xyzfile 0 1 B.xyz
|  4>
|  5> %MaxCore 64000
|  6>
|  7> %pal nprocs 18
|  8> end
|  9>
| 10> %scf
| 11>   MaxIter 150
| 12> end
| 13>
| 14>
| 15>                          ****END OF INPUT****

CARTESIAN COORDINATES (ANGSTROEM)
---------------------------------
  C      3.380928    2.083045   -3.350127
  N      4.535924    1.182447   -3.428518
  C      2.495557    1.816150   -2.136364
  C      1.872181    0.427903   -2.077497
  H      2.614270   -0.365825   -2.198894
  H      1.389953    0.273087   -1.112360
  S      0.579024    0.140472   -3.297943
  C      4.671956    0.122273   -4.220598
  N      5.866023   -0.507849   -4.224284
  N      3.698881   -0.312844   -4.986988
  H      2.731405   -0.050091   -4.849000
  H      3.890046   -1.055172   -5.643730
  H      5.251933    1.303459   -2.721014
  H      6.695165   -0.062322   -3.851596
  H      5.975383   -1.396884   -4.691414
  O      0.228860   -1.246868   -3.127871
  O     -0.439269    1.118966   -3.014550
  O      1.247881    0.403474   -4.595647
  H      1.697003    2.561969   -2.141109
  H      3.080787    1.987436   -1.225838
  H      2.806463    1.986511   -4.268484
  H      3.778714    3.098282   -3.307383

 Total Charge           Charge          ....    0
 Multiplicity           Mult            ....    1
 Number of Electrons    NEL             ....   96
 Basis Dimension        Dim             ....  413

ORBITAL ENERGIES
----------------

  NO   OCC          E(Eh)            E(eV)
   0   2.0000     -88.467823     -2407.3319
   1   2.0000     -18.812697      -511.9195
   2   2.0000     -18.796310      -511.4736
   3   2.0000     -18.795907      -511.4626
   4   2.0000     -14.191896      -386.1811
   5   2.0000     -14.185258      -386.0005
   6   2.0000     -14.156420      -385.2158
   7   2.0000     -10.166264      -276.6381
   8   2.0000     -10.047488      -273.4060
   9   2.0000      -9.997445      -272.0443
  10   2.0000      -9.980860      -271.5930
  11   2.0000      -7.816748      -212.7045
  12   2.0000      -5.796658      -157.7351
  13   2.0000      -5.795636      -157.7073
  14   2.0000      -5.794559      -157.6780
  15   2.0000      -1.004973       -27.3467
  16   2.0000      -0.992359       -27.0035
  17   2.0000      -0.903238       -24.5784
  18   2.0000      -0.888325       -24.1726
  19   2.0000      -0.862501       -23.4698
  20   2.0000      -0.861561       -23.4443
  21   2.0000      -0.749202       -20.3868
  22   2.0000      -0.680948       -18.5295
  23   2.0000      -0.633662       -17.2428
  24   2.0000      -0.598267       -16.2797
  25   2.0000      -0.587863       -15.9966
  26   2.0000      -0.555802       -15.1241
  27   2.0000      -0.515908       -14.0386
  28   2.0000      -0.502561       -13.6754
  29   2.0000      -0.478696       -13.0260
  30   2.0000      -0.459465       -12.5027
  31   2.0000      -0.442114       -12.0305
  32   2.0000      -0.427736       -11.6393
  33   2.0000      -0.405730       -11.0405
  34   2.0000      -0.385895       -10.5007
  35   2.0000      -0.368466       -10.0265
  36   2.0000      -0.348840        -9.4924
  37   2.0000      -0.340656        -9.2697
  38   2.0000      -0.330687        -8.9985
  39   2.0000      -0.321012        -8.7352
  40   2.0000      -0.298112        -8.1120
  41   2.0000      -0.273099        -7.4314
  42   2.0000      -0.252776        -6.8784
  43   2.0000      -0.244815        -6.6618
  44   2.0000      -0.218539        -5.9467
  45   2.0000      -0.207736        -5.6528
  46   2.0000      -0.204227        -5.5573
  47   2.0000      -0.168901        -4.5960
  48   0.0000      -0.051049        -1.3891
  49   0.0000      -0.048293        -1.3141
  50   0.0000      -0.012117        -0.3297
  51   0.0000       0.004569         0.1243
  52   0.0000       0.040258         1.0955

MULLIKEN ATOMIC CHARGES
-----------------------
   0 C :   -0.214725
   1 N :   -0.276172
   2 C :   -0.109317
   3 C :   -0.297548
   4 H :    0.099576
   5 H :    0.117922
   6 S :    0.781260
   7 C :    0.423139
   8 N :   -0.471710
   9 N :   -0.364140
  10 H :    0.287598
  11 H :    0.239422
  12 H :    0.225720
  13 H :    0.263485
  14 H :    0.267643
  15 O :   -0.477336
  16 O :   -0.470696
  17 O :   -0.554335
  18 H :    0.128684
  19 H :    0.078243
  20 H :    0.203800
  21 H :    0.119488
Sum of atomic charges:   -0.0000000

LOEWDIN ATOMIC CHARGES
----------------------
   0 C :   -0.260689
   1 N :    0.162754
   2 C :   -0.285712
   3 C :   -0.397776
   4 H :    0.119531
   5 H :    0.135041
   6 S :    0.395285
   7 C :   -0.443468
   8 N :    0.019555
   9 N :    0.099688
  10 H :    0.137474
  11 H :    0.182290
  12 H :    0.194489
  13 H :    0.179220
  14 H :    0.181352
  15 O :   -0.315932
  16 O :   -0.309418
  17 O :   -0.359223
  18 H :    0.153272
  19 H :    0.129915
  20 H :    0.148516
  21 H :    0.133835

  Mayer bond orders larger than 0.100000
B(  0-C ,  1-N ) :   0.8738 B(  0-C ,  2-C ) :   1.0143 B(  0-C , 20-H ) :   0.9376
B(  0-C , 21-H ) :   0.9472 B(  1-N ,  7-C ) :   1.3527 B(  1-N , 12-H ) :   0.9089
B(  2-C ,  3-C ) :   0.9914 B(  2-C , 18-H ) :   0.9265 B(  2-C , 19-H ) :   0.9388
B(  3-C ,  4-H ) :   0.9447 B(  3-C ,  5-H ) :   0.9407 B(  3-C ,  6-S ) :   0.8926
B(  6-S , 15-O ) :   1.8717 B(  6-S , 16-O ) :   1.8546 B(  6-S , 17-O ) :   1.4780
B(  7-C ,  8-N ) :   1.2235 B(  7-C ,  9-N ) :   1.4549 B(  8-N , 13-H ) :   0.9018
B(  8-N , 14-H ) :   0.9018 B(  9-N , 10-H ) :   0.7361 B(  9-N , 11-H ) :   0.9094
B( 10-H , 17-O ) :   0.2240

Dispersion correction           -0.031627010
FINAL SINGLE POINT ENERGY      -947.540504488122

DIPOLE MOMENT
-------------
                                X             Y             Z
Electronic contribution:     -7.22806      -3.24916      -2.48533
Nuclear contribution   :     13.40759       3.44219       2.21042
                        -----------------------------------------
Total Dipole Moment    :      6.17953       0.19303      -0.27491
                        -----------------------------------------
Magnitude (a.u.)       :      6.18866
Magnitude (Debye)      :     15.73032

Rotational constants in cm-1:     0.059860     0.020817     0.017914
Rotational constants in MHz :  1794.564877   624.092098   537.039275

                             ****ORCA TERMINATED NORMALLY****
TOTAL RUN TIME: 0 days 0 hours 0 minutes 16 seconds 475 msec
