                         Program Version 5.0.0 -  RELEASE  -
|  1> !TPSS D3BJ RIJCOSX def2-TZVP def2/J TightSCF
|  2> *xyz 0 1
|  3> C          2.49556        1.81615       -2.13636
|  4> C          1.87218        0.42790       -2.07750
|  5> H          2.61427       -0.36583       -2.19889
|  6> H          1.38995        0.27309       -1.11236
|  7> S          0.57902        0.14047       -3.29794
|  8> F          0.22886       -1.24687       -3.12787
|  9> O         -0.43927        1.11897       -3.01455
| 10> O          1.24788        0.40347       -4.59565
| 11> H          2.96535        1.95613       -3.08747
| 12> H          3.22581        1.91242       -1.36024
| 13> H          1.73350        2.55528       -2.00274
| 14> *
| 15>
| 16> %MaxCore 64000
| 17>
| 18> %pal nprocs 4
| 19> end
| 20>
| 21> %scf
| 22>   MaxIter 150
| 23> end
| 24>
| 25>
| 26>                          ****END OF INPUT****

CARTESIAN COORDINATES (ANGSTROEM)
---------------------------------
  C      2.495560    1.816150   -2.136360
  C      1.872180    0.427900   -2.077500
  H      2.614270   -0.365830   -2.198890
  H      1.389950    0.273090   -1.112360
  S      0.579020    0.140470   -3.297940
  F      0.228860   -1.246870   -3.127870
  O     -0.439270    1.118970   -3.014550
  O      1.247880    0.403470   -4.595650
  H      2.965350    1.956130   -3.087470
  H      3.225810    1.912420   -1.360240
  H      1.733500    2.555280   -2.002740

 Total Charge           Charge          ....    0
 Multiplicity           Mult            ....    1
 Number of Electrons    NEL             ....   58
 Basis Dimension        Dim             ....  222

ORBITAL ENERGIES
----------------

  NO   OCC          E(Eh)            E(eV)
   0   2.0000     -88.581149     -2410.4156
   1   2.0000     -24.525516      -667.3732
   2   2.0000     -18.893521      -514.1188
   3   2.0000     -18.879175      -513.7285
   4   2.0000     -10.040345      -273.2117
   5   2.0000     -10.000216      -272.1197
   6   2.0000      -7.930714      -215.8057
   7   2.0000      -5.913929      -160.9262
   8   2.0000      -5.907146      -160.7416
   9   2.0000      -5.906902      -160.7350
  10   2.0000      -1.300340       -35.3840
  11   2.0000      -1.029733       -28.0205
  12   2.0000      -0.933582       -25.4040
  13   2.0000      -0.759991       -20.6804
  14   2.0000      -0.676602       -18.4113
  15   2.0000      -0.618556       -16.8318
  16   2.0000      -0.529596       -14.4110
  17   2.0000      -0.525601       -14.3023
  18   2.0000      -0.501632       -13.6501
  19   2.0000      -0.448619       -12.2076
  20   2.0000      -0.432769       -11.7762
  21   2.0000      -0.394110       -10.7243
  22   2.0000      -0.385490       -10.4897
  23   2.0000      -0.368388       -10.0244
  24   2.0000      -0.349219        -9.5027
  25   2.0000      -0.338762        -9.2182
  26   2.0000      -0.291090        -7.9210
  27   2.0000      -0.277550        -7.5525
  28   2.0000      -0.259788        -7.0692
  29   0.0000      -0.003592        -0.0977
  30   0.0000       0.018113         0.4929
  31   0.0000       0.040940         1.1140
  32   0.0000       0.050043         1.3617
  33   0.0000       0.058848         1.6013

MULLIKEN ATOMIC CHARGES
-----------------------
   0 C :   -0.344031
   1 C :   -0.212514
   2 H :    0.127557
   3 H :    0.121762
   4 S :    0.763176
   5 F :   -0.071612
   6 O :   -0.374342
   7 O :   -0.420946
   8 H :    0.143811
   9 H :    0.125446
  10 H :    0.141693
Sum of atomic charges:    0.0000000

LOEWDIN ATOMIC CHARGES
----------------------
   0 C :   -0.296876
   1 C :   -0.398062
   2 H :    0.132116
   3 H :    0.132059
   4 S :    0.482940
   5 F :    0.109392
   6 O :   -0.241047
   7 O :   -0.292594
   8 H :    0.124829
   9 H :    0.122566
  10 H :    0.124679

  Mayer bond orders larger than 0.100000
B(  0-C ,  1-C ) :   1.0220 B(  0-C ,  8-H ) :   0.9632 B(  0-C ,  9-H ) :   0.9509
B(  0-C , 10-H ) :   0.9640 B(  1-C ,  2-H ) :   0.9276 B(  1-C ,  3-H ) :   0.9272
B(  1-C ,  4-S ) :   0.9132 B(  4-S ,  5-F ) :   1.1604 B(  4-S ,  6-O ) :   1.9449
B(  4-S ,  7-O ) :   1.8931

Dispersion correction           -0.011625322
FINAL SINGLE POINT ENERGY      -727.898788436082

DIPOLE MOMENT
-------------
                                X             Y             Z
Electronic contribution:     -6.86903      -6.39088      -4.16306
Nuclear contribution   :      7.60530       5.82028       5.38743
                        -----------------------------------------
Total Dipole Moment    :      0.73627      -0.57060       1.22437
                        -----------------------------------------
Magnitude (a.u.)       :      1.53843
Magnitude (Debye)      :      3.91037

Rotational constants in cm-1:     0.157861     0.081452     0.078859
Rotational constants in MHz :  4732.562506  2441.865430  2364.129821

                             ****ORCA TERMINATED NORMALLY****
TOTAL RUN TIME: 0 days 0 hours 0 minutes 10 seconds 425 msec
