                         Program Version 5.0.0 -  RELEASE  -
|  1> !TPSS D3BJ RIJCOSX def2-TZVP def2/J TightSCF
|  2> *xyz 0 1
|  3> C          3.38093        2.08304       -3.35013
|  4> C          4.53592        1.18245       -3.42852
|  5> C          2.49556        1.81615       -2.13636
|  6> C          4.67196        0.12227       -4.22060
|  7> N          5.86602       -0.50785       -4.22428
|  8> N          3.69888       -0.31284       -4.98699
|  9> H          2.73141       -0.05009       -4.84900
| 10> H          3.89005       -1.05517       -5.64373
| 11> H          5.25193        1.30346       -2.72101
| 12> H          6.69516       -0.06232       -3.85160
| 13> H          5.97538       -1.39688       -4.69141
| 14> H          2.80646        1.98651       -4.26848
| 15> H          3.77871        3.09828       -3.30738
| 16> H          2.11090        0.81901       -2.18783
| 17> H          1.68276        2.51198       -2.12786
| 18> H          3.07216        1.93031       -1.24227
| 19> *
| 20>
| 21> %MaxCore 64000
| 22>
| 23> %pal nprocs 4
| 24> end
| 25>
| 26> %scf
| 27>   MaxIter 150
| 28> end
| 29>
| 30>
| 31>                          ****END OF INPUT****

CARTESIAN COORDINATES (ANGSTROEM)
---------------------------------
  C      3.380930    2.083040   -3.350130
  C      4.535920    1.182450   -3.428520
  C      2.495560    1.816150   -2.136360
  C      4.671960    0.122270   -4.220600
  N      5.866020   -0.507850   -4.224280
  N      3.698880   -0.312840   -4.986990
  H      2.731410   -0.050090   -4.849000
  H      3.890050   -1.055170   -5.643730
  H      5.251930    1.303460   -2.721010
  H      6.695160   -0.062320   -3.851600
  H      5.975380   -1.396880   -4.691410
  H      2.806460    1.986510   -4.268480
  H      3.778710    3.098280   -3.307380
  H      2.110900    0.819010   -2.187830
  H      1.682760    2.511980   -2.127860
  H      3.072160    1.930310   -1.242270

 Total Charge           Charge          ....    0
 Multiplicity           Mult            ....    1
 Number of Electrons    NEL             ....   48
 Basis Dimension        Dim             ....  246

ORBITAL ENERGIES
----------------

  NO   OCC          E(Eh)            E(eV)
   0   2.0000     -14.102300      -383.7431
   1   2.0000     -14.094781      -383.5385
   2   2.0000     -10.018841      -272.6265
   3   2.0000      -9.955554      -270.9044
   4   2.0000      -9.947040      -270.6727
   5   2.0000      -9.901368      -269.4299
   6   2.0000      -0.893809       -24.3218
   7   2.0000      -0.808382       -21.9972
   8   2.0000      -0.709887       -19.3170
   9   2.0000      -0.637180       -17.3385
  10   2.0000      -0.564899       -15.3717
  11   2.0000      -0.527243       -14.3470
  12   2.0000      -0.495646       -13.4872
  13   2.0000      -0.459799       -12.5118
  14   2.0000      -0.435064       -11.8387
  15   2.0000      -0.397312       -10.8114
  16   2.0000      -0.370931       -10.0935
  17   2.0000      -0.347926        -9.4676
  18   2.0000      -0.334523        -9.1028
  19   2.0000      -0.307748        -8.3743
  20   2.0000      -0.287312        -7.8181
  21   2.0000      -0.281732        -7.6663
  22   2.0000      -0.221971        -6.0401
  23   2.0000      -0.124698        -3.3932
  24   0.0000       0.008161         0.2221
  25   0.0000       0.035256         0.9594
  26   0.0000       0.054993         1.4964
  27   0.0000       0.061127         1.6634
  28   0.0000       0.077188         2.1004

MULLIKEN ATOMIC CHARGES
-----------------------
   0 C :   -0.149374
   1 C :   -0.365094
   2 C :   -0.272675
   3 C :    0.387643
   4 N :   -0.506236
   5 N :   -0.501291
   6 H :    0.251161
   7 H :    0.217086
   8 H :    0.080217
   9 H :    0.247467
  10 H :    0.212262
  11 H :    0.051883
  12 H :    0.076186
  13 H :    0.086205
  14 H :    0.091820
  15 H :    0.092740
Sum of atomic charges:   -0.0000000

LOEWDIN ATOMIC CHARGES
----------------------
   0 C :   -0.301373
   1 C :   -0.272810
   2 C :   -0.299509
   3 C :   -0.469815
   4 N :   -0.023592
   5 N :    0.006786
   6 H :    0.175664
   7 H :    0.161765
   8 H :    0.117036
   9 H :    0.173294
  10 H :    0.152922
  11 H :    0.123969
  12 H :    0.133243
  13 H :    0.107382
  14 H :    0.104305
  15 H :    0.110734

  Mayer bond orders larger than 0.100000
B(  0-C ,  1-C ) :   1.0969 B(  0-C ,  2-C ) :   0.9941 B(  0-C , 11-H ) :   0.9493
B(  0-C , 12-H ) :   0.9547 B(  1-C ,  3-C ) :   1.6622 B(  1-C ,  8-H ) :   0.9822
B(  2-C , 13-H ) :   0.9736 B(  2-C , 14-H ) :   0.9630 B(  2-C , 15-H ) :   0.9743
B(  3-C ,  4-N ) :   1.1071 B(  3-C ,  5-N ) :   1.1279 B(  4-N ,  9-H ) :   0.9123
B(  4-N , 10-H ) :   0.9195 B(  5-N ,  6-H ) :   0.9124 B(  5-N ,  7-H ) :   0.9185

Dispersion correction           -0.015532277
FINAL SINGLE POINT ENERGY      -268.066711175251

DIPOLE MOMENT
-------------
                                X             Y             Z
Electronic contribution:      3.03554      -2.86883      -2.94837
Nuclear contribution   :     -2.84307       1.95814       2.32378
                        -----------------------------------------
Total Dipole Moment    :      0.19247      -0.91070      -0.62459
                        -----------------------------------------
Magnitude (a.u.)       :      1.12095
Magnitude (Debye)      :      2.84922

Rotational constants in cm-1:     0.248902     0.068887     0.059904
Rotational constants in MHz :  7461.898926  2065.183281  1795.882140

                             ****ORCA TERMINATED NORMALLY****
TOTAL RUN TIME: 0 days 0 hours 0 minutes 13 seconds 924 msec
