                         Program Version 5.0.0 -  RELEASE  -
|  1> !TPSS D3BJ RIJCOSX def2-TZVP def2/J TightSCF
|  2> *xyz 0 1
|  3> C          2.49556        1.81615       -2.13636
|  4> C          1.87218        0.42790       -2.07750
|  5> H          2.61427       -0.36583       -2.19889
|  6> H          1.38995        0.27309       -1.11236
|  7> S          0.57902        0.14047       -3.29794
|  8> O          0.22886       -1.24687       -3.12787
|  9> F         -0.43927        1.11897       -3.01455
| 10> O          1.24788        0.40347       -4.59565
| 11> H          2.96535        1.95613       -3.08747
| 12> H          3.22581        1.91242       -1.36024
| 13> H          1.73350        2.55528       -2.00274
| 14> *
| 15>
| 16> %MaxCore 64000
| 17>
| 18> %pal nprocs 4
| 19> end
| 20>
| 21> %scf
| 22>   MaxIter 150
| 23> end
| 24>
| 25>
| 26>                          ****END OF INPUT****

CARTESIAN COORDINATES (ANGSTROEM)
---------------------------------
  C      2.495560    1.816150   -2.136360
  C      1.872180    0.427900   -2.077500
  H      2.614270   -0.365830   -2.198890
  H      1.389950    0.273090   -1.112360
  S      0.579020    0.140470   -3.297940
  O      0.228860   -1.246870   -3.127870
  F     -0.439270    1.118970   -3.014550
  O      1.247880    0.403470   -4.595650
  H      2.965350    1.956130   -3.087470
  H      3.225810    1.912420   -1.360240
  H      1.733500    2.555280   -2.002740

 Total Charge           Charge          ....    0
 Multiplicity           Mult            ....    1
 Number of Electrons    NEL             ....   58
 Basis Dimension        Dim             ....  222

ORBITAL ENERGIES
----------------

  NO   OCC          E(Eh)            E(eV)
   0   2.0000     -88.581491     -2410.4249
   1   2.0000     -24.525790      -667.3807
   2   2.0000     -18.894054      -514.1333
   3   2.0000     -18.880084      -513.7532
   4   2.0000     -10.040384      -273.2127
   5   2.0000     -10.002493      -272.1817
   6   2.0000      -7.931025      -215.8142
   7   2.0000      -5.914361      -160.9379
   8   2.0000      -5.907375      -160.7478
   9   2.0000      -5.907192      -160.7429
  10   2.0000      -1.301010       -35.4023
  11   2.0000      -1.029415       -28.0118
  12   2.0000      -0.934726       -25.4352
  13   2.0000      -0.762721       -20.7547
  14   2.0000      -0.673117       -18.3164
  15   2.0000      -0.623067       -16.9545
  16   2.0000      -0.538526       -14.6540
  17   2.0000      -0.524853       -14.2820
  18   2.0000      -0.496034       -13.4978
  19   2.0000      -0.448539       -12.2054
  20   2.0000      -0.430584       -11.7168
  21   2.0000      -0.404060       -10.9950
  22   2.0000      -0.387648       -10.5484
  23   2.0000      -0.367429        -9.9983
  24   2.0000      -0.356958        -9.7133
  25   2.0000      -0.334970        -9.1150
  26   2.0000      -0.290318        -7.9000
  27   2.0000      -0.277906        -7.5622
  28   2.0000      -0.261889        -7.1264
  29   0.0000      -0.008629        -0.2348
  30   0.0000       0.023844         0.6488
  31   0.0000       0.032011         0.8711
  32   0.0000       0.052988         1.4419
  33   0.0000       0.063178         1.7192

MULLIKEN ATOMIC CHARGES
-----------------------
   0 C :   -0.342387
   1 C :   -0.221843
   2 H :    0.153069
   3 H :    0.123527
   4 S :    0.765480
   5 O :   -0.371608
   6 F :   -0.074283
   7 O :   -0.422031
   8 H :    0.148238
   9 H :    0.125207
  10 H :    0.116632
Sum of atomic charges:   -0.0000000

LOEWDIN ATOMIC CHARGES
----------------------
   0 C :   -0.310906
   1 C :   -0.392407
   2 H :    0.146517
   3 H :    0.132119
   4 S :    0.484274
   5 O :   -0.240459
   6 F :    0.110650
   7 O :   -0.291737
   8 H :    0.124106
   9 H :    0.121563
  10 H :    0.116280

  Mayer bond orders larger than 0.100000
B(  0-C ,  1-C ) :   1.0061 B(  0-C ,  8-H ) :   0.9614 B(  0-C ,  9-H ) :   0.9534
B(  0-C , 10-H ) :   0.9665 B(  1-C ,  2-H ) :   0.9343 B(  1-C ,  3-H ) :   0.9344
B(  1-C ,  4-S ) :   0.9062 B(  4-S ,  5-O ) :   1.9667 B(  4-S ,  6-F ) :   1.1499
B(  4-S ,  7-O ) :   1.8889

Dispersion correction           -0.011564906
FINAL SINGLE POINT ENERGY      -727.898764903101

DIPOLE MOMENT
-------------
                                X             Y             Z
Electronic contribution:     -7.97620      -2.45668      -3.97056
Nuclear contribution   :      8.30151       3.35500       5.26935
                        -----------------------------------------
Total Dipole Moment    :      0.32531       0.89832       1.29879
                        -----------------------------------------
Magnitude (a.u.)       :      1.61235
Magnitude (Debye)      :      4.09828

Rotational constants in cm-1:     0.152913     0.083043     0.080351
Rotational constants in MHz :  4584.227971  2489.580280  2408.872860

                             ****ORCA TERMINATED NORMALLY****
TOTAL RUN TIME: 0 days 0 hours 0 minutes 10 seconds 142 msec
