                         Program Version 5.0.0 -  RELEASE  -
|  1> !TPSS D3BJ RIJCOSX def2-TZVP def2/J TightSCF
|  2> *xyz 0 1
|  3> C          3.38093        2.08304       -3.35013
|  4> N          4.53592        1.18245       -3.42852
|  5> C          2.49556        1.81615       -2.13636
|  6> C          4.67196        0.12227       -4.22060
|  7> C          5.86602       -0.50785       -4.22428
|  8> N          3.69888       -0.31284       -4.98699
|  9> H          2.73141       -0.05009       -4.84900
| 10> H          3.89005       -1.05517       -5.64373
| 11> H          5.25193        1.30346       -2.72101
| 12> H          6.69516       -0.06232       -3.85160
| 13> H          5.97538       -1.39688       -4.69141
| 14> H          2.80646        1.98651       -4.26848
| 15> H          3.77871        3.09828       -3.30738
| 16> H          2.11090        0.81901       -2.18783
| 17> H          1.68276        2.51198       -2.12786
| 18> H          3.07216        1.93031       -1.24227
| 19> *
| 20>
| 21> %MaxCore 64000
| 22>
| 23> %pal nprocs 4
| 24> end
| 25>
| 26> %scf
| 27>   MaxIter 150
| 28> end
| 29>
| 30>
| 31>                          ****END OF INPUT****

CARTESIAN COORDINATES (ANGSTROEM)
---------------------------------
  C      3.380930    2.083040   -3.350130
  N      4.535920    1.182450   -3.428520
  C      2.495560    1.816150   -2.136360
  C      4.671960    0.122270   -4.220600
  C      5.866020   -0.507850   -4.224280
  N      3.698880   -0.312840   -4.986990
  H      2.731410   -0.050090   -4.849000
  H      3.890050   -1.055170   -5.643730
  H      5.251930    1.303460   -2.721010
  H      6.695160   -0.062320   -3.851600
  H      5.975380   -1.396880   -4.691410
  H      2.806460    1.986510   -4.268480
  H      3.778710    3.098280   -3.307380
  H      2.110900    0.819010   -2.187830
  H      1.682760    2.511980   -2.127860
  H      3.072160    1.930310   -1.242270

 Total Charge           Charge          ....    0
 Multiplicity           Mult            ....    1
 Number of Electrons    NEL             ....   48
 Basis Dimension        Dim             ....  246

ORBITAL ENERGIES
----------------

  NO   OCC          E(Eh)            E(eV)
   0   2.0000     -14.102198      -383.7403
   1   2.0000     -14.098700      -383.6451
   2   2.0000     -10.023985      -272.7665
   3   2.0000     -10.022540      -272.7272
   4   2.0000      -9.977491      -271.5013
   5   2.0000      -9.891381      -269.1582
   6   2.0000      -0.900649       -24.5079
   7   2.0000      -0.825643       -22.4669
   8   2.0000      -0.714066       -19.4307
   9   2.0000      -0.641316       -17.4511
  10   2.0000      -0.577328       -15.7099
  11   2.0000      -0.552611       -15.0373
  12   2.0000      -0.495983       -13.4964
  13   2.0000      -0.452474       -12.3124
  14   2.0000      -0.437706       -11.9106
  15   2.0000      -0.403931       -10.9915
  16   2.0000      -0.385460       -10.4889
  17   2.0000      -0.360403        -9.8071
  18   2.0000      -0.346017        -9.4156
  19   2.0000      -0.330651        -8.9975
  20   2.0000      -0.325216        -8.8496
  21   2.0000      -0.311485        -8.4759
  22   2.0000      -0.213389        -5.8066
  23   2.0000      -0.125272        -3.4088
  24   0.0000       0.008138         0.2215
  25   0.0000       0.038059         1.0356
  26   0.0000       0.047496         1.2924
  27   0.0000       0.061847         1.6829
  28   0.0000       0.071440         1.9440

MULLIKEN ATOMIC CHARGES
-----------------------
   0 C :   -0.126217
   1 N :   -0.313234
   2 C :   -0.279243
   3 C :    0.417297
   4 C :   -0.592591
   5 N :   -0.503673
   6 H :    0.223495
   7 H :    0.246136
   8 H :    0.221253
   9 H :    0.104542
  10 H :    0.092150
  11 H :    0.096992
  12 H :    0.103681
  13 H :    0.104605
  14 H :    0.103147
  15 H :    0.101659
Sum of atomic charges:   -0.0000000

LOEWDIN ATOMIC CHARGES
----------------------
   0 C :   -0.304872
   1 N :    0.125691
   2 C :   -0.301456
   3 C :   -0.475519
   4 C :   -0.355152
   5 N :    0.010416
   6 H :    0.158649
   7 H :    0.179463
   8 H :    0.192680
   9 H :    0.091979
  10 H :    0.089864
  11 H :    0.125516
  12 H :    0.125907
  13 H :    0.111667
  14 H :    0.112952
  15 H :    0.112216

  Mayer bond orders larger than 0.100000
B(  0-C ,  1-N ) :   0.9681 B(  0-C ,  2-C ) :   1.0069 B(  0-C , 11-H ) :   0.9600
B(  0-C , 12-H ) :   0.9602 B(  1-N ,  3-C ) :   1.1953 B(  1-N ,  8-H ) :   0.9165
B(  2-C , 13-H ) :   0.9679 B(  2-C , 14-H ) :   0.9604 B(  2-C , 15-H ) :   0.9693
B(  3-C ,  4-C ) :   1.5628 B(  3-C ,  5-N ) :   1.1531 B(  4-C ,  9-H ) :   0.9935
B(  4-C , 10-H ) :   0.9920 B(  5-N ,  6-H ) :   0.9131 B(  5-N ,  7-H ) :   0.9128

Dispersion correction           -0.015374749
FINAL SINGLE POINT ENERGY      -268.059443383987

DIPOLE MOMENT
-------------
                                X             Y             Z
Electronic contribution:      1.50679      -1.11554      -2.05856
Nuclear contribution   :     -2.56090       1.59955       2.15496
                        -----------------------------------------
Total Dipole Moment    :     -1.05411       0.48401       0.09640
                        -----------------------------------------
Magnitude (a.u.)       :      1.16392
Magnitude (Debye)      :      2.95845

Rotational constants in cm-1:     0.249834     0.071381     0.061833
Rotational constants in MHz :  7489.842787  2139.945635  1853.706310

                             ****ORCA TERMINATED NORMALLY****
TOTAL RUN TIME: 0 days 0 hours 0 minutes 13 seconds 360 msec
