                         Program Version 5.0.0 -  RELEASE  -
|  1> !TPSS D3BJ RIJCOSX def2-TZVP def2/J TightSCF
|  2> *xyz 0 1
|  3> C          2.49556        1.81615       -2.13636
|  4> C          1.87218        0.42790       -2.07750
|  5> H          2.61427       -0.36583       -2.19889
|  6> H          1.38995        0.27309       -1.11236
|  7> S          0.57902        0.14047       -3.29794
|  8> O          0.22886       -1.24687       -3.12787
|  9> O         -0.43927        1.11897       -3.01455
| 10> F          1.24788        0.40347       -4.59565
| 11> H          2.96535        1.95613       -3.08747
| 12> H          3.22581        1.91242       -1.36024
| 13> H          1.73350        2.55528       -2.00274
| 14> *
| 15>
| 16> %MaxCore 64000
| 17>
| 18> %pal nprocs 4
| 19> end
| 20>
| 21> %scf
| 22>   MaxIter 150
| 23> end
| 24>
| 25>
| 26>                          ****END OF INPUT****

CARTESIAN COORDINATES (ANGSTROEM)
---------------------------------
  C      2.495560    1.816150   -2.136360
  C      1.872180    0.427900   -2.077500
  H      2.614270   -0.365830   -2.198890
  H      1.389950    0.273090   -1.112360
  S      0.579020    0.140470   -3.297940
  O      0.228860   -1.246870   -3.127870
  O     -0.439270    1.118970   -3.014550
  F      1.247880    0.403470   -4.595650
  H      2.965350    1.956130   -3.087470
  H      3.225810    1.912420   -1.360240
  H      1.733500    2.555280   -2.002740

 Total Charge           Charge          ....    0
 Multiplicity           Mult            ....    1
 Number of Electrons    NEL             ....   58
 Basis Dimension        Dim             ....  222

ORBITAL ENERGIES
----------------

  NO   OCC          E(Eh)            E(eV)
   0   2.0000     -88.579095     -2410.3597
   1   2.0000     -24.503938      -666.7860
   2   2.0000     -18.893993      -514.1317
   3   2.0000     -18.893676      -514.1231
   4   2.0000     -10.039406      -273.1861
   5   2.0000     -10.003040      -272.1966
   6   2.0000      -7.928746      -215.7521
   7   2.0000      -5.912064      -160.8754
   8   2.0000      -5.905112      -160.6863
   9   2.0000      -5.905029      -160.6840
  10   2.0000      -1.265803       -34.4443
  11   2.0000      -1.040018       -28.3003
  12   2.0000      -0.955118       -25.9901
  13   2.0000      -0.762256       -20.7420
  14   2.0000      -0.661026       -17.9874
  15   2.0000      -0.615737       -16.7551
  16   2.0000      -0.523163       -14.2360
  17   2.0000      -0.500980       -13.6324
  18   2.0000      -0.492175       -13.3928
  19   2.0000      -0.448993       -12.2177
  20   2.0000      -0.426987       -11.6189
  21   2.0000      -0.406586       -11.0638
  22   2.0000      -0.391431       -10.6514
  23   2.0000      -0.367507       -10.0004
  24   2.0000      -0.361555        -9.8384
  25   2.0000      -0.338813        -9.2196
  26   2.0000      -0.297476        -8.0947
  27   2.0000      -0.289318        -7.8727
  28   2.0000      -0.277161        -7.5419
  29   0.0000      -0.006629        -0.1804
  30   0.0000       0.028256         0.7689
  31   0.0000       0.036474         0.9925
  32   0.0000       0.057973         1.5775
  33   0.0000       0.061414         1.6712

MULLIKEN ATOMIC CHARGES
-----------------------
   0 C :   -0.346820
   1 C :   -0.224451
   2 H :    0.134825
   3 H :    0.144292
   4 S :    0.774294
   5 O :   -0.380251
   6 O :   -0.384980
   7 F :   -0.108775
   8 H :    0.121039
   9 H :    0.126032
  10 H :    0.144794
Sum of atomic charges:   -0.0000000

LOEWDIN ATOMIC CHARGES
----------------------
   0 C :   -0.311612
   1 C :   -0.391887
   2 H :    0.134341
   3 H :    0.145492
   4 S :    0.491677
   5 O :   -0.244299
   6 O :   -0.244394
   7 F :    0.058777
   8 H :    0.116676
   9 H :    0.121880
  10 H :    0.123349

  Mayer bond orders larger than 0.100000
B(  0-C ,  1-C ) :   1.0060 B(  0-C ,  8-H ) :   0.9666 B(  0-C ,  9-H ) :   0.9543
B(  0-C , 10-H ) :   0.9623 B(  1-C ,  2-H ) :   0.9343 B(  1-C ,  3-H ) :   0.9348
B(  1-C ,  4-S ) :   0.9070 B(  4-S ,  5-O ) :   1.9657 B(  4-S ,  6-O ) :   1.9398
B(  4-S ,  7-F ) :   1.1079

Dispersion correction           -0.011561717
FINAL SINGLE POINT ENERGY      -727.916763544908

DIPOLE MOMENT
-------------
                                X             Y             Z
Electronic contribution:     -5.15796      -3.64008      -6.61081
Nuclear contribution   :      6.54345       4.10057       6.91691
                        -----------------------------------------
Total Dipole Moment    :      1.38549       0.46049       0.30609
                        -----------------------------------------
Magnitude (a.u.)       :      1.49175
Magnitude (Debye)      :      3.79174

Rotational constants in cm-1:     0.152835     0.082826     0.080611
Rotational constants in MHz :  4581.878371  2483.049050  2416.647141

                             ****ORCA TERMINATED NORMALLY****
TOTAL RUN TIME: 0 days 0 hours 0 minutes 9 seconds 884 msec
