                         Program Version 5.0.0 -  RELEASE  -
|  1> !TPSS D3BJ RIJCOSX def2-TZVP def2/J TightSCF
|  2> *xyz 0 1
|  3> C          3.38093        2.08304       -3.35013
|  4> N          4.53592        1.18245       -3.42852
|  5> C          2.49556        1.81615       -2.13636
|  6> C          4.67196        0.12227       -4.22060
|  7> N          5.86602       -0.50785       -4.22428
|  8> C          3.69888       -0.31284       -4.98699
|  9> H          2.73141       -0.05009       -4.84900
| 10> H          3.89005       -1.05517       -5.64373
| 11> H          5.25193        1.30346       -2.72101
| 12> H          6.69516       -0.06232       -3.85160
| 13> H          5.97538       -1.39688       -4.69141
| 14> H          2.80646        1.98651       -4.26848
| 15> H          3.77871        3.09828       -3.30738
| 16> H          2.11090        0.81901       -2.18783
| 17> H          1.68276        2.51198       -2.12786
| 18> H          3.07216        1.93031       -1.24227
| 19> *
| 20>
| 21> %MaxCore 64000
| 22>
| 23> %pal nprocs 4
| 24> end
| 25>
| 26> %scf
| 27>   MaxIter 150
| 28> end
| 29>
| 30>
| 31>                          ****END OF INPUT****

CARTESIAN COORDINATES (ANGSTROEM)
---------------------------------
  C      3.380930    2.083040   -3.350130
  N      4.535920    1.182450   -3.428520
  C      2.495560    1.816150   -2.136360
  C      4.671960    0.122270   -4.220600
  N      5.866020   -0.507850   -4.224280
  C      3.698880   -0.312840   -4.986990
  H      2.731410   -0.050090   -4.849000
  H      3.890050   -1.055170   -5.643730
  H      5.251930    1.303460   -2.721010
  H      6.695160   -0.062320   -3.851600
  H      5.975380   -1.396880   -4.691410
  H      2.806460    1.986510   -4.268480
  H      3.778710    3.098280   -3.307380
  H      2.110900    0.819010   -2.187830
  H      1.682760    2.511980   -2.127860
  H      3.072160    1.930310   -1.242270

 Total Charge           Charge          ....    0
 Multiplicity           Mult            ....    1
 Number of Electrons    NEL             ....   48
 Basis Dimension        Dim             ....  246

ORBITAL ENERGIES
----------------

  NO   OCC          E(Eh)            E(eV)
   0   2.0000     -14.098458      -383.6385
   1   2.0000     -14.095307      -383.5528
   2   2.0000     -10.019687      -272.6495
   3   2.0000     -10.016094      -272.5518
   4   2.0000      -9.970095      -271.3001
   5   2.0000      -9.894002      -269.2295
   6   2.0000      -0.894130       -24.3305
   7   2.0000      -0.816434       -22.2163
   8   2.0000      -0.700312       -19.0565
   9   2.0000      -0.653892       -17.7933
  10   2.0000      -0.587807       -15.9950
  11   2.0000      -0.516581       -14.0569
  12   2.0000      -0.494590       -13.4585
  13   2.0000      -0.469100       -12.7649
  14   2.0000      -0.414783       -11.2868
  15   2.0000      -0.405937       -11.0461
  16   2.0000      -0.375580       -10.2201
  17   2.0000      -0.358495        -9.7552
  18   2.0000      -0.339104        -9.2275
  19   2.0000      -0.336451        -9.1553
  20   2.0000      -0.316842        -8.6217
  21   2.0000      -0.307845        -8.3769
  22   2.0000      -0.205625        -5.5954
  23   2.0000      -0.136135        -3.7044
  24   0.0000       0.013777         0.3749
  25   0.0000       0.036795         1.0012
  26   0.0000       0.054259         1.4765
  27   0.0000       0.063687         1.7330
  28   0.0000       0.079211         2.1554

MULLIKEN ATOMIC CHARGES
-----------------------
   0 C :   -0.073236
   1 N :   -0.334271
   2 C :   -0.310944
   3 C :    0.427586
   4 N :   -0.523246
   5 C :   -0.572147
   6 H :    0.110216
   7 H :    0.084545
   8 H :    0.187907
   9 H :    0.218080
  10 H :    0.245587
  11 H :    0.119785
  12 H :    0.095459
  13 H :    0.126488
  14 H :    0.104653
  15 H :    0.093539
Sum of atomic charges:    0.0000000

LOEWDIN ATOMIC CHARGES
----------------------
   0 C :   -0.287497
   1 N :    0.119239
   2 C :   -0.299738
   3 C :   -0.470795
   4 N :   -0.021865
   5 C :   -0.333115
   6 H :    0.096975
   7 H :    0.096508
   8 H :    0.173492
   9 H :    0.154645
  10 H :    0.171567
  11 H :    0.135989
  12 H :    0.124097
  13 H :    0.117516
  14 H :    0.113829
  15 H :    0.109152

  Mayer bond orders larger than 0.100000
B(  0-C ,  1-N ) :   0.9432 B(  0-C ,  2-C ) :   1.0120 B(  0-C , 11-H ) :   0.9484
B(  0-C , 12-H ) :   0.9613 B(  1-N ,  3-C ) :   1.1643 B(  1-N ,  8-H ) :   0.9208
B(  2-C , 13-H ) :   0.9725 B(  2-C , 14-H ) :   0.9623 B(  2-C , 15-H ) :   0.9697
B(  3-C ,  4-N ) :   1.0959 B(  3-C ,  5-C ) :   1.6344 B(  4-N ,  9-H ) :   0.9166
B(  4-N , 10-H ) :   0.9157 B(  5-C ,  6-H ) :   0.9848 B(  5-C ,  7-H ) :   0.9929

Dispersion correction           -0.015461312
FINAL SINGLE POINT ENERGY      -268.063762594382

DIPOLE MOMENT
-------------
                                X             Y             Z
Electronic contribution:      3.72274      -1.32775      -1.33292
Nuclear contribution   :     -3.02065       1.64092       1.99316
                        -----------------------------------------
Total Dipole Moment    :      0.70209       0.31317       0.66024
                        -----------------------------------------
Magnitude (a.u.)       :      1.01337
Magnitude (Debye)      :      2.57578

Rotational constants in cm-1:     0.259304     0.069422     0.060943
Rotational constants in MHz :  7773.747720  2081.225169  1827.013389

                             ****ORCA TERMINATED NORMALLY****
TOTAL RUN TIME: 0 days 0 hours 0 minutes 13 seconds 474 msec
