                         Program Version 5.0.0 -  RELEASE  -
|  1> !TPSS D3BJ RIJCOSX def2-TZVP def2/J TightSCF xyzfile
|  2>
|  3> *xyzfile 0 1 D1.xyz
|  4>
|  5> %MaxCore 64000
|  6>
|  7> %pal nprocs 18
|  8> end
|  9>
| 10> %scf
| 11>   MaxIter 150
| 12> end
| 13>
| 14>
| 15>                          ****END OF INPUT****

CARTESIAN COORDINATES (ANGSTROEM)
---------------------------------
  C      3.380928    2.083045   -3.350127
  C      4.535924    1.182447   -3.428518
  C      2.495557    1.816150   -2.136364
  C      1.872181    0.427903   -2.077497
  H      2.614270   -0.365825   -2.198894
  H      1.389953    0.273087   -1.112360
  S      0.579024    0.140472   -3.297943
  C      4.671956    0.122273   -4.220598
  N      5.866023   -0.507849   -4.224284
  N      3.698881   -0.312844   -4.986988
  H      2.731405   -0.050091   -4.849000
  H      3.890046   -1.055172   -5.643730
  H      5.251933    1.303459   -2.721014
  H      6.695165   -0.062322   -3.851596
  H      5.975383   -1.396884   -4.691414
  F      0.228860   -1.246868   -3.127871
  O     -0.439269    1.118966   -3.014550
  O      1.247881    0.403474   -4.595647
  H      1.697003    2.561969   -2.141109
  H      3.080787    1.987436   -1.225838
  H      2.806463    1.986511   -4.268484
  H      3.778714    3.098282   -3.307383

 Total Charge           Charge          ....    0
 Multiplicity           Mult            ....    1
 Number of Electrons    NEL             ....   96
 Basis Dimension        Dim             ....  413

ORBITAL ENERGIES
----------------

  NO   OCC          E(Eh)            E(eV)
   0   2.0000     -88.590613     -2410.6731
   1   2.0000     -24.532236      -667.5561
   2   2.0000     -18.901057      -514.3239
   3   2.0000     -18.897147      -514.2175
   4   2.0000     -14.092071      -383.4648
   5   2.0000     -14.076011      -383.0277
   6   2.0000     -10.032133      -272.9882
   7   2.0000     -10.015891      -272.5463
   8   2.0000      -9.991604      -271.8854
   9   2.0000      -9.959586      -271.0141
  10   2.0000      -9.901087      -269.4223
  11   2.0000      -7.940451      -216.0706
  12   2.0000      -5.923664      -161.1911
  13   2.0000      -5.917289      -161.0176
  14   2.0000      -5.916179      -160.9874
  15   2.0000      -1.307325       -35.5741
  16   2.0000      -1.042055       -28.3558
  17   2.0000      -0.953121       -25.9357
  18   2.0000      -0.884512       -24.0688
  19   2.0000      -0.798981       -21.7414
  20   2.0000      -0.762192       -20.7403
  21   2.0000      -0.703422       -19.1411
  22   2.0000      -0.665881       -18.1195
  23   2.0000      -0.624340       -16.9892
  24   2.0000      -0.572307       -15.5733
  25   2.0000      -0.540398       -14.7050
  26   2.0000      -0.531811       -14.4713
  27   2.0000      -0.522889       -14.2285
  28   2.0000      -0.502681       -13.6786
  29   2.0000      -0.486547       -13.2396
  30   2.0000      -0.465549       -12.6682
  31   2.0000      -0.444538       -12.0965
  32   2.0000      -0.437097       -11.8940
  33   2.0000      -0.420189       -11.4339
  34   2.0000      -0.404996       -11.0205
  35   2.0000      -0.391394       -10.6504
  36   2.0000      -0.364745        -9.9252
  37   2.0000      -0.357486        -9.7277
  38   2.0000      -0.347938        -9.4679
  39   2.0000      -0.337092        -9.1728
  40   2.0000      -0.315048        -8.5729
  41   2.0000      -0.308917        -8.4061
  42   2.0000      -0.295649        -8.0450
  43   2.0000      -0.293476        -7.9859
  44   2.0000      -0.275322        -7.4919
  45   2.0000      -0.272125        -7.4049
  46   2.0000      -0.212690        -5.7876
  47   2.0000      -0.125401        -3.4123
  48   0.0000      -0.011504        -0.3131
  49   0.0000       0.015996         0.4353
  50   0.0000       0.024993         0.6801
  51   0.0000       0.039899         1.0857
  52   0.0000       0.046055         1.2532

MULLIKEN ATOMIC CHARGES
-----------------------
   0 C :   -0.222193
   1 C :   -0.408951
   2 C :   -0.084292
   3 C :   -0.303306
   4 H :    0.169295
   5 H :    0.132529
   6 S :    0.782751
   7 C :    0.367391
   8 N :   -0.508287
   9 N :   -0.484285
  10 H :    0.257025
  11 H :    0.203510
  12 H :    0.076851
  13 H :    0.244244
  14 H :    0.212753
  15 F :   -0.068986
  16 O :   -0.362343
  17 O :   -0.425511
  18 H :    0.107552
  19 H :    0.089281
  20 H :    0.143784
  21 H :    0.081186
Sum of atomic charges:   -0.0000000

LOEWDIN ATOMIC CHARGES
----------------------
   0 C :   -0.278944
   1 C :   -0.286698
   2 C :   -0.268227
   3 C :   -0.369970
   4 H :    0.142588
   5 H :    0.135815
   6 S :    0.507547
   7 C :   -0.476625
   8 N :   -0.023864
   9 N :    0.009722
  10 H :    0.131063
  11 H :    0.156861
  12 H :    0.115071
  13 H :    0.170909
  14 H :    0.153005
  15 F :    0.112717
  16 O :   -0.228847
  17 O :   -0.264615
  18 H :    0.138791
  19 H :    0.143075
  20 H :    0.142241
  21 H :    0.138384

  Mayer bond orders larger than 0.100000
B(  0-C ,  1-C ) :   1.0597 B(  0-C ,  2-C ) :   0.9929 B(  0-C , 20-H ) :   0.9588
B(  0-C , 21-H ) :   0.9468 B(  1-C ,  7-C ) :   1.6232 B(  1-C , 12-H ) :   0.9854
B(  2-C ,  3-C ) :   1.0060 B(  2-C , 18-H ) :   0.9331 B(  2-C , 19-H ) :   0.9290
B(  3-C ,  4-H ) :   0.9176 B(  3-C ,  5-H ) :   0.9233 B(  3-C ,  6-S ) :   0.9376
B(  6-S , 15-F ) :   1.1622 B(  6-S , 16-O ) :   1.9704 B(  6-S , 17-O ) :   1.7398
B(  7-C ,  8-N ) :   1.1134 B(  7-C ,  9-N ) :   1.1820 B(  8-N , 13-H ) :   0.9132
B(  8-N , 14-H ) :   0.9191 B(  9-N , 10-H ) :   0.8302 B(  9-N , 11-H ) :   0.9241
B( 10-H , 17-O ) :   0.1372

Dispersion correction           -0.031812200
FINAL SINGLE POINT ENERGY      -955.432366257936

DIPOLE MOMENT
-------------
                                X             Y             Z
Electronic contribution:    -15.30688      -6.75536      -1.25457
Nuclear contribution   :     15.92508       5.34175       1.81950
                        -----------------------------------------
Total Dipole Moment    :      0.61820      -1.41360       0.56493
                        -----------------------------------------
Magnitude (a.u.)       :      1.64304
Magnitude (Debye)      :      4.17628

Rotational constants in cm-1:     0.058561     0.020662     0.017762
Rotational constants in MHz :  1755.621534   619.433801   532.501507

                             ****ORCA TERMINATED NORMALLY****
TOTAL RUN TIME: 0 days 0 hours 0 minutes 15 seconds 589 msec
