                         Program Version 5.0.0 -  RELEASE  -
|  1> !TPSS D3BJ RIJCOSX def2-TZVP def2/J TightSCF xyzfile
|  2>
|  3> *xyzfile 0 1 D5.xyz
|  4>
|  5> %MaxCore 64000
|  6>
|  7> %pal nprocs 18
|  8> end
|  9>
| 10> %scf
| 11>   MaxIter 150
| 12> end
| 13>
| 14>
| 15>                          ****END OF INPUT****

CARTESIAN COORDINATES (ANGSTROEM)
---------------------------------
  C      3.380928    2.083045   -3.350127
  N      4.535924    1.182447   -3.428518
  C      2.495557    1.816150   -2.136364
  C      1.872181    0.427903   -2.077497
  H      2.614270   -0.365825   -2.198894
  H      1.389953    0.273087   -1.112360
  S      0.579024    0.140472   -3.297943
  C      4.671956    0.122273   -4.220598
  C      5.866023   -0.507849   -4.224284
  N      3.698881   -0.312844   -4.986988
  H      2.731405   -0.050091   -4.849000
  H      3.890046   -1.055172   -5.643730
  H      5.251933    1.303459   -2.721014
  H      6.695165   -0.062322   -3.851596
  H      5.975383   -1.396884   -4.691414
  O      0.228860   -1.246868   -3.127871
  F     -0.439269    1.118966   -3.014550
  O      1.247881    0.403474   -4.595647
  H      1.697003    2.561969   -2.141109
  H      3.080787    1.987436   -1.225838
  H      2.806463    1.986511   -4.268484
  H      3.778714    3.098282   -3.307383

 Total Charge           Charge          ....    0
 Multiplicity           Mult            ....    1
 Number of Electrons    NEL             ....   96
 Basis Dimension        Dim             ....  413

ORBITAL ENERGIES
----------------

  NO   OCC          E(Eh)            E(eV)
   0   2.0000     -88.604521     -2411.0516
   1   2.0000     -24.544880      -667.9002
   2   2.0000     -18.913689      -514.6677
   3   2.0000     -18.909382      -514.5505
   4   2.0000     -14.100808      -383.7025
   5   2.0000     -14.072784      -382.9399
   6   2.0000     -10.051419      -273.5130
   7   2.0000     -10.029122      -272.9063
   8   2.0000     -10.021804      -272.7071
   9   2.0000     -10.014314      -272.5033
  10   2.0000      -9.884232      -268.9636
  11   2.0000      -7.954131      -216.4429
  12   2.0000      -5.937344      -161.5633
  13   2.0000      -5.930935      -161.3890
  14   2.0000      -5.929968      -161.3626
  15   2.0000      -1.320008       -35.9192
  16   2.0000      -1.054128       -28.6843
  17   2.0000      -0.965604       -26.2754
  18   2.0000      -0.894288       -24.3348
  19   2.0000      -0.818285       -22.2667
  20   2.0000      -0.777073       -21.1452
  21   2.0000      -0.709234       -19.2992
  22   2.0000      -0.669108       -18.2074
  23   2.0000      -0.632742       -17.2178
  24   2.0000      -0.583469       -15.8770
  25   2.0000      -0.552570       -15.0362
  26   2.0000      -0.549923       -14.9642
  27   2.0000      -0.544350       -14.8125
  28   2.0000      -0.521067       -14.1789
  29   2.0000      -0.489972       -13.3328
  30   2.0000      -0.462412       -12.5829
  31   2.0000      -0.449949       -12.2437
  32   2.0000      -0.441713       -12.0196
  33   2.0000      -0.434079       -11.8119
  34   2.0000      -0.413778       -11.2595
  35   2.0000      -0.407531       -11.0895
  36   2.0000      -0.375117       -10.2074
  37   2.0000      -0.372095       -10.1252
  38   2.0000      -0.362938        -9.8760
  39   2.0000      -0.351981        -9.5779
  40   2.0000      -0.338993        -9.2245
  41   2.0000      -0.324898        -8.8409
  42   2.0000      -0.310272        -8.4429
  43   2.0000      -0.301353        -8.2002
  44   2.0000      -0.297486        -8.0950
  45   2.0000      -0.288079        -7.8390
  46   2.0000      -0.206994        -5.6326
  47   2.0000      -0.119075        -3.2402
  48   0.0000      -0.026235        -0.7139
  49   0.0000       0.004154         0.1130
  50   0.0000       0.011249         0.3061
  51   0.0000       0.031220         0.8496
  52   0.0000       0.040101         1.0912

MULLIKEN ATOMIC CHARGES
-----------------------
   0 C :   -0.200106
   1 N :   -0.327010
   2 C :   -0.130524
   3 C :   -0.290264
   4 H :    0.193448
   5 H :    0.141415
   6 S :    0.782482
   7 C :    0.390629
   8 C :   -0.605012
   9 N :   -0.486859
  10 H :    0.252666
  11 H :    0.233791
  12 H :    0.217594
  13 H :    0.100005
  14 H :    0.093071
  15 O :   -0.354309
  16 F :   -0.065485
  17 O :   -0.427880
  18 H :    0.091076
  19 H :    0.105733
  20 H :    0.173955
  21 H :    0.111585
Sum of atomic charges:    0.0000000

LOEWDIN ATOMIC CHARGES
----------------------
   0 C :   -0.285541
   1 N :    0.123959
   2 C :   -0.288660
   3 C :   -0.363442
   4 H :    0.158523
   5 H :    0.138937
   6 S :    0.507131
   7 C :   -0.487719
   8 C :   -0.364547
   9 N :    0.015401
  10 H :    0.126875
  11 H :    0.175980
  12 H :    0.190723
  13 H :    0.089259
  14 H :    0.089972
  15 O :   -0.224448
  16 F :    0.118611
  17 O :   -0.268124
  18 H :    0.135545
  19 H :    0.142091
  20 H :    0.139017
  21 H :    0.130457

  Mayer bond orders larger than 0.100000
B(  0-C ,  1-N ) :   0.9518 B(  0-C ,  2-C ) :   0.9915 B(  0-C , 20-H ) :   0.9545
B(  0-C , 21-H ) :   0.9564 B(  1-N ,  7-C ) :   1.1641 B(  1-N , 12-H ) :   0.9179
B(  2-C ,  3-C ) :   0.9922 B(  2-C , 18-H ) :   0.9393 B(  2-C , 19-H ) :   0.9325
B(  3-C ,  4-H ) :   0.9202 B(  3-C ,  5-H ) :   0.9311 B(  3-C ,  6-S ) :   0.9290
B(  6-S , 15-O ) :   1.9807 B(  6-S , 16-F ) :   1.1668 B(  6-S , 17-O ) :   1.7439
B(  7-C ,  8-C ) :   1.5590 B(  7-C ,  9-N ) :   1.2043 B(  8-C , 13-H ) :   0.9916
B(  8-C , 14-H ) :   0.9931 B(  9-N , 10-H ) :   0.8452 B(  9-N , 11-H ) :   0.9204
B( 10-H , 17-O ) :   0.1035

Dispersion correction           -0.031483100
FINAL SINGLE POINT ENERGY      -955.418944943299

DIPOLE MOMENT
-------------
                                X             Y             Z
Electronic contribution:    -17.90500      -1.26881      -0.26676
Nuclear contribution   :     16.78714       2.58368       1.61768
                        -----------------------------------------
Total Dipole Moment    :     -1.11786       1.31488       1.35092
                        -----------------------------------------
Magnitude (a.u.)       :      2.19169
Magnitude (Debye)      :      5.57084

Rotational constants in cm-1:     0.059928     0.020911     0.017993
Rotational constants in MHz :  1796.610847   626.896941   539.414615

                             ****ORCA TERMINATED NORMALLY****
TOTAL RUN TIME: 0 days 0 hours 0 minutes 17 seconds 174 msec
