                         Program Version 5.0.0 -  RELEASE  -
|  1> !TPSS D3BJ RIJCOSX def2-TZVP def2/J TightSCF xyzfile
|  2>
|  3> *xyzfile 0 1 D6.xyz
|  4>
|  5> %MaxCore 64000
|  6>
|  7> %pal nprocs 18
|  8> end
|  9>
| 10> %scf
| 11>   MaxIter 150
| 12> end
| 13>
| 14>
| 15>                          ****END OF INPUT****

CARTESIAN COORDINATES (ANGSTROEM)
---------------------------------
  C      3.380928    2.083045   -3.350127
  N      4.535924    1.182447   -3.428518
  C      2.495557    1.816150   -2.136364
  C      1.872181    0.427903   -2.077497
  H      2.614270   -0.365825   -2.198894
  H      1.389953    0.273087   -1.112360
  S      0.579024    0.140472   -3.297943
  C      4.671956    0.122273   -4.220598
  N      5.866023   -0.507849   -4.224284
  C      3.698881   -0.312844   -4.986988
  H      2.731405   -0.050091   -4.849000
  H      3.890046   -1.055172   -5.643730
  H      5.251933    1.303459   -2.721014
  H      6.695165   -0.062322   -3.851596
  H      5.975383   -1.396884   -4.691414
  O      0.228860   -1.246868   -3.127871
  F     -0.439269    1.118966   -3.014550
  O      1.247881    0.403474   -4.595647
  H      1.697003    2.561969   -2.141109
  H      3.080787    1.987436   -1.225838
  H      2.806463    1.986511   -4.268484
  H      3.778714    3.098282   -3.307383

 Total Charge           Charge          ....    0
 Multiplicity           Mult            ....    1
 Number of Electrons    NEL             ....   96
 Basis Dimension        Dim             ....  413

ORBITAL ENERGIES
----------------

  NO   OCC          E(Eh)            E(eV)
   0   2.0000     -88.580877     -2410.4082
   1   2.0000     -24.524276      -667.3395
   2   2.0000     -18.892909      -514.1022
   3   2.0000     -18.881175      -513.7829
   4   2.0000     -14.100694      -383.6994
   5   2.0000     -14.089650      -383.3989
   6   2.0000     -10.036675      -273.1118
   7   2.0000     -10.022868      -272.7361
   8   2.0000     -10.013345      -272.4770
   9   2.0000     -10.011578      -272.4289
  10   2.0000      -9.872757      -268.6514
  11   2.0000      -7.930620      -215.8031
  12   2.0000      -5.913937      -160.9264
  13   2.0000      -5.907130      -160.7412
  14   2.0000      -5.906635      -160.7277
  15   2.0000      -1.299848       -35.3707
  16   2.0000      -1.030742       -28.0479
  17   2.0000      -0.940057       -25.5803
  18   2.0000      -0.893194       -24.3051
  19   2.0000      -0.817130       -22.2352
  20   2.0000      -0.764124       -20.7929
  21   2.0000      -0.690810       -18.7979
  22   2.0000      -0.658410       -17.9162
  23   2.0000      -0.637806       -17.3556
  24   2.0000      -0.589598       -16.0438
  25   2.0000      -0.538693       -14.6586
  26   2.0000      -0.527592       -14.3565
  27   2.0000      -0.516176       -14.0459
  28   2.0000      -0.502050       -13.6615
  29   2.0000      -0.484198       -13.1757
  30   2.0000      -0.467588       -12.7237
  31   2.0000      -0.447395       -12.1742
  32   2.0000      -0.439689       -11.9645
  33   2.0000      -0.416201       -11.3254
  34   2.0000      -0.401831       -10.9344
  35   2.0000      -0.399094       -10.8599
  36   2.0000      -0.369062       -10.0427
  37   2.0000      -0.355119        -9.6633
  38   2.0000      -0.351691        -9.5700
  39   2.0000      -0.344369        -9.3707
  40   2.0000      -0.335050        -9.1172
  41   2.0000      -0.322333        -8.7711
  42   2.0000      -0.306362        -8.3365
  43   2.0000      -0.281756        -7.6670
  44   2.0000      -0.265126        -7.2144
  45   2.0000      -0.254961        -6.9378
  46   2.0000      -0.206518        -5.6196
  47   2.0000      -0.128545        -3.4979
  48   0.0000      -0.006015        -0.1637
  49   0.0000       0.008144         0.2216
  50   0.0000       0.025205         0.6859
  51   0.0000       0.031012         0.8439
  52   0.0000       0.048462         1.3187

MULLIKEN ATOMIC CHARGES
-----------------------
   0 C :   -0.146251
   1 N :   -0.356091
   2 C :   -0.155066
   3 C :   -0.274659
   4 H :    0.190460
   5 H :    0.133661
   6 S :    0.760357
   7 C :    0.418461
   8 N :   -0.531814
   9 C :   -0.583655
  10 H :    0.178828
  11 H :    0.077341
  12 H :    0.184191
  13 H :    0.213086
  14 H :    0.246045
  15 O :   -0.365653
  16 F :   -0.072846
  17 O :   -0.392393
  18 H :    0.092176
  19 H :    0.097538
  20 H :    0.181803
  21 H :    0.104483
Sum of atomic charges:    0.0000000

LOEWDIN ATOMIC CHARGES
----------------------
   0 C :   -0.268464
   1 N :    0.115089
   2 C :   -0.289004
   3 C :   -0.363975
   4 H :    0.157274
   5 H :    0.135279
   6 S :    0.496056
   7 C :   -0.487930
   8 N :   -0.027136
   9 C :   -0.316033
  10 H :    0.080354
  11 H :    0.095312
  12 H :    0.171019
  13 H :    0.151220
  14 H :    0.171417
  15 O :   -0.233471
  16 F :    0.109743
  17 O :   -0.247400
  18 H :    0.136256
  19 H :    0.138679
  20 H :    0.146563
  21 H :    0.129152

  Mayer bond orders larger than 0.100000
B(  0-C ,  1-N ) :   0.9247 B(  0-C ,  2-C ) :   1.0110 B(  0-C , 20-H ) :   0.9463
B(  0-C , 21-H ) :   0.9546 B(  1-N ,  7-C ) :   1.1277 B(  1-N , 12-H ) :   0.9210
B(  2-C ,  3-C ) :   0.9995 B(  2-C , 18-H ) :   0.9412 B(  2-C , 19-H ) :   0.9345
B(  3-C ,  4-H ) :   0.9260 B(  3-C ,  5-H ) :   0.9308 B(  3-C ,  6-S ) :   0.9234
B(  6-S , 15-O ) :   1.9694 B(  6-S , 16-F ) :   1.1476 B(  6-S , 17-O ) :   1.8064
B(  7-C ,  8-N ) :   1.0700 B(  7-C ,  9-C ) :   1.6235 B(  8-N , 13-H ) :   0.9185
B(  8-N , 14-H ) :   0.9156 B(  9-C , 10-H ) :   0.9727 B(  9-C , 11-H ) :   0.9955

Dispersion correction           -0.031760789
FINAL SINGLE POINT ENERGY      -955.403266120735

DIPOLE MOMENT
-------------
                                X             Y             Z
Electronic contribution:    -15.79343      -1.49462       0.17334
Nuclear contribution   :     16.57580       2.60270       1.54331
                        -----------------------------------------
Total Dipole Moment    :      0.78237       1.10808       1.71664
                        -----------------------------------------
Magnitude (a.u.)       :      2.18788
Magnitude (Debye)      :      5.56114

Rotational constants in cm-1:     0.060402     0.020377     0.017632
Rotational constants in MHz :  1810.792194   610.900365   528.582827

                             ****ORCA TERMINATED NORMALLY****
TOTAL RUN TIME: 0 days 0 hours 0 minutes 16 seconds 308 msec
