                         Program Version 5.0.0 -  RELEASE  -
|  1> !TPSS D3BJ RIJCOSX def2-TZVP def2/J TightSCF xyzfile
|  2>
|  3> *xyzfile 0 1 D8.xyz
|  4>
|  5> %MaxCore 64000
|  6>
|  7> %pal nprocs 18
|  8> end
|  9>
| 10> %scf
| 11>   MaxIter 150
| 12> end
| 13>
| 14>
| 15>                          ****END OF INPUT****

CARTESIAN COORDINATES (ANGSTROEM)
---------------------------------
  C      3.380928    2.083045   -3.350127
  N      4.535924    1.182447   -3.428518
  C      2.495557    1.816150   -2.136364
  C      1.872181    0.427903   -2.077497
  H      2.614270   -0.365825   -2.198894
  H      1.389953    0.273087   -1.112360
  S      0.579024    0.140472   -3.297943
  C      4.671956    0.122273   -4.220598
  C      5.866023   -0.507849   -4.224284
  N      3.698881   -0.312844   -4.986988
  H      2.731405   -0.050091   -4.849000
  H      3.890046   -1.055172   -5.643730
  H      5.251933    1.303459   -2.721014
  H      6.695165   -0.062322   -3.851596
  H      5.975383   -1.396884   -4.691414
  O      0.228860   -1.246868   -3.127871
  O     -0.439269    1.118966   -3.014550
  F      1.247881    0.403474   -4.595647
  H      1.697003    2.561969   -2.141109
  H      3.080787    1.987436   -1.225838
  H      2.806463    1.986511   -4.268484
  H      3.778714    3.098282   -3.307383

 Total Charge           Charge          ....    0
 Multiplicity           Mult            ....    1
 Number of Electrons    NEL             ....   96
 Basis Dimension        Dim             ....  413

ORBITAL ENERGIES
----------------

  NO   OCC          E(Eh)            E(eV)
   0   2.0000     -88.594007     -2410.7655
   1   2.0000     -24.532534      -667.5642
   2   2.0000     -18.908825      -514.5353
   3   2.0000     -18.907949      -514.5115
   4   2.0000     -14.112900      -384.0315
   5   2.0000     -14.102039      -383.7360
   6   2.0000     -10.047501      -273.4064
   7   2.0000     -10.042245      -273.2634
   8   2.0000     -10.030889      -272.9544
   9   2.0000     -10.020596      -272.6743
  10   2.0000      -9.899468      -269.3782
  11   2.0000      -7.944164      -216.1717
  12   2.0000      -5.927859      -161.3053
  13   2.0000      -5.920296      -161.0994
  14   2.0000      -5.920104      -161.0942
  15   2.0000      -1.298538       -35.3350
  16   2.0000      -1.055813       -28.7301
  17   2.0000      -0.969271       -26.3752
  18   2.0000      -0.912075       -24.8188
  19   2.0000      -0.837576       -22.7916
  20   2.0000      -0.777659       -21.1612
  21   2.0000      -0.712796       -19.3962
  22   2.0000      -0.667427       -18.1616
  23   2.0000      -0.647024       -17.6064
  24   2.0000      -0.590944       -16.0804
  25   2.0000      -0.564189       -15.3524
  26   2.0000      -0.552943       -15.0463
  27   2.0000      -0.534397       -14.5417
  28   2.0000      -0.510906       -13.9025
  29   2.0000      -0.488512       -13.2931
  30   2.0000      -0.468969       -12.7613
  31   2.0000      -0.453916       -12.3517
  32   2.0000      -0.446243       -12.1429
  33   2.0000      -0.437513       -11.9053
  34   2.0000      -0.422904       -11.5078
  35   2.0000      -0.413163       -11.2427
  36   2.0000      -0.384103       -10.4520
  37   2.0000      -0.369131       -10.0446
  38   2.0000      -0.362501        -9.8641
  39   2.0000      -0.355288        -9.6679
  40   2.0000      -0.346292        -9.4231
  41   2.0000      -0.338446        -9.2096
  42   2.0000      -0.321795        -8.7565
  43   2.0000      -0.310161        -8.4399
  44   2.0000      -0.300995        -8.1905
  45   2.0000      -0.290862        -7.9148
  46   2.0000      -0.224852        -6.1185
  47   2.0000      -0.134577        -3.6620
  48   0.0000      -0.021140        -0.5752
  49   0.0000       0.005813         0.1582
  50   0.0000       0.017860         0.4860
  51   0.0000       0.035949         0.9782
  52   0.0000       0.041268         1.1229

MULLIKEN ATOMIC CHARGES
-----------------------
   0 C :   -0.224438
   1 N :   -0.315024
   2 C :   -0.125476
   3 C :   -0.292583
   4 H :    0.179172
   5 H :    0.157463
   6 S :    0.772532
   7 C :    0.397583
   8 C :   -0.591333
   9 N :   -0.496322
  10 H :    0.224028
  11 H :    0.245536
  12 H :    0.223449
  13 H :    0.106250
  14 H :    0.097189
  15 O :   -0.368740
  16 O :   -0.374579
  17 F :   -0.109767
  18 H :    0.120765
  19 H :    0.103324
  20 H :    0.149596
  21 H :    0.121377
Sum of atomic charges:    0.0000000

LOEWDIN ATOMIC CHARGES
----------------------
   0 C :   -0.285323
   1 N :    0.126243
   2 C :   -0.287935
   3 C :   -0.364004
   4 H :    0.147016
   5 H :    0.150928
   6 S :    0.499231
   7 C :   -0.486842
   8 C :   -0.349699
   9 N :    0.007016
  10 H :    0.127877
  11 H :    0.180332
  12 H :    0.193749
  13 H :    0.092094
  14 H :    0.091448
  15 O :   -0.232226
  16 O :   -0.234568
  17 F :    0.073665
  18 H :    0.144557
  19 H :    0.141970
  20 H :    0.130619
  21 H :    0.133854

  Mayer bond orders larger than 0.100000
B(  0-C ,  1-N ) :   0.9472 B(  0-C ,  2-C ) :   1.0018 B(  0-C , 20-H ) :   0.9627
B(  0-C , 21-H ) :   0.9561 B(  1-N ,  7-C ) :   1.1745 B(  1-N , 12-H ) :   0.9161
B(  2-C ,  3-C ) :   0.9881 B(  2-C , 18-H ) :   0.9353 B(  2-C , 19-H ) :   0.9310
B(  3-C ,  4-H ) :   0.9242 B(  3-C ,  5-H ) :   0.9269 B(  3-C ,  6-S ) :   0.9186
B(  6-S , 15-O ) :   1.9657 B(  6-S , 16-O ) :   1.9523 B(  6-S , 17-F ) :   1.0319
B(  7-C ,  8-C ) :   1.5735 B(  7-C ,  9-N ) :   1.1715 B(  8-C , 13-H ) :   0.9914
B(  8-C , 14-H ) :   0.9922 B(  9-N , 10-H ) :   0.8874 B(  9-N , 11-H ) :   0.9145

Dispersion correction           -0.031197629
FINAL SINGLE POINT ENERGY      -955.424557782392

DIPOLE MOMENT
-------------
                                X             Y             Z
Electronic contribution:    -14.72919      -2.47143      -2.93365
Nuclear contribution   :     14.93782       3.36795       3.35075
                        -----------------------------------------
Total Dipole Moment    :      0.20863       0.89652       0.41711
                        -----------------------------------------
Magnitude (a.u.)       :      1.01057
Magnitude (Debye)      :      2.56867

Rotational constants in cm-1:     0.059219     0.021387     0.018380
Rotational constants in MHz :  1775.354399   641.172207   551.019443

                             ****ORCA TERMINATED NORMALLY****
TOTAL RUN TIME: 0 days 0 hours 0 minutes 15 seconds 737 msec
