                         Program Version 5.0.0 -  RELEASE  -
|  1> !TPSS D3BJ RIJCOSX def2-TZVP def2/J TightSCF xyzfile
|  2>
|  3> *xyzfile 0 1 D9.xyz
|  4>
|  5> %MaxCore 64000
|  6>
|  7> %pal nprocs 18
|  8> end
|  9>
| 10> %scf
| 11>   MaxIter 150
| 12> end
| 13>
| 14>
| 15>                          ****END OF INPUT****

CARTESIAN COORDINATES (ANGSTROEM)
---------------------------------
  C      3.380928    2.083045   -3.350127
  N      4.535924    1.182447   -3.428518
  C      2.495557    1.816150   -2.136364
  C      1.872181    0.427903   -2.077497
  H      2.614270   -0.365825   -2.198894
  H      1.389953    0.273087   -1.112360
  S      0.579024    0.140472   -3.297943
  C      4.671956    0.122273   -4.220598
  N      5.866023   -0.507849   -4.224284
  C      3.698881   -0.312844   -4.986988
  H      2.731405   -0.050091   -4.849000
  H      3.890046   -1.055172   -5.643730
  H      5.251933    1.303459   -2.721014
  H      6.695165   -0.062322   -3.851596
  H      5.975383   -1.396884   -4.691414
  O      0.228860   -1.246868   -3.127871
  O     -0.439269    1.118966   -3.014550
  F      1.247881    0.403474   -4.595647
  H      1.697003    2.561969   -2.141109
  H      3.080787    1.987436   -1.225838
  H      2.806463    1.986511   -4.268484
  H      3.778714    3.098282   -3.307383

 Total Charge           Charge          ....    0
 Multiplicity           Mult            ....    1
 Number of Electrons    NEL             ....   96
 Basis Dimension        Dim             ....  413

ORBITAL ENERGIES
----------------

  NO   OCC          E(Eh)            E(eV)
   0   2.0000     -88.575783     -2410.2696
   1   2.0000     -24.501361      -666.7159
   2   2.0000     -18.891239      -514.0568
   3   2.0000     -18.889683      -514.0144
   4   2.0000     -14.114162      -384.0659
   5   2.0000     -14.104587      -383.8053
   6   2.0000     -10.035951      -273.0921
   7   2.0000     -10.033695      -273.0307
   8   2.0000     -10.030640      -272.9476
   9   2.0000     -10.012882      -272.4644
  10   2.0000      -9.897391      -269.3217
  11   2.0000      -7.925613      -215.6669
  12   2.0000      -5.909010      -160.7923
  13   2.0000      -5.901952      -160.6003
  14   2.0000      -5.901794      -160.5960
  15   2.0000      -1.268713       -34.5234
  16   2.0000      -1.037335       -28.2273
  17   2.0000      -0.951693       -25.8969
  18   2.0000      -0.908072       -24.7099
  19   2.0000      -0.830745       -22.6057
  20   2.0000      -0.764471       -20.8023
  21   2.0000      -0.691677       -18.8215
  22   2.0000      -0.671814       -18.2810
  23   2.0000      -0.636320       -17.3151
  24   2.0000      -0.597831       -16.2678
  25   2.0000      -0.535378       -14.5684
  26   2.0000      -0.526528       -14.3275
  27   2.0000      -0.508446       -13.8355
  28   2.0000      -0.501923       -13.6580
  29   2.0000      -0.490006       -13.3337
  30   2.0000      -0.472501       -12.8574
  31   2.0000      -0.448505       -12.2045
  32   2.0000      -0.433535       -11.7971
  33   2.0000      -0.418624       -11.3913
  34   2.0000      -0.417870       -11.3708
  35   2.0000      -0.397292       -10.8109
  36   2.0000      -0.373848       -10.1729
  37   2.0000      -0.366274        -9.9668
  38   2.0000      -0.352796        -9.6001
  39   2.0000      -0.346580        -9.4309
  40   2.0000      -0.341875        -9.3029
  41   2.0000      -0.329064        -8.9543
  42   2.0000      -0.314952        -8.5703
  43   2.0000      -0.293367        -7.9829
  44   2.0000      -0.284990        -7.7550
  45   2.0000      -0.273217        -7.4346
  46   2.0000      -0.219521        -5.9735
  47   2.0000      -0.147708        -4.0193
  48   0.0000      -0.003008        -0.0818
  49   0.0000       0.005169         0.1407
  50   0.0000       0.022830         0.6212
  51   0.0000       0.037754         1.0273
  52   0.0000       0.046487         1.2650

MULLIKEN ATOMIC CHARGES
-----------------------
   0 C :   -0.170592
   1 N :   -0.341721
   2 C :   -0.150535
   3 C :   -0.277523
   4 H :    0.176598
   5 H :    0.150449
   6 S :    0.778247
   7 C :    0.435099
   8 N :   -0.525998
   9 C :   -0.584190
  10 H :    0.122057
  11 H :    0.088409
  12 H :    0.191522
  13 H :    0.220030
  14 H :    0.249121
  15 O :   -0.379295
  16 O :   -0.388879
  17 F :   -0.084231
  18 H :    0.120749
  19 H :    0.095310
  20 H :    0.161557
  21 H :    0.113814
Sum of atomic charges:   -0.0000000

LOEWDIN ATOMIC CHARGES
----------------------
   0 C :   -0.267754
   1 N :    0.120112
   2 C :   -0.288052
   3 C :   -0.363308
   4 H :    0.146330
   5 H :    0.147320
   6 S :    0.503423
   7 C :   -0.480125
   8 N :   -0.018983
   9 C :   -0.334068
  10 H :    0.076154
  11 H :    0.098079
  12 H :    0.175024
  13 H :    0.155187
  14 H :    0.173367
  15 O :   -0.238557
  16 O :   -0.245243
  17 F :    0.085806
  18 H :    0.145020
  19 H :    0.138663
  20 H :    0.139083
  21 H :    0.132520

  Mayer bond orders larger than 0.100000
B(  0-C ,  1-N ) :   0.9184 B(  0-C ,  2-C ) :   1.0219 B(  0-C , 20-H ) :   0.9545
B(  0-C , 21-H ) :   0.9547 B(  1-N ,  7-C ) :   1.1502 B(  1-N , 12-H ) :   0.9189
B(  2-C ,  3-C ) :   0.9987 B(  2-C , 18-H ) :   0.9370 B(  2-C , 19-H ) :   0.9329
B(  3-C ,  4-H ) :   0.9293 B(  3-C ,  5-H ) :   0.9277 B(  3-C ,  6-S ) :   0.9150
B(  6-S , 15-O ) :   1.9583 B(  6-S , 16-O ) :   1.9390 B(  6-S , 17-F ) :   1.0808
B(  7-C ,  8-N ) :   1.0881 B(  7-C ,  9-C ) :   1.5990 B(  8-N , 13-H ) :   0.9172
B(  8-N , 14-H ) :   0.9142 B(  9-C , 10-H ) :   1.0074 B(  9-C , 11-H ) :   0.9913

Dispersion correction           -0.031465074
FINAL SINGLE POINT ENERGY      -955.421501676532

DIPOLE MOMENT
-------------
                                X             Y             Z
Electronic contribution:    -12.66716      -2.68108      -2.44207
Nuclear contribution   :     14.72648       3.38697       3.27638
                        -----------------------------------------
Total Dipole Moment    :      2.05933       0.70589       0.83431
                        -----------------------------------------
Magnitude (a.u.)       :      2.33134
Magnitude (Debye)      :      5.92581

Rotational constants in cm-1:     0.059651     0.020833     0.018010
Rotational constants in MHz :  1788.283887   624.555661   539.921162

                             ****ORCA TERMINATED NORMALLY****
TOTAL RUN TIME: 0 days 0 hours 0 minutes 17 seconds 750 msec
