                         Program Version 5.0.0 -  RELEASE  -
|  1> !wB97X-D3 RIJCOSX def2-SVPD def2/J TightSCF
|  2> *xyz -1 1
|  3> C         -0.77455        2.78833       -0.54394
|  4> C          0.69721        3.22791       -0.52513
|  5> O          1.48929        2.37470        0.19919
|  6> H          0.71600        4.26403       -0.13077
|  7> H          1.03615        3.33092       -1.58367
|  8> H         -1.34746        3.48478       -1.11982
|  9> H         -1.15078        2.75876        0.45729
| 10> H         -0.85058        1.81526       -0.98241
| 11> *
| 12>
| 13> %MaxCore 64000
| 14> %pal nprocs 18
| 15> end
| 16>
| 17> %scf
| 18>   MaxIter 150
| 19> end
| 20>
| 21>
| 22>                          ****END OF INPUT****

CARTESIAN COORDINATES (ANGSTROEM)
---------------------------------
  C     -0.774550    2.788330   -0.543940
  C      0.697210    3.227910   -0.525130
  O      1.489290    2.374700    0.199190
  H      0.716000    4.264030   -0.130770
  H      1.036150    3.330920   -1.583670
  H     -1.347460    3.484780   -1.119820
  H     -1.150780    2.758760    0.457290
  H     -0.850580    1.815260   -0.982410

 Total Charge           Charge          ....   -1
 Multiplicity           Mult            ....    1
 Number of Electrons    NEL             ....   26
 Basis Dimension        Dim             ....  103

ORBITAL ENERGIES
----------------

  NO   OCC          E(Eh)            E(eV)
   0   2.0000     -18.907511      -514.4995
   1   2.0000     -10.103615      -274.9333
   2   2.0000     -10.080565      -274.3061
   3   2.0000      -0.781428       -21.2637
   4   2.0000      -0.632970       -17.2240
   5   2.0000      -0.475120       -12.9287
   6   2.0000      -0.351000        -9.5512
   7   2.0000      -0.326994        -8.8980
   8   2.0000      -0.270469        -7.3598
   9   2.0000      -0.250920        -6.8279
  10   2.0000      -0.205369        -5.5884
  11   2.0000      -0.059044        -1.6067
  12   2.0000      -0.057292        -1.5590
  13   0.0000       0.246098         6.6967
  14   0.0000       0.277495         7.5510
  15   0.0000       0.316321         8.6075
  16   0.0000       0.328495         8.9388
  17   0.0000       0.344433         9.3725

MULLIKEN ATOMIC CHARGES
-----------------------
   0 C :    0.296131
   1 C :    0.147633
   2 O :   -0.918205
   3 H :   -0.156564
   4 H :   -0.144870
   5 H :   -0.055989
   6 H :   -0.083723
   7 H :   -0.084413
Sum of atomic charges:   -1.0000000

LOEWDIN ATOMIC CHARGES
----------------------
   0 C :    0.057513
   1 C :   -0.261713
   2 O :   -0.596915
   3 H :   -0.032505
   4 H :   -0.028464
   5 H :   -0.056935
   6 H :   -0.040236
   7 H :   -0.040745

  Mayer bond orders larger than 0.100000
B(  0-C ,  1-C ) :   1.1789 B(  0-C ,  2-O ) :   0.1049 B(  0-C ,  3-H ) :   0.1091
B(  0-C ,  4-H ) :   0.1020 B(  0-C ,  5-H ) :   0.8899 B(  0-C ,  6-H ) :   0.9044
B(  0-C ,  7-H ) :   0.9075 B(  1-C ,  2-O ) :   1.1805 B(  1-C ,  3-H ) :   0.9766
B(  1-C ,  4-H ) :   0.9843 B(  1-C ,  5-H ) :   0.1155 B(  1-C ,  6-H ) :   0.1654
B(  1-C ,  7-H ) :   0.1637

Dispersion correction           -0.000860166
FINAL SINGLE POINT ENERGY      -154.273765727894

DIPOLE MOMENT
-------------
                                X             Y             Z
Electronic contribution:      2.28611      -0.96030       1.10585
Nuclear contribution   :     -3.69910       1.55962      -1.78699
                        -----------------------------------------
Total Dipole Moment    :     -1.41298       0.59932      -0.68114
                        -----------------------------------------
Magnitude (a.u.)       :      1.67919
Magnitude (Debye)      :      4.26815

Rotational constants in cm-1:     1.268893     0.327436     0.287754
Rotational constants in MHz : 38040.440181  9816.269339  8626.646564

                             ****ORCA TERMINATED NORMALLY****
TOTAL RUN TIME: 0 days 0 hours 0 minutes 4 seconds 463 msec
