                         Program Version 5.0.0 -  RELEASE  -
|  1> !wB97X-D3 RIJCOSX def2-SVPD def2/J TightSCF
|  2> *xyz 1 1
|  3> C          3.95643        0.50147       -0.37910
|  4> H          3.16840        0.02920        0.20738
|  5> N          3.80389        1.96157       -0.15675
|  6> C          3.84232        0.14849       -1.85406
|  7> H          4.92323        0.17798        0.00937
|  8> H          4.20643        2.24441        0.74536
|  9> H          2.80827        2.21132       -0.09610
| 10> H          4.28076        2.50155       -0.89104
| 11> H          4.62951        0.62800       -2.39748
| 12> H          2.89665        0.48102       -2.22825
| 13> H          3.92053       -0.91187       -1.97413
| 14> *
| 15>
| 16> %MaxCore 64000
| 17> %pal nprocs 18
| 18> end
| 19>
| 20> %scf
| 21>   MaxIter 150
| 22> end
| 23>
| 24>
| 25>                          ****END OF INPUT****

CARTESIAN COORDINATES (ANGSTROEM)
---------------------------------
  C      3.956430    0.501470   -0.379100
  H      3.168400    0.029200    0.207380
  N      3.803890    1.961570   -0.156750
  C      3.842320    0.148490   -1.854060
  H      4.923230    0.177980    0.009370
  H      4.206430    2.244410    0.745360
  H      2.808270    2.211320   -0.096100
  H      4.280760    2.501550   -0.891040
  H      4.629510    0.628000   -2.397480
  H      2.896650    0.481020   -2.228250
  H      3.920530   -0.911870   -1.974130

 Total Charge           Charge          ....    1
 Multiplicity           Mult            ....    1
 Number of Electrons    NEL             ....   26
 Basis Dimension        Dim             ....  124

ORBITAL ENERGIES
----------------

  NO   OCC          E(Eh)            E(eV)
   0   2.0000     -14.775443      -402.0603
   1   2.0000     -10.544459      -286.9293
   2   2.0000     -10.464905      -284.7645
   3   2.0000      -1.327304       -36.1178
   4   2.0000      -1.076930       -29.3048
   5   2.0000      -0.952410       -25.9164
   6   2.0000      -0.908920       -24.7330
   7   2.0000      -0.890159       -24.2225
   8   2.0000      -0.799039       -21.7430
   9   2.0000      -0.744074       -20.2473
  10   2.0000      -0.680440       -18.5157
  11   2.0000      -0.665207       -18.1012
  12   2.0000      -0.646704       -17.5977
  13   0.0000      -0.112685        -3.0663
  14   0.0000      -0.053626        -1.4593
  15   0.0000      -0.050676        -1.3790
  16   0.0000      -0.044991        -1.2243
  17   0.0000      -0.014288        -0.3888

MULLIKEN ATOMIC CHARGES
-----------------------
   0 C :    0.133845
   1 H :   -0.029090
   2 N :   -0.890500
   3 C :    0.460781
   4 H :   -0.007861
   5 H :    0.392204
   6 H :    0.434191
   7 H :    0.437992
   8 H :    0.001417
   9 H :    0.033600
  10 H :    0.033419
Sum of atomic charges:    1.0000000

LOEWDIN ATOMIC CHARGES
----------------------
   0 C :    0.052001
   1 H :    0.053827
   2 N :    0.323258
   3 C :    0.164996
   4 H :    0.054945
   5 H :    0.108617
   6 H :    0.112313
   7 H :    0.108507
   8 H :    0.001963
   9 H :    0.002846
  10 H :    0.016728

  Mayer bond orders larger than 0.100000
B(  0-C ,  1-H ) :   0.9439 B(  0-C ,  2-N ) :   0.7348 B(  0-C ,  3-C ) :   1.3015
B(  0-C ,  4-H ) :   0.9617 B(  0-C ,  8-H ) :   0.1388 B(  0-C ,  9-H ) :   0.1264
B(  0-C , 10-H ) :   0.1626 B(  1-H ,  2-N ) :   0.1090 B(  2-N ,  5-H ) :   0.7463
B(  2-N ,  6-H ) :   0.6929 B(  2-N ,  7-H ) :   0.6710 B(  3-C ,  8-H ) :   0.8621
B(  3-C ,  9-H ) :   0.8514 B(  3-C , 10-H ) :   0.8534

Dispersion correction           -0.001507994
FINAL SINGLE POINT ENERGY      -135.408839645501

DIPOLE MOMENT
-------------
                                X             Y             Z
Electronic contribution:     -0.01286       1.34747       1.25715
Nuclear contribution   :     -0.06214      -0.04120      -0.39947
                        -----------------------------------------
Total Dipole Moment    :     -0.07501       1.30627       0.85768
                        -----------------------------------------
Magnitude (a.u.)       :      1.56447
Magnitude (Debye)      :      3.97658

Rotational constants in cm-1:     1.011771     0.281435     0.249812
Rotational constants in MHz : 30332.138762  8437.210602  7489.166323

                             ****ORCA TERMINATED NORMALLY****
TOTAL RUN TIME: 0 days 0 hours 0 minutes 5 seconds 382 msec
