                         Program Version 5.0.0 -  RELEASE  -
|  1> !wB97X-D3 RIJCOSX def2-SVPD def2/J TightSCF xyzfile
|  2>
|  3> *xyzfile 0 1 B.xyz
|  4>
|  5> %MaxCore 64000
|  6>
|  7> %pal nprocs 18
|  8> end
|  9>
| 10> %scf
| 11>   MaxIter 150
| 12> end
| 13>
| 14>
| 15>                          ****END OF INPUT****

CARTESIAN COORDINATES (ANGSTROEM)
---------------------------------
  C      3.956426    0.501466   -0.379100
  H      3.168398    0.029201    0.207383
  N      3.803893    1.961572   -0.156747
  C      3.842322    0.148490   -1.854058
  H      4.923231    0.177982    0.009371
  H      4.620021    0.694502   -2.402150
  H      4.096015   -0.910930   -1.955103
  C      2.475619    0.412708   -2.485377
  H      2.174689    1.445076   -2.287971
  C      1.383931   -0.532740   -1.995203
  H      2.575613    0.318574   -3.571460
  H      1.264698   -0.412309   -0.915491
  H      1.705223   -1.566885   -2.164984
  C      0.031398   -0.317260   -2.677791
  C     -0.587292    1.060853   -2.436460
  H     -0.662815   -1.089530   -2.329985
  H      0.149465   -0.478040   -3.755648
  H      0.104376    1.828590   -2.793130
  C     -0.951213    1.334978   -0.972500
  H     -1.478832    1.161355   -3.062484
  H     -0.317007    0.741648   -0.311389
  H     -1.980916    1.012842   -0.788958
  C     -0.774550    2.788332   -0.543943
  H     -1.352609    3.459372   -1.192585
  H     -1.171014    2.902331    0.469968
  C      0.697208    3.227911   -0.525126
  O      1.489294    2.374703    0.199189
  H      0.715998    4.264030   -0.130774
  H      1.036148    3.330920   -1.583669
  H      4.206425    2.244406    0.745359
  H      2.808269    2.211323   -0.096097
  H      4.280757    2.501552   -0.891037

 Total Charge           Charge          ....    0
 Multiplicity           Mult            ....    1
 Number of Electrons    NEL             ....   90
 Basis Dimension        Dim             ....  391

ORBITAL ENERGIES
----------------

  NO   OCC          E(Eh)            E(eV)
   0   2.0000     -19.113433      -520.1029
   1   2.0000     -14.518511      -395.0688
   2   2.0000     -10.358260      -281.8626
   3   2.0000     -10.313839      -280.6538
   4   2.0000     -10.287866      -279.9471
   5   2.0000     -10.275232      -279.6033
   6   2.0000     -10.273070      -279.5444
   7   2.0000     -10.269521      -279.4479
   8   2.0000     -10.257097      -279.1098
   9   2.0000     -10.243697      -278.7452
  10   2.0000     -10.236522      -278.5499
  11   2.0000      -1.099187       -29.9104
  12   2.0000      -0.994496       -27.0616
  13   2.0000      -0.929734       -25.2993
  14   2.0000      -0.889852       -24.2141
  15   2.0000      -0.850790       -23.1512
  16   2.0000      -0.806859       -21.9558
  17   2.0000      -0.768421       -20.9098
  18   2.0000      -0.728720       -19.8295
  19   2.0000      -0.700541       -19.0627
  20   2.0000      -0.675867       -18.3913
  21   2.0000      -0.672673       -18.3044
  22   2.0000      -0.651602       -17.7310
  23   2.0000      -0.612735       -16.6734
  24   2.0000      -0.593885       -16.1604
  25   2.0000      -0.570437       -15.5224
  26   2.0000      -0.569226       -15.4894
  27   2.0000      -0.538565       -14.6551
  28   2.0000      -0.523365       -14.2415
  29   2.0000      -0.518910       -14.1203
  30   2.0000      -0.499140       -13.5823
  31   2.0000      -0.489318       -13.3150
  32   2.0000      -0.478918       -13.0320
  33   2.0000      -0.460422       -12.5287
  34   2.0000      -0.451629       -12.2894
  35   2.0000      -0.439648       -11.9634
  36   2.0000      -0.431443       -11.7402
  37   2.0000      -0.418948       -11.4001
  38   2.0000      -0.408941       -11.1278
  39   2.0000      -0.403368       -10.9762
  40   2.0000      -0.381966       -10.3938
  41   2.0000      -0.376656       -10.2493
  42   2.0000      -0.372156       -10.1269
  43   2.0000      -0.274438        -7.4678
  44   2.0000      -0.267571        -7.2810
  45   0.0000       0.061864         1.6834
  46   0.0000       0.092103         2.5063
  47   0.0000       0.097728         2.6593
  48   0.0000       0.111026         3.0212
  49   0.0000       0.125876         3.4252

MULLIKEN ATOMIC CHARGES
-----------------------
   0 C :    0.806755
   1 H :    0.037722
   2 N :   -0.073490
   3 C :    0.183637
   4 H :   -0.233108
   5 H :   -0.065785
   6 H :   -0.047474
   7 C :    0.418601
   8 H :   -0.530465
   9 C :   -0.077207
  10 H :   -0.067607
  11 H :   -0.067307
  12 H :   -0.131988
  13 C :    0.536619
  14 C :    0.114905
  15 H :   -0.180237
  16 H :    0.043236
  17 H :   -0.101121
  18 C :    0.084602
  19 H :   -0.206163
  20 H :   -0.072187
  21 H :   -0.122119
  22 C :    0.212516
  23 H :   -0.134021
  24 H :    0.059171
  25 C :    0.455850
  26 O :   -0.677215
  27 H :   -0.330457
  28 H :    0.056803
  29 H :    0.371704
  30 H :   -0.637586
  31 H :    0.373417
Sum of atomic charges:    0.0000000

LOEWDIN ATOMIC CHARGES
----------------------
   0 C :    0.088314
   1 H :    0.039094
   2 N :    0.314879
   3 C :   -0.020260
   4 H :    0.029270
   5 H :    0.022475
   6 H :    0.029717
   7 C :   -0.020179
   8 H :   -0.004110
   9 C :   -0.028907
  10 H :    0.030269
  11 H :    0.002717
  12 H :    0.023701
  13 C :   -0.033182
  14 C :   -0.023207
  15 H :    0.023691
  16 H :    0.019595
  17 H :   -0.006083
  18 C :   -0.028301
  19 H :    0.019261
  20 H :   -0.006714
  21 H :    0.017444
  22 C :   -0.035048
  23 H :    0.019746
  24 H :    0.021475
  25 C :   -0.076795
  26 O :   -0.393788
  27 H :    0.006674
  28 H :   -0.007064
  29 H :    0.090306
  30 H :   -0.201401
  31 H :    0.086411

  Mayer bond orders larger than 0.100000
B(  0-C ,  1-H ) :   0.7948 B(  0-C ,  2-N ) :   0.8084 B(  0-C ,  3-C ) :   1.1301
B(  0-C ,  4-H ) :   0.8920 B(  0-C ,  6-H ) :   0.1235 B(  1-H ,  2-N ) :   0.1157
B(  1-H ,  3-C ) :   0.1102 B(  1-H ,  4-H ) :  -0.1149 B(  2-N , 26-O ) :  -0.1179
B(  2-N , 29-H ) :   0.7876 B(  2-N , 30-H ) :   1.4286 B(  2-N , 31-H ) :   0.7680
B(  3-C ,  4-H ) :   0.1037 B(  3-C ,  5-H ) :   0.7720 B(  3-C ,  6-H ) :   0.8982
B(  3-C ,  7-C ) :   1.1682 B(  5-H ,  7-C ) :   0.2208 B(  7-C ,  8-H ) :   0.8132
B(  7-C ,  9-C ) :   1.1635 B(  7-C , 10-H ) :   0.6940 B(  7-C , 11-H ) :   0.1162
B(  7-C , 12-H ) :   0.1470 B(  8-H ,  9-C ) :   0.2335 B(  8-H , 10-H ) :   0.1543
B(  9-C , 10-H ) :   0.1518 B(  9-C , 11-H ) :   0.8712 B(  9-C , 12-H ) :   0.8848
B(  9-C , 13-C ) :   1.1707 B(  9-C , 15-H ) :   0.2693 B(  9-C , 16-H ) :   0.1249
B( 11-H , 20-H ) :   0.1444 B( 13-C , 14-C ) :   1.1688 B( 13-C , 15-H ) :   0.7512
B( 13-C , 16-H ) :   0.7038 B( 13-C , 17-H ) :   0.1007 B( 14-C , 15-H ) :   0.1035
B( 14-C , 16-H ) :   0.2069 B( 14-C , 17-H ) :   0.8794 B( 14-C , 18-C ) :   1.1908
B( 14-C , 19-H ) :   0.8528 B( 14-C , 21-H ) :   0.2113 B( 15-H , 16-H ) :  -0.1175
B( 17-H , 18-C ) :   0.1121 B( 18-C , 19-H ) :   0.1903 B( 18-C , 20-H ) :   0.8495
B( 18-C , 21-H ) :   0.8126 B( 18-C , 22-C ) :   1.2346 B( 18-C , 23-H ) :   0.1146
B( 18-C , 24-H ) :   0.2047 B( 20-H , 22-C ) :   0.1300 B( 21-H , 22-C ) :   0.1032
B( 22-C , 23-H ) :   0.8584 B( 22-C , 24-H ) :   0.6969 B( 22-C , 25-C ) :   1.1643
B( 23-H , 25-C ) :   0.1670 B( 24-H , 25-C ) :   0.1187 B( 25-C , 26-O ) :   0.9767
B( 25-C , 27-H ) :   1.0292 B( 25-C , 28-H ) :   0.7972 B( 26-O , 30-H ) :   0.4838

Dispersion correction           -0.014836133
FINAL SINGLE POINT ENERGY      -485.107153280709

DIPOLE MOMENT
-------------
                                X             Y             Z
Electronic contribution:      2.13514       0.91572       2.53336
Nuclear contribution   :      0.61785      -1.47632      -2.91844
                        -----------------------------------------
Total Dipole Moment    :      2.75299      -0.56061      -0.38508
                        -----------------------------------------
Magnitude (a.u.)       :      2.83575
Magnitude (Debye)      :      7.20791

Rotational constants in cm-1:     0.040993     0.027400     0.018162
Rotational constants in MHz :  1228.944366   821.418004   544.476857

                             ****ORCA TERMINATED NORMALLY****
TOTAL RUN TIME: 0 days 0 hours 1 minutes 8 seconds 235 msec
