                         Program Version 5.0.0 -  RELEASE  -
|  1> !wB97X-D3 RIJCOSX def2-SVPD def2/J TightSCF
|  2> *xyz 0 1
|  3> C         -0.77455        2.78833       -0.54394
|  4> C          0.69721        3.22791       -0.52513
|  5> F          1.48929        2.37470        0.19919
|  6> H          0.71600        4.26403       -0.13077
|  7> H          1.03615        3.33092       -1.58367
|  8> H         -1.34746        3.48478       -1.11982
|  9> H         -1.15078        2.75876        0.45729
| 10> H         -0.85058        1.81526       -0.98241
| 11> *
| 12>
| 13> %MaxCore 64000
| 14> %pal nprocs 18
| 15> end
| 16>
| 17> %scf
| 18>   MaxIter 150
| 19> end
| 20>
| 21>
| 22>                          ****END OF INPUT****

CARTESIAN COORDINATES (ANGSTROEM)
---------------------------------
  C     -0.774550    2.788330   -0.543940
  C      0.697210    3.227910   -0.525130
  F      1.489290    2.374700    0.199190
  H      0.716000    4.264030   -0.130770
  H      1.036150    3.330920   -1.583670
  H     -1.347460    3.484780   -1.119820
  H     -1.150780    2.758760    0.457290
  H     -0.850580    1.815260   -0.982410

 Total Charge           Charge          ....    0
 Multiplicity           Mult            ....    1
 Number of Electrons    NEL             ....   26
 Basis Dimension        Dim             ....  103

ORBITAL ENERGIES
----------------

  NO   OCC          E(Eh)            E(eV)
   0   2.0000     -24.790577      -674.5859
   1   2.0000     -10.372506      -282.2502
   2   2.0000     -10.286387      -279.9068
   3   2.0000      -1.299762       -35.3683
   4   2.0000      -0.875632       -23.8271
   5   2.0000      -0.738305       -20.0903
   6   2.0000      -0.614352       -16.7174
   7   2.0000      -0.601265       -16.3613
   8   2.0000      -0.563118       -15.3232
   9   2.0000      -0.506330       -13.7779
  10   2.0000      -0.499592       -13.5946
  11   2.0000      -0.435654       -11.8547
  12   2.0000      -0.428283       -11.6542
  13   0.0000       0.093867         2.5543
  14   0.0000       0.124498         3.3878
  15   0.0000       0.154608         4.2071
  16   0.0000       0.159596         4.3428
  17   0.0000       0.186658         5.0792

MULLIKEN ATOMIC CHARGES
-----------------------
   0 C :    0.222495
   1 C :    0.362756
   2 F :   -0.462700
   3 H :   -0.032820
   4 H :   -0.020563
   5 H :   -0.008155
   6 H :   -0.029926
   7 H :   -0.031088
Sum of atomic charges:   -0.0000000

LOEWDIN ATOMIC CHARGES
----------------------
   0 C :    0.128679
   1 C :    0.066539
   2 F :   -0.223576
   3 H :    0.030285
   4 H :    0.035207
   5 H :   -0.011596
   6 H :   -0.012540
   7 H :   -0.012997

  Mayer bond orders larger than 0.100000
B(  0-C ,  1-C ) :   1.3160 B(  0-C ,  5-H ) :   0.8780 B(  0-C ,  6-H ) :   0.9077
B(  0-C ,  7-H ) :   0.9109 B(  1-C ,  2-F ) :   0.7351 B(  1-C ,  3-H ) :   0.9574
B(  1-C ,  4-H ) :   0.9595 B(  1-C ,  5-H ) :   0.1050 B(  1-C ,  6-H ) :   0.1227
B(  1-C ,  7-H ) :   0.1204

Dispersion correction           -0.000875231
FINAL SINGLE POINT ENERGY      -178.888389287038

DIPOLE MOMENT
-------------
                                X             Y             Z
Electronic contribution:      4.39447      -1.63372       1.98364
Nuclear contribution   :     -4.89513       2.05627      -2.36166
                        -----------------------------------------
Total Dipole Moment    :     -0.50067       0.42255      -0.37802
                        -----------------------------------------
Magnitude (a.u.)       :      0.75639
Magnitude (Debye)      :      1.92258

Rotational constants in cm-1:     1.247826     0.304622     0.269019
Rotational constants in MHz : 37408.889506  9132.346906  8064.979146

                             ****ORCA TERMINATED NORMALLY****
TOTAL RUN TIME: 0 days 0 hours 0 minutes 4 seconds 440 msec
