                         Program Version 5.0.0 -  RELEASE  -
|  1> !wB97X-D3 RIJCOSX def2-SVPD def2/J TightSCF
|  2> *xyz 0 1
|  3> C          3.95643        0.50147       -0.37910
|  4> H          3.16840        0.02920        0.20738
|  5> C          3.80389        1.96157       -0.15675
|  6> C          3.84232        0.14849       -1.85406
|  7> H          4.92323        0.17798        0.00937
|  8> H          4.20643        2.24441        0.74536
|  9> H          2.80827        2.21132       -0.09610
| 10> H          4.28076        2.50155       -0.89104
| 11> H          4.62951        0.62800       -2.39748
| 12> H          2.89665        0.48102       -2.22825
| 13> H          3.92053       -0.91187       -1.97413
| 14> *
| 15>
| 16> %MaxCore 64000
| 17> %pal nprocs 18
| 18> end
| 19>
| 20> %scf
| 21>   MaxIter 150
| 22> end
| 23>
| 24>
| 25>                          ****END OF INPUT****

CARTESIAN COORDINATES (ANGSTROEM)
---------------------------------
  C      3.956430    0.501470   -0.379100
  H      3.168400    0.029200    0.207380
  C      3.803890    1.961570   -0.156750
  C      3.842320    0.148490   -1.854060
  H      4.923230    0.177980    0.009370
  H      4.206430    2.244410    0.745360
  H      2.808270    2.211320   -0.096100
  H      4.280760    2.501550   -0.891040
  H      4.629510    0.628000   -2.397480
  H      2.896650    0.481020   -2.228250
  H      3.920530   -0.911870   -1.974130

 Total Charge           Charge          ....    0
 Multiplicity           Mult            ....    1
 Number of Electrons    NEL             ....   26
 Basis Dimension        Dim             ....  124

ORBITAL ENERGIES
----------------

  NO   OCC          E(Eh)            E(eV)
   0   2.0000     -10.275542      -279.6117
   1   2.0000     -10.267388      -279.3898
   2   2.0000     -10.249455      -278.9019
   3   2.0000      -0.903241       -24.5784
   4   2.0000      -0.797865       -21.7110
   5   2.0000      -0.689787       -18.7701
   6   2.0000      -0.571743       -15.5579
   7   2.0000      -0.547058       -14.8862
   8   2.0000      -0.500208       -13.6113
   9   2.0000      -0.487960       -13.2781
  10   2.0000      -0.431522       -11.7423
  11   2.0000      -0.428857       -11.6698
  12   2.0000      -0.418813       -11.3965
  13   0.0000       0.098063         2.6684
  14   0.0000       0.124594         3.3904
  15   0.0000       0.131934         3.5901
  16   0.0000       0.162234         4.4146
  17   0.0000       0.181297         4.9333

MULLIKEN ATOMIC CHARGES
-----------------------
   0 C :   -0.615424
   1 H :   -0.070124
   2 C :    0.836040
   3 C :    0.544854
   4 H :   -0.078129
   5 H :   -0.155049
   6 H :   -0.137140
   7 H :   -0.199374
   8 H :   -0.019569
   9 H :   -0.042126
  10 H :   -0.063959
Sum of atomic charges:    0.0000000

LOEWDIN ATOMIC CHARGES
----------------------
   0 C :   -0.121319
   1 H :    0.021646
   2 C :    0.107237
   3 C :    0.109015
   4 H :    0.021782
   5 H :   -0.033094
   6 H :   -0.026781
   7 H :   -0.029429
   8 H :   -0.015209
   9 H :   -0.013329
  10 H :   -0.020519

  Mayer bond orders larger than 0.100000
B(  0-C ,  1-H ) :   0.9594 B(  0-C ,  2-C ) :   1.2611 B(  0-C ,  3-C ) :   1.2358
B(  0-C ,  4-H ) :   0.9652 B(  0-C ,  5-H ) :   0.1916 B(  0-C ,  6-H ) :   0.2347
B(  0-C ,  7-H ) :   0.1867 B(  0-C ,  8-H ) :   0.1436 B(  0-C ,  9-H ) :   0.1694
B(  0-C , 10-H ) :   0.1722 B(  1-H ,  2-C ) :   0.1127 B(  2-C ,  5-H ) :   0.7469
B(  2-C ,  6-H ) :   0.7142 B(  2-C ,  7-H ) :   0.7760 B(  3-C ,  8-H ) :   0.8511
B(  3-C ,  9-H ) :   0.8550 B(  3-C , 10-H ) :   0.8498

Dispersion correction           -0.001455677
FINAL SINGLE POINT ENERGY      -119.012643279062

DIPOLE MOMENT
-------------
                                X             Y             Z
Electronic contribution:      0.08066      -0.29452       0.23355
Nuclear contribution   :     -0.08172       0.30475      -0.19303
                        -----------------------------------------
Total Dipole Moment    :     -0.00105       0.01024       0.04052
                        -----------------------------------------
Magnitude (a.u.)       :      0.04180
Magnitude (Debye)      :      0.10625

Rotational constants in cm-1:     1.020248     0.295755     0.261591
Rotational constants in MHz : 30586.266829  8866.511639  7842.297953

                             ****ORCA TERMINATED NORMALLY****
TOTAL RUN TIME: 0 days 0 hours 0 minutes 5 seconds 458 msec
