                         Program Version 5.0.0 -  RELEASE  -
|  1> !wB97X-D3 RIJCOSX def2-SVPD def2/J TightSCF
|  2> *xyz -1 1
|  3> C          0.70466        1.44313       -4.50363
|  4> C          1.72854        1.42432       -5.63944
|  5> H          2.64672        1.95379       -5.38105
|  6> H          1.29992        1.93061       -6.50361
|  7> S          2.25263       -0.18811       -6.27184
|  8> O          3.56261       -0.44446       -5.63155
|  9> O          2.34494       -0.03374       -7.69650
| 10> O          1.26606       -1.15918       -5.80536
| 11> H         -0.17385        0.91270       -4.80656
| 12> H          0.44778        2.45562       -4.27173
| 13> H          1.12367        0.97423       -3.63791
| 14> *
| 15>
| 16> %MaxCore 64000
| 17>
| 18> %pal nprocs 18
| 19> end
| 20>
| 21> %scf
| 22>   MaxIter 150
| 23> end
| 24>
| 25>
| 26>                          ****END OF INPUT****

CARTESIAN COORDINATES (ANGSTROEM)
---------------------------------
  C      0.704660    1.443130   -4.503630
  C      1.728540    1.424320   -5.639440
  H      2.646720    1.953790   -5.381050
  H      1.299920    1.930610   -6.503610
  S      2.252630   -0.188110   -6.271840
  O      3.562610   -0.444460   -5.631550
  O      2.344940   -0.033740   -7.696500
  O      1.266060   -1.159180   -5.805360
  H     -0.173850    0.912700   -4.806560
  H      0.447780    2.455620   -4.271730
  H      1.123670    0.974230   -3.637910

 Total Charge           Charge          ....   -1
 Multiplicity           Mult            ....    1
 Number of Electrons    NEL             ....   58
 Basis Dimension        Dim             ....  176

ORBITAL ENERGIES
----------------

  NO   OCC          E(Eh)            E(eV)
   0   2.0000     -88.976438     -2421.1720
   1   2.0000     -19.028810      -517.8003
   2   2.0000     -19.021562      -517.6030
   3   2.0000     -19.012914      -517.3677
   4   2.0000     -10.154520      -276.3185
   5   2.0000     -10.151278      -276.2303
   6   2.0000      -8.050033      -219.0525
   7   2.0000      -6.009552      -163.5282
   8   2.0000      -6.009480      -163.5263
   9   2.0000      -6.009108      -163.5161
  10   2.0000      -1.047356       -28.5000
  11   2.0000      -0.905025       -24.6270
  12   2.0000      -0.881182       -23.9782
  13   2.0000      -0.746799       -20.3214
  14   2.0000      -0.619457       -16.8563
  15   2.0000      -0.488860       -13.3026
  16   2.0000      -0.423938       -11.5359
  17   2.0000      -0.421654       -11.4738
  18   2.0000      -0.381348       -10.3770
  19   2.0000      -0.364494        -9.9184
  20   2.0000      -0.362303        -9.8588
  21   2.0000      -0.327182        -8.9031
  22   2.0000      -0.317678        -8.6445
  23   2.0000      -0.249948        -6.8014
  24   2.0000      -0.248679        -6.7669
  25   2.0000      -0.211428        -5.7532
  26   2.0000      -0.202843        -5.5196
  27   2.0000      -0.194641        -5.2964
  28   2.0000      -0.158945        -4.3251
  29   0.0000       0.205880         5.6023
  30   0.0000       0.229948         6.2572
  31   0.0000       0.233108         6.3432
  32   0.0000       0.238702         6.4954
  33   0.0000       0.259910         7.0725

MULLIKEN ATOMIC CHARGES
-----------------------
   0 C :    0.688703
   1 C :   -0.384151
   2 H :   -0.024893
   3 H :    0.020924
   4 S :    1.332259
   5 O :   -0.840628
   6 O :   -0.786432
   7 O :   -0.828327
   8 H :   -0.031414
   9 H :   -0.099887
  10 H :   -0.046153
Sum of atomic charges:   -1.0000000

LOEWDIN ATOMIC CHARGES
----------------------
   0 C :    0.096791
   1 C :   -0.123504
   2 H :    0.001647
   3 H :   -0.006286
   4 S :    0.872553
   5 O :   -0.607869
   6 O :   -0.579768
   7 O :   -0.586797
   8 H :   -0.020917
   9 H :   -0.031955
  10 H :   -0.013896

  Mayer bond orders larger than 0.100000
B(  0-C ,  1-C ) :   1.2662 B(  0-C ,  8-H ) :   0.8229 B(  0-C ,  9-H ) :   0.7869
B(  0-C , 10-H ) :   0.8318 B(  1-C ,  2-H ) :   0.9904 B(  1-C ,  3-H ) :   0.9745
B(  1-C ,  4-S ) :   0.9042 B(  1-C ,  8-H ) :   0.1954 B(  1-C ,  9-H ) :   0.1910
B(  1-C , 10-H ) :   0.1767 B(  4-S ,  5-O ) :   1.2913 B(  4-S ,  6-O ) :   1.3569
B(  4-S ,  7-O ) :   1.3063

Dispersion correction           -0.002812042
FINAL SINGLE POINT ENERGY      -702.689774595000

DIPOLE MOMENT
-------------
                                X             Y             Z
Electronic contribution:      3.60350      -5.52896      -4.25898
Nuclear contribution   :     -4.50297       7.24642       5.01775
                        -----------------------------------------
Total Dipole Moment    :     -0.89947       1.71746       0.75877
                        -----------------------------------------
Magnitude (a.u.)       :      2.08193
Magnitude (Debye)      :      5.29185

Rotational constants in cm-1:     0.162459     0.081286     0.079601
Rotational constants in MHz :  4870.394399  2436.893583  2386.374948

                             ****ORCA TERMINATED NORMALLY****
TOTAL RUN TIME: 0 days 0 hours 0 minutes 10 seconds 266 msec
