                         Program Version 5.0.0 -  RELEASE  -
|  1> !wB97X-D3 RIJCOSX def2-SVPD def2/J TightSCF
|  2> *xyz 1 1
|  3> C          2.91632       -1.24259       -1.54313
|  4> C          3.46659       -1.59097       -2.88908
|  5> N          4.65227       -1.14316       -3.25969
|  6> N          2.75226       -2.29204       -3.72803
|  7> H          1.77836       -2.48960       -3.51274
|  8> H          2.94861       -2.20854       -4.71681
|  9> H          5.14672       -0.51251       -2.63385
| 10> H          4.78303       -1.00720       -4.25350
| 11> C          2.80408        0.29070       -1.35924
| 12> H          1.94047       -1.71653       -1.44116
| 13> H          3.55857       -1.66343       -0.76637
| 14> H          2.17393        0.69633       -2.12297
| 15> H          3.77707        0.73043       -1.42880
| 16> H          2.38369        0.50492       -0.39889
| 17> *
| 18>
| 19> %MaxCore 64000
| 20>
| 21> %pal nprocs 18
| 22> end
| 23>
| 24> %scf
| 25>   MaxIter 150
| 26> end
| 27>
| 28>
| 29>                          ****END OF INPUT****

CARTESIAN COORDINATES (ANGSTROEM)
---------------------------------
  C      2.916320   -1.242590   -1.543130
  C      3.466590   -1.590970   -2.889080
  N      4.652270   -1.143160   -3.259690
  N      2.752260   -2.292040   -3.728030
  H      1.778360   -2.489600   -3.512740
  H      2.948610   -2.208540   -4.716810
  H      5.146720   -0.512510   -2.633850
  H      4.783030   -1.007200   -4.253500
  C      2.804080    0.290700   -1.359240
  H      1.940470   -1.716530   -1.441160
  H      3.558570   -1.663430   -0.766370
  H      2.173930    0.696330   -2.122970
  H      3.777070    0.730430   -1.428800
  H      2.383690    0.504920   -0.398890

 Total Charge           Charge          ....    1
 Multiplicity           Mult            ....    1
 Number of Electrons    NEL             ....   40
 Basis Dimension        Dim             ....  172

ORBITAL ENERGIES
----------------

  NO   OCC          E(Eh)            E(eV)
   0   2.0000     -14.688158      -399.6851
   1   2.0000     -14.682702      -399.5366
   2   2.0000     -10.619388      -288.9682
   3   2.0000     -10.493232      -285.5353
   4   2.0000     -10.453293      -284.4486
   5   2.0000      -1.323661       -36.0186
   6   2.0000      -1.220972       -33.2243
   7   2.0000      -1.083652       -29.4877
   8   2.0000      -0.972198       -26.4549
   9   2.0000      -0.925329       -25.1795
  10   2.0000      -0.875728       -23.8298
  11   2.0000      -0.857890       -23.3444
  12   2.0000      -0.800765       -21.7899
  13   2.0000      -0.770091       -20.9552
  14   2.0000      -0.727256       -19.7896
  15   2.0000      -0.702002       -19.1024
  16   2.0000      -0.650364       -17.6973
  17   2.0000      -0.640074       -17.4173
  18   2.0000      -0.626774       -17.0554
  19   2.0000      -0.594509       -16.1774
  20   0.0000      -0.141458        -3.8493
  21   0.0000      -0.082358        -2.2411
  22   0.0000      -0.038815        -1.0562
  23   0.0000      -0.037191        -1.0120
  24   0.0000      -0.008428        -0.2293

MULLIKEN ATOMIC CHARGES
-----------------------
   0 C :   -0.286039
   1 C :    0.483794
   2 N :    0.043498
   3 N :    0.008385
   4 H :    0.079367
   5 H :   -0.053690
   6 H :    0.068470
   7 H :   -0.025896
   8 C :    0.591533
   9 H :    0.065321
  10 H :    0.087830
  11 H :   -0.034661
  12 H :   -0.078152
  13 H :    0.050241
Sum of atomic charges:    1.0000000

LOEWDIN ATOMIC CHARGES
----------------------
   0 C :    0.018968
   1 C :   -0.043232
   2 N :    0.280159
   3 N :    0.277091
   4 H :    0.058514
   5 H :    0.051650
   6 H :    0.048665
   7 H :    0.049425
   8 C :    0.172216
   9 H :    0.035890
  10 H :    0.055267
  11 H :    0.001621
  12 H :   -0.016245
  13 H :    0.010011

  Mayer bond orders larger than 0.100000
B(  0-C ,  1-C ) :   1.2357 B(  0-C ,  8-C ) :   1.2418 B(  0-C ,  9-H ) :   0.9012
B(  0-C , 10-H ) :   0.8449 B(  0-C , 11-H ) :   0.1377 B(  0-C , 12-H ) :   0.1622
B(  0-C , 13-H ) :   0.1322 B(  1-C ,  2-N ) :   1.1172 B(  1-C ,  3-N ) :   1.1125
B(  1-C ,  9-H ) :   0.1347 B(  1-C , 10-H ) :   0.1434 B(  2-N ,  3-N ) :   0.1573
B(  2-N ,  6-H ) :   0.9809 B(  2-N ,  7-H ) :   1.1733 B(  3-N ,  4-H ) :   1.0252
B(  3-N ,  5-H ) :   1.1831 B(  4-H ,  5-H ) :  -0.1252 B(  6-H ,  7-H ) :  -0.1198
B(  8-C ,  9-H ) :   0.1019 B(  8-C , 11-H ) :   0.8542 B(  8-C , 12-H ) :   0.8286
B(  8-C , 13-H ) :   0.8692

Dispersion correction           -0.003004665
FINAL SINGLE POINT ENERGY      -228.813494585466

DIPOLE MOMENT
-------------
                                X             Y             Z
Electronic contribution:      1.31076      -2.85521      -2.77682
Nuclear contribution   :     -1.30215       2.77761       1.84194
                        -----------------------------------------
Total Dipole Moment    :      0.00861      -0.07761      -0.93488
                        -----------------------------------------
Magnitude (a.u.)       :      0.93814
Magnitude (Debye)      :      2.38455

Rotational constants in cm-1:     0.267442     0.127541     0.099068
Rotational constants in MHz :  8017.703171  3823.592522  2969.992494

                             ****ORCA TERMINATED NORMALLY****
TOTAL RUN TIME: 0 days 0 hours 0 minutes 9 seconds 33 msec
