                         Program Version 5.0.0 -  RELEASE  -
|  1> !wB97X-D3 RIJCOSX def2-SVPD def2/J TightSCF
|  2> *xyz 0 1
|  3> C          0.70466        1.44313       -4.50363
|  4> C          1.72854        1.42432       -5.63944
|  5> H          2.64672        1.95379       -5.38105
|  6> H          1.29992        1.93061       -6.50361
|  7> S          2.25263       -0.18811       -6.27184
|  8> F          3.56261       -0.44446       -5.63155
|  9> O          2.34494       -0.03374       -7.69650
| 10> O          1.26606       -1.15918       -5.80536
| 11> H         -0.17385        0.91270       -4.80656
| 12> H          0.44778        2.45562       -4.27173
| 13> H          1.12367        0.97423       -3.63791
| 14> *
| 15>
| 16> %MaxCore 64000
| 17>
| 18> %pal nprocs 18
| 19> end
| 20>
| 21> %scf
| 22>   MaxIter 150
| 23> end
| 24>
| 25>
| 26>                          ****END OF INPUT****

CARTESIAN COORDINATES (ANGSTROEM)
---------------------------------
  C      0.704660    1.443130   -4.503630
  C      1.728540    1.424320   -5.639440
  H      2.646720    1.953790   -5.381050
  H      1.299920    1.930610   -6.503610
  S      2.252630   -0.188110   -6.271840
  F      3.562610   -0.444460   -5.631550
  O      2.344940   -0.033740   -7.696500
  O      1.266060   -1.159180   -5.805360
  H     -0.173850    0.912700   -4.806560
  H      0.447780    2.455620   -4.271730
  H      1.123670    0.974230   -3.637910

 Total Charge           Charge          ....    0
 Multiplicity           Mult            ....    1
 Number of Electrons    NEL             ....   58
 Basis Dimension        Dim             ....  176

ORBITAL ENERGIES
----------------

  NO   OCC          E(Eh)            E(eV)
   0   2.0000     -89.235404     -2428.2188
   1   2.0000     -24.904101      -677.6750
   2   2.0000     -19.263702      -524.1920
   3   2.0000     -19.256003      -523.9825
   4   2.0000     -10.356534      -281.8156
   5   2.0000     -10.312229      -280.6100
   6   2.0000      -8.309736      -226.1194
   7   2.0000      -6.273322      -170.7058
   8   2.0000      -6.267057      -170.5353
   9   2.0000      -6.265895      -170.5037
  10   2.0000      -1.464143       -39.8414
  11   2.0000      -1.233750       -33.5720
  12   2.0000      -1.134517       -30.8718
  13   2.0000      -0.937349       -25.5066
  14   2.0000      -0.838351       -22.8127
  15   2.0000      -0.782902       -21.3039
  16   2.0000      -0.687898       -18.7187
  17   2.0000      -0.674483       -18.3536
  18   2.0000      -0.659234       -17.9387
  19   2.0000      -0.598720       -16.2920
  20   2.0000      -0.586856       -15.9692
  21   2.0000      -0.560655       -15.2562
  22   2.0000      -0.534534       -14.5454
  23   2.0000      -0.504154       -13.7187
  24   2.0000      -0.501228       -13.6391
  25   2.0000      -0.484012       -13.1706
  26   2.0000      -0.436179       -11.8690
  27   2.0000      -0.428337       -11.6556
  28   2.0000      -0.416477       -11.3329
  29   0.0000       0.065055         1.7702
  30   0.0000       0.088665         2.4127
  31   0.0000       0.097085         2.6418
  32   0.0000       0.099055         2.6954
  33   0.0000       0.115006         3.1295

MULLIKEN ATOMIC CHARGES
-----------------------
   0 C :    0.671975
   1 C :   -0.438370
   2 H :    0.034571
   3 H :    0.086247
   4 S :    1.506113
   5 F :   -0.422627
   6 O :   -0.661952
   7 O :   -0.702586
   8 H :    0.003822
   9 H :   -0.046747
  10 H :   -0.030446
Sum of atomic charges:   -0.0000000

LOEWDIN ATOMIC CHARGES
----------------------
   0 C :    0.131829
   1 C :   -0.081935
   2 H :    0.018989
   3 H :    0.023439
   4 S :    1.137994
   5 F :   -0.277713
   6 O :   -0.466785
   7 O :   -0.475598
   8 H :   -0.003730
   9 H :   -0.003689
  10 H :   -0.002802

  Mayer bond orders larger than 0.100000
B(  0-C ,  1-C ) :   1.3136 B(  0-C ,  8-H ) :   0.8307 B(  0-C ,  9-H ) :   0.7972
B(  0-C , 10-H ) :   0.8353 B(  1-C ,  2-H ) :   0.9649 B(  1-C ,  3-H ) :   0.9755
B(  1-C ,  4-S ) :   0.9655 B(  1-C ,  8-H ) :   0.1859 B(  1-C ,  9-H ) :   0.1830
B(  1-C , 10-H ) :   0.1704 B(  4-S ,  5-F ) :   0.6318 B(  4-S ,  6-O ) :   1.5652
B(  4-S ,  7-O ) :   1.5182

Dispersion correction           -0.002792976
FINAL SINGLE POINT ENERGY      -727.190131935995

DIPOLE MOMENT
-------------
                                X             Y             Z
Electronic contribution:      6.28900      -6.42295      -3.67108
Nuclear contribution   :     -6.09914       7.80989       4.64238
                        -----------------------------------------
Total Dipole Moment    :      0.18986       1.38694       0.97130
                        -----------------------------------------
Magnitude (a.u.)       :      1.70384
Magnitude (Debye)      :      4.33082

Rotational constants in cm-1:     0.154372     0.078826     0.078033
Rotational constants in MHz :  4627.943144  2363.154585  2339.382767

                             ****ORCA TERMINATED NORMALLY****
TOTAL RUN TIME: 0 days 0 hours 0 minutes 10 seconds 597 msec
