                         Program Version 5.0.0 -  RELEASE  -
|  1> !wB97X-D3 RIJCOSX def2-SVPD def2/J TightSCF
|  2> *xyz 0 1
|  3> C          2.91632       -1.24259       -1.54313
|  4> C          3.46659       -1.59097       -2.88908
|  5> C          4.65227       -1.14316       -3.25969
|  6> N          2.75226       -2.29204       -3.72803
|  7> H          1.77836       -2.48960       -3.51274
|  8> H          2.94861       -2.20854       -4.71681
|  9> H          5.14672       -0.51251       -2.63385
| 10> H          4.78303       -1.00720       -4.25350
| 11> C          2.80408        0.29070       -1.35924
| 12> H          1.94047       -1.71653       -1.44116
| 13> H          3.55857       -1.66343       -0.76637
| 14> H          2.17393        0.69633       -2.12297
| 15> H          3.77707        0.73043       -1.42880
| 16> H          2.38369        0.50492       -0.39889
| 17> *
| 18>
| 19> %MaxCore 64000
| 20>
| 21> %pal nprocs 18
| 22> end
| 23>
| 24> %scf
| 25>   MaxIter 150
| 26> end
| 27>
| 28>
| 29>                          ****END OF INPUT****

CARTESIAN COORDINATES (ANGSTROEM)
---------------------------------
  C      2.916320   -1.242590   -1.543130
  C      3.466590   -1.590970   -2.889080
  C      4.652270   -1.143160   -3.259690
  N      2.752260   -2.292040   -3.728030
  H      1.778360   -2.489600   -3.512740
  H      2.948610   -2.208540   -4.716810
  H      5.146720   -0.512510   -2.633850
  H      4.783030   -1.007200   -4.253500
  C      2.804080    0.290700   -1.359240
  H      1.940470   -1.716530   -1.441160
  H      3.558570   -1.663430   -0.766370
  H      2.173930    0.696330   -2.122970
  H      3.777070    0.730430   -1.428800
  H      2.383690    0.504920   -0.398890

 Total Charge           Charge          ....    0
 Multiplicity           Mult            ....    1
 Number of Electrons    NEL             ....   40
 Basis Dimension        Dim             ....  172

ORBITAL ENERGIES
----------------

  NO   OCC          E(Eh)            E(eV)
   0   2.0000     -14.441295      -392.9676
   1   2.0000     -10.312235      -280.6102
   2   2.0000     -10.293497      -280.1003
   3   2.0000     -10.277800      -279.6732
   4   2.0000     -10.217405      -278.0297
   5   2.0000      -1.047805       -28.5122
   6   2.0000      -0.892879       -24.2965
   7   2.0000      -0.821298       -22.3486
   8   2.0000      -0.751988       -20.4626
   9   2.0000      -0.669961       -18.2306
  10   2.0000      -0.626013       -17.0347
  11   2.0000      -0.582601       -15.8534
  12   2.0000      -0.551967       -15.0198
  13   2.0000      -0.509992       -13.8776
  14   2.0000      -0.489263       -13.3135
  15   2.0000      -0.474981       -12.9249
  16   2.0000      -0.452882       -12.3236
  17   2.0000      -0.439249       -11.9526
  18   2.0000      -0.423979       -11.5371
  19   2.0000      -0.278939        -7.5903
  20   0.0000       0.090081         2.4512
  21   0.0000       0.107025         2.9123
  22   0.0000       0.121278         3.3002
  23   0.0000       0.129670         3.5285
  24   0.0000       0.141746         3.8571

MULLIKEN ATOMIC CHARGES
-----------------------
   0 C :   -0.084897
   1 C :   -0.186891
   2 C :    0.405157
   3 N :    0.110582
   4 H :   -0.058130
   5 H :   -0.082419
   6 H :   -0.127525
   7 H :   -0.367723
   8 C :    0.613898
   9 H :   -0.044893
  10 H :    0.010713
  11 H :   -0.090656
  12 H :   -0.110076
  13 H :    0.012861
Sum of atomic charges:    0.0000000

LOEWDIN ATOMIC CHARGES
----------------------
   0 C :   -0.022556
   1 C :   -0.262740
   2 C :    0.163166
   3 N :    0.161175
   4 H :    0.003420
   5 H :    0.010711
   6 H :   -0.083768
   7 H :   -0.084507
   8 C :    0.136247
   9 H :    0.008824
  10 H :    0.029353
  11 H :   -0.012775
  12 H :   -0.026888
  13 H :   -0.019662

  Mayer bond orders larger than 0.100000
B(  0-C ,  1-C ) :   1.1819 B(  0-C ,  8-C ) :   1.2491 B(  0-C ,  9-H ) :   0.8338
B(  0-C , 10-H ) :   0.8493 B(  0-C , 11-H ) :   0.1539 B(  0-C , 12-H ) :   0.1736
B(  0-C , 13-H ) :   0.1489 B(  1-C ,  2-C ) :   1.9784 B(  1-C ,  3-N ) :   1.0904
B(  1-C ,  6-H ) :   0.1466 B(  1-C ,  7-H ) :   0.1869 B(  1-C ,  9-H ) :   0.1830
B(  1-C , 10-H ) :   0.1692 B(  2-C ,  3-N ) :   0.2309 B(  2-C ,  6-H ) :   0.7226
B(  2-C ,  7-H ) :   0.8552 B(  3-N ,  4-H ) :   1.0369 B(  3-N ,  5-H ) :   1.0938
B(  4-H ,  5-H ) :  -0.1124 B(  6-H ,  7-H ) :   0.1115 B(  8-C , 11-H ) :   0.8593
B(  8-C , 12-H ) :   0.8590 B(  8-C , 13-H ) :   0.8236

Dispersion correction           -0.002988923
FINAL SINGLE POINT ENERGY      -212.352773067202

DIPOLE MOMENT
-------------
                                X             Y             Z
Electronic contribution:      0.08992      -2.72084      -1.80941
Nuclear contribution   :     -0.99366       2.78648       1.68526
                        -----------------------------------------
Total Dipole Moment    :     -0.90374       0.06564      -0.12415
                        -----------------------------------------
Magnitude (a.u.)       :      0.91458
Magnitude (Debye)      :      2.32469

Rotational constants in cm-1:     0.282898     0.128664     0.101801
Rotational constants in MHz :  8481.061354  3857.240210  3051.924245

                             ****ORCA TERMINATED NORMALLY****
TOTAL RUN TIME: 0 days 0 hours 0 minutes 10 seconds 944 msec
