                         Program Version 5.0.0 -  RELEASE  -
|  1> !wB97X-D3 RIJCOSX def2-SVPD def2/J TightSCF
|  2> *xyz 0 1
|  3> C          0.70466        1.44313       -4.50363
|  4> C          1.72854        1.42432       -5.63944
|  5> H          2.64672        1.95379       -5.38105
|  6> H          1.29992        1.93061       -6.50361
|  7> S          2.25263       -0.18811       -6.27184
|  8> O          3.56261       -0.44446       -5.63155
|  9> F          2.34494       -0.03374       -7.69650
| 10> O          1.26606       -1.15918       -5.80536
| 11> H         -0.17385        0.91270       -4.80656
| 12> H          0.44778        2.45562       -4.27173
| 13> H          1.12367        0.97423       -3.63791
| 14> *
| 15>
| 16> %MaxCore 64000
| 17>
| 18> %pal nprocs 18
| 19> end
| 20>
| 21> %scf
| 22>   MaxIter 150
| 23> end
| 24>
| 25>
| 26>                          ****END OF INPUT****

CARTESIAN COORDINATES (ANGSTROEM)
---------------------------------
  C      0.704660    1.443130   -4.503630
  C      1.728540    1.424320   -5.639440
  H      2.646720    1.953790   -5.381050
  H      1.299920    1.930610   -6.503610
  S      2.252630   -0.188110   -6.271840
  O      3.562610   -0.444460   -5.631550
  F      2.344940   -0.033740   -7.696500
  O      1.266060   -1.159180   -5.805360
  H     -0.173850    0.912700   -4.806560
  H      0.447780    2.455620   -4.271730
  H      1.123670    0.974230   -3.637910

 Total Charge           Charge          ....    0
 Multiplicity           Mult            ....    1
 Number of Electrons    NEL             ....   58
 Basis Dimension        Dim             ....  176

ORBITAL ENERGIES
----------------

  NO   OCC          E(Eh)            E(eV)
   0   2.0000     -89.237522     -2428.2764
   1   2.0000     -24.927331      -678.3071
   2   2.0000     -19.256357      -523.9921
   3   2.0000     -19.247958      -523.7636
   4   2.0000     -10.357732      -281.8482
   5   2.0000     -10.312811      -280.6259
   6   2.0000      -8.311980      -226.1805
   7   2.0000      -6.275735      -170.7714
   8   2.0000      -6.269115      -170.5913
   9   2.0000      -6.267900      -170.5582
  10   2.0000      -1.502795       -40.8931
  11   2.0000      -1.219728       -33.1905
  12   2.0000      -1.114043       -30.3146
  13   2.0000      -0.938409       -25.5354
  14   2.0000      -0.853599       -23.2276
  15   2.0000      -0.791161       -21.5286
  16   2.0000      -0.703275       -19.1371
  17   2.0000      -0.701173       -19.0799
  18   2.0000      -0.663925       -18.0663
  19   2.0000      -0.599067       -16.3014
  20   2.0000      -0.588921       -16.0254
  21   2.0000      -0.548219       -14.9178
  22   2.0000      -0.531875       -14.4731
  23   2.0000      -0.507381       -13.8065
  24   2.0000      -0.489808       -13.3283
  25   2.0000      -0.483906       -13.1678
  26   2.0000      -0.428698       -11.6655
  27   2.0000      -0.418123       -11.3777
  28   2.0000      -0.400677       -10.9030
  29   0.0000       0.063754         1.7348
  30   0.0000       0.085205         2.3185
  31   0.0000       0.096012         2.6126
  32   0.0000       0.099504         2.7076
  33   0.0000       0.114895         3.1264

MULLIKEN ATOMIC CHARGES
-----------------------
   0 C :    0.643743
   1 C :   -0.436481
   2 H :    0.034840
   3 H :    0.083821
   4 S :    1.507291
   5 O :   -0.701828
   6 F :   -0.391378
   7 O :   -0.691511
   8 H :    0.002883
   9 H :   -0.044832
  10 H :   -0.006548
Sum of atomic charges:   -0.0000000

LOEWDIN ATOMIC CHARGES
----------------------
   0 C :    0.138926
   1 C :   -0.086750
   2 H :    0.023959
   3 H :    0.011359
   4 S :    1.141424
   5 O :   -0.491527
   6 F :   -0.256938
   7 O :   -0.476121
   8 H :   -0.005082
   9 H :   -0.002474
  10 H :    0.003223

  Mayer bond orders larger than 0.100000
B(  0-C ,  1-C ) :   1.3257 B(  0-C ,  8-H ) :   0.8262 B(  0-C ,  9-H ) :   0.7997
B(  0-C , 10-H ) :   0.8420 B(  1-C ,  2-H ) :   0.9950 B(  1-C ,  3-H ) :   0.9363
B(  1-C ,  4-S ) :   0.9546 B(  1-C ,  8-H ) :   0.1878 B(  1-C ,  9-H ) :   0.1798
B(  1-C , 10-H ) :   0.1647 B(  4-S ,  5-O ) :   1.5023 B(  4-S ,  6-F ) :   0.6952
B(  4-S ,  7-O ) :   1.5153

Dispersion correction           -0.002819710
FINAL SINGLE POINT ENERGY      -727.169746176481

DIPOLE MOMENT
-------------
                                X             Y             Z
Electronic contribution:      4.17913      -5.72133      -7.19958
Nuclear contribution   :     -4.83029       7.38191       6.79413
                        -----------------------------------------
Total Dipole Moment    :     -0.65116       1.66058      -0.40545
                        -----------------------------------------
Magnitude (a.u.)       :      1.82919
Magnitude (Debye)      :      4.64942

Rotational constants in cm-1:     0.156575     0.079070     0.076729
Rotational constants in MHz :  4694.010604  2370.444114  2300.280155

                             ****ORCA TERMINATED NORMALLY****
TOTAL RUN TIME: 0 days 0 hours 0 minutes 10 seconds 399 msec
