                         Program Version 5.0.0 -  RELEASE  -
|  1> !wB97X-D3 RIJCOSX def2-SVPD def2/J TightSCF
|  2> *xyz 0 1
|  3> C          2.91632       -1.24259       -1.54313
|  4> C          3.46659       -1.59097       -2.88908
|  5> N          4.65227       -1.14316       -3.25969
|  6> C          2.75226       -2.29204       -3.72803
|  7> H          1.77836       -2.48960       -3.51274
|  8> H          2.94861       -2.20854       -4.71681
|  9> H          5.14672       -0.51251       -2.63385
| 10> H          4.78303       -1.00720       -4.25350
| 11> C          2.80408        0.29070       -1.35924
| 12> H          1.94047       -1.71653       -1.44116
| 13> H          3.55857       -1.66343       -0.76637
| 14> H          2.17393        0.69633       -2.12297
| 15> H          3.77707        0.73043       -1.42880
| 16> H          2.38369        0.50492       -0.39889
| 17> *
| 18>
| 19> %MaxCore 64000
| 20>
| 21> %pal nprocs 18
| 22> end
| 23>
| 24> %scf
| 25>   MaxIter 150
| 26> end
| 27>
| 28>
| 29>                          ****END OF INPUT****

CARTESIAN COORDINATES (ANGSTROEM)
---------------------------------
  C      2.916320   -1.242590   -1.543130
  C      3.466590   -1.590970   -2.889080
  N      4.652270   -1.143160   -3.259690
  C      2.752260   -2.292040   -3.728030
  H      1.778360   -2.489600   -3.512740
  H      2.948610   -2.208540   -4.716810
  H      5.146720   -0.512510   -2.633850
  H      4.783030   -1.007200   -4.253500
  C      2.804080    0.290700   -1.359240
  H      1.940470   -1.716530   -1.441160
  H      3.558570   -1.663430   -0.766370
  H      2.173930    0.696330   -2.122970
  H      3.777070    0.730430   -1.428800
  H      2.383690    0.504920   -0.398890

 Total Charge           Charge          ....    0
 Multiplicity           Mult            ....    1
 Number of Electrons    NEL             ....   40
 Basis Dimension        Dim             ....  172

ORBITAL ENERGIES
----------------

  NO   OCC          E(Eh)            E(eV)
   0   2.0000     -14.437485      -392.8639
   1   2.0000     -10.310570      -280.5649
   2   2.0000     -10.291920      -280.0574
   3   2.0000     -10.282786      -279.8088
   4   2.0000     -10.221278      -278.1351
   5   2.0000      -1.042706       -28.3735
   6   2.0000      -0.890115       -24.2213
   7   2.0000      -0.832979       -22.6665
   8   2.0000      -0.744067       -20.2471
   9   2.0000      -0.669598       -18.2207
  10   2.0000      -0.630229       -17.1494
  11   2.0000      -0.579496       -15.7689
  12   2.0000      -0.538011       -14.6400
  13   2.0000      -0.535828       -14.5806
  14   2.0000      -0.486390       -13.2353
  15   2.0000      -0.479508       -13.0481
  16   2.0000      -0.453185       -12.3318
  17   2.0000      -0.438753       -11.9391
  18   2.0000      -0.418224       -11.3805
  19   2.0000      -0.286089        -7.7849
  20   0.0000       0.087280         2.3750
  21   0.0000       0.110016         2.9937
  22   0.0000       0.123661         3.3650
  23   0.0000       0.133198         3.6245
  24   0.0000       0.137896         3.7523

MULLIKEN ATOMIC CHARGES
-----------------------
   0 C :   -0.204081
   1 C :   -0.275766
   2 N :    0.174019
   3 C :    0.310791
   4 H :   -0.041215
   5 H :   -0.350465
   6 H :   -0.078743
   7 H :   -0.070509
   8 C :    0.643566
   9 H :    0.118784
  10 H :   -0.031410
  11 H :   -0.036837
  12 H :   -0.099797
  13 H :   -0.058336
Sum of atomic charges:   -0.0000000

LOEWDIN ATOMIC CHARGES
----------------------
   0 C :   -0.024306
   1 C :   -0.270836
   2 N :    0.167762
   3 C :    0.163244
   4 H :   -0.077364
   5 H :   -0.080964
   6 H :   -0.002816
   7 H :    0.008893
   8 C :    0.133918
   9 H :    0.020729
  10 H :    0.023839
  11 H :   -0.010639
  12 H :   -0.033338
  13 H :   -0.018122

  Mayer bond orders larger than 0.100000
B(  0-C ,  1-C ) :   1.2852 B(  0-C ,  8-C ) :   1.2358 B(  0-C ,  9-H ) :   0.8875
B(  0-C , 10-H ) :   0.8432 B(  0-C , 11-H ) :   0.1473 B(  0-C , 12-H ) :   0.1922
B(  0-C , 13-H ) :   0.1866 B(  1-C ,  2-N ) :   1.0817 B(  1-C ,  3-C ) :   2.0438
B(  1-C ,  5-H ) :   0.2453 B(  1-C ,  9-H ) :   0.1149 B(  1-C , 10-H ) :   0.2048
B(  2-N ,  3-C ) :   0.2553 B(  2-N ,  6-H ) :   0.9924 B(  2-N ,  7-H ) :   1.0655
B(  3-C ,  4-H ) :   0.8990 B(  3-C ,  5-H ) :   0.7279 B(  4-H ,  5-H ) :   0.1323
B(  8-C ,  9-H ) :   0.1027 B(  8-C , 11-H ) :   0.8441 B(  8-C , 12-H ) :   0.8077
B(  8-C , 13-H ) :   0.8523

Dispersion correction           -0.003012779
FINAL SINGLE POINT ENERGY      -212.356574451472

DIPOLE MOMENT
-------------
                                X             Y             Z
Electronic contribution:      1.71980      -1.72839      -1.40540
Nuclear contribution   :     -1.43372       2.52039       1.57679
                        -----------------------------------------
Total Dipole Moment    :      0.28609       0.79200       0.17138
                        -----------------------------------------
Magnitude (a.u.)       :      0.85935
Magnitude (Debye)      :      2.18428

Rotational constants in cm-1:     0.274962     0.131786     0.102554
Rotational constants in MHz :  8243.150005  3950.846092  3074.493018

                             ****ORCA TERMINATED NORMALLY****
TOTAL RUN TIME: 0 days 0 hours 0 minutes 10 seconds 350 msec
