                         Program Version 5.0.0 -  RELEASE  -
|  1> !wB97X-D3 RIJCOSX def2-SVPD def2/J TightSCF
|  2> *xyz 0 1
|  3> C          0.70466        1.44313       -4.50363
|  4> C          1.72854        1.42432       -5.63944
|  5> H          2.64672        1.95379       -5.38105
|  6> H          1.29992        1.93061       -6.50361
|  7> S          2.25263       -0.18811       -6.27184
|  8> O          3.56261       -0.44446       -5.63155
|  9> O          2.34494       -0.03374       -7.69650
| 10> F          1.26606       -1.15918       -5.80536
| 11> H         -0.17385        0.91270       -4.80656
| 12> H          0.44778        2.45562       -4.27173
| 13> H          1.12367        0.97423       -3.63791
| 14> *
| 15>
| 16> %MaxCore 64000
| 17>
| 18> %pal nprocs 18
| 19> end
| 20>
| 21> %scf
| 22>   MaxIter 150
| 23> end
| 24>
| 25>
| 26>                          ****END OF INPUT****

CARTESIAN COORDINATES (ANGSTROEM)
---------------------------------
  C      0.704660    1.443130   -4.503630
  C      1.728540    1.424320   -5.639440
  H      2.646720    1.953790   -5.381050
  H      1.299920    1.930610   -6.503610
  S      2.252630   -0.188110   -6.271840
  O      3.562610   -0.444460   -5.631550
  O      2.344940   -0.033740   -7.696500
  F      1.266060   -1.159180   -5.805360
  H     -0.173850    0.912700   -4.806560
  H      0.447780    2.455620   -4.271730
  H      1.123670    0.974230   -3.637910

 Total Charge           Charge          ....    0
 Multiplicity           Mult            ....    1
 Number of Electrons    NEL             ....   58
 Basis Dimension        Dim             ....  176

ORBITAL ENERGIES
----------------

  NO   OCC          E(Eh)            E(eV)
   0   2.0000     -89.236039     -2428.2361
   1   2.0000     -24.914831      -677.9670
   2   2.0000     -19.263788      -524.1943
   3   2.0000     -19.247462      -523.7501
   4   2.0000     -10.356544      -281.8159
   5   2.0000     -10.320151      -280.8256
   6   2.0000      -8.310444      -226.1387
   7   2.0000      -6.274207      -170.7298
   8   2.0000      -6.267675      -170.5521
   9   2.0000      -6.266417      -170.5179
  10   2.0000      -1.480942       -40.2985
  11   2.0000      -1.229793       -33.4644
  12   2.0000      -1.122525       -30.5454
  13   2.0000      -0.941402       -25.6168
  14   2.0000      -0.841965       -22.9110
  15   2.0000      -0.792245       -21.5581
  16   2.0000      -0.703348       -19.1391
  17   2.0000      -0.687174       -18.6990
  18   2.0000      -0.652293       -17.7498
  19   2.0000      -0.602746       -16.4016
  20   2.0000      -0.581488       -15.8231
  21   2.0000      -0.555211       -15.1081
  22   2.0000      -0.547534       -14.8991
  23   2.0000      -0.514571       -14.0022
  24   2.0000      -0.496267       -13.5041
  25   2.0000      -0.487392       -13.2626
  26   2.0000      -0.433666       -11.8007
  27   2.0000      -0.419578       -11.4173
  28   2.0000      -0.407167       -11.0796
  29   0.0000       0.060573         1.6483
  30   0.0000       0.091814         2.4984
  31   0.0000       0.097260         2.6466
  32   0.0000       0.099368         2.7039
  33   0.0000       0.119161         3.2425

MULLIKEN ATOMIC CHARGES
-----------------------
   0 C :    0.647515
   1 C :   -0.416780
   2 H :    0.040381
   3 H :    0.088256
   4 S :    1.490573
   5 O :   -0.706044
   6 O :   -0.651288
   7 F :   -0.423627
   8 H :   -0.013377
   9 H :   -0.038035
  10 H :   -0.017574
Sum of atomic charges:   -0.0000000

LOEWDIN ATOMIC CHARGES
----------------------
   0 C :    0.126264
   1 C :   -0.075762
   2 H :    0.031811
   3 H :    0.018421
   4 S :    1.137467
   5 O :   -0.492583
   6 O :   -0.465987
   7 F :   -0.265797
   8 H :   -0.009076
   9 H :   -0.002828
  10 H :   -0.001932

  Mayer bond orders larger than 0.100000
B(  0-C ,  1-C ) :   1.2859 B(  0-C ,  8-H ) :   0.8321 B(  0-C ,  9-H ) :   0.7992
B(  0-C , 10-H ) :   0.8458 B(  1-C ,  2-H ) :   0.9875 B(  1-C ,  3-H ) :   0.9727
B(  1-C ,  4-S ) :   0.9731 B(  1-C ,  8-H ) :   0.1741 B(  1-C ,  9-H ) :   0.1848
B(  1-C , 10-H ) :   0.1582 B(  4-S ,  5-O ) :   1.5029 B(  4-S ,  6-O ) :   1.5651
B(  4-S ,  7-F ) :   0.6586

Dispersion correction           -0.002791679
FINAL SINGLE POINT ENERGY      -727.180063920183

DIPOLE MOMENT
-------------
                                X             Y             Z
Electronic contribution:      2.33805      -7.60803      -3.96938
Nuclear contribution   :     -3.70606       8.55465       4.82350
                        -----------------------------------------
Total Dipole Moment    :     -1.36801       0.94662       0.85412
                        -----------------------------------------
Magnitude (a.u.)       :      1.87005
Magnitude (Debye)      :      4.75328

Rotational constants in cm-1:     0.153201     0.080978     0.077494
Rotational constants in MHz :  4592.852844  2427.650814  2323.207507

                             ****ORCA TERMINATED NORMALLY****
TOTAL RUN TIME: 0 days 0 hours 0 minutes 9 seconds 669 msec
