                         Program Version 5.0.0 -  RELEASE  -
|  1> !wB97X-D3 RIJCOSX def2-SVPD def2/J TightSCF xyzfile
|  2>
|  3> *xyzfile 0 1 D2.xyz
|  4>
|  5> %MaxCore 64000
|  6>
|  7> %pal nprocs 18
|  8> end
|  9>
| 10> %scf
| 11>   MaxIter 150
| 12> end
| 13>
| 14>
| 15>                          ****END OF INPUT****

CARTESIAN COORDINATES (ANGSTROEM)
---------------------------------
  C      2.916324   -1.242589   -1.543125
  C      0.704661    1.443129   -4.503630
  C      1.728539    1.424320   -5.639443
  H      2.646718    1.953794   -5.381054
  H      1.299916    1.930613   -6.503614
  S      2.252625   -0.188115   -6.271840
  C      3.466585   -1.590971   -2.889082
  N      4.652275   -1.143164   -3.259692
  C      2.752264   -2.292043   -3.728029
  H      1.778364   -2.489604   -3.512738
  H      2.948612   -2.208544   -4.716813
  H      5.146723   -0.512508   -2.633852
  H      4.783030   -1.007203   -4.253498
  F      3.562607   -0.444464   -5.631552
  O      2.344944   -0.033742   -7.696501
  C      2.804084    0.290698   -1.359243
  C      1.052550    0.695659   -3.214915
  H     -0.232483    1.032925   -4.884449
  H      0.511700    2.495794   -4.267966
  C      2.388380    1.093669   -2.597108
  H      3.763425    0.674718   -0.999889
  H      2.094788    0.461222   -0.545756
  O      1.266058   -1.159177   -5.805365
  H      3.167316    1.013242   -3.359430
  H      2.357690    2.149375   -2.310997
  H      1.039284   -0.368429   -3.449329
  H      0.250787    0.865605   -2.488283
  H      1.940472   -1.716529   -1.441161
  H      3.558569   -1.663433   -0.766371

 Total Charge           Charge          ....    0
 Multiplicity           Mult            ....    1
 Number of Electrons    NEL             ....  112
 Basis Dimension        Dim             ....  404

ORBITAL ENERGIES
----------------

  NO   OCC          E(Eh)            E(eV)
   0   2.0000     -89.238965     -2428.3157
   1   2.0000     -24.911706      -677.8820
   2   2.0000     -19.266399      -524.2654
   3   2.0000     -19.255573      -523.9708
   4   2.0000     -14.436012      -392.8239
   5   2.0000     -10.354892      -281.7709
   6   2.0000     -10.318341      -280.7763
   7   2.0000     -10.306768      -280.4614
   8   2.0000     -10.299699      -280.2690
   9   2.0000     -10.298006      -280.2230
  10   2.0000     -10.293053      -280.0882
  11   2.0000     -10.291976      -280.0589
  12   2.0000     -10.217443      -278.0307
  13   2.0000      -8.312004      -226.1811
  14   2.0000      -6.275913      -170.7763
  15   2.0000      -6.269288      -170.5960
  16   2.0000      -6.268048      -170.5623
  17   2.0000      -1.472993       -40.0822
  18   2.0000      -1.236047       -33.6346
  19   2.0000      -1.136111       -30.9152
  20   2.0000      -1.043725       -28.4012
  21   2.0000      -0.953399       -25.9433
  22   2.0000      -0.916030       -24.9265
  23   2.0000      -0.874945       -23.8085
  24   2.0000      -0.846228       -23.0270
  25   2.0000      -0.822413       -22.3790
  26   2.0000      -0.792252       -21.5583
  27   2.0000      -0.739878       -20.1331
  28   2.0000      -0.705593       -19.2002
  29   2.0000      -0.685708       -18.6591
  30   2.0000      -0.680028       -18.5045
  31   2.0000      -0.666447       -18.1349
  32   2.0000      -0.655554       -17.8385
  33   2.0000      -0.628264       -17.0959
  34   2.0000      -0.600820       -16.3491
  35   2.0000      -0.597622       -16.2621
  36   2.0000      -0.585067       -15.9205
  37   2.0000      -0.571112       -15.5408
  38   2.0000      -0.555948       -15.1281
  39   2.0000      -0.547845       -14.9076
  40   2.0000      -0.539249       -14.6737
  41   2.0000      -0.519451       -14.1350
  42   2.0000      -0.505229       -13.7480
  43   2.0000      -0.491870       -13.3845
  44   2.0000      -0.485584       -13.2134
  45   2.0000      -0.481736       -13.1087
  46   2.0000      -0.465598       -12.6696
  47   2.0000      -0.455648       -12.3988
  48   2.0000      -0.445630       -12.1262
  49   2.0000      -0.432653       -11.7731
  50   2.0000      -0.430454       -11.7133
  51   2.0000      -0.422038       -11.4842
  52   2.0000      -0.418868       -11.3980
  53   2.0000      -0.410620       -11.1735
  54   2.0000      -0.409418       -11.1408
  55   2.0000      -0.282813        -7.6957
  56   0.0000       0.065379         1.7791
  57   0.0000       0.083554         2.2736
  58   0.0000       0.085084         2.3152
  59   0.0000       0.089236         2.4282
  60   0.0000       0.107615         2.9284

MULLIKEN ATOMIC CHARGES
-----------------------
   0 C :    0.392227
   1 C :    0.432680
   2 C :    0.052220
   3 H :    0.193233
   4 H :   -0.167520
   5 S :    1.512400
   6 C :   -0.598466
   7 N :    0.330113
   8 C :    0.774443
   9 H :   -0.085531
  10 H :   -0.497936
  11 H :   -0.007252
  12 H :   -0.230808
  13 F :   -0.523857
  14 O :   -0.666840
  15 C :    0.425768
  16 C :    0.228400
  17 H :    0.034965
  18 H :   -0.027826
  19 C :   -0.095565
  20 H :   -0.013616
  21 H :   -0.101403
  22 O :   -0.765256
  23 H :   -0.012599
  24 H :   -0.211087
  25 H :   -0.394832
  26 H :   -0.033262
  27 H :    0.282150
  28 H :   -0.224945
Sum of atomic charges:   -0.0000000

LOEWDIN ATOMIC CHARGES
----------------------
   0 C :    0.026018
   1 C :   -0.025191
   2 C :   -0.030211
   3 H :    0.015998
   4 H :    0.024448
   5 S :    1.151280
   6 C :   -0.257613
   7 N :    0.182970
   8 C :    0.167881
   9 H :   -0.060457
  10 H :   -0.113581
  11 H :    0.008567
  12 H :   -0.034321
  13 F :   -0.289532
  14 O :   -0.452331
  15 C :   -0.013618
  16 C :   -0.014260
  17 H :    0.034119
  18 H :    0.035020
  19 C :   -0.027745
  20 H :    0.014272
  21 H :    0.020829
  22 O :   -0.452356
  23 H :   -0.008926
  24 H :    0.027038
  25 H :   -0.011693
  26 H :    0.034942
  27 H :    0.024401
  28 H :    0.024053

  Mayer bond orders larger than 0.100000
B(  0-C ,  6-C ) :   1.3247 B(  0-C , 15-C ) :   1.1445 B(  0-C , 20-H ) :   0.1253
B(  0-C , 21-H ) :   0.1892 B(  0-C , 27-H ) :   0.7815 B(  0-C , 28-H ) :   0.6295
B(  1-C ,  2-C ) :   1.2296 B(  1-C ,  4-H ) :   0.1981 B(  1-C , 16-C ) :   1.2507
B(  1-C , 17-H ) :   0.6946 B(  1-C , 18-H ) :   0.7670 B(  2-C ,  3-H ) :   0.8477
B(  2-C ,  4-H ) :   0.9199 B(  2-C ,  5-S ) :   0.9554 B(  2-C , 17-H ) :   0.1178
B(  2-C , 18-H ) :   0.1444 B(  5-S , 13-F ) :   0.6116 B(  5-S , 14-O ) :   1.5512
B(  5-S , 22-O ) :   1.5138 B(  6-C ,  7-N ) :   0.9161 B(  6-C ,  8-C ) :   2.1012
B(  6-C ,  9-H ) :   0.1217 B(  6-C , 10-H ) :   0.5065 B(  6-C , 15-C ) :   0.1402
B(  6-C , 28-H ) :   0.3882 B(  7-N ,  8-C ) :   0.4080 B(  7-N ,  9-H ) :   0.1296
B(  7-N , 11-H ) :   0.9755 B(  7-N , 12-H ) :   0.9057 B(  8-C ,  9-H ) :   0.6238
B(  8-C , 10-H ) :   0.1307 B( 10-H , 12-H ) :   0.1559 B( 11-H , 12-H ) :  -0.1484
B( 12-H , 13-F ) :   0.1486 B( 15-C , 19-C ) :   1.2113 B( 15-C , 20-H ) :   0.6886
B( 15-C , 21-H ) :   0.8183 B( 15-C , 23-H ) :   0.1017 B( 15-C , 27-H ) :   0.1088
B( 16-C , 17-H ) :   0.2560 B( 16-C , 19-C ) :   1.2328 B( 16-C , 23-H ) :   0.1240
B( 16-C , 24-H ) :   0.1566 B( 16-C , 25-H ) :   0.9570 B( 16-C , 26-H ) :   0.6893
B( 19-C , 20-H ) :   0.2678 B( 19-C , 21-H ) :   0.1702 B( 19-C , 23-H ) :   0.8663
B( 19-C , 24-H ) :   0.8932 B( 19-C , 25-H ) :   0.1477 B( 19-C , 26-H ) :   0.1996
B( 20-H , 21-H ) :  -0.1273

Dispersion correction           -0.016286462
FINAL SINGLE POINT ENERGY     -1016.900724000941

DIPOLE MOMENT
-------------
                                X             Y             Z
Electronic contribution:      3.43980      -4.18872     -18.20841
Nuclear contribution   :     -3.13969       6.14743      19.30799
                        -----------------------------------------
Total Dipole Moment    :      0.30012       1.95871       1.09958
                        -----------------------------------------
Magnitude (a.u.)       :      2.26620
Magnitude (Debye)      :      5.76023

Rotational constants in cm-1:     0.036460     0.018762     0.015014
Rotational constants in MHz :  1093.039020   562.475626   450.105862

                             ****ORCA TERMINATED NORMALLY****
TOTAL RUN TIME: 0 days 0 hours 1 minutes 9 seconds 266 msec
