                         Program Version 5.0.0 -  RELEASE  -
|  1> !wB97X-D3 RIJCOSX def2-SVPD def2/J TightSCF xyzfile
|  2>
|  3> *xyzfile 0 1 D6.xyz
|  4>
|  5> %MaxCore 64000
|  6>
|  7> %pal nprocs 18
|  8> end
|  9>
| 10> %scf
| 11>   MaxIter 150
| 12> end
| 13>
| 14>
| 15>                          ****END OF INPUT****

CARTESIAN COORDINATES (ANGSTROEM)
---------------------------------
  C      2.916324   -1.242589   -1.543125
  C      0.704661    1.443129   -4.503630
  C      1.728539    1.424320   -5.639443
  H      2.646718    1.953794   -5.381054
  H      1.299916    1.930613   -6.503614
  S      2.252625   -0.188115   -6.271840
  C      3.466585   -1.590971   -2.889082
  N      4.652275   -1.143164   -3.259692
  C      2.752264   -2.292043   -3.728029
  H      1.778364   -2.489604   -3.512738
  H      2.948612   -2.208544   -4.716813
  H      5.146723   -0.512508   -2.633852
  H      4.783030   -1.007203   -4.253498
  O      3.562607   -0.444464   -5.631552
  O      2.344944   -0.033742   -7.696501
  C      2.804084    0.290698   -1.359243
  C      1.052550    0.695659   -3.214915
  H     -0.232483    1.032925   -4.884449
  H      0.511700    2.495794   -4.267966
  C      2.388380    1.093669   -2.597108
  H      3.763425    0.674718   -0.999889
  H      2.094788    0.461222   -0.545756
  F      1.266058   -1.159177   -5.805365
  H      3.167316    1.013242   -3.359430
  H      2.357690    2.149375   -2.310997
  H      1.039284   -0.368429   -3.449329
  H      0.250787    0.865605   -2.488283
  H      1.940472   -1.716529   -1.441161
  H      3.558569   -1.663433   -0.766371

 Total Charge           Charge          ....    0
 Multiplicity           Mult            ....    1
 Number of Electrons    NEL             ....  112
 Basis Dimension        Dim             ....  404

ORBITAL ENERGIES
----------------

  NO   OCC          E(Eh)            E(eV)
   0   2.0000     -89.244024     -2428.4533
   1   2.0000     -24.916425      -678.0104
   2   2.0000     -19.268981      -524.3356
   3   2.0000     -19.254472      -523.9408
   4   2.0000     -14.417753      -392.3270
   5   2.0000     -10.356546      -281.8160
   6   2.0000     -10.325312      -280.9660
   7   2.0000     -10.300234      -280.2836
   8   2.0000     -10.299449      -280.2622
   9   2.0000     -10.296141      -280.1722
  10   2.0000     -10.294142      -280.1179
  11   2.0000     -10.287347      -279.9330
  12   2.0000     -10.209624      -277.8180
  13   2.0000      -8.316846      -226.3129
  14   2.0000      -6.280618      -170.9043
  15   2.0000      -6.274417      -170.7356
  16   2.0000      -6.272777      -170.6909
  17   2.0000      -1.482904       -40.3519
  18   2.0000      -1.235592       -33.6222
  19   2.0000      -1.131970       -30.8025
  20   2.0000      -1.028039       -27.9744
  21   2.0000      -0.957929       -26.0666
  22   2.0000      -0.913701       -24.8631
  23   2.0000      -0.871092       -23.7036
  24   2.0000      -0.842428       -22.9236
  25   2.0000      -0.820177       -22.3181
  26   2.0000      -0.789309       -21.4782
  27   2.0000      -0.742976       -20.2174
  28   2.0000      -0.708139       -19.2694
  29   2.0000      -0.694029       -18.8855
  30   2.0000      -0.682507       -18.5720
  31   2.0000      -0.667530       -18.1644
  32   2.0000      -0.645865       -17.5749
  33   2.0000      -0.613086       -16.6829
  34   2.0000      -0.601900       -16.3785
  35   2.0000      -0.598292       -16.2803
  36   2.0000      -0.581603       -15.8262
  37   2.0000      -0.569989       -15.5102
  38   2.0000      -0.561111       -15.2686
  39   2.0000      -0.545838       -14.8530
  40   2.0000      -0.540318       -14.7028
  41   2.0000      -0.516572       -14.0566
  42   2.0000      -0.505716       -13.7612
  43   2.0000      -0.494754       -13.4629
  44   2.0000      -0.484540       -13.1850
  45   2.0000      -0.480866       -13.0850
  46   2.0000      -0.463506       -12.6126
  47   2.0000      -0.457741       -12.4558
  48   2.0000      -0.447088       -12.1659
  49   2.0000      -0.431772       -11.7491
  50   2.0000      -0.427283       -11.6270
  51   2.0000      -0.419281       -11.4092
  52   2.0000      -0.418228       -11.3806
  53   2.0000      -0.402258       -10.9460
  54   2.0000      -0.401524       -10.9260
  55   2.0000      -0.273820        -7.4510
  56   0.0000       0.062513         1.7011
  57   0.0000       0.083483         2.2717
  58   0.0000       0.087860         2.3908
  59   0.0000       0.091511         2.4901
  60   0.0000       0.104326         2.8389

MULLIKEN ATOMIC CHARGES
-----------------------
   0 C :    0.397218
   1 C :    0.421910
   2 C :    0.065013
   3 H :    0.176422
   4 H :   -0.143454
   5 S :    1.434187
   6 C :   -0.578936
   7 N :    0.327307
   8 C :    0.732535
   9 H :   -0.063439
  10 H :   -0.528343
  11 H :   -0.002790
  12 H :   -0.249497
  13 O :   -0.698585
  14 O :   -0.657375
  15 C :    0.428788
  16 C :    0.241393
  17 H :    0.013597
  18 H :   -0.022011
  19 C :   -0.099916
  20 H :   -0.005927
  21 H :   -0.108272
  22 F :   -0.466106
  23 H :    0.005298
  24 H :   -0.208428
  25 H :   -0.415931
  26 H :   -0.041673
  27 H :    0.272404
  28 H :   -0.225390
Sum of atomic charges:    0.0000000

LOEWDIN ATOMIC CHARGES
----------------------
   0 C :    0.024336
   1 C :   -0.033718
   2 C :   -0.023114
   3 H :    0.028473
   4 H :    0.019940
   5 S :    1.168025
   6 C :   -0.252875
   7 N :    0.194136
   8 C :    0.154447
   9 H :   -0.071596
  10 H :   -0.120398
  11 H :    0.007459
  12 H :   -0.049894
  13 O :   -0.481534
  14 O :   -0.448869
  15 C :   -0.013427
  16 C :   -0.017106
  17 H :    0.028790
  18 H :    0.035639
  19 C :   -0.022512
  20 H :    0.015294
  21 H :    0.019059
  22 F :   -0.251708
  23 H :   -0.003467
  24 H :    0.027142
  25 H :   -0.012532
  26 H :    0.034593
  27 H :    0.021471
  28 H :    0.023944

  Mayer bond orders larger than 0.100000
B(  0-C ,  6-C ) :   1.3260 B(  0-C , 15-C ) :   1.1422 B(  0-C , 20-H ) :   0.1248
B(  0-C , 21-H ) :   0.1969 B(  0-C , 27-H ) :   0.7830 B(  0-C , 28-H ) :   0.6245
B(  1-C ,  2-C ) :   1.2209 B(  1-C ,  4-H ) :   0.2038 B(  1-C , 16-C ) :   1.2438
B(  1-C , 17-H ) :   0.7021 B(  1-C , 18-H ) :   0.7595 B(  2-C ,  3-H ) :   0.8715
B(  2-C ,  4-H ) :   0.9187 B(  2-C ,  5-S ) :   0.9881 B(  2-C , 17-H ) :   0.1054
B(  2-C , 18-H ) :   0.1468 B(  5-S , 13-O ) :   1.4154 B(  5-S , 14-O ) :   1.5629
B(  5-S , 22-F ) :   0.6414 B(  6-C ,  7-N ) :   0.9482 B(  6-C ,  8-C ) :   2.1224
B(  6-C ,  9-H ) :   0.1305 B(  6-C , 10-H ) :   0.5135 B(  6-C , 15-C ) :   0.1414
B(  6-C , 28-H ) :   0.3836 B(  7-N ,  8-C ) :   0.4046 B(  7-N ,  9-H ) :   0.1310
B(  7-N , 11-H ) :   0.9541 B(  7-N , 12-H ) :   0.9145 B(  8-C ,  9-H ) :   0.5791
B(  8-C , 10-H ) :   0.1078 B( 10-H , 12-H ) :   0.1511 B( 11-H , 12-H ) :  -0.1474
B( 12-H , 13-O ) :   0.1287 B( 15-C , 19-C ) :   1.2177 B( 15-C , 20-H ) :   0.6864
B( 15-C , 21-H ) :   0.8167 B( 15-C , 27-H ) :   0.1106 B( 16-C , 17-H ) :   0.2473
B( 16-C , 19-C ) :   1.2409 B( 16-C , 23-H ) :   0.1256 B( 16-C , 24-H ) :   0.1598
B( 16-C , 25-H ) :   0.9315 B( 16-C , 26-H ) :   0.6971 B( 19-C , 20-H ) :   0.2645
B( 19-C , 21-H ) :   0.1691 B( 19-C , 23-H ) :   0.8771 B( 19-C , 24-H ) :   0.8740
B( 19-C , 25-H ) :   0.1610 B( 19-C , 26-H ) :   0.1922 B( 20-H , 21-H ) :  -0.1276

Dispersion correction           -0.016292960
FINAL SINGLE POINT ENERGY     -1016.898107004184

DIPOLE MOMENT
-------------
                                X             Y             Z
Electronic contribution:     -0.48594      -5.28602     -18.62712
Nuclear contribution   :     -0.51418       6.96452      19.50670
                        -----------------------------------------
Total Dipole Moment    :     -1.00012       1.67850       0.87958
                        -----------------------------------------
Magnitude (a.u.)       :      2.14272
Magnitude (Debye)      :      5.44637

Rotational constants in cm-1:     0.036455     0.018603     0.015008
Rotational constants in MHz :  1092.895336   557.693628   449.926016

                             ****ORCA TERMINATED NORMALLY****
TOTAL RUN TIME: 0 days 0 hours 1 minutes 8 seconds 971 msec
