                         Program Version 5.0.0 -  RELEASE  -
|  1> !LC-BLYP RIJCOSX def2-SVPD def2/J TightSCF
|  2> *xyz -1 1
|  3> C          4.99986       -1.59613       -5.92488
|  4> C          3.76678       -2.26611       -6.51175
|  5> C          2.49670       -1.84416       -5.73570
|  6> H          1.62642       -2.21743       -6.30895
|  7> H          2.48182       -2.45607       -4.79341
|  8> O          2.45973       -0.50920       -5.50576
|  9> H          3.88619       -3.35708       -6.53360
| 10> H          3.68560       -1.92217       -7.54713
| 11> H          5.86637       -1.89999       -6.47418
| 12> H          5.10830       -1.88372       -4.89997
| 13> H          4.89230       -0.53341       -5.98765
| 14> *
| 15>
| 16> %MaxCore 64000
| 17>
| 18> %pal nprocs 4
| 19> end
| 20>
| 21> %scf
| 22>   MaxIter 150
| 23> end
| 24>
| 25>
| 26>                          ****END OF INPUT****

CARTESIAN COORDINATES (ANGSTROEM)
---------------------------------
  C      4.999860   -1.596130   -5.924880
  C      3.766780   -2.266110   -6.511750
  C      2.496700   -1.844160   -5.735700
  H      1.626420   -2.217430   -6.308950
  H      2.481820   -2.456070   -4.793410
  O      2.459730   -0.509200   -5.505760
  H      3.886190   -3.357080   -6.533600
  H      3.685600   -1.922170   -7.547130
  H      5.866370   -1.899990   -6.474180
  H      5.108300   -1.883720   -4.899970
  H      4.892300   -0.533410   -5.987650

 Total Charge           Charge          ....   -1
 Multiplicity           Mult            ....    1
 Number of Electrons    NEL             ....   34
 Basis Dimension        Dim             ....  139

ORBITAL ENERGIES
----------------

  NO   OCC          E(Eh)            E(eV)
   0   2.0000     -18.627383      -506.8769
   1   2.0000      -9.903028      -269.4751
   2   2.0000      -9.895220      -269.2626
   3   2.0000      -9.892095      -269.1776
   4   2.0000      -0.780330       -21.2338
   5   2.0000      -0.682225       -18.5643
   6   2.0000      -0.566123       -15.4050
   7   2.0000      -0.465472       -12.6661
   8   2.0000      -0.380994       -10.3674
   9   2.0000      -0.371200       -10.1009
  10   2.0000      -0.314606        -8.5609
  11   2.0000      -0.288158        -7.8412
  12   2.0000      -0.259095        -7.0503
  13   2.0000      -0.247499        -6.7348
  14   2.0000      -0.215349        -5.8599
  15   2.0000      -0.072355        -1.9689
  16   2.0000      -0.068832        -1.8730
  17   0.0000       0.218098         5.9348
  18   0.0000       0.241448         6.5701
  19   0.0000       0.259287         7.0556
  20   0.0000       0.287664         7.8277
  21   0.0000       0.309474         8.4212

MULLIKEN ATOMIC CHARGES
-----------------------
   0 C :    0.806760
   1 C :   -0.294239
   2 C :    0.401202
   3 H :   -0.244158
   4 H :   -0.133572
   5 O :   -0.767364
   6 H :   -0.201188
   7 H :   -0.117597
   8 H :   -0.213576
   9 H :   -0.156297
  10 H :   -0.079971
Sum of atomic charges:   -1.0000000

LOEWDIN ATOMIC CHARGES
----------------------
   0 C :    0.064435
   1 C :   -0.125785
   2 C :   -0.245927
   3 H :   -0.028693
   4 H :   -0.018727
   5 O :   -0.536489
   6 H :   -0.005184
   7 H :    0.002916
   8 H :   -0.046315
   9 H :   -0.026365
  10 H :   -0.033867

  Mayer bond orders larger than 0.100000
B(  0-C ,  1-C ) :   1.3018 B(  0-C ,  7-H ) :   0.1170 B(  0-C ,  8-H ) :   0.7376
B(  0-C ,  9-H ) :   0.7702 B(  0-C , 10-H ) :   0.7737 B(  1-C ,  2-C ) :   1.0313
B(  1-C ,  3-H ) :   0.1588 B(  1-C ,  4-H ) :   0.1515 B(  1-C ,  6-H ) :   0.9827
B(  1-C ,  7-H ) :   0.8989 B(  1-C ,  8-H ) :   0.2426 B(  1-C ,  9-H ) :   0.2080
B(  1-C , 10-H ) :   0.2223 B(  2-C ,  3-H ) :   0.9478 B(  2-C ,  4-H ) :   0.9188
B(  2-C ,  5-O ) :   1.3045 B(  2-C ,  7-H ) :   0.1082

FINAL SINGLE POINT ENERGY      -193.110787154517

DIPOLE MOMENT
-------------
                                X             Y             Z
Electronic contribution:     -1.97760       1.88893       0.52361
Nuclear contribution   :      3.33375      -3.25054      -1.09297
                        -----------------------------------------
Total Dipole Moment    :      1.35616      -1.36161      -0.56936
                        -----------------------------------------
Magnitude (a.u.)       :      2.00432
Magnitude (Debye)      :      5.09459

Rotational constants in cm-1:     0.478390     0.193336     0.154822
Rotational constants in MHz : 14341.777399  5796.063993  4641.443060

                             ****ORCA TERMINATED NORMALLY****
TOTAL RUN TIME: 0 days 0 hours 0 minutes 11 seconds 158 msec
