                         Program Version 5.0.0 -  RELEASE  -
|  1> !LC-BLYP RIJCOSX def2-SVPD def2/J TightSCF
|  2> *xyz 1 1
|  3> C          4.99986       -1.59613       -5.92488
|  4> N          5.28156       -1.97413       -4.53576
|  5> C          3.76678       -2.26611       -6.51175
|  6> C          2.49670       -1.84416       -5.73570
|  7> C          4.79250       -1.36132       -3.45730
|  8> N          3.93990       -0.37492       -3.55736
|  9> N          5.25986       -1.75422       -2.23913
| 10> H          5.92282       -2.52145       -2.18672
| 11> H          4.65468       -1.64040       -1.44202
| 12> H          5.70914       -2.87560       -4.38702
| 13> H          3.33010       -0.31764       -4.36125
| 14> H          3.69849        0.11447       -2.70833
| 15> H          4.84333       -0.51793       -5.94302
| 16> H          5.90170       -1.82250       -6.49647
| 17> H          3.88619       -3.35708       -6.53360
| 18> H          3.68560       -1.92217       -7.54713
| 19> H          1.64155       -2.32499       -6.16281
| 20> H          2.37707       -0.78268       -5.79763
| 21> H          2.59306       -2.13299       -4.70994
| 22> *
| 23>
| 24> %MaxCore 64000
| 25>
| 26> %pal nprocs 4
| 27> end
| 28>
| 29> %scf
| 30>   MaxIter 150
| 31> end
| 32>
| 33>
| 34>                          ****END OF INPUT****

CARTESIAN COORDINATES (ANGSTROEM)
---------------------------------
  C      4.999860   -1.596130   -5.924880
  N      5.281560   -1.974130   -4.535760
  C      3.766780   -2.266110   -6.511750
  C      2.496700   -1.844160   -5.735700
  C      4.792500   -1.361320   -3.457300
  N      3.939900   -0.374920   -3.557360
  N      5.259860   -1.754220   -2.239130
  H      5.922820   -2.521450   -2.186720
  H      4.654680   -1.640400   -1.442020
  H      5.709140   -2.875600   -4.387020
  H      3.330100   -0.317640   -4.361250
  H      3.698490    0.114470   -2.708330
  H      4.843330   -0.517930   -5.943020
  H      5.901700   -1.822500   -6.496470
  H      3.886190   -3.357080   -6.533600
  H      3.685600   -1.922170   -7.547130
  H      1.641550   -2.324990   -6.162810
  H      2.377070   -0.782680   -5.797630
  H      2.593060   -2.132990   -4.709940

 Total Charge           Charge          ....    1
 Multiplicity           Mult            ....    1
 Number of Electrons    NEL             ....   56
 Basis Dimension        Dim             ....  236

ORBITAL ENERGIES
----------------

  NO   OCC          E(Eh)            E(eV)
   0   2.0000     -14.409789      -392.1103
   1   2.0000     -14.408519      -392.0757
   2   2.0000     -14.404373      -391.9629
   3   2.0000     -10.420385      -283.5531
   4   2.0000     -10.285780      -279.8903
   5   2.0000     -10.235146      -278.5125
   6   2.0000     -10.223028      -278.1827
   7   2.0000      -1.306663       -35.5561
   8   2.0000      -1.196418       -32.5562
   9   2.0000      -1.182114       -32.1670
  10   2.0000      -1.050343       -28.5813
  11   2.0000      -0.972079       -26.4516
  12   2.0000      -0.930352       -25.3162
  13   2.0000      -0.895167       -24.3587
  14   2.0000      -0.867167       -23.5968
  15   2.0000      -0.836773       -22.7697
  16   2.0000      -0.799191       -21.7471
  17   2.0000      -0.790933       -21.5224
  18   2.0000      -0.748688       -20.3728
  19   2.0000      -0.737665       -20.0729
  20   2.0000      -0.711811       -19.3694
  21   2.0000      -0.683663       -18.6034
  22   2.0000      -0.662112       -18.0170
  23   2.0000      -0.621458       -16.9107
  24   2.0000      -0.599757       -16.3202
  25   2.0000      -0.595128       -16.1943
  26   2.0000      -0.572384       -15.5754
  27   2.0000      -0.543861       -14.7992
  28   0.0000      -0.096974        -2.6388
  29   0.0000      -0.086178        -2.3450
  30   0.0000      -0.056188        -1.5290
  31   0.0000      -0.046245        -1.2584
  32   0.0000      -0.030091        -0.8188

MULLIKEN ATOMIC CHARGES
-----------------------
   0 C :    0.803469
   1 N :   -0.243420
   2 C :    0.150529
   3 C :    0.790958
   4 C :    0.805461
   5 N :    0.471689
   6 N :    0.145354
   7 H :   -0.073649
   8 H :   -0.050199
   9 H :   -0.245554
  10 H :   -0.472741
  11 H :   -0.111211
  12 H :   -0.010121
  13 H :   -0.451774
  14 H :   -0.202038
  15 H :   -0.049248
  16 H :   -0.443656
  17 H :    0.153186
  18 H :    0.032964
Sum of atomic charges:    1.0000000

LOEWDIN ATOMIC CHARGES
----------------------
   0 C :    0.055220
   1 N :    0.069585
   2 C :   -0.035746
   3 C :    0.126380
   4 C :   -0.064630
   5 N :    0.304202
   6 N :    0.272116
   7 H :    0.032896
   8 H :    0.027683
   9 H :    0.058325
  10 H :   -0.037303
  11 H :    0.050523
  12 H :    0.037378
  13 H :    0.045829
  14 H :    0.039108
  15 H :    0.044551
  16 H :    0.007173
  17 H :   -0.007719
  18 H :   -0.025572

  Mayer bond orders larger than 0.100000
B(  0-C ,  1-N ) :   1.0320 B(  0-C ,  2-C ) :   1.1032 B(  0-C ,  9-H ) :  -0.2095
B(  0-C , 12-H ) :   0.6865 B(  0-C , 13-H ) :   0.8923 B(  0-C , 14-H ) :   0.1505
B(  0-C , 15-H ) :   0.1242 B(  1-N ,  4-C ) :   1.1156 B(  1-N ,  5-N ) :   0.1740
B(  1-N ,  6-N ) :   0.1999 B(  1-N ,  9-H ) :   1.2709 B(  1-N , 12-H ) :   0.1825
B(  1-N , 13-H ) :   0.1315 B(  2-C ,  3-C ) :   1.2595 B(  2-C , 12-H ) :   0.1350
B(  2-C , 14-H ) :   0.9002 B(  2-C , 15-H ) :   0.8293 B(  2-C , 16-H ) :   0.2011
B(  2-C , 17-H ) :   0.1578 B(  2-C , 18-H ) :   0.1711 B(  3-C , 10-H ) :   0.1474
B(  3-C , 15-H ) :   0.1098 B(  3-C , 16-H ) :   0.8971 B(  3-C , 17-H ) :   0.6669
B(  3-C , 18-H ) :   0.7889 B(  4-C ,  5-N ) :   1.1749 B(  4-C ,  6-N ) :   0.9448
B(  4-C ,  7-H ) :  -0.1097 B(  4-C ,  9-H ) :  -0.2345 B(  4-C , 10-H ) :  -0.1218
B(  4-C , 11-H ) :  -0.1134 B(  5-N ,  6-N ) :   0.1621 B(  5-N , 10-H ) :   1.1663
B(  5-N , 11-H ) :   1.1959 B(  5-N , 12-H ) :   0.1072 B(  6-N ,  7-H ) :   1.0982
B(  6-N ,  8-H ) :   1.1375 B(  7-H ,  8-H ) :  -0.1484 B( 10-H , 11-H ) :  -0.2226
B( 10-H , 17-H ) :   0.2054 B( 12-H , 13-H ) :  -0.1851 B( 16-H , 17-H ) :  -0.1484

FINAL SINGLE POINT ENERGY      -322.647357964246

DIPOLE MOMENT
-------------
                                X             Y             Z
Electronic contribution:      3.86472       0.79710       4.83048
Nuclear contribution   :     -3.69451      -0.93313      -3.60402
                        -----------------------------------------
Total Dipole Moment    :      0.17021      -0.13602       1.22646
                        -----------------------------------------
Magnitude (a.u.)       :      1.24566
Magnitude (Debye)      :      3.16622

Rotational constants in cm-1:     0.152547     0.057272     0.048491
Rotational constants in MHz :  4573.230603  1716.968614  1453.721796

                             ****ORCA TERMINATED NORMALLY****
TOTAL RUN TIME: 0 days 0 hours 0 minutes 36 seconds 56 msec
