                         Program Version 5.0.0 -  RELEASE  -
|  1> !LC-BLYP RIJCOSX def2-SVPD def2/J TightSCF
|  2> *xyz 0 1
|  3> C          4.99986       -1.59613       -5.92488
|  4> C          3.76678       -2.26611       -6.51175
|  5> C          2.49670       -1.84416       -5.73570
|  6> H          1.62642       -2.21743       -6.30895
|  7> H          2.48182       -2.45607       -4.79341
|  8> F          2.45973       -0.50920       -5.50576
|  9> H          3.88619       -3.35708       -6.53360
| 10> H          3.68560       -1.92217       -7.54713
| 11> H          5.86637       -1.89999       -6.47418
| 12> H          5.10830       -1.88372       -4.89997
| 13> H          4.89230       -0.53341       -5.98765
| 14> *
| 15>
| 16> %MaxCore 64000
| 17>
| 18> %pal nprocs 4
| 19> end
| 20>
| 21> %scf
| 22>   MaxIter 150
| 23> end
| 24>
| 25>
| 26>                          ****END OF INPUT****

CARTESIAN COORDINATES (ANGSTROEM)
---------------------------------
  C      4.999860   -1.596130   -5.924880
  C      3.766780   -2.266110   -6.511750
  C      2.496700   -1.844160   -5.735700
  H      1.626420   -2.217430   -6.308950
  H      2.481820   -2.456070   -4.793410
  F      2.459730   -0.509200   -5.505760
  H      3.886190   -3.357080   -6.533600
  H      3.685600   -1.922170   -7.547130
  H      5.866370   -1.899990   -6.474180
  H      5.108300   -1.883720   -4.899970
  H      4.892300   -0.533410   -5.987650

 Total Charge           Charge          ....    0
 Multiplicity           Mult            ....    1
 Number of Electrons    NEL             ....   34
 Basis Dimension        Dim             ....  139

ORBITAL ENERGIES
----------------

  NO   OCC          E(Eh)            E(eV)
   0   2.0000     -24.468696      -665.8271
   1   2.0000     -10.164558      -276.5917
   2   2.0000     -10.090776      -274.5840
   3   2.0000     -10.069344      -274.0008
   4   2.0000      -1.274560       -34.6825
   5   2.0000      -0.892994       -24.2996
   6   2.0000      -0.792333       -21.5605
   7   2.0000      -0.698772       -19.0146
   8   2.0000      -0.620428       -16.8827
   9   2.0000      -0.605562       -16.4782
  10   2.0000      -0.584091       -15.8939
  11   2.0000      -0.541460       -14.7339
  12   2.0000      -0.498191       -13.5565
  13   2.0000      -0.474685       -12.9168
  14   2.0000      -0.454183       -12.3590
  15   2.0000      -0.424866       -11.5612
  16   2.0000      -0.420199       -11.4342
  17   0.0000       0.073741         2.0066
  18   0.0000       0.098435         2.6786
  19   0.0000       0.108037         2.9398
  20   0.0000       0.127618         3.4727
  21   0.0000       0.151493         4.1223

MULLIKEN ATOMIC CHARGES
-----------------------
   0 C :    0.826434
   1 C :   -0.239313
   2 C :    0.735083
   3 H :   -0.179371
   4 H :   -0.068057
   5 F :   -0.351470
   6 H :   -0.182842
   7 H :   -0.121793
   8 H :   -0.187652
   9 H :   -0.145449
  10 H :   -0.085570
Sum of atomic charges:    0.0000000

LOEWDIN ATOMIC CHARGES
----------------------
   0 C :    0.101549
   1 C :   -0.076546
   2 C :    0.062374
   3 H :    0.033070
   4 H :    0.045184
   5 F :   -0.183916
   6 H :    0.032383
   7 H :    0.025205
   8 H :   -0.014391
   9 H :   -0.010490
  10 H :   -0.014421

  Mayer bond orders larger than 0.100000
B(  0-C ,  1-C ) :   1.3286 B(  0-C ,  8-H ) :   0.7660 B(  0-C ,  9-H ) :   0.7676
B(  0-C , 10-H ) :   0.7718 B(  1-C ,  2-C ) :   1.1676 B(  1-C ,  3-H ) :   0.1252
B(  1-C ,  4-H ) :   0.1220 B(  1-C ,  6-H ) :   0.9463 B(  1-C ,  7-H ) :   0.8885
B(  1-C ,  8-H ) :   0.2271 B(  1-C ,  9-H ) :   0.1920 B(  1-C , 10-H ) :   0.1937
B(  2-C ,  3-H ) :   0.9024 B(  2-C ,  4-H ) :   0.8714 B(  2-C ,  5-F ) :   0.8614

FINAL SINGLE POINT ENERGY      -217.704655493186

DIPOLE MOMENT
-------------
                                X             Y             Z
Electronic contribution:     -4.39552       3.83369       1.41359
Nuclear contribution   :      4.50596      -4.50325      -1.58424
                        -----------------------------------------
Total Dipole Moment    :      0.11044      -0.66955      -0.17065
                        -----------------------------------------
Magnitude (a.u.)       :      0.69973
Magnitude (Debye)      :      1.77857

Rotational constants in cm-1:     0.464063     0.182606     0.146573
Rotational constants in MHz : 13912.251583  5474.398056  4394.141907

                             ****ORCA TERMINATED NORMALLY****
TOTAL RUN TIME: 0 days 0 hours 0 minutes 10 seconds 349 msec
