                         Program Version 5.0.0 -  RELEASE  -
|  1> !LC-BLYP RIJCOSX def2-SVPD def2/J TightSCF
|  2> *xyz 0 1
|  3> C          4.99986       -1.59613       -5.92488
|  4> C          5.28156       -1.97413       -4.53576
|  5> C          3.76678       -2.26611       -6.51175
|  6> C          2.49670       -1.84416       -5.73570
|  7> C          4.79250       -1.36132       -3.45730
|  8> N          3.93990       -0.37492       -3.55736
|  9> N          5.25986       -1.75422       -2.23913
| 10> H          5.92282       -2.52145       -2.18672
| 11> H          4.65468       -1.64040       -1.44202
| 12> H          5.70914       -2.87560       -4.38702
| 13> H          3.33010       -0.31764       -4.36125
| 14> H          3.69849        0.11447       -2.70833
| 15> H          4.84333       -0.51793       -5.94302
| 16> H          5.90170       -1.82250       -6.49647
| 17> H          3.88619       -3.35708       -6.53360
| 18> H          3.68560       -1.92217       -7.54713
| 19> H          1.64155       -2.32499       -6.16281
| 20> H          2.37707       -0.78268       -5.79763
| 21> H          2.59306       -2.13299       -4.70994
| 22> *
| 23>
| 24> %MaxCore 64000
| 25>
| 26> %pal nprocs 4
| 27> end
| 28>
| 29> %scf
| 30>   MaxIter 150
| 31> end
| 32>
| 33>
| 34>                          ****END OF INPUT****

CARTESIAN COORDINATES (ANGSTROEM)
---------------------------------
  C      4.999860   -1.596130   -5.924880
  C      5.281560   -1.974130   -4.535760
  C      3.766780   -2.266110   -6.511750
  C      2.496700   -1.844160   -5.735700
  C      4.792500   -1.361320   -3.457300
  N      3.939900   -0.374920   -3.557360
  N      5.259860   -1.754220   -2.239130
  H      5.922820   -2.521450   -2.186720
  H      4.654680   -1.640400   -1.442020
  H      5.709140   -2.875600   -4.387020
  H      3.330100   -0.317640   -4.361250
  H      3.698490    0.114470   -2.708330
  H      4.843330   -0.517930   -5.943020
  H      5.901700   -1.822500   -6.496470
  H      3.886190   -3.357080   -6.533600
  H      3.685600   -1.922170   -7.547130
  H      1.641550   -2.324990   -6.162810
  H      2.377070   -0.782680   -5.797630
  H      2.593060   -2.132990   -4.709940

 Total Charge           Charge          ....    0
 Multiplicity           Mult            ....    1
 Number of Electrons    NEL             ....   56
 Basis Dimension        Dim             ....  236

ORBITAL ENERGIES
----------------

  NO   OCC          E(Eh)            E(eV)
   0   2.0000     -14.188285      -386.0829
   1   2.0000     -14.184505      -385.9800
   2   2.0000     -10.129658      -275.6420
   3   2.0000     -10.068360      -273.9740
   4   2.0000     -10.066694      -273.9287
   5   2.0000     -10.056729      -273.6575
   6   2.0000     -10.010896      -272.4103
   7   2.0000      -1.056082       -28.7375
   8   2.0000      -0.963555       -26.2197
   9   2.0000      -0.893323       -24.3086
  10   2.0000      -0.826185       -22.4816
  11   2.0000      -0.763013       -20.7626
  12   2.0000      -0.709937       -19.3184
  13   2.0000      -0.665839       -18.1184
  14   2.0000      -0.648927       -17.6582
  15   2.0000      -0.612015       -16.6538
  16   2.0000      -0.583124       -15.8676
  17   2.0000      -0.553582       -15.0637
  18   2.0000      -0.541922       -14.7465
  19   2.0000      -0.522813       -14.2265
  20   2.0000      -0.494322       -13.4512
  21   2.0000      -0.475276       -12.9329
  22   2.0000      -0.456207       -12.4140
  23   2.0000      -0.434747       -11.8301
  24   2.0000      -0.417591       -11.3632
  25   2.0000      -0.413056       -11.2398
  26   2.0000      -0.363728        -9.8975
  27   2.0000      -0.257221        -6.9993
  28   0.0000       0.072078         1.9613
  29   0.0000       0.092932         2.5288
  30   0.0000       0.100362         2.7310
  31   0.0000       0.113767         3.0958
  32   0.0000       0.121779         3.3138

MULLIKEN ATOMIC CHARGES
-----------------------
   0 C :    0.326526
   1 C :   -0.197921
   2 C :    0.096372
   3 C :    0.797384
   4 C :    0.582706
   5 N :    0.557640
   6 N :    0.100698
   7 H :   -0.070031
   8 H :   -0.117857
   9 H :   -0.431776
  10 H :   -0.504695
  11 H :   -0.238314
  12 H :   -0.007034
  13 H :   -0.259126
  14 H :   -0.225768
  15 H :   -0.121825
  16 H :   -0.434082
  17 H :    0.147438
  18 H :   -0.000334
Sum of atomic charges:    0.0000000

LOEWDIN ATOMIC CHARGES
----------------------
   0 C :   -0.077490
   1 C :   -0.025160
   2 C :   -0.066576
   3 C :    0.109063
   4 C :   -0.243561
   5 N :    0.223951
   6 N :    0.193764
   7 H :   -0.001110
   8 H :   -0.023045
   9 H :   -0.048825
  10 H :   -0.062967
  11 H :    0.002059
  12 H :    0.016145
  13 H :    0.019052
  14 H :    0.027123
  15 H :    0.018547
  16 H :   -0.015532
  17 H :   -0.018602
  18 H :   -0.026834

  Mayer bond orders larger than 0.100000
B(  0-C ,  1-C ) :   1.1635 B(  0-C ,  2-C ) :   1.1281 B(  0-C ,  4-C ) :   0.1041
B(  0-C ,  9-H ) :   0.2762 B(  0-C , 12-H ) :   0.6907 B(  0-C , 13-H ) :   0.8194
B(  0-C , 14-H ) :   0.1765 B(  0-C , 15-H ) :   0.1485 B(  1-C ,  4-C ) :   1.5229
B(  1-C ,  5-N ) :   0.3044 B(  1-C ,  6-N ) :   0.3284 B(  1-C ,  9-H ) :   0.8256
B(  1-C , 12-H ) :   0.3066 B(  1-C , 13-H ) :   0.1988 B(  2-C ,  3-C ) :   1.2628
B(  2-C , 12-H ) :   0.1250 B(  2-C , 14-H ) :   0.9074 B(  2-C , 15-H ) :   0.8156
B(  2-C , 16-H ) :   0.2235 B(  2-C , 17-H ) :   0.1695 B(  2-C , 18-H ) :   0.2082
B(  3-C , 10-H ) :   0.1369 B(  3-C , 15-H ) :   0.1275 B(  3-C , 16-H ) :   0.8415
B(  3-C , 17-H ) :   0.6729 B(  3-C , 18-H ) :   0.7681 B(  4-C ,  5-N ) :   1.0709
B(  4-C ,  6-N ) :   0.8373 B(  4-C , 11-H ) :  -0.1155 B(  4-C , 12-H ) :  -0.1430
B(  5-N ,  6-N ) :   0.1023 B(  5-N , 10-H ) :   1.1108 B(  5-N , 11-H ) :   1.2123
B(  6-N ,  7-H ) :   1.1162 B(  6-N ,  8-H ) :   1.1096 B(  6-N ,  9-H ) :   0.1015
B(  7-H ,  8-H ) :  -0.1369 B( 10-H , 11-H ) :  -0.2048 B( 10-H , 17-H ) :   0.2020
B( 16-H , 17-H ) :  -0.1163

FINAL SINGLE POINT ENERGY      -306.182718937176

DIPOLE MOMENT
-------------
                                X             Y             Z
Electronic contribution:      2.88244       1.02417       4.29602
Nuclear contribution   :     -3.49027      -1.01686      -3.60427
                        -----------------------------------------
Total Dipole Moment    :     -0.60783       0.00731       0.69175
                        -----------------------------------------
Magnitude (a.u.)       :      0.92088
Magnitude (Debye)      :      2.34070

Rotational constants in cm-1:     0.155200     0.057307     0.048781
Rotational constants in MHz :  4652.781345  1718.017305  1462.410307

                             ****ORCA TERMINATED NORMALLY****
TOTAL RUN TIME: 0 days 0 hours 0 minutes 39 seconds 474 msec
