                         Program Version 5.0.0 -  RELEASE  -
|  1> !LC-BLYP RIJCOSX def2-SVPD def2/J TightSCF
|  2> *xyz 0 1
|  3> C          4.99986       -1.59613       -5.92488
|  4> N          5.28156       -1.97413       -4.53576
|  5> C          3.76678       -2.26611       -6.51175
|  6> C          2.49670       -1.84416       -5.73570
|  7> C          4.79250       -1.36132       -3.45730
|  8> C          3.93990       -0.37492       -3.55736
|  9> N          5.25986       -1.75422       -2.23913
| 10> H          5.92282       -2.52145       -2.18672
| 11> H          4.65468       -1.64040       -1.44202
| 12> H          5.70914       -2.87560       -4.38702
| 13> H          3.33010       -0.31764       -4.36125
| 14> H          3.69849        0.11447       -2.70833
| 15> H          4.84333       -0.51793       -5.94302
| 16> H          5.90170       -1.82250       -6.49647
| 17> H          3.88619       -3.35708       -6.53360
| 18> H          3.68560       -1.92217       -7.54713
| 19> H          1.64155       -2.32499       -6.16281
| 20> H          2.37707       -0.78268       -5.79763
| 21> H          2.59306       -2.13299       -4.70994
| 22> *
| 23>
| 24> %MaxCore 64000
| 25>
| 26> %pal nprocs 4
| 27> end
| 28>
| 29> %scf
| 30>   MaxIter 150
| 31> end
| 32>
| 33>
| 34>                          ****END OF INPUT****

CARTESIAN COORDINATES (ANGSTROEM)
---------------------------------
  C      4.999860   -1.596130   -5.924880
  N      5.281560   -1.974130   -4.535760
  C      3.766780   -2.266110   -6.511750
  C      2.496700   -1.844160   -5.735700
  C      4.792500   -1.361320   -3.457300
  C      3.939900   -0.374920   -3.557360
  N      5.259860   -1.754220   -2.239130
  H      5.922820   -2.521450   -2.186720
  H      4.654680   -1.640400   -1.442020
  H      5.709140   -2.875600   -4.387020
  H      3.330100   -0.317640   -4.361250
  H      3.698490    0.114470   -2.708330
  H      4.843330   -0.517930   -5.943020
  H      5.901700   -1.822500   -6.496470
  H      3.886190   -3.357080   -6.533600
  H      3.685600   -1.922170   -7.547130
  H      1.641550   -2.324990   -6.162810
  H      2.377070   -0.782680   -5.797630
  H      2.593060   -2.132990   -4.709940

 Total Charge           Charge          ....    0
 Multiplicity           Mult            ....    1
 Number of Electrons    NEL             ....   56
 Basis Dimension        Dim             ....  236

ORBITAL ENERGIES
----------------

  NO   OCC          E(Eh)            E(eV)
   0   2.0000     -14.190289      -386.1374
   1   2.0000     -14.185697      -386.0124
   2   2.0000     -10.131576      -275.6942
   3   2.0000     -10.112815      -275.1837
   4   2.0000     -10.082119      -274.3484
   5   2.0000     -10.061815      -273.7959
   6   2.0000      -9.997413      -272.0435
   7   2.0000      -1.057789       -28.7839
   8   2.0000      -0.974710       -26.5232
   9   2.0000      -0.879698       -23.9378
  10   2.0000      -0.826607       -22.4931
  11   2.0000      -0.784293       -21.3417
  12   2.0000      -0.710966       -19.3464
  13   2.0000      -0.666833       -18.1454
  14   2.0000      -0.643001       -17.4969
  15   2.0000      -0.616966       -16.7885
  16   2.0000      -0.571799       -15.5595
  17   2.0000      -0.565946       -15.4002
  18   2.0000      -0.537134       -14.6162
  19   2.0000      -0.506825       -13.7914
  20   2.0000      -0.494704       -13.4616
  21   2.0000      -0.479223       -13.0403
  22   2.0000      -0.477227       -12.9860
  23   2.0000      -0.442925       -12.0526
  24   2.0000      -0.439624       -11.9628
  25   2.0000      -0.426107       -11.5950
  26   2.0000      -0.349064        -9.4985
  27   2.0000      -0.268050        -7.2940
  28   0.0000       0.069857         1.9009
  29   0.0000       0.091351         2.4858
  30   0.0000       0.095375         2.5953
  31   0.0000       0.107605         2.9281
  32   0.0000       0.123597         3.3633

MULLIKEN ATOMIC CHARGES
-----------------------
   0 C :    0.782267
   1 N :   -0.277840
   2 C :    0.095598
   3 C :    0.656455
   4 C :    0.493467
   5 C :    0.989216
   6 N :    0.220772
   7 H :   -0.149008
   8 H :   -0.036009
   9 H :   -0.343921
  10 H :   -1.152887
  11 H :   -0.507127
  12 H :    0.052804
  13 H :   -0.481026
  14 H :   -0.219755
  15 H :   -0.097094
  16 H :   -0.516911
  17 H :    0.357861
  18 H :    0.133138
Sum of atomic charges:   -0.0000000

LOEWDIN ATOMIC CHARGES
----------------------
   0 C :    0.029558
   1 N :    0.005348
   2 C :   -0.059297
   3 C :    0.110954
   4 C :   -0.246855
   5 C :    0.157751
   6 N :    0.198343
   7 H :   -0.016109
   8 H :   -0.006129
   9 H :    0.018262
  10 H :   -0.146094
  11 H :   -0.082685
  12 H :    0.028120
  13 H :    0.021583
  14 H :    0.022325
  15 H :    0.022637
  16 H :   -0.017513
  17 H :   -0.014322
  18 H :   -0.025875

  Mayer bond orders larger than 0.100000
B(  0-C ,  1-N ) :   1.0186 B(  0-C ,  2-C ) :   1.0776 B(  0-C ,  4-C ) :  -0.1137
B(  0-C ,  9-H ) :  -0.1991 B(  0-C , 12-H ) :   0.6779 B(  0-C , 13-H ) :   0.9027
B(  0-C , 14-H ) :   0.1419 B(  0-C , 15-H ) :   0.1267 B(  1-N ,  4-C ) :   1.0317
B(  1-N ,  5-C ) :   0.3511 B(  1-N ,  6-N ) :   0.1375 B(  1-N ,  9-H ) :   1.3371
B(  1-N , 12-H ) :   0.1634 B(  1-N , 13-H ) :   0.1256 B(  2-C ,  3-C ) :   1.2788
B(  2-C , 12-H ) :   0.1594 B(  2-C , 14-H ) :   0.9063 B(  2-C , 15-H ) :   0.8353
B(  2-C , 16-H ) :   0.2060 B(  2-C , 17-H ) :   0.1444 B(  2-C , 18-H ) :   0.1671
B(  3-C , 10-H ) :   0.3200 B(  3-C , 15-H ) :   0.1182 B(  3-C , 16-H ) :   0.9005
B(  3-C , 17-H ) :   0.6123 B(  3-C , 18-H ) :   0.8068 B(  4-C ,  5-C ) :   1.7239
B(  4-C ,  6-N ) :   0.9205 B(  4-C ,  9-H ) :  -0.2563 B(  4-C , 11-H ) :   0.4217
B(  5-C ,  6-N ) :   0.3222 B(  5-C , 10-H ) :   0.1858 B(  5-C , 11-H ) :   0.4318
B(  6-N ,  7-H ) :   1.0321 B(  6-N ,  8-H ) :   1.0718 B(  6-N , 11-H ) :   0.1952
B(  7-H ,  8-H ) :  -0.1479 B( 10-H , 12-H ) :   0.1093 B( 10-H , 17-H ) :   0.1865
B( 12-H , 13-H ) :  -0.1962 B( 16-H , 17-H ) :  -0.2092 B( 16-H , 18-H ) :  -0.1115

FINAL SINGLE POINT ENERGY      -306.170411887438

DIPOLE MOMENT
-------------
                                X             Y             Z
Electronic contribution:      4.03707      -0.36027       3.35536
Nuclear contribution   :     -3.78417      -0.66655      -3.38995
                        -----------------------------------------
Total Dipole Moment    :      0.25291      -1.02681      -0.03459
                        -----------------------------------------
Magnitude (a.u.)       :      1.05807
Magnitude (Debye)      :      2.68940

Rotational constants in cm-1:     0.157710     0.057795     0.049101
Rotational constants in MHz :  4728.033540  1732.635996  1472.015132

                             ****ORCA TERMINATED NORMALLY****
TOTAL RUN TIME: 0 days 0 hours 0 minutes 38 seconds 421 msec
