                         Program Version 5.0.0 -  RELEASE  -
|  1> !LC-BLYP RIJCOSX def2-SVPD def2/J TightSCF
|  2> *xyz 0 1
|  3> C          4.99986       -1.59613       -5.92488
|  4> N          5.28156       -1.97413       -4.53576
|  5> C          3.76678       -2.26611       -6.51175
|  6> C          2.49670       -1.84416       -5.73570
|  7> C          4.79250       -1.36132       -3.45730
|  8> N          3.93990       -0.37492       -3.55736
|  9> C          5.25986       -1.75422       -2.23913
| 10> H          5.92282       -2.52145       -2.18672
| 11> H          4.65468       -1.64040       -1.44202
| 12> H          5.70914       -2.87560       -4.38702
| 13> H          3.33010       -0.31764       -4.36125
| 14> H          3.69849        0.11447       -2.70833
| 15> H          4.84333       -0.51793       -5.94302
| 16> H          5.90170       -1.82250       -6.49647
| 17> H          3.88619       -3.35708       -6.53360
| 18> H          3.68560       -1.92217       -7.54713
| 19> H          1.64155       -2.32499       -6.16281
| 20> H          2.37707       -0.78268       -5.79763
| 21> H          2.59306       -2.13299       -4.70994
| 22> *
| 23>
| 24> %MaxCore 64000
| 25>
| 26> %pal nprocs 4
| 27> end
| 28>
| 29> %scf
| 30>   MaxIter 150
| 31> end
| 32>
| 33>
| 34>                          ****END OF INPUT****

CARTESIAN COORDINATES (ANGSTROEM)
---------------------------------
  C      4.999860   -1.596130   -5.924880
  N      5.281560   -1.974130   -4.535760
  C      3.766780   -2.266110   -6.511750
  C      2.496700   -1.844160   -5.735700
  C      4.792500   -1.361320   -3.457300
  N      3.939900   -0.374920   -3.557360
  C      5.259860   -1.754220   -2.239130
  H      5.922820   -2.521450   -2.186720
  H      4.654680   -1.640400   -1.442020
  H      5.709140   -2.875600   -4.387020
  H      3.330100   -0.317640   -4.361250
  H      3.698490    0.114470   -2.708330
  H      4.843330   -0.517930   -5.943020
  H      5.901700   -1.822500   -6.496470
  H      3.886190   -3.357080   -6.533600
  H      3.685600   -1.922170   -7.547130
  H      1.641550   -2.324990   -6.162810
  H      2.377070   -0.782680   -5.797630
  H      2.593060   -2.132990   -4.709940

 Total Charge           Charge          ....    0
 Multiplicity           Mult            ....    1
 Number of Electrons    NEL             ....   56
 Basis Dimension        Dim             ....  236

ORBITAL ENERGIES
----------------

  NO   OCC          E(Eh)            E(eV)
   0   2.0000     -14.189200      -386.1078
   1   2.0000     -14.187771      -386.0689
   2   2.0000     -10.135351      -275.7969
   3   2.0000     -10.121877      -275.4303
   4   2.0000     -10.093990      -274.6714
   5   2.0000     -10.084676      -274.4180
   6   2.0000      -9.993204      -271.9289
   7   2.0000      -1.066818       -29.0296
   8   2.0000      -0.982424       -26.7331
   9   2.0000      -0.900693       -24.5091
  10   2.0000      -0.821525       -22.3548
  11   2.0000      -0.778899       -21.1949
  12   2.0000      -0.709435       -19.3047
  13   2.0000      -0.703852       -19.1528
  14   2.0000      -0.652102       -17.7446
  15   2.0000      -0.608168       -16.5491
  16   2.0000      -0.583817       -15.8865
  17   2.0000      -0.568332       -15.4651
  18   2.0000      -0.558158       -15.1883
  19   2.0000      -0.508890       -13.8476
  20   2.0000      -0.500561       -13.6210
  21   2.0000      -0.487048       -13.2533
  22   2.0000      -0.474751       -12.9186
  23   2.0000      -0.453815       -12.3489
  24   2.0000      -0.449145       -12.2219
  25   2.0000      -0.443994       -12.0817
  26   2.0000      -0.353774        -9.6267
  27   2.0000      -0.253084        -6.8868
  28   0.0000       0.067202         1.8287
  29   0.0000       0.086617         2.3570
  30   0.0000       0.097473         2.6524
  31   0.0000       0.101255         2.7553
  32   0.0000       0.125095         3.4040

MULLIKEN ATOMIC CHARGES
-----------------------
   0 C :    0.795641
   1 N :   -0.027713
   2 C :    0.127597
   3 C :    0.768811
   4 C :    0.051992
   5 N :    0.638351
   6 C :    0.558443
   7 H :   -0.409196
   8 H :   -0.383135
   9 H :   -0.322809
  10 H :   -0.583459
  11 H :   -0.104323
  12 H :   -0.042160
  13 H :   -0.517599
  14 H :   -0.215571
  15 H :   -0.081124
  16 H :   -0.476039
  17 H :    0.143562
  18 H :    0.078731
Sum of atomic charges:   -0.0000000

LOEWDIN ATOMIC CHARGES
----------------------
   0 C :    0.024575
   1 N :    0.015837
   2 C :   -0.060319
   3 C :    0.113501
   4 C :   -0.257478
   5 N :    0.223490
   6 C :    0.135818
   7 H :   -0.108947
   8 H :   -0.114187
   9 H :    0.032542
  10 H :   -0.070454
  11 H :    0.018135
  12 H :    0.022384
  13 H :    0.022734
  14 H :    0.027081
  15 H :    0.024274
  16 H :   -0.011948
  17 H :   -0.016432
  18 H :   -0.020608

  Mayer bond orders larger than 0.100000
B(  0-C ,  1-N ) :   1.0344 B(  0-C ,  2-C ) :   1.0870 B(  0-C ,  9-H ) :  -0.2338
B(  0-C , 12-H ) :   0.7062 B(  0-C , 13-H ) :   0.8830 B(  0-C , 14-H ) :   0.1634
B(  0-C , 15-H ) :   0.1368 B(  1-N ,  4-C ) :   1.1865 B(  1-N ,  5-N ) :   0.1135
B(  1-N ,  6-C ) :   0.2053 B(  1-N ,  9-H ) :   1.1828 B(  1-N , 12-H ) :   0.1907
B(  1-N , 13-H ) :   0.1279 B(  2-C ,  3-C ) :   1.2548 B(  2-C , 12-H ) :   0.1365
B(  2-C , 14-H ) :   0.8929 B(  2-C , 15-H ) :   0.8262 B(  2-C , 16-H ) :   0.2038
B(  2-C , 17-H ) :   0.1635 B(  2-C , 18-H ) :   0.1801 B(  3-C , 10-H ) :   0.1339
B(  3-C , 15-H ) :   0.1086 B(  3-C , 16-H ) :   0.8680 B(  3-C , 17-H ) :   0.6808
B(  3-C , 18-H ) :   0.7927 B(  4-C ,  5-N ) :   1.1686 B(  4-C ,  6-C ) :   1.7454
B(  4-C ,  7-H ) :   0.1898 B(  4-C ,  8-H ) :   0.2359 B(  4-C ,  9-H ) :  -0.1737
B(  4-C , 18-H ) :   0.1008 B(  5-N ,  6-C ) :   0.1576 B(  5-N , 10-H ) :   1.0357
B(  5-N , 11-H ) :   1.1699 B(  5-N , 12-H ) :   0.1118 B(  6-C ,  7-H ) :   0.6700
B(  6-C ,  8-H ) :   0.6920 B(  7-H ,  8-H ) :   0.2061 B( 10-H , 11-H ) :  -0.2059
B( 10-H , 17-H ) :   0.1895 B( 12-H , 13-H ) :  -0.1936 B( 16-H , 17-H ) :  -0.1520

FINAL SINGLE POINT ENERGY      -306.168723115696

DIPOLE MOMENT
-------------
                                X             Y             Z
Electronic contribution:      2.73924       0.91214       1.91387
Nuclear contribution   :     -3.49502      -0.96869      -3.10119
                        -----------------------------------------
Total Dipole Moment    :     -0.75579      -0.05655      -1.18732
                        -----------------------------------------
Magnitude (a.u.)       :      1.40860
Magnitude (Debye)      :      3.58036

Rotational constants in cm-1:     0.153385     0.059790     0.050215
Rotational constants in MHz :  4598.376479  1792.462869  1505.410199

                             ****ORCA TERMINATED NORMALLY****
TOTAL RUN TIME: 0 days 0 hours 0 minutes 40 seconds 173 msec
