                         Program Version 5.0.0 -  RELEASE  -
|  1> !LC-BLYP RIJCOSX def2-SVPD def2/J TightSCF xyzfile
|  2>
|  3> *xyzfile 0 1 D1.xyz
|  4>
|  5> %MaxCore 64000
|  6>
|  7> %pal nprocs 4
|  8> end
|  9>
| 10> %scf
| 11>   MaxIter 150
| 12> end
| 13>
| 14>
| 15>                          ****END OF INPUT****

CARTESIAN COORDINATES (ANGSTROEM)
---------------------------------
  C      4.999862   -1.596133   -5.924876
  C      5.281560   -1.974132   -4.535764
  C      3.766779   -2.266110   -6.511752
  C      2.496702   -1.844161   -5.735704
  H      1.626416   -2.217434   -6.308950
  H      2.481824   -2.456069   -4.793414
  F      2.459729   -0.509204   -5.505757
  C      4.792500   -1.361316   -3.457295
  N      3.939898   -0.374925   -3.557359
  N      5.259860   -1.754224   -2.239133
  H      5.922824   -2.521451   -2.186720
  H      4.654678   -1.640404   -1.442016
  H      5.709139   -2.875599   -4.387021
  H      3.330101   -0.317639   -4.361247
  H      3.698494    0.114468   -2.708333
  H      4.843333   -0.517930   -5.943019
  H      5.901695   -1.822503   -6.496467
  H      3.886191   -3.357076   -6.533604
  H      3.685602   -1.922168   -7.547128

 Total Charge           Charge          ....    0
 Multiplicity           Mult            ....    1
 Number of Electrons    NEL             ....   64
 Basis Dimension        Dim             ....  251

ORBITAL ENERGIES
----------------

  NO   OCC          E(Eh)            E(eV)
   0   2.0000     -24.499001      -666.6517
   1   2.0000     -14.179951      -385.8561
   2   2.0000     -14.164870      -385.4457
   3   2.0000     -10.169752      -276.7330
   4   2.0000     -10.124796      -275.5097
   5   2.0000     -10.081831      -274.3406
   6   2.0000     -10.060456      -273.7589
   7   2.0000     -10.006514      -272.2911
   8   2.0000      -1.312476       -35.7143
   9   2.0000      -1.046181       -28.4680
  10   2.0000      -0.954455       -25.9720
  11   2.0000      -0.899652       -24.4808
  12   2.0000      -0.826822       -22.4990
  13   2.0000      -0.775624       -21.1058
  14   2.0000      -0.705068       -19.1859
  15   2.0000      -0.696102       -18.9419
  16   2.0000      -0.650989       -17.7143
  17   2.0000      -0.635196       -17.2846
  18   2.0000      -0.622499       -16.9391
  19   2.0000      -0.601515       -16.3680
  20   2.0000      -0.595277       -16.1983
  21   2.0000      -0.558126       -15.1874
  22   2.0000      -0.527417       -14.3518
  23   2.0000      -0.511554       -13.9201
  24   2.0000      -0.498952       -13.5772
  25   2.0000      -0.474269       -12.9055
  26   2.0000      -0.454521       -12.3681
  27   2.0000      -0.436592       -11.8803
  28   2.0000      -0.423491       -11.5238
  29   2.0000      -0.414054       -11.2670
  30   2.0000      -0.355408        -9.6711
  31   2.0000      -0.253001        -6.8845
  32   0.0000       0.072712         1.9786
  33   0.0000       0.090003         2.4491
  34   0.0000       0.102653         2.7933
  35   0.0000       0.103725         2.8225
  36   0.0000       0.121781         3.3138

MULLIKEN ATOMIC CHARGES
-----------------------
   0 C :    0.313142
   1 C :   -0.181240
   2 C :    0.214511
   3 C :    0.843127
   4 H :   -0.405376
   5 H :    0.123809
   6 F :   -0.314874
   7 C :    0.553087
   8 N :    0.680245
   9 N :    0.095867
  10 H :   -0.079799
  11 H :   -0.111307
  12 H :   -0.439817
  13 H :   -0.487439
  14 H :   -0.272636
  15 H :    0.106156
  16 H :   -0.312041
  17 H :   -0.230887
  18 H :   -0.094527
Sum of atomic charges:    0.0000000

LOEWDIN ATOMIC CHARGES
----------------------
   0 C :   -0.067474
   1 C :   -0.030027
   2 C :   -0.022197
   3 C :    0.108329
   4 H :    0.036807
   5 H :    0.050210
   6 F :   -0.159561
   7 C :   -0.236917
   8 N :    0.241195
   9 N :    0.192835
  10 H :   -0.003221
  11 H :   -0.023392
  12 H :   -0.053515
  13 H :   -0.134204
  14 H :    0.000916
  15 H :    0.018773
  16 H :    0.021119
  17 H :    0.037084
  18 H :    0.023241

  Mayer bond orders larger than 0.100000
B(  0-C ,  1-C ) :   1.1610 B(  0-C ,  2-C ) :   1.1476 B(  0-C ,  7-C ) :   0.1280
B(  0-C , 12-H ) :   0.2688 B(  0-C , 15-H ) :   0.6805 B(  0-C , 16-H ) :   0.8081
B(  0-C , 17-H ) :   0.1679 B(  0-C , 18-H ) :   0.1316 B(  1-C ,  7-C ) :   1.5133
B(  1-C ,  8-N ) :   0.2825 B(  1-C ,  9-N ) :   0.3346 B(  1-C , 12-H ) :   0.8070
B(  1-C , 15-H ) :   0.3134 B(  1-C , 16-H ) :   0.1730 B(  2-C ,  3-C ) :   1.1811
B(  2-C ,  4-H ) :   0.1716 B(  2-C ,  5-H ) :   0.1483 B(  2-C , 16-H ) :   0.1091
B(  2-C , 17-H ) :   0.8781 B(  2-C , 18-H ) :   0.8185 B(  3-C ,  4-H ) :   0.9030
B(  3-C ,  5-H ) :   0.8089 B(  3-C ,  6-F ) :   0.7150 B(  3-C , 18-H ) :   0.1020
B(  6-F , 13-H ) :   0.1555 B(  7-C ,  8-N ) :   1.0740 B(  7-C ,  9-N ) :   0.8180
B(  7-C , 10-H ) :  -0.1088 B(  7-C , 14-H ) :  -0.1121 B(  7-C , 15-H ) :  -0.1364
B(  8-N ,  9-N ) :   0.1020 B(  8-N , 13-H ) :   1.1803 B(  8-N , 14-H ) :   1.1565
B(  9-N , 10-H ) :   1.1375 B(  9-N , 11-H ) :   1.0939 B(  9-N , 12-H ) :   0.1179
B( 10-H , 11-H ) :  -0.1376 B( 13-H , 14-H ) :  -0.1931

FINAL SINGLE POINT ENERGY      -405.219033242102

DIPOLE MOMENT
-------------
                                X             Y             Z
Electronic contribution:     -3.33840       3.94587       0.76531
Nuclear contribution   :      2.63975      -4.51113      -0.34926
                        -----------------------------------------
Total Dipole Moment    :     -0.69865      -0.56526       0.41605
                        -----------------------------------------
Magnitude (a.u.)       :      0.99032
Magnitude (Debye)      :      2.51719

Rotational constants in cm-1:     0.109429     0.049838     0.039337
Rotational constants in MHz :  3280.611039  1494.113088  1179.280063

                             ****ORCA TERMINATED NORMALLY****
TOTAL RUN TIME: 0 days 0 hours 0 minutes 49 seconds 625 msec
