                         Program Version 5.0.0 -  RELEASE  -
|  1> !wB97X-D3 RIJCOSX def2-TZVPD def2/J TightSCF
|  2> *xyz -1 1
|  3> C         -7.33044       -2.67899       -3.20681
|  4> S         -6.01966       -2.92697       -4.41913
|  5> O         -5.64583       -1.58838       -4.91931
|  6> O         -4.88196       -3.50370       -3.66724
|  7> O         -6.54927       -3.80515       -5.42507
|  8> H         -8.18867       -2.26077       -3.68996
|  9> H         -6.98921       -2.01038       -2.44430
| 10> H         -7.59151       -3.61862       -2.76655
| 11> *
| 12> %MaxCore 64000
| 13>
| 14> %pal nprocs 8
| 15> end
| 16>
| 17> %scf
| 18>   MaxIter 150
| 19> end
| 20>
| 21>
| 22>                          ****END OF INPUT****

CARTESIAN COORDINATES (ANGSTROEM)
---------------------------------
  C     -7.330440   -2.678990   -3.206810
  S     -6.019660   -2.926970   -4.419130
  O     -5.645830   -1.588380   -4.919310
  O     -4.881960   -3.503700   -3.667240
  O     -6.549270   -3.805150   -5.425070
  H     -8.188670   -2.260770   -3.689960
  H     -6.989210   -2.010380   -2.444300
  H     -7.591510   -3.618620   -2.766550

 Total Charge           Charge          ....   -1
 Multiplicity           Mult            ....    1
 Number of Electrons    NEL             ....   50
 Basis Dimension        Dim             ....  230

ORBITAL ENERGIES
----------------

  NO   OCC          E(Eh)            E(eV)
   0   2.0000     -88.937339     -2420.1080
   1   2.0000     -19.012263      -517.3500
   2   2.0000     -19.000888      -517.0405
   3   2.0000     -18.998397      -516.9727
   4   2.0000     -10.128901      -275.6214
   5   2.0000      -7.999473      -217.6767
   6   2.0000      -5.953911      -162.0142
   7   2.0000      -5.952470      -161.9749
   8   2.0000      -5.952185      -161.9672
   9   2.0000      -1.034691       -28.1554
  10   2.0000      -0.901667       -24.5356
  11   2.0000      -0.879283       -23.9265
  12   2.0000      -0.699785       -19.0421
  13   2.0000      -0.495267       -13.4769
  14   2.0000      -0.397709       -10.8222
  15   2.0000      -0.390479       -10.6255
  16   2.0000      -0.389378       -10.5955
  17   2.0000      -0.343581        -9.3493
  18   2.0000      -0.341624        -9.2961
  19   2.0000      -0.245481        -6.6799
  20   2.0000      -0.245180        -6.6717
  21   2.0000      -0.208928        -5.6852
  22   2.0000      -0.201684        -5.4881
  23   2.0000      -0.193206        -5.2574
  24   2.0000      -0.154328        -4.1995
  25   0.0000       0.176328         4.7981
  26   0.0000       0.188857         5.1390
  27   0.0000       0.188993         5.1428
  28   0.0000       0.200426         5.4539
  29   0.0000       0.238710         6.4956

MULLIKEN ATOMIC CHARGES
-----------------------
   0 C :   -0.890275
   1 S :    1.187422
   2 O :   -0.710706
   3 O :   -0.716082
   4 O :   -0.680423
   5 H :    0.272626
   6 H :    0.267349
   7 H :    0.270090
Sum of atomic charges:   -1.0000000

LOEWDIN ATOMIC CHARGES
----------------------
   0 C :   -0.189812
   1 S :    0.333138
   2 O :   -0.428581
   3 O :   -0.433017
   4 O :   -0.396966
   5 H :    0.037830
   6 H :    0.039061
   7 H :    0.038346

  Mayer bond orders larger than 0.100000
B(  0-C ,  1-S ) :   0.8102 B(  0-C ,  2-O ) :   0.1245 B(  0-C ,  3-O ) :   0.1243
B(  0-C ,  4-O ) :   0.1238 B(  0-C ,  5-H ) :   0.9493 B(  0-C ,  6-H ) :   0.9561
B(  0-C ,  7-H ) :   0.9523 B(  1-S ,  2-O ) :   1.5157 B(  1-S ,  3-O ) :   1.5121
B(  1-S ,  4-O ) :   1.5568

Dispersion correction           -0.001519896
FINAL SINGLE POINT ENERGY      -663.904511096940

DIPOLE MOMENT
-------------
                                X             Y             Z
Electronic contribution:      3.01269      -0.64946      -2.94058
Nuclear contribution   :     -4.26236       0.77434       3.87117
                        -----------------------------------------
Total Dipole Moment    :     -1.24967       0.12488       0.93059
                        -----------------------------------------
Magnitude (a.u.)       :      1.56309
Magnitude (Debye)      :      3.97306

Rotational constants in cm-1:     0.172427     0.155038     0.152780
Rotational constants in MHz :  5169.225473  4647.928623  4580.233540

                             ****ORCA TERMINATED NORMALLY****
TOTAL RUN TIME: 0 days 0 hours 0 minutes 19 seconds 840 msec
