                         Program Version 5.0.0 -  RELEASE  -
|  1> !wB97X-D3 RIJCOSX def2-TZVPD def2/J TightSCF
|  2> *xyz 1 1
|  3> C         -2.16038       -1.36949       -3.46710
|  4> N         -3.03011       -1.91086       -4.54107
|  5> H         -3.47744       -2.79151       -4.25710
|  6> H         -2.53801       -2.01786       -5.43808
|  7> H         -3.89159       -1.37604       -4.71437
|  8> H         -1.71294       -0.45536       -3.79734
|  9> H         -1.39344       -2.07939       -3.23742
| 10> H         -2.74775       -1.18344       -2.59230
| 11> *
| 12> %MaxCore 64000
| 13>
| 14> %pal nprocs 8
| 15> end
| 16>
| 17> %scf
| 18>   MaxIter 150
| 19> end
| 20>
| 21>
| 22>                          ****END OF INPUT****

CARTESIAN COORDINATES (ANGSTROEM)
---------------------------------
  C     -2.160380   -1.369490   -3.467100
  N     -3.030110   -1.910860   -4.541070
  H     -3.477440   -2.791510   -4.257100
  H     -2.538010   -2.017860   -5.438080
  H     -3.891590   -1.376040   -4.714370
  H     -1.712940   -0.455360   -3.797340
  H     -1.393440   -2.079390   -3.237420
  H     -2.747750   -1.183440   -2.592300

 Total Charge           Charge          ....    1
 Multiplicity           Mult            ....    1
 Number of Electrons    NEL             ....   18
 Basis Dimension        Dim             ....  128

ORBITAL ENERGIES
----------------

  NO   OCC          E(Eh)            E(eV)
   0   2.0000     -14.771482      -401.9524
   1   2.0000     -10.530803      -286.5577
   2   2.0000      -1.343762       -36.5656
   3   2.0000      -1.056021       -28.7358
   4   2.0000      -0.920683       -25.0531
   5   2.0000      -0.892428       -24.2842
   6   2.0000      -0.817237       -22.2382
   7   2.0000      -0.725360       -19.7380
   8   2.0000      -0.721006       -19.6196
   9   0.0000      -0.131588        -3.5807
  10   0.0000      -0.070671        -1.9231
  11   0.0000      -0.062694        -1.7060
  12   0.0000      -0.062054        -1.6886
  13   0.0000      -0.019698        -0.5360

MULLIKEN ATOMIC CHARGES
-----------------------
   0 C :   -0.797850
   1 N :   -0.366576
   2 H :    0.380369
   3 H :    0.373780
   4 H :    0.373209
   5 H :    0.343702
   6 H :    0.346578
   7 H :    0.346787
Sum of atomic charges:    1.0000000

LOEWDIN ATOMIC CHARGES
----------------------
   0 C :   -0.006660
   1 N :    0.144215
   2 H :    0.180605
   3 H :    0.184791
   4 H :    0.181649
   5 H :    0.104641
   6 H :    0.105462
   7 H :    0.105298

  Mayer bond orders larger than 0.100000
B(  0-C ,  1-N ) :   0.9271 B(  0-C ,  5-H ) :   0.8913 B(  0-C ,  6-H ) :   0.8885
B(  0-C ,  7-H ) :   0.8840 B(  1-N ,  2-H ) :   0.8501 B(  1-N ,  3-H ) :   0.8545
B(  1-N ,  4-H ) :   0.8595

Dispersion correction           -0.000522512
FINAL SINGLE POINT ENERGY       -96.224269868745

DIPOLE MOMENT
-------------
                                X             Y             Z
Electronic contribution:     -0.57702      -0.37686      -0.78847
Nuclear contribution   :      0.00575       0.04584       0.17617
                        -----------------------------------------
Total Dipole Moment    :     -0.57127      -0.33102      -0.61230
                        -----------------------------------------
Magnitude (a.u.)       :      0.90046
Magnitude (Debye)      :      2.28878

Rotational constants in cm-1:     2.917716     0.684997     0.676552
Rotational constants in MHz : 87470.913131 20535.702929 20282.512120

                             ****ORCA TERMINATED NORMALLY****
TOTAL RUN TIME: 0 days 0 hours 0 minutes 6 seconds 539 msec
