                         Program Version 5.0.0 -  RELEASE  -
|  1> !wB97X-D3 RIJCOSX def2-TZVPD def2/J TightSCF
|  2> *xyz 0 1
|  3> C         -7.33044       -2.67899       -3.20681
|  4> S         -6.01966       -2.92697       -4.41913
|  5> F         -5.64583       -1.58838       -4.91931
|  6> O         -4.88196       -3.50370       -3.66724
|  7> O         -6.54927       -3.80515       -5.42507
|  8> H         -8.18867       -2.26077       -3.68996
|  9> H         -6.98921       -2.01038       -2.44430
| 10> H         -7.59151       -3.61862       -2.76655
| 11> *
| 12> %MaxCore 64000
| 13>
| 14> %pal nprocs 8
| 15> end
| 16>
| 17> %scf
| 18>   MaxIter 150
| 19> end
| 20>
| 21>
| 22>                          ****END OF INPUT****

CARTESIAN COORDINATES (ANGSTROEM)
---------------------------------
  C     -7.330440   -2.678990   -3.206810
  S     -6.019660   -2.926970   -4.419130
  F     -5.645830   -1.588380   -4.919310
  O     -4.881960   -3.503700   -3.667240
  O     -6.549270   -3.805150   -5.425070
  H     -8.188670   -2.260770   -3.689960
  H     -6.989210   -2.010380   -2.444300
  H     -7.591510   -3.618620   -2.766550

 Total Charge           Charge          ....    0
 Multiplicity           Mult            ....    1
 Number of Electrons    NEL             ....   50
 Basis Dimension        Dim             ....  230

ORBITAL ENERGIES
----------------

  NO   OCC          E(Eh)            E(eV)
   0   2.0000     -89.203807     -2427.3590
   1   2.0000     -24.896626      -677.4716
   2   2.0000     -19.251475      -523.8593
   3   2.0000     -19.237188      -523.4705
   4   2.0000     -10.337451      -281.2963
   5   2.0000      -8.266336      -224.9384
   6   2.0000      -6.223750      -169.3569
   7   2.0000      -6.217786      -169.1946
   8   2.0000      -6.216791      -169.1675
   9   2.0000      -1.477825       -40.2137
  10   2.0000      -1.228257       -33.4226
  11   2.0000      -1.127694       -30.6861
  12   2.0000      -0.919117       -25.0104
  13   2.0000      -0.817152       -22.2358
  14   2.0000      -0.698093       -18.9961
  15   2.0000      -0.677477       -18.4351
  16   2.0000      -0.660207       -17.9652
  17   2.0000      -0.582193       -15.8423
  18   2.0000      -0.577869       -15.7246
  19   2.0000      -0.568279       -15.4637
  20   2.0000      -0.539896       -14.6913
  21   2.0000      -0.489328       -13.3153
  22   2.0000      -0.441662       -12.0182
  23   2.0000      -0.427284       -11.6270
  24   2.0000      -0.410225       -11.1628
  25   0.0000       0.048087         1.3085
  26   0.0000       0.063260         1.7214
  27   0.0000       0.070068         1.9067
  28   0.0000       0.072944         1.9849
  29   0.0000       0.102436         2.7874

MULLIKEN ATOMIC CHARGES
-----------------------
   0 C :   -0.911513
   1 S :    1.229389
   2 F :   -0.152868
   3 O :   -0.590816
   4 O :   -0.558724
   5 H :    0.336252
   6 H :    0.331148
   7 H :    0.317131
Sum of atomic charges:    0.0000000

LOEWDIN ATOMIC CHARGES
----------------------
   0 C :   -0.117412
   1 S :    0.592557
   2 F :   -0.082076
   3 O :   -0.312370
   4 O :   -0.278447
   5 H :    0.062069
   6 H :    0.062744
   7 H :    0.072936

  Mayer bond orders larger than 0.100000
B(  0-C ,  1-S ) :   0.8129 B(  0-C ,  3-O ) :   0.1062 B(  0-C ,  4-O ) :   0.1075
B(  0-C ,  5-H ) :   0.9010 B(  0-C ,  6-H ) :   0.9057 B(  0-C ,  7-H ) :   0.9217
B(  1-S ,  2-F ) :   0.9713 B(  1-S ,  3-O ) :   1.6593 B(  1-S ,  4-O ) :   1.7121

Dispersion correction           -0.001526319
FINAL SINGLE POINT ENERGY      -688.432910653113

DIPOLE MOMENT
-------------
                                X             Y             Z
Electronic contribution:      3.56589       1.60064      -3.75283
Nuclear contribution   :     -4.68608      -0.54182       4.44322
                        -----------------------------------------
Total Dipole Moment    :     -1.12019       1.05882       0.69039
                        -----------------------------------------
Magnitude (a.u.)       :      1.68896
Magnitude (Debye)      :      4.29299

Rotational constants in cm-1:     0.164393     0.151201     0.145518
Rotational constants in MHz :  4928.381777  4532.884356  4362.527209

                             ****ORCA TERMINATED NORMALLY****
TOTAL RUN TIME: 0 days 0 hours 0 minutes 19 seconds 552 msec
