                         Program Version 5.0.0 -  RELEASE  -
|  1> !wB97X-D3 RIJCOSX def2-TZVPD def2/J TightSCF
|  2> *xyz 0 1
|  3> C         -2.16038       -1.36949       -3.46710
|  4> C         -3.03011       -1.91086       -4.54107
|  5> H         -3.47744       -2.79151       -4.25710
|  6> H         -2.53801       -2.01786       -5.43808
|  7> H         -3.89159       -1.37604       -4.71437
|  8> H         -1.71294       -0.45536       -3.79734
|  9> H         -1.39344       -2.07939       -3.23742
| 10> H         -2.74775       -1.18344       -2.59230
| 11> *
| 12> %MaxCore 64000
| 13>
| 14> %pal nprocs 8
| 15> end
| 16>
| 17> %scf
| 18>   MaxIter 150
| 19> end
| 20>
| 21>
| 22>                          ****END OF INPUT****

CARTESIAN COORDINATES (ANGSTROEM)
---------------------------------
  C     -2.160380   -1.369490   -3.467100
  C     -3.030110   -1.910860   -4.541070
  H     -3.477440   -2.791510   -4.257100
  H     -2.538010   -2.017860   -5.438080
  H     -3.891590   -1.376040   -4.714370
  H     -1.712940   -0.455360   -3.797340
  H     -1.393440   -2.079390   -3.237420
  H     -2.747750   -1.183440   -2.592300

 Total Charge           Charge          ....    0
 Multiplicity           Mult            ....    1
 Number of Electrons    NEL             ....   18
 Basis Dimension        Dim             ....  128

ORBITAL ENERGIES
----------------

  NO   OCC          E(Eh)            E(eV)
   0   2.0000     -10.249302      -278.8977
   1   2.0000     -10.233401      -278.4650
   2   2.0000      -0.884854       -24.0781
   3   2.0000      -0.736967       -20.0539
   4   2.0000      -0.554514       -15.0891
   5   2.0000      -0.538722       -14.6594
   6   2.0000      -0.469743       -12.7824
   7   2.0000      -0.445862       -12.1325
   8   2.0000      -0.429001       -11.6737
   9   0.0000       0.078316         2.1311
  10   0.0000       0.098544         2.6815
  11   0.0000       0.142207         3.8697
  12   0.0000       0.146196         3.9782
  13   0.0000       0.169980         4.6254

MULLIKEN ATOMIC CHARGES
-----------------------
   0 C :   -0.766528
   1 C :   -1.066988
   2 H :    0.338741
   3 H :    0.327954
   4 H :    0.354370
   5 H :    0.267650
   6 H :    0.264128
   7 H :    0.280673
Sum of atomic charges:    0.0000000

LOEWDIN ATOMIC CHARGES
----------------------
   0 C :   -0.159040
   1 C :   -0.174095
   2 H :    0.047011
   3 H :    0.050405
   4 H :    0.047070
   5 H :    0.062134
   6 H :    0.063002
   7 H :    0.063514

  Mayer bond orders larger than 0.100000
B(  0-C ,  1-C ) :   0.5867 B(  0-C ,  5-H ) :   0.9695 B(  0-C ,  6-H ) :   0.9789
B(  0-C ,  7-H ) :   0.9667 B(  1-C ,  2-H ) :   0.9435 B(  1-C ,  3-H ) :   0.9255
B(  1-C ,  4-H ) :   0.9328

Dispersion correction           -0.000511730
FINAL SINGLE POINT ENERGY       -79.820960175166

DIPOLE MOMENT
-------------
                                X             Y             Z
Electronic contribution:      0.10298       0.03367      -0.00133
Nuclear contribution   :     -0.14218      -0.04688      -0.00907
                        -----------------------------------------
Total Dipole Moment    :     -0.03920      -0.01321      -0.01040
                        -----------------------------------------
Magnitude (a.u.)       :      0.04265
Magnitude (Debye)      :      0.10841

Rotational constants in cm-1:     2.917838     0.714537     0.705359
Rotational constants in MHz : 87474.579540 21421.280941 21146.123231

                             ****ORCA TERMINATED NORMALLY****
TOTAL RUN TIME: 0 days 0 hours 0 minutes 6 seconds 348 msec
