                         Program Version 5.0.0 -  RELEASE  -
|  1> !wB97X-D3 RIJCOSX def2-TZVPD def2/J TightSCF
|  2> *xyz 0 1
|  3> C         -7.33044       -2.67899       -3.20681
|  4> S         -6.01966       -2.92697       -4.41913
|  5> O         -5.64583       -1.58838       -4.91931
|  6> F         -4.88196       -3.50370       -3.66724
|  7> O         -6.54927       -3.80515       -5.42507
|  8> H         -8.18867       -2.26077       -3.68996
|  9> H         -6.98921       -2.01038       -2.44430
| 10> H         -7.59151       -3.61862       -2.76655
| 11> *
| 12> %MaxCore 64000
| 13>
| 14> %pal nprocs 8
| 15> end
| 16>
| 17> %scf
| 18>   MaxIter 150
| 19> end
| 20>
| 21>
| 22>                          ****END OF INPUT****

CARTESIAN COORDINATES (ANGSTROEM)
---------------------------------
  C     -7.330440   -2.678990   -3.206810
  S     -6.019660   -2.926970   -4.419130
  O     -5.645830   -1.588380   -4.919310
  F     -4.881960   -3.503700   -3.667240
  O     -6.549270   -3.805150   -5.425070
  H     -8.188670   -2.260770   -3.689960
  H     -6.989210   -2.010380   -2.444300
  H     -7.591510   -3.618620   -2.766550

 Total Charge           Charge          ....    0
 Multiplicity           Mult            ....    1
 Number of Electrons    NEL             ....   50
 Basis Dimension        Dim             ....  230

ORBITAL ENERGIES
----------------

  NO   OCC          E(Eh)            E(eV)
   0   2.0000     -89.203657     -2427.3549
   1   2.0000     -24.893783      -677.3943
   2   2.0000     -19.251292      -523.8543
   3   2.0000     -19.239615      -523.5365
   4   2.0000     -10.337360      -281.2939
   5   2.0000      -8.266165      -224.9338
   6   2.0000      -6.223619      -169.3533
   7   2.0000      -6.217606      -169.1897
   8   2.0000      -6.216621      -169.1629
   9   2.0000      -1.474263       -40.1167
  10   2.0000      -1.228873       -33.4393
  11   2.0000      -1.130237       -30.7553
  12   2.0000      -0.919390       -25.0179
  13   2.0000      -0.814958       -22.1761
  14   2.0000      -0.696452       -18.9514
  15   2.0000      -0.674993       -18.3675
  16   2.0000      -0.659738       -17.9524
  17   2.0000      -0.582044       -15.8382
  18   2.0000      -0.578382       -15.7386
  19   2.0000      -0.567473       -15.4417
  20   2.0000      -0.540780       -14.7154
  21   2.0000      -0.489874       -13.3301
  22   2.0000      -0.441985       -12.0270
  23   2.0000      -0.429993       -11.7007
  24   2.0000      -0.412262       -11.2182
  25   0.0000       0.048649         1.3238
  26   0.0000       0.063555         1.7294
  27   0.0000       0.070206         1.9104
  28   0.0000       0.072992         1.9862
  29   0.0000       0.103697         2.8217

MULLIKEN ATOMIC CHARGES
-----------------------
   0 C :   -0.912849
   1 S :    1.231163
   2 O :   -0.586996
   3 F :   -0.157653
   4 O :   -0.559312
   5 H :    0.319567
   6 H :    0.331014
   7 H :    0.335066
Sum of atomic charges:   -0.0000000

LOEWDIN ATOMIC CHARGES
----------------------
   0 C :   -0.117151
   1 S :    0.592149
   2 O :   -0.308072
   3 F :   -0.085942
   4 O :   -0.278784
   5 H :    0.072565
   6 H :    0.062908
   7 H :    0.062328

  Mayer bond orders larger than 0.100000
B(  0-C ,  1-S ) :   0.8120 B(  0-C ,  2-O ) :   0.1066 B(  0-C ,  4-O ) :   0.1074
B(  0-C ,  5-H ) :   0.9196 B(  0-C ,  6-H ) :   0.9067 B(  0-C ,  7-H ) :   0.9017
B(  1-S ,  2-O ) :   1.6626 B(  1-S ,  3-F ) :   0.9676 B(  1-S ,  4-O ) :   1.7107

Dispersion correction           -0.001526802
FINAL SINGLE POINT ENERGY      -688.435560402685

DIPOLE MOMENT
-------------
                                X             Y             Z
Electronic contribution:      4.85643      -1.62513      -1.64272
Nuclear contribution   :     -5.44924       1.37171       3.19232
                        -----------------------------------------
Total Dipole Moment    :     -0.59281      -0.25342       1.54961
                        -----------------------------------------
Magnitude (a.u.)       :      1.67837
Magnitude (Debye)      :      4.26608

Rotational constants in cm-1:     0.163884     0.151426     0.145804
Rotational constants in MHz :  4913.124213  4539.628058  4371.086672

                             ****ORCA TERMINATED NORMALLY****
TOTAL RUN TIME: 0 days 0 hours 0 minutes 19 seconds 400 msec
