                         Program Version 5.0.0 -  RELEASE  -
|  1> !wB97X-D3 RIJCOSX def2-TZVPD def2/J TightSCF
|  2> *xyz 0 1
|  3> C         -7.33044       -2.67899       -3.20681
|  4> S         -6.01966       -2.92697       -4.41913
|  5> O         -5.64583       -1.58838       -4.91931
|  6> O         -4.88196       -3.50370       -3.66724
|  7> F         -6.54927       -3.80515       -5.42507
|  8> H         -8.18867       -2.26077       -3.68996
|  9> H         -6.98921       -2.01038       -2.44430
| 10> H         -7.59151       -3.61862       -2.76655
| 11> *
| 12> %MaxCore 64000
| 13>
| 14> %pal nprocs 8
| 15> end
| 16>
| 17> %scf
| 18>   MaxIter 150
| 19> end
| 20>
| 21>
| 22>                          ****END OF INPUT****

CARTESIAN COORDINATES (ANGSTROEM)
---------------------------------
  C     -7.330440   -2.678990   -3.206810
  S     -6.019660   -2.926970   -4.419130
  O     -5.645830   -1.588380   -4.919310
  O     -4.881960   -3.503700   -3.667240
  F     -6.549270   -3.805150   -5.425070
  H     -8.188670   -2.260770   -3.689960
  H     -6.989210   -2.010380   -2.444300
  H     -7.591510   -3.618620   -2.766550

 Total Charge           Charge          ....    0
 Multiplicity           Mult            ....    1
 Number of Electrons    NEL             ....   50
 Basis Dimension        Dim             ....  230

ORBITAL ENERGIES
----------------

  NO   OCC          E(Eh)            E(eV)
   0   2.0000     -89.206163     -2427.4231
   1   2.0000     -24.916239      -678.0053
   2   2.0000     -19.240226      -523.5532
   3   2.0000     -19.237629      -523.4825
   4   2.0000     -10.338155      -281.3155
   5   2.0000      -8.268637      -225.0011
   6   2.0000      -6.226061      -169.4197
   7   2.0000      -6.219872      -169.2513
   8   2.0000      -6.219199      -169.2330
   9   2.0000      -1.511255       -41.1233
  10   2.0000      -1.212905       -33.0048
  11   2.0000      -1.113699       -30.3053
  12   2.0000      -0.921763       -25.0825
  13   2.0000      -0.833520       -22.6812
  14   2.0000      -0.714921       -19.4540
  15   2.0000      -0.701176       -19.0800
  16   2.0000      -0.664250       -18.0752
  17   2.0000      -0.581999       -15.8370
  18   2.0000      -0.575342       -15.6559
  19   2.0000      -0.567795       -15.4505
  20   2.0000      -0.533172       -14.5083
  21   2.0000      -0.481393       -13.0994
  22   2.0000      -0.430843       -11.7238
  23   2.0000      -0.424019       -11.5382
  24   2.0000      -0.398798       -10.8519
  25   0.0000       0.046632         1.2689
  26   0.0000       0.062065         1.6889
  27   0.0000       0.069391         1.8882
  28   0.0000       0.073826         2.0089
  29   0.0000       0.104830         2.8526

MULLIKEN ATOMIC CHARGES
-----------------------
   0 C :   -0.912564
   1 S :    1.210186
   2 O :   -0.578534
   3 O :   -0.583014
   4 F :   -0.121198
   5 H :    0.337566
   6 H :    0.312333
   7 H :    0.335225
Sum of atomic charges:   -0.0000000

LOEWDIN ATOMIC CHARGES
----------------------
   0 C :   -0.118262
   1 S :    0.590668
   2 O :   -0.307332
   3 O :   -0.311835
   4 F :   -0.050993
   5 H :    0.061833
   6 H :    0.073361
   7 H :    0.062561

  Mayer bond orders larger than 0.100000
B(  0-C ,  1-S ) :   0.8160 B(  0-C ,  2-O ) :   0.1075 B(  0-C ,  3-O ) :   0.1059
B(  0-C ,  5-H ) :   0.8989 B(  0-C ,  6-H ) :   0.9268 B(  0-C ,  7-H ) :   0.9027
B(  1-S ,  2-O ) :   1.6720 B(  1-S ,  3-O ) :   1.6676 B(  1-S ,  4-F ) :   1.0177

Dispersion correction           -0.001528595
FINAL SINGLE POINT ENERGY      -688.417433849646

DIPOLE MOMENT
-------------
                                X             Y             Z
Electronic contribution:      2.06301      -2.11482      -4.59169
Nuclear contribution   :     -3.78348       1.67287       4.94851
                        -----------------------------------------
Total Dipole Moment    :     -1.72047      -0.44195       0.35682
                        -----------------------------------------
Magnitude (a.u.)       :      1.81181
Magnitude (Debye)      :      4.60526

Rotational constants in cm-1:     0.163108     0.153882     0.144407
Rotational constants in MHz :  4889.859464  4613.257659  4329.207840

                             ****ORCA TERMINATED NORMALLY****
TOTAL RUN TIME: 0 days 0 hours 0 minutes 19 seconds 693 msec
