                         Program Version 5.0.0 -  RELEASE  -
|  1> !wB97X-D3 RIJCOSX def2-TZVPD def2/J TightSCF xyzfile
|  2>
|  3> *xyzfile 0 1 D2.xyz
|  4>
|  5> %MaxCore 64000
|  6>
|  7> %pal nprocs 18
|  8> end
|  9>
| 10> %scf
| 11>   MaxIter 150
| 12> end
| 13>
| 14>
| 15>                          ****END OF INPUT****

CARTESIAN COORDINATES (ANGSTROEM)
---------------------------------
  C     -2.160376   -1.369486   -3.467104
  C     -3.030108   -1.910857   -4.541074
  C     -2.047717    0.146583   -3.511774
  C     -7.330440   -2.678991   -3.206811
  S     -6.019659   -2.926965   -4.419128
  H     -3.477443   -2.791513   -4.257096
  H     -2.538013   -2.017860   -5.438075
  H     -3.891589   -1.376039   -4.714365
  O     -5.645830   -1.588384   -4.919307
  F     -4.881961   -3.503697   -3.667235
  H     -1.184438   -1.843997   -3.566393
  H     -2.598195   -1.708376   -2.528477
  O     -6.549267   -3.805150   -5.425071
  C     -3.328755    0.875037   -3.103669
  H     -1.740034    0.452343   -4.517126
  H     -1.232611    0.434938   -2.842208
  C     -3.628487    0.771601   -1.609363
  H     -4.175106    0.490791   -3.682203
  H     -3.237812    1.928663   -3.381480
  C     -4.975718    1.361432   -1.190644
  H     -2.830700    1.276234   -1.054766
  H     -3.594312   -0.275838   -1.294603
  C     -6.184720    0.784347   -1.926464
  H     -4.956292    2.445725   -1.342200
  H     -5.097256    1.205252   -0.114136
  C     -6.286921   -0.735882   -1.893531
  H     -6.163994    1.100199   -2.974250
  H     -7.094530    1.223459   -1.504509
  C     -7.468999   -1.246153   -2.713833
  H     -6.360641   -1.090347   -0.859176
  H     -5.369848   -1.171853   -2.295982
  H     -7.601914   -0.601349   -3.585329
  H     -8.389791   -1.173436   -2.126922
  H     -7.118254   -3.379818   -2.398055
  H     -8.241838   -3.004745   -3.706513

 Total Charge           Charge          ....    0
 Multiplicity           Mult            ....    1
 Number of Electrons    NEL             ....  122
 Basis Dimension        Dim             ....  725

ORBITAL ENERGIES
----------------

  NO   OCC          E(Eh)            E(eV)
   0   2.0000     -89.200543     -2427.2702
   1   2.0000     -24.894211      -677.4059
   2   2.0000     -19.252390      -523.8842
   3   2.0000     -19.240290      -523.5549
   4   2.0000     -10.340993      -281.3927
   5   2.0000     -10.301974      -280.3310
   6   2.0000     -10.284351      -279.8514
   7   2.0000     -10.274268      -279.5770
   8   2.0000     -10.269333      -279.4428
   9   2.0000     -10.263370      -279.2805
  10   2.0000     -10.257818      -279.1294
  11   2.0000     -10.254947      -279.0513
  12   2.0000     -10.248427      -278.8739
  13   2.0000     -10.199301      -277.5371
  14   2.0000      -8.264317      -224.8835
  15   2.0000      -6.221767      -169.3029
  16   2.0000      -6.215318      -169.1274
  17   2.0000      -6.214843      -169.1145
  18   2.0000      -1.480157       -40.2771
  19   2.0000      -1.232023       -33.5250
  20   2.0000      -1.136048       -30.9134
  21   2.0000      -0.960903       -26.1475
  22   2.0000      -0.931594       -25.3500
  23   2.0000      -0.904199       -24.6045
  24   2.0000      -0.876721       -23.8568
  25   2.0000      -0.834903       -22.7189
  26   2.0000      -0.819435       -22.2980
  27   2.0000      -0.780183       -21.2299
  28   2.0000      -0.745688       -20.2912
  29   2.0000      -0.730762       -19.8850
  30   2.0000      -0.689665       -18.7667
  31   2.0000      -0.683752       -18.6058
  32   2.0000      -0.679888       -18.5007
  33   2.0000      -0.664361       -18.0782
  34   2.0000      -0.651406       -17.7257
  35   2.0000      -0.606668       -16.5083
  36   2.0000      -0.587882       -15.9971
  37   2.0000      -0.578609       -15.7447
  38   2.0000      -0.572352       -15.5745
  39   2.0000      -0.564617       -15.3640
  40   2.0000      -0.545033       -14.8311
  41   2.0000      -0.532703       -14.4956
  42   2.0000      -0.530376       -14.4323
  43   2.0000      -0.525931       -14.3113
  44   2.0000      -0.504795       -13.7362
  45   2.0000      -0.497311       -13.5325
  46   2.0000      -0.486004       -13.2248
  47   2.0000      -0.478792       -13.0286
  48   2.0000      -0.469834       -12.7848
  49   2.0000      -0.459674       -12.5084
  50   2.0000      -0.452525       -12.3138
  51   2.0000      -0.439694       -11.9647
  52   2.0000      -0.432355       -11.7650
  53   2.0000      -0.427797       -11.6409
  54   2.0000      -0.422594       -11.4994
  55   2.0000      -0.419541       -11.4163
  56   2.0000      -0.410755       -11.1772
  57   2.0000      -0.405106       -11.0235
  58   2.0000      -0.393386       -10.7046
  59   2.0000      -0.390999       -10.6396
  60   2.0000      -0.378464       -10.2985
  61   0.0000       0.047060         1.2806
  62   0.0000       0.059984         1.6322
  63   0.0000       0.067057         1.8247
  64   0.0000       0.072863         1.9827
  65   0.0000       0.083400         2.2694

MULLIKEN ATOMIC CHARGES
-----------------------
   0 C :    0.018697
   1 C :   -1.939984
   2 C :   -0.667687
   3 C :   -0.948269
   4 S :    1.250767
   5 H :    0.521436
   6 H :    0.486939
   7 H :    0.570409
   8 O :   -0.654050
   9 F :   -0.183681
  10 H :    0.256815
  11 H :    0.204832
  12 O :   -0.615870
  13 C :   -0.245909
  14 H :    0.313287
  15 H :    0.264766
  16 C :   -0.440661
  17 H :    0.050092
  18 H :    0.280698
  19 C :   -0.868266
  20 H :    0.334065
  21 H :    0.192802
  22 C :   -0.645159
  23 H :    0.284713
  24 H :    0.305663
  25 C :    0.100916
  26 H :    0.348007
  27 H :    0.341620
  28 C :   -0.545061
  29 H :    0.366276
  30 H :   -0.213017
  31 H :    0.311402
  32 H :    0.400839
  33 H :    0.430713
  34 H :    0.331859
Sum of atomic charges:    0.0000000

LOEWDIN ATOMIC CHARGES
----------------------
   0 C :   -0.241475
   1 C :   -0.127769
   2 C :   -0.208536
   3 C :   -0.209756
   4 S :    0.656166
   5 H :    0.020246
   6 H :    0.075359
   7 H :    0.005757
   8 O :   -0.295678
   9 F :   -0.105291
  10 H :    0.109626
  11 H :    0.099275
  12 O :   -0.256618
  13 C :   -0.205580
  14 H :    0.115342
  15 H :    0.107445
  16 C :   -0.218634
  17 H :    0.095696
  18 H :    0.117273
  19 C :   -0.210295
  20 H :    0.115403
  21 H :    0.097539
  22 C :   -0.214149
  23 H :    0.111515
  24 H :    0.109616
  25 C :   -0.215267
  26 H :    0.112369
  27 H :    0.116795
  28 C :   -0.228554
  29 H :    0.127562
  30 H :    0.088551
  31 H :    0.114677
  32 H :    0.124072
  33 H :    0.108827
  34 H :    0.108493

  Mayer bond orders larger than 0.100000
B(  0-C ,  1-C ) :   0.2664 B(  0-C ,  2-C ) :   0.8099 B(  0-C ,  7-H ) :  -0.1009
B(  0-C , 10-H ) :   0.9428 B(  0-C , 11-H ) :   0.9889 B(  0-C , 16-C ) :   0.1307
B(  1-C ,  2-C ) :   0.4062 B(  1-C ,  5-H ) :   0.8176 B(  1-C ,  6-H ) :   0.6632
B(  1-C ,  7-H ) :   0.8683 B(  1-C ,  8-O ) :   0.1789 B(  1-C ,  9-F ) :   0.1457
B(  2-C , 13-C ) :   1.0199 B(  2-C , 14-H ) :   0.8955 B(  2-C , 15-H ) :   0.9303
B(  2-C , 16-C ) :   0.3524 B(  3-C ,  4-S ) :   0.8860 B(  3-C , 12-O ) :   0.1724
B(  3-C , 25-C ) :   0.3472 B(  3-C , 28-C ) :   0.7019 B(  3-C , 33-H ) :   0.7892
B(  3-C , 34-H ) :   0.9762 B(  4-S ,  8-O ) :   1.7004 B(  4-S ,  9-F ) :   0.9297
B(  4-S , 12-O ) :   1.4055 B(  5-H ,  9-F ) :  -0.1297 B(  7-H ,  8-O ) :  -0.1807
B(  8-O , 28-C ) :   0.1096 B( 13-C , 16-C ) :   0.3259 B( 13-C , 17-H ) :   1.1993
B( 13-C , 18-H ) :   0.8384 B( 13-C , 19-C ) :   0.3205 B( 13-C , 21-H ) :  -0.1274
B( 13-C , 22-C ) :   0.1603 B( 16-C , 19-C ) :   0.9730 B( 16-C , 20-H ) :   0.8672
B( 16-C , 21-H ) :   1.0753 B( 16-C , 25-C ) :   0.1004 B( 19-C , 22-C ) :   0.9088
B( 19-C , 23-H ) :   0.9555 B( 19-C , 24-H ) :   0.9239 B( 19-C , 25-C ) :   0.3305
B( 22-C , 25-C ) :   0.4348 B( 22-C , 26-H ) :   0.9348 B( 22-C , 27-H ) :   0.8426
B( 22-C , 28-C ) :   0.6049 B( 25-C , 26-H ) :  -0.1329 B( 25-C , 28-C ) :   0.4699
B( 25-C , 29-H ) :   0.7668 B( 25-C , 30-H ) :   1.2917 B( 26-H , 28-C ) :   0.1059
B( 28-C , 29-H ) :  -0.1444 B( 28-C , 31-H ) :   0.9037 B( 28-C , 32-H ) :   0.8611

Dispersion correction           -0.018521771
FINAL SINGLE POINT ENERGY     -1042.246088673417

DIPOLE MOMENT
-------------
                                X             Y             Z
Electronic contribution:     -9.52875     -19.51642     -11.08602
Nuclear contribution   :      8.71934      19.48829      12.54264
                        -----------------------------------------
Total Dipole Moment    :     -0.80941      -0.02813       1.45661
                        -----------------------------------------
Magnitude (a.u.)       :      1.66663
Magnitude (Debye)      :      4.23624

Rotational constants in cm-1:     0.025810     0.015137     0.010647
Rotational constants in MHz :   773.773140   453.802427   319.195213

                             ****ORCA TERMINATED NORMALLY****
TOTAL RUN TIME: 0 days 0 hours 4 minutes 1 seconds 179 msec
