                         Program Version 5.0.0 -  RELEASE  -
|  1> !PBE0 D3BJ RIJCOSX def2-SVPD def2/J TightSCF
|  2> *xyz -1 1
|  3> C          4.12921        0.89839       -3.41895
|  4> C          5.01734        1.31521       -2.22130
|  5> O          4.73706        0.85411       -1.12283
|  6> O          5.92815        2.16811       -2.49136
|  7> H          4.48610        1.37210       -4.30953
|  8> H          3.11885        1.19903       -3.23540
|  9> H          4.16886       -0.16404       -3.53966
| 10> *
| 11> %MaxCore 64000
| 12>
| 13> %pal nprocs 4
| 14> end
| 15>
| 16> %scf
| 17>   MaxIter 150
| 18> end
| 19>
| 20>
| 21>                          ****END OF INPUT****

CARTESIAN COORDINATES (ANGSTROEM)
---------------------------------
  C      4.129210    0.898390   -3.418950
  C      5.017340    1.315210   -2.221300
  O      4.737060    0.854110   -1.122830
  O      5.928150    2.168110   -2.491360
  H      4.486100    1.372100   -4.309530
  H      3.118850    1.199030   -3.235400
  H      4.168860   -0.164040   -3.539660

 Total Charge           Charge          ....   -1
 Multiplicity           Mult            ....    1
 Number of Electrons    NEL             ....   32
 Basis Dimension        Dim             ....  110

ORBITAL ENERGIES
----------------

  NO   OCC          E(Eh)            E(eV)
   0   2.0000     -18.956400      -515.8299
   1   2.0000     -18.946911      -515.5717
   2   2.0000     -10.115469      -275.2559
   3   2.0000     -10.041380      -273.2398
   4   2.0000      -0.842429       -22.9237
   5   2.0000      -0.744299       -20.2534
   6   2.0000      -0.553487       -15.0611
   7   2.0000      -0.314522        -8.5586
   8   2.0000      -0.270628        -7.3642
   9   2.0000      -0.255805        -6.9608
  10   2.0000      -0.241829        -6.5805
  11   2.0000      -0.201486        -5.4827
  12   2.0000      -0.182097        -4.9551
  13   2.0000      -0.061641        -1.6773
  14   2.0000      -0.052585        -1.4309
  15   2.0000      -0.040080        -1.0906
  16   0.0000       0.179737         4.8909
  17   0.0000       0.219908         5.9840
  18   0.0000       0.232083         6.3153
  19   0.0000       0.249066         6.7774
  20   0.0000       0.272501         7.4151

MULLIKEN ATOMIC CHARGES
-----------------------
   0 C :    0.288831
   1 C :    0.169474
   2 O :   -0.669468
   3 O :   -0.750287
   4 H :   -0.024760
   5 H :   -0.007840
   6 H :   -0.005950
Sum of atomic charges:   -1.0000000

LOEWDIN ATOMIC CHARGES
----------------------
   0 C :    0.138729
   1 C :   -0.325666
   2 O :   -0.321983
   3 O :   -0.365067
   4 H :   -0.046167
   5 H :   -0.038773
   6 H :   -0.041073

  Mayer bond orders larger than 0.100000
B(  0-C ,  1-C ) :   1.2342 B(  0-C ,  4-H ) :   0.9082 B(  0-C ,  5-H ) :   0.8642
B(  0-C ,  6-H ) :   0.8561 B(  1-C ,  2-O ) :   1.4527 B(  1-C ,  3-O ) :   1.3605
B(  1-C ,  4-H ) :   0.2053 B(  1-C ,  5-H ) :   0.1296 B(  1-C ,  6-H ) :   0.1369

Dispersion correction           -0.003025598
FINAL SINGLE POINT ENERGY      -228.120158870162

DIPOLE MOMENT
-------------
                                X             Y             Z
Electronic contribution:      2.04443       0.94585       2.90289
Nuclear contribution   :     -2.87913      -1.42371      -3.86600
                        -----------------------------------------
Total Dipole Moment    :     -0.83470      -0.47786      -0.96311
                        -----------------------------------------
Magnitude (a.u.)       :      1.36112
Magnitude (Debye)      :      3.45970

Rotational constants in cm-1:     0.390018     0.334370     0.186171
Rotational constants in MHz : 11692.450907 10024.149143  5581.251544

                             ****ORCA TERMINATED NORMALLY****
TOTAL RUN TIME: 0 days 0 hours 0 minutes 7 seconds 72 msec
