                         Program Version 5.0.0 -  RELEASE  -
|  1> !PBE0 D3BJ RIJCOSX def2-SVPD def2/J TightSCF
|  2> *xyz 1 1
|  3> C          3.34350        3.35457       -3.59200
|  4> C          4.25587        3.70385       -4.72605
|  5> N          3.73403        4.29378       -5.80077
|  6> N          5.51504        3.40725       -4.63718
|  7> H          6.14919        3.60120       -5.39905
|  8> H          5.81358        2.89950       -3.80879
|  9> H          2.74138        4.51311       -5.82470
| 10> H          4.28755        4.52126       -6.61434
| 11> H          2.34726        3.66659       -3.82664
| 12> H          3.67283        3.85124       -2.70331
| 13> H          3.35820        2.29620       -3.43538
| 14> *
| 15> %MaxCore 64000
| 16>
| 17> %pal nprocs 4
| 18> end
| 19>
| 20> %scf
| 21>   MaxIter 150
| 22> end
| 23>
| 24>
| 25>                          ****END OF INPUT****

CARTESIAN COORDINATES (ANGSTROEM)
---------------------------------
  C      3.343500    3.354570   -3.592000
  C      4.255870    3.703850   -4.726050
  N      3.734030    4.293780   -5.800770
  N      5.515040    3.407250   -4.637180
  H      6.149190    3.601200   -5.399050
  H      5.813580    2.899500   -3.808790
  H      2.741380    4.513110   -5.824700
  H      4.287550    4.521260   -6.614340
  H      2.347260    3.666590   -3.826640
  H      3.672830    3.851240   -2.703310
  H      3.358200    2.296200   -3.435380

 Total Charge           Charge          ....    1
 Multiplicity           Mult            ....    1
 Number of Electrons    NEL             ....   32
 Basis Dimension        Dim             ....  136

ORBITAL ENERGIES
----------------

  NO   OCC          E(Eh)            E(eV)
   0   2.0000     -14.650968      -398.6731
   1   2.0000     -14.647587      -398.5811
   2   2.0000     -10.565979      -287.5149
   3   2.0000     -10.432102      -283.8719
   4   2.0000      -1.231367       -33.5072
   5   2.0000      -1.134342       -30.8670
   6   2.0000      -0.973206       -26.4823
   7   2.0000      -0.860885       -23.4259
   8   2.0000      -0.803456       -21.8631
   9   2.0000      -0.788350       -21.4521
  10   2.0000      -0.725408       -19.7393
  11   2.0000      -0.678438       -18.4612
  12   2.0000      -0.633332       -17.2338
  13   2.0000      -0.616457       -16.7746
  14   2.0000      -0.592215       -16.1150
  15   2.0000      -0.514206       -13.9923
  16   0.0000      -0.211192        -5.7468
  17   0.0000      -0.156367        -4.2550
  18   0.0000      -0.109778        -2.9872
  19   0.0000      -0.107679        -2.9301
  20   0.0000      -0.086549        -2.3551

MULLIKEN ATOMIC CHARGES
-----------------------
   0 C :    0.434500
   1 C :    0.552946
   2 N :   -0.166443
   3 N :    0.045259
   4 H :   -0.128916
   5 H :    0.073544
   6 H :    0.081248
   7 H :   -0.105573
   8 H :    0.061948
   9 H :    0.080013
  10 H :    0.071475
Sum of atomic charges:    1.0000000

LOEWDIN ATOMIC CHARGES
----------------------
   0 C :    0.230031
   1 C :   -0.060482
   2 N :    0.274956
   3 N :    0.275402
   4 H :    0.054990
   5 H :    0.065916
   6 H :    0.053013
   7 H :    0.046205
   8 H :    0.008026
   9 H :    0.025980
  10 H :    0.025964

  Mayer bond orders larger than 0.100000
B(  0-C ,  1-C ) :   1.2561 B(  0-C ,  8-H ) :   0.8090 B(  0-C ,  9-H ) :   0.7836
B(  0-C , 10-H ) :   0.8056 B(  1-C ,  2-N ) :   0.8744 B(  1-C ,  3-N ) :   1.1568
B(  1-C ,  4-H ) :  -0.1599 B(  1-C ,  7-H ) :  -0.2510 B(  1-C ,  8-H ) :   0.2123
B(  1-C ,  9-H ) :   0.1448 B(  1-C , 10-H ) :   0.1250 B(  2-N ,  3-N ) :   0.1670
B(  2-N ,  6-H ) :   1.0574 B(  2-N ,  7-H ) :   1.3574 B(  3-N ,  4-H ) :   1.2692
B(  3-N ,  5-H ) :   1.0767 B(  4-H ,  5-H ) :  -0.1476 B(  6-H ,  7-H ) :  -0.1717

Dispersion correction           -0.005728234
FINAL SINGLE POINT ENERGY      -189.376068446436

DIPOLE MOMENT
-------------
                                X             Y             Z
Electronic contribution:      1.42002       0.50513      -1.60472
Nuclear contribution   :     -1.09951      -0.46604       1.22975
                        -----------------------------------------
Total Dipole Moment    :      0.32052       0.03910      -0.37497
                        -----------------------------------------
Magnitude (a.u.)       :      0.49483
Magnitude (Debye)      :      1.25777

Rotational constants in cm-1:     0.329035     0.303839     0.162676
Rotational constants in MHz :  9864.215808  9108.853745  4876.907929

                             ****ORCA TERMINATED NORMALLY****
TOTAL RUN TIME: 0 days 0 hours 0 minutes 9 seconds 230 msec
