                         Program Version 5.0.0 -  RELEASE  -
|  1> !PBE0 D3BJ RIJCOSX def2-SVPD def2/J TightSCF
|  2> *xyz 0 1
|  3> C          4.12921        0.89839       -3.41895
|  4> C          5.01734        1.31521       -2.22130
|  5> F          4.73706        0.85411       -1.12283
|  6> O          5.92815        2.16811       -2.49136
|  7> H          4.48610        1.37210       -4.30953
|  8> H          3.11885        1.19903       -3.23540
|  9> H          4.16886       -0.16404       -3.53966
| 10> *
| 11> %MaxCore 64000
| 12>
| 13> %pal nprocs 4
| 14> end
| 15>
| 16> %scf
| 17>   MaxIter 150
| 18> end
| 19>
| 20>
| 21>                          ****END OF INPUT****

CARTESIAN COORDINATES (ANGSTROEM)
---------------------------------
  C      4.129210    0.898390   -3.418950
  C      5.017340    1.315210   -2.221300
  F      4.737060    0.854110   -1.122830
  O      5.928150    2.168110   -2.491360
  H      4.486100    1.372100   -4.309530
  H      3.118850    1.199030   -3.235400
  H      4.168860   -0.164040   -3.539660

 Total Charge           Charge          ....    0
 Multiplicity           Mult            ....    1
 Number of Electrons    NEL             ....   32
 Basis Dimension        Dim             ....  110

ORBITAL ENERGIES
----------------

  NO   OCC          E(Eh)            E(eV)
   0   2.0000     -24.872768      -676.8224
   1   2.0000     -19.225888      -523.1630
   2   2.0000     -10.424122      -283.6548
   3   2.0000     -10.259453      -279.1739
   4   2.0000      -1.369113       -37.2555
   5   2.0000      -1.044359       -28.4185
   6   2.0000      -0.787350       -21.4249
   7   2.0000      -0.696869       -18.9628
   8   2.0000      -0.588185       -16.0053
   9   2.0000      -0.580073       -15.7846
  10   2.0000      -0.521062       -14.1788
  11   2.0000      -0.459753       -12.5105
  12   2.0000      -0.447454       -12.1758
  13   2.0000      -0.416603       -11.3363
  14   2.0000      -0.367594       -10.0027
  15   2.0000      -0.306015        -8.3271
  16   0.0000      -0.028367        -0.7719
  17   0.0000       0.019093         0.5196
  18   0.0000       0.064586         1.7575
  19   0.0000       0.091391         2.4869
  20   0.0000       0.101396         2.7591

MULLIKEN ATOMIC CHARGES
-----------------------
   0 C :    0.235744
   1 C :    0.538325
   2 F :   -0.357137
   3 O :   -0.553880
   4 H :   -0.000769
   5 H :    0.070077
   6 H :    0.067640
Sum of atomic charges:   -0.0000000

LOEWDIN ATOMIC CHARGES
----------------------
   0 C :    0.211173
   1 C :   -0.024427
   2 F :   -0.016246
   3 O :   -0.160948
   4 H :   -0.002067
   5 H :   -0.002456
   6 H :   -0.005030

  Mayer bond orders larger than 0.100000
B(  0-C ,  1-C ) :   1.2344 B(  0-C ,  4-H ) :   0.9234 B(  0-C ,  5-H ) :   0.8396
B(  0-C ,  6-H ) :   0.8357 B(  1-C ,  2-F ) :   0.7556 B(  1-C ,  3-O ) :   1.7287
B(  1-C ,  4-H ) :   0.1726 B(  1-C ,  6-H ) :   0.1000

Dispersion correction           -0.002785755
FINAL SINGLE POINT ENERGY      -252.631146084781

DIPOLE MOMENT
-------------
                                X             Y             Z
Electronic contribution:      1.71543       0.21657       4.84773
Nuclear contribution   :     -2.65749      -0.95231      -5.09883
                        -----------------------------------------
Total Dipole Moment    :     -0.94206      -0.73575      -0.25109
                        -----------------------------------------
Magnitude (a.u.)       :      1.22141
Magnitude (Debye)      :      3.10458

Rotational constants in cm-1:     0.365278     0.322469     0.176821
Rotational constants in MHz : 10950.755781  9667.377070  5300.957073

                             ****ORCA TERMINATED NORMALLY****
TOTAL RUN TIME: 0 days 0 hours 0 minutes 7 seconds 3 msec
