                         Program Version 5.0.0 -  RELEASE  -
|  1> !PBE0 D3BJ RIJCOSX def2-SVPD def2/J TightSCF
|  2> *xyz 0 1
|  3> C          3.34350        3.35457       -3.59200
|  4> C          4.25587        3.70385       -4.72605
|  5> C          3.73403        4.29378       -5.80077
|  6> N          5.51504        3.40725       -4.63718
|  7> H          6.14919        3.60120       -5.39905
|  8> H          5.81358        2.89950       -3.80879
|  9> H          2.74138        4.51311       -5.82470
| 10> H          4.28755        4.52126       -6.61434
| 11> H          2.34726        3.66659       -3.82664
| 12> H          3.67283        3.85124       -2.70331
| 13> H          3.35820        2.29620       -3.43538
| 14> *
| 15> %MaxCore 64000
| 16>
| 17> %pal nprocs 4
| 18> end
| 19>
| 20> %scf
| 21>   MaxIter 150
| 22> end
| 23>
| 24>
| 25>                          ****END OF INPUT****

CARTESIAN COORDINATES (ANGSTROEM)
---------------------------------
  C      3.343500    3.354570   -3.592000
  C      4.255870    3.703850   -4.726050
  C      3.734030    4.293780   -5.800770
  N      5.515040    3.407250   -4.637180
  H      6.149190    3.601200   -5.399050
  H      5.813580    2.899500   -3.808790
  H      2.741380    4.513110   -5.824700
  H      4.287550    4.521260   -6.614340
  H      2.347260    3.666590   -3.826640
  H      3.672830    3.851240   -2.703310
  H      3.358200    2.296200   -3.435380

 Total Charge           Charge          ....    0
 Multiplicity           Mult            ....    1
 Number of Electrons    NEL             ....   32
 Basis Dimension        Dim             ....  136

ORBITAL ENERGIES
----------------

  NO   OCC          E(Eh)            E(eV)
   0   2.0000     -14.400236      -391.8504
   1   2.0000     -10.254914      -279.0504
   2   2.0000     -10.222312      -278.1632
   3   2.0000     -10.164287      -276.5843
   4   2.0000      -0.956130       -26.0176
   5   2.0000      -0.772310       -21.0156
   6   2.0000      -0.701708       -19.0944
   7   2.0000      -0.591349       -16.0914
   8   2.0000      -0.548777       -14.9330
   9   2.0000      -0.488182       -13.2841
  10   2.0000      -0.447316       -12.1721
  11   2.0000      -0.409797       -11.1511
  12   2.0000      -0.404942       -11.0190
  13   2.0000      -0.363495        -9.8912
  14   2.0000      -0.352631        -9.5956
  15   2.0000      -0.198974        -5.4144
  16   0.0000       0.025562         0.6956
  17   0.0000       0.054678         1.4879
  18   0.0000       0.062526         1.7014
  19   0.0000       0.071032         1.9329
  20   0.0000       0.097244         2.6461

MULLIKEN ATOMIC CHARGES
-----------------------
   0 C :    0.664581
   1 C :   -0.480709
   2 C :    0.365777
   3 N :    0.185590
   4 H :   -0.186922
   5 H :   -0.110284
   6 H :   -0.064232
   7 H :   -0.423323
   8 H :    0.047705
   9 H :    0.001702
  10 H :    0.000115
Sum of atomic charges:    0.0000000

LOEWDIN ATOMIC CHARGES
----------------------
   0 C :    0.159048
   1 C :   -0.300223
   2 C :    0.167361
   3 N :    0.156480
   4 H :    0.014408
   5 H :    0.010606
   6 H :   -0.085099
   7 H :   -0.090249
   8 H :   -0.012678
   9 H :   -0.010062
  10 H :   -0.009594

  Mayer bond orders larger than 0.100000
B(  0-C ,  1-C ) :   1.2886 B(  0-C ,  8-H ) :   0.8188 B(  0-C ,  9-H ) :   0.7034
B(  0-C , 10-H ) :   0.7227 B(  1-C ,  2-C ) :   1.7209 B(  1-C ,  3-N ) :   1.1747
B(  1-C ,  7-H ) :   0.1244 B(  1-C ,  8-H ) :   0.2086 B(  1-C ,  9-H ) :   0.2434
B(  1-C , 10-H ) :   0.2287 B(  2-C ,  3-N ) :   0.2305 B(  2-C ,  6-H ) :   0.9692
B(  2-C ,  7-H ) :   0.8566 B(  3-N ,  4-H ) :   1.2312 B(  3-N ,  5-H ) :   1.1392
B(  4-H ,  5-H ) :  -0.1224

Dispersion correction           -0.006021386
FINAL SINGLE POINT ENERGY      -172.930653466239

DIPOLE MOMENT
-------------
                                X             Y             Z
Electronic contribution:      1.78061      -0.04521      -0.55663
Nuclear contribution   :     -1.20871      -0.33119       0.98382
                        -----------------------------------------
Total Dipole Moment    :      0.57190      -0.37641       0.42718
                        -----------------------------------------
Magnitude (a.u.)       :      0.80699
Magnitude (Debye)      :      2.05122

Rotational constants in cm-1:     0.348453     0.308655     0.168735
Rotational constants in MHz : 10446.369928  9253.232733  5058.539653

                             ****ORCA TERMINATED NORMALLY****
TOTAL RUN TIME: 0 days 0 hours 0 minutes 9 seconds 593 msec
