                         Program Version 5.0.0 -  RELEASE  -
|  1> !PBE0 D3BJ RIJCOSX def2-SVPD def2/J TightSCF
|  2> *xyz 0 1
|  3> C          4.12921        0.89839       -3.41895
|  4> C          5.01734        1.31521       -2.22130
|  5> O          4.73706        0.85411       -1.12283
|  6> F          5.92815        2.16811       -2.49136
|  7> H          4.48610        1.37210       -4.30953
|  8> H          3.11885        1.19903       -3.23540
|  9> H          4.16886       -0.16404       -3.53966
| 10> *
| 11> %MaxCore 64000
| 12>
| 13> %pal nprocs 4
| 14> end
| 15>
| 16> %scf
| 17>   MaxIter 150
| 18> end
| 19>
| 20>
| 21>                          ****END OF INPUT****

CARTESIAN COORDINATES (ANGSTROEM)
---------------------------------
  C      4.129210    0.898390   -3.418950
  C      5.017340    1.315210   -2.221300
  O      4.737060    0.854110   -1.122830
  F      5.928150    2.168110   -2.491360
  H      4.486100    1.372100   -4.309530
  H      3.118850    1.199030   -3.235400
  H      4.168860   -0.164040   -3.539660

 Total Charge           Charge          ....    0
 Multiplicity           Mult            ....    1
 Number of Electrons    NEL             ....   32
 Basis Dimension        Dim             ....  110

ORBITAL ENERGIES
----------------

  NO   OCC          E(Eh)            E(eV)
   0   2.0000     -24.851894      -676.2544
   1   2.0000     -19.234924      -523.4089
   2   2.0000     -10.420062      -283.5443
   3   2.0000     -10.259420      -279.1730
   4   2.0000      -1.328057       -36.1383
   5   2.0000      -1.078274       -29.3413
   6   2.0000      -0.785632       -21.3781
   7   2.0000      -0.674749       -18.3608
   8   2.0000      -0.563697       -15.3390
   9   2.0000      -0.560918       -15.2634
  10   2.0000      -0.523927       -14.2568
  11   2.0000      -0.459979       -12.5167
  12   2.0000      -0.449599       -12.2342
  13   2.0000      -0.423963       -11.5366
  14   2.0000      -0.384125       -10.4526
  15   2.0000      -0.319519        -8.6946
  16   0.0000      -0.025995        -0.7074
  17   0.0000       0.019727         0.5368
  18   0.0000       0.065906         1.7934
  19   0.0000       0.095424         2.5966
  20   0.0000       0.096077         2.6144

MULLIKEN ATOMIC CHARGES
-----------------------
   0 C :    0.222573
   1 C :    0.510178
   2 O :   -0.496191
   3 F :   -0.397717
   4 H :    0.021662
   5 H :    0.071605
   6 H :    0.067890
Sum of atomic charges:   -0.0000000

LOEWDIN ATOMIC CHARGES
----------------------
   0 C :    0.213751
   1 C :   -0.021139
   2 O :   -0.124482
   3 F :   -0.058446
   4 H :   -0.015238
   5 H :    0.003409
   6 H :    0.002145

  Mayer bond orders larger than 0.100000
B(  0-C ,  1-C ) :   1.2469 B(  0-C ,  4-H ) :   0.9082 B(  0-C ,  5-H ) :   0.8452
B(  0-C ,  6-H ) :   0.8390 B(  1-C ,  2-O ) :   1.7725 B(  1-C ,  3-F ) :   0.7221
B(  1-C ,  4-H ) :   0.1261 B(  1-C ,  5-H ) :   0.1065 B(  1-C ,  6-H ) :   0.1159

Dispersion correction           -0.002786463
FINAL SINGLE POINT ENERGY      -252.646718478493

DIPOLE MOMENT
-------------
                                X             Y             Z
Electronic contribution:      3.65211       2.35186       2.61800
Nuclear contribution   :     -3.88824      -2.31007      -3.68473
                        -----------------------------------------
Total Dipole Moment    :     -0.23613       0.04179      -1.06672
                        -----------------------------------------
Magnitude (a.u.)       :      1.09335
Magnitude (Debye)      :      2.77906

Rotational constants in cm-1:     0.367620     0.319924     0.176595
Rotational constants in MHz : 11020.955969  9591.092757  5294.190719

                             ****ORCA TERMINATED NORMALLY****
TOTAL RUN TIME: 0 days 0 hours 0 minutes 6 seconds 677 msec
