                         Program Version 5.0.0 -  RELEASE  -
|  1> !PBE0 D3BJ RIJCOSX def2-SVPD def2/J TightSCF
|  2> *xyz 0 1
|  3> C          3.34350        3.35457       -3.59200
|  4> C          4.25587        3.70385       -4.72605
|  5> N          3.73403        4.29378       -5.80077
|  6> C          5.51504        3.40725       -4.63718
|  7> H          6.14919        3.60120       -5.39905
|  8> H          5.81358        2.89950       -3.80879
|  9> H          2.74138        4.51311       -5.82470
| 10> H          4.28755        4.52126       -6.61434
| 11> H          2.34726        3.66659       -3.82664
| 12> H          3.67283        3.85124       -2.70331
| 13> H          3.35820        2.29620       -3.43538
| 14> *
| 15> %MaxCore 64000
| 16>
| 17> %pal nprocs 4
| 18> end
| 19>
| 20> %scf
| 21>   MaxIter 150
| 22> end
| 23>
| 24>
| 25>                          ****END OF INPUT****

CARTESIAN COORDINATES (ANGSTROEM)
---------------------------------
  C      3.343500    3.354570   -3.592000
  C      4.255870    3.703850   -4.726050
  N      3.734030    4.293780   -5.800770
  C      5.515040    3.407250   -4.637180
  H      6.149190    3.601200   -5.399050
  H      5.813580    2.899500   -3.808790
  H      2.741380    4.513110   -5.824700
  H      4.287550    4.521260   -6.614340
  H      2.347260    3.666590   -3.826640
  H      3.672830    3.851240   -2.703310
  H      3.358200    2.296200   -3.435380

 Total Charge           Charge          ....    0
 Multiplicity           Mult            ....    1
 Number of Electrons    NEL             ....   32
 Basis Dimension        Dim             ....  136

ORBITAL ENERGIES
----------------

  NO   OCC          E(Eh)            E(eV)
   0   2.0000     -14.397178      -391.7671
   1   2.0000     -10.252112      -278.9742
   2   2.0000     -10.222154      -278.1589
   3   2.0000     -10.160849      -276.4907
   4   2.0000      -0.941660       -25.6239
   5   2.0000      -0.777280       -21.1509
   6   2.0000      -0.705332       -19.1930
   7   2.0000      -0.586059       -15.9475
   8   2.0000      -0.538397       -14.6505
   9   2.0000      -0.489582       -13.3222
  10   2.0000      -0.443953       -12.0806
  11   2.0000      -0.410681       -11.1752
  12   2.0000      -0.405590       -11.0367
  13   2.0000      -0.367367        -9.9966
  14   2.0000      -0.347377        -9.4526
  15   2.0000      -0.202062        -5.4984
  16   0.0000       0.026523         0.7217
  17   0.0000       0.053281         1.4498
  18   0.0000       0.062753         1.7076
  19   0.0000       0.070563         1.9201
  20   0.0000       0.096696         2.6312

MULLIKEN ATOMIC CHARGES
-----------------------
   0 C :    0.628390
   1 C :   -0.232590
   2 N :   -0.035603
   3 C :    0.277464
   4 H :   -0.330601
   5 H :   -0.082003
   6 H :   -0.069571
   7 H :   -0.168428
   8 H :   -0.087684
   9 H :    0.054375
  10 H :    0.046251
Sum of atomic charges:   -0.0000000

LOEWDIN ATOMIC CHARGES
----------------------
   0 C :    0.160893
   1 C :   -0.288125
   2 N :    0.158401
   3 C :    0.151280
   4 H :   -0.080476
   5 H :   -0.069129
   6 H :   -0.003726
   7 H :    0.004204
   8 H :   -0.026481
   9 H :   -0.003395
  10 H :   -0.003445

  Mayer bond orders larger than 0.100000
B(  0-C ,  1-C ) :   1.1100 B(  0-C ,  8-H ) :   0.7692 B(  0-C ,  9-H ) :   0.7723
B(  0-C , 10-H ) :   0.7827 B(  1-C ,  2-N ) :   0.9157 B(  1-C ,  3-C ) :   1.8612
B(  1-C ,  4-H ) :   0.2068 B(  1-C ,  5-H ) :   0.1509 B(  1-C ,  7-H ) :  -0.1715
B(  1-C ,  8-H ) :   0.2349 B(  1-C ,  9-H ) :   0.1547 B(  1-C , 10-H ) :   0.1423
B(  2-N ,  3-C ) :   0.2443 B(  2-N ,  6-H ) :   1.1233 B(  2-N ,  7-H ) :   1.3282
B(  3-C ,  4-H ) :   0.8223 B(  3-C ,  5-H ) :   0.8160 B(  6-H ,  7-H ) :  -0.1566

Dispersion correction           -0.006020863
FINAL SINGLE POINT ENERGY      -172.929265062888

DIPOLE MOMENT
-------------
                                X             Y             Z
Electronic contribution:      0.18963       0.74862      -1.56306
Nuclear contribution   :     -0.80929      -0.53001       1.24477
                        -----------------------------------------
Total Dipole Moment    :     -0.61965       0.21860      -0.31828
                        -----------------------------------------
Magnitude (a.u.)       :      0.73011
Magnitude (Debye)      :      1.85579

Rotational constants in cm-1:     0.352070     0.305406     0.168593
Rotational constants in MHz : 10554.792117  9155.853997  5054.288053

                             ****ORCA TERMINATED NORMALLY****
TOTAL RUN TIME: 0 days 0 hours 0 minutes 10 seconds 541 msec
