                         Program Version 5.0.0 -  RELEASE  -
|  1> !PBE0 D3BJ RIJCOSX def2-SVPD def2/J TightSCF xyzfile
|  2>
|  3> *xyzfile 0 1 D2.xyz
|  4>
|  5> %MaxCore 64000
|  6>
|  7> %pal nprocs 4
|  8> end
|  9>
| 10> %scf
| 11>   MaxIter 150
| 12> end
| 13>
| 14>
| 15>                          ****END OF INPUT****

CARTESIAN COORDINATES (ANGSTROEM)
---------------------------------
  C      3.343500    3.354571   -3.591998
  C      2.952633    1.863077   -3.574849
  C      4.129209    0.898394   -3.418950
  H      3.733687   -0.100605   -3.237633
  H      4.719095    0.862556   -4.339005
  C      5.017344    1.315212   -2.221305
  C      4.255868    3.703851   -4.726054
  N      3.734032    4.293783   -5.800770
  C      5.515039    3.407255   -4.637185
  H      6.149187    3.601203   -5.399053
  H      5.813584    2.899504   -3.808785
  H      2.741380    4.513109   -5.824701
  H      4.287548    4.521260   -6.614341
  H      2.278938    1.735250   -2.725496
  H      2.377466    1.625787   -4.475869
  F      4.737055    0.854112   -1.122825
  O      5.928146    2.168108   -2.491365
  H      3.861246    3.597252   -2.662979
  H      2.446493    3.973461   -3.656556

 Total Charge           Charge          ....    0
 Multiplicity           Mult            ....    1
 Number of Electrons    NEL             ....   70
 Basis Dimension        Dim             ....  266

ORBITAL ENERGIES
----------------

  NO   OCC          E(Eh)            E(eV)
   0   2.0000     -24.874864      -676.8795
   1   2.0000     -19.226434      -523.1779
   2   2.0000     -14.387416      -391.5015
   3   2.0000     -10.424782      -283.6727
   4   2.0000     -10.262112      -279.2463
   5   2.0000     -10.254399      -279.0364
   6   2.0000     -10.237552      -278.5779
   7   2.0000     -10.235176      -278.5133
   8   2.0000     -10.132054      -275.7072
   9   2.0000      -1.370127       -37.2831
  10   2.0000      -1.055453       -28.7203
  11   2.0000      -0.932998       -25.3882
  12   2.0000      -0.835696       -22.7404
  13   2.0000      -0.766680       -20.8624
  14   2.0000      -0.718603       -19.5542
  15   2.0000      -0.699129       -19.0243
  16   2.0000      -0.638182       -17.3658
  17   2.0000      -0.593911       -16.1611
  18   2.0000      -0.583278       -15.8718
  19   2.0000      -0.563547       -15.3349
  20   2.0000      -0.546043       -14.8586
  21   2.0000      -0.514209       -13.9923
  22   2.0000      -0.493389       -13.4258
  23   2.0000      -0.480250       -13.0683
  24   2.0000      -0.464730       -12.6460
  25   2.0000      -0.432604       -11.7717
  26   2.0000      -0.406211       -11.0536
  27   2.0000      -0.404463       -11.0060
  28   2.0000      -0.377665       -10.2768
  29   2.0000      -0.369382       -10.0514
  30   2.0000      -0.364012        -9.9053
  31   2.0000      -0.339587        -9.2406
  32   2.0000      -0.332661        -9.0522
  33   2.0000      -0.282309        -7.6820
  34   2.0000      -0.189895        -5.1673
  35   0.0000      -0.036434        -0.9914
  36   0.0000       0.018463         0.5024
  37   0.0000       0.038593         1.0502
  38   0.0000       0.046177         1.2565
  39   0.0000       0.054781         1.4907

MULLIKEN ATOMIC CHARGES
-----------------------
   0 C :    0.107427
   1 C :   -0.083126
   2 C :   -0.068591
   3 H :   -0.115427
   4 H :    0.262547
   5 C :    0.975426
   6 C :    0.260577
   7 N :   -0.123916
   8 C :    0.647431
   9 H :   -0.608583
  10 H :   -0.025840
  11 H :   -0.107128
  12 H :   -0.175663
  13 H :    0.075892
  14 H :   -0.087778
  15 F :   -0.426682
  16 O :   -0.595916
  17 H :    0.277088
  18 H :   -0.187739
Sum of atomic charges:    0.0000000

LOEWDIN ATOMIC CHARGES
----------------------
   0 C :    0.017882
   1 C :   -0.006158
   2 C :    0.059982
   3 H :    0.023394
   4 H :    0.035553
   5 C :    0.054703
   6 C :   -0.233790
   7 N :    0.156130
   8 C :    0.197968
   9 H :   -0.069969
  10 H :   -0.187052
  11 H :   -0.007710
  12 H :    0.001840
  13 H :    0.024140
  14 H :    0.031644
  15 F :   -0.000049
  16 O :   -0.141374
  17 H :    0.024964
  18 H :    0.017902

  Mayer bond orders larger than 0.100000
B(  0-C ,  1-C ) :   1.2186 B(  0-C ,  6-C ) :   1.0361 B(  0-C ,  7-N ) :   0.1219
B(  0-C ,  8-C ) :   0.2065 B(  0-C , 13-H ) :   0.1030 B(  0-C , 14-H ) :   0.1354
B(  0-C , 17-H ) :   0.7422 B(  0-C , 18-H ) :   0.9408 B(  1-C ,  2-C ) :   1.2829
B(  1-C ,  3-H ) :   0.1703 B(  1-C ,  4-H ) :   0.1275 B(  1-C , 13-H ) :   0.8259
B(  1-C , 14-H ) :   0.9660 B(  1-C , 17-H ) :   0.1211 B(  1-C , 18-H ) :   0.1616
B(  2-C ,  3-H ) :   0.9157 B(  2-C ,  4-H ) :   0.8088 B(  2-C ,  5-C ) :   1.0792
B(  2-C , 13-H ) :   0.1182 B(  2-C , 15-F ) :   0.1107 B(  2-C , 16-O ) :   0.1037
B(  5-C , 15-F ) :   0.6284 B(  5-C , 16-O ) :   1.5527 B(  6-C ,  7-N ) :   0.8574
B(  6-C ,  8-C ) :   1.8760 B(  6-C ,  9-H ) :   0.2333 B(  6-C , 10-H ) :   0.2719
B(  6-C , 12-H ) :  -0.1445 B(  7-N ,  8-C ) :   0.2800 B(  7-N , 11-H ) :   1.1980
B(  7-N , 12-H ) :   1.3524 B(  8-C ,  9-H ) :   0.8412 B(  8-C , 10-H ) :   0.6257
B(  9-H , 10-H ) :  -0.2172 B( 11-H , 12-H ) :  -0.1564 B( 15-F , 16-O ) :   0.1045

Dispersion correction           -0.016295065
FINAL SINGLE POINT ENERGY      -463.588010790529

DIPOLE MOMENT
-------------
                                X             Y             Z
Electronic contribution:      4.29435      -5.13441       9.54773
Nuclear contribution   :     -5.64491       4.57111      -9.93176
                        -----------------------------------------
Total Dipole Moment    :     -1.35055      -0.56330      -0.38403
                        -----------------------------------------
Magnitude (a.u.)       :      1.51287
Magnitude (Debye)      :      3.84542

Rotational constants in cm-1:     0.109825     0.034347     0.029470
Rotational constants in MHz :  3292.465653  1029.684117   883.494260

                             ****ORCA TERMINATED NORMALLY****
TOTAL RUN TIME: 0 days 0 hours 0 minutes 54 seconds 13 msec
