                         Program Version 5.0.0 -  RELEASE  -
|  1> !B3LYP D3BJ RIJCOSX def2-SVP def2/J TightSCF
|  2> *xyz -1 1
|  3> C         -0.90349       -0.87394       -1.98739
|  4> C         -0.96015       -0.52236       -0.48987
|  5> H         -1.69039       -1.20813       -0.02168
|  6> H         -1.41449        0.48633       -0.40668
|  7> O          0.26170       -0.58031        0.13861
|  8> H         -1.88568       -0.80774       -2.40670
|  9> H         -0.53143       -1.87013       -2.10605
| 10> H         -0.25399       -0.18836       -2.49039
| 11> *
| 12>
| 13> %MaxCore 64000
| 14>
| 15> %pal nprocs 4
| 16> end
| 17>
| 18> %scf
| 19>   MaxIter 150
| 20> end
| 21>
| 22>
| 23>                          ****END OF INPUT****

CARTESIAN COORDINATES (ANGSTROEM)
---------------------------------
  C     -0.903490   -0.873940   -1.987390
  C     -0.960150   -0.522360   -0.489870
  H     -1.690390   -1.208130   -0.021680
  H     -1.414490    0.486330   -0.406680
  O      0.261700   -0.580310    0.138610
  H     -1.885680   -0.807740   -2.406700
  H     -0.531430   -1.870130   -2.106050
  H     -0.253990   -0.188360   -2.490390

 Total Charge           Charge          ....   -1
 Multiplicity           Mult            ....    1
 Number of Electrons    NEL             ....   26
 Basis Dimension        Dim             ....   67

ORBITAL ENERGIES
----------------

  NO   OCC          E(Eh)            E(eV)
   0   2.0000     -18.744476      -510.0631
   1   2.0000      -9.970311      -271.3059
   2   2.0000      -9.959668      -271.0163
   3   2.0000      -0.621898       -16.9227
   4   2.0000      -0.497037       -13.5251
   5   2.0000      -0.342711        -9.3256
   6   2.0000      -0.230712        -6.2780
   7   2.0000      -0.208810        -5.6820
   8   2.0000      -0.150860        -4.1051
   9   2.0000      -0.135817        -3.6958
  10   2.0000      -0.065826        -1.7912
  11   2.0000       0.078895         2.1468
  12   2.0000       0.082475         2.2443
  13   0.0000       0.252722         6.8769
  14   0.0000       0.296765         8.0754
  15   0.0000       0.309780         8.4296
  16   0.0000       0.317387         8.6365
  17   0.0000       0.359763         9.7896

MULLIKEN ATOMIC CHARGES
-----------------------
   0 C :    0.103508
   1 C :    0.270080
   2 H :   -0.184355
   3 H :   -0.185539
   4 O :   -0.700288
   5 H :   -0.139405
   6 H :   -0.081999
   7 H :   -0.082001
Sum of atomic charges:   -1.0000000

LOEWDIN ATOMIC CHARGES
----------------------
   0 C :   -0.102005
   1 C :    0.016881
   2 H :   -0.085214
   3 H :   -0.085969
   4 O :   -0.660789
   5 H :   -0.042153
   6 H :   -0.020364
   7 H :   -0.020387

  Mayer bond orders larger than 0.100000
B(  0-C ,  1-C ) :   1.0002 B(  0-C ,  5-H ) :   0.9034 B(  0-C ,  6-H ) :   0.9492
B(  0-C ,  7-H ) :   0.9492 B(  1-C ,  2-H ) :   0.8601 B(  1-C ,  3-H ) :   0.8583
B(  1-C ,  4-O ) :   1.5173

Dispersion correction           -0.006227815
FINAL SINGLE POINT ENERGY      -154.188454888691

DIPOLE MOMENT
-------------
                                X             Y             Z
Electronic contribution:      2.25391       0.16049       2.35175
Nuclear contribution   :     -2.90669      -0.27617      -3.31210
                        -----------------------------------------
Total Dipole Moment    :     -0.65279      -0.11567      -0.96036
                        -----------------------------------------
Magnitude (a.u.)       :      1.16696
Magnitude (Debye)      :      2.96618

Rotational constants in cm-1:     1.291883     0.321656     0.284469
Rotational constants in MHz : 38729.676116  9643.011620  8528.167295

                             ****ORCA TERMINATED NORMALLY****
TOTAL RUN TIME: 0 days 0 hours 0 minutes 8 seconds 524 msec
