                         Program Version 5.0.0 -  RELEASE  -
|  1> !B3LYP D3BJ RIJCOSX def2-SVP def2/J TightSCF
|  2> *xyz 1 1
|  3> C          4.36645       -0.13321       -1.41606
|  4> C          4.50829       -0.93187       -2.72425
|  5> C          3.05650       -0.32080       -0.70738
|  6> N          2.38983        0.71129       -0.24391
|  7> N          2.51600       -1.50772       -0.55023
|  8> H          2.96768       -2.32291       -0.95631
|  9> H          1.54987       -1.49063       -0.24988
| 10> H          2.74307        1.64947       -0.41280
| 11> H          1.44036        0.50278        0.03703
| 12> H          4.48784        0.93300       -1.61157
| 13> H          5.16967       -0.41443       -0.72982
| 14> H          5.46700       -0.73824       -3.15818
| 15> H          3.74074       -0.63528       -3.40821
| 16> H          4.41574       -1.97727       -2.51573
| 17> *
| 18>
| 19> %MaxCore 64000
| 20>
| 21> %pal nprocs 4
| 22> end
| 23>
| 24> %scf
| 25>   MaxIter 150
| 26> end
| 27>
| 28>
| 29>                          ****END OF INPUT****

CARTESIAN COORDINATES (ANGSTROEM)
---------------------------------
  C      4.366450   -0.133210   -1.416060
  C      4.508290   -0.931870   -2.724250
  C      3.056500   -0.320800   -0.707380
  N      2.389830    0.711290   -0.243910
  N      2.516000   -1.507720   -0.550230
  H      2.967680   -2.322910   -0.956310
  H      1.549870   -1.490630   -0.249880
  H      2.743070    1.649470   -0.412800
  H      1.440360    0.502780    0.037030
  H      4.487840    0.933000   -1.611570
  H      5.169670   -0.414430   -0.729820
  H      5.467000   -0.738240   -3.158180
  H      3.740740   -0.635280   -3.408210
  H      4.415740   -1.977270   -2.515730

 Total Charge           Charge          ....    1
 Multiplicity           Mult            ....    1
 Number of Electrons    NEL             ....   40
 Basis Dimension        Dim             ....  115

ORBITAL ENERGIES
----------------

  NO   OCC          E(Eh)            E(eV)
   0   2.0000     -14.575280      -396.6135
   1   2.0000     -14.574202      -396.5842
   2   2.0000     -10.501947      -285.7725
   3   2.0000     -10.383265      -282.5430
   4   2.0000     -10.343131      -281.4509
   5   2.0000      -1.202720       -32.7277
   6   2.0000      -1.096847       -29.8467
   7   2.0000      -0.962542       -26.1921
   8   2.0000      -0.853829       -23.2339
   9   2.0000      -0.815574       -22.1929
  10   2.0000      -0.767830       -20.8937
  11   2.0000      -0.753241       -20.4967
  12   2.0000      -0.705050       -19.1854
  13   2.0000      -0.658555       -17.9202
  14   2.0000      -0.627349       -17.0710
  15   2.0000      -0.600461       -16.3394
  16   2.0000      -0.554072       -15.0771
  17   2.0000      -0.540509       -14.7080
  18   2.0000      -0.526587       -14.3292
  19   2.0000      -0.492054       -13.3895
  20   0.0000      -0.207582        -5.6486
  21   0.0000      -0.150648        -4.0993
  22   0.0000      -0.104993        -2.8570
  23   0.0000      -0.101810        -2.7704
  24   0.0000      -0.063489        -1.7276

MULLIKEN ATOMIC CHARGES
-----------------------
   0 C :    0.046520
   1 C :    0.017349
   2 C :   -0.122123
   3 N :    0.045724
   4 N :    0.041859
   5 H :    0.179252
   6 H :    0.164654
   7 H :    0.185662
   8 H :    0.161939
   9 H :    0.039655
  10 H :    0.093727
  11 H :    0.067828
  12 H :    0.047698
  13 H :    0.030257
Sum of atomic charges:    1.0000000

LOEWDIN ATOMIC CHARGES
----------------------
   0 C :   -0.027949
   1 C :   -0.018243
   2 C :    0.146388
   3 N :    0.104264
   4 N :    0.100896
   5 H :    0.119012
   6 H :    0.108434
   7 H :    0.122956
   8 H :    0.107645
   9 H :    0.049947
  10 H :    0.071020
  11 H :    0.052890
  12 H :    0.036941
  13 H :    0.025799

  Mayer bond orders larger than 0.100000
B(  0-C ,  1-C ) :   1.0885 B(  0-C ,  2-C ) :   1.0254 B(  0-C ,  9-H ) :   0.9155
B(  0-C , 10-H ) :   0.9078 B(  1-C , 11-H ) :   0.9553 B(  1-C , 12-H ) :   0.9754
B(  1-C , 13-H ) :   0.9674 B(  2-C ,  3-N ) :   1.5208 B(  2-C ,  4-N ) :   1.5106
B(  3-N ,  7-H ) :   0.9138 B(  3-N ,  8-H ) :   0.9259 B(  4-N ,  5-H ) :   0.9203
B(  4-N ,  6-H ) :   0.9249

Dispersion correction           -0.016682648
FINAL SINGLE POINT ENERGY      -228.728846943094

DIPOLE MOMENT
-------------
                                X             Y             Z
Electronic contribution:     -2.71640       0.62283       3.14942
Nuclear contribution   :      1.78847      -0.48174      -2.67127
                        -----------------------------------------
Total Dipole Moment    :     -0.92793       0.14109       0.47815
                        -----------------------------------------
Magnitude (a.u.)       :      1.05337
Magnitude (Debye)      :      2.67745

Rotational constants in cm-1:     0.286883     0.123210     0.094446
Rotational constants in MHz :  8600.540572  3693.747366  2831.415242

                             ****ORCA TERMINATED NORMALLY****
TOTAL RUN TIME: 0 days 0 hours 0 minutes 13 seconds 512 msec
