                         Program Version 5.0.0 -  RELEASE  -
|  1> !B3LYP D3BJ RIJCOSX def2-TZVP def2/J TightSCF xyzfile
|  2>
|  3> *xyzfile 0 1 B.xyz
|  4>
|  5> %MaxCore 64000
|  6>
|  7> %pal nprocs 18
|  8> end
|  9>
| 10> %scf
| 11>   MaxIter 150
| 12> end
| 13>
| 14>
| 15>                          ****END OF INPUT****

CARTESIAN COORDINATES (ANGSTROEM)
---------------------------------
  C      4.366454   -0.133215   -1.416062
  C      4.508292   -0.931872   -2.724249
  H      4.753716   -1.972051   -2.488408
  C      3.294164   -0.918214   -3.656570
  H      5.385637   -0.536236   -3.242640
  H      2.483463   -1.477378   -3.185764
  H      3.553092   -1.478495   -4.560331
  C      2.772335    0.460100   -4.051448
  H      2.608762    1.065107   -3.155194
  C      1.465354    0.410537   -4.853644
  H      3.532940    0.988848   -4.635671
  C      0.326171   -0.375613   -4.192580
  H      1.666704   -0.022269   -5.839323
  H      1.138198    1.439246   -5.035449
  C     -0.017405    0.080588   -2.778406
  H      0.585573   -1.439385   -4.168057
  H     -0.560005   -0.311425   -4.831461
  H      0.902090    0.201296   -2.206729
  C     -0.903495   -0.873945   -1.987388
  H     -0.479549    1.074657   -2.811915
  H     -0.502554   -1.892096   -2.081204
  H     -1.917039   -0.895427   -2.406277
  C     -0.960148   -0.522365   -0.489867
  H     -1.690392   -1.208130   -0.021677
  H     -1.414490    0.486329   -0.406677
  O      0.261703   -0.580307    0.138611
  C      3.056503   -0.320797   -0.707384
  N      2.389825    0.711285   -0.243909
  N      2.515999   -1.507721   -0.550229
  H      2.967683   -2.322915   -0.956305
  H      1.549872   -1.490634   -0.249876
  H      2.743071    1.649471   -0.412802
  H      1.440364    0.502778    0.037031
  H      4.487835    0.932997   -1.611569
  H      5.169672   -0.414432   -0.729817

 Total Charge           Charge          ....    0
 Multiplicity           Mult            ....    1
 Number of Electrons    NEL             ....  104
 Basis Dimension        Dim             ....  535

ORBITAL ENERGIES
----------------

  NO   OCC          E(Eh)            E(eV)
   0   2.0000     -18.995676      -516.8986
   1   2.0000     -14.341763      -390.2592
   2   2.0000     -14.341335      -390.2476
   3   2.0000     -10.290021      -280.0057
   4   2.0000     -10.212692      -277.9015
   5   2.0000     -10.197170      -277.4791
   6   2.0000     -10.176099      -276.9057
   7   2.0000     -10.169757      -276.7331
   8   2.0000     -10.161048      -276.4962
   9   2.0000     -10.150255      -276.2025
  10   2.0000     -10.148220      -276.1471
  11   2.0000     -10.136547      -275.8295
  12   2.0000     -10.123808      -275.4828
  13   2.0000      -1.006289       -27.3825
  14   2.0000      -0.900661       -24.5082
  15   2.0000      -0.886626       -24.1263
  16   2.0000      -0.832696       -22.6588
  17   2.0000      -0.796680       -21.6788
  18   2.0000      -0.757563       -20.6143
  19   2.0000      -0.718309       -19.5462
  20   2.0000      -0.680391       -18.5144
  21   2.0000      -0.639136       -17.3918
  22   2.0000      -0.621761       -16.9190
  23   2.0000      -0.608955       -16.5705
  24   2.0000      -0.567678       -15.4473
  25   2.0000      -0.552015       -15.0211
  26   2.0000      -0.549612       -14.9557
  27   2.0000      -0.524883       -14.2828
  28   2.0000      -0.503152       -13.6914
  29   2.0000      -0.500300       -13.6139
  30   2.0000      -0.482717       -13.1354
  31   2.0000      -0.462017       -12.5721
  32   2.0000      -0.446759       -12.1569
  33   2.0000      -0.428814       -11.6686
  34   2.0000      -0.418934       -11.3998
  35   2.0000      -0.412142       -11.2150
  36   2.0000      -0.406017       -11.0483
  37   2.0000      -0.400798       -10.9063
  38   2.0000      -0.380091       -10.3428
  39   2.0000      -0.370566       -10.0836
  40   2.0000      -0.362256        -9.8575
  41   2.0000      -0.352928        -9.6037
  42   2.0000      -0.343132        -9.3371
  43   2.0000      -0.338541        -9.2122
  44   2.0000      -0.319839        -8.7033
  45   2.0000      -0.313490        -8.5305
  46   2.0000      -0.303670        -8.2633
  47   2.0000      -0.299238        -8.1427
  48   2.0000      -0.295745        -8.0476
  49   2.0000      -0.284858        -7.7514
  50   2.0000      -0.181051        -4.9267
  51   2.0000      -0.175541        -4.7767
  52   0.0000      -0.023729        -0.6457
  53   0.0000       0.003869         0.1053
  54   0.0000       0.021298         0.5795
  55   0.0000       0.040342         1.0978
  56   0.0000       0.049146         1.3373

MULLIKEN ATOMIC CHARGES
-----------------------
   0 C :   -0.168930
   1 C :   -0.245276
   2 H :    0.115436
   3 C :   -0.160455
   4 H :    0.105686
   5 H :    0.098784
   6 H :    0.093255
   7 C :   -0.208112
   8 H :    0.083651
   9 C :   -0.121670
  10 H :    0.086922
  11 C :   -0.166839
  12 H :    0.084774
  13 H :    0.083873
  14 C :   -0.179983
  15 H :    0.087323
  16 H :    0.085731
  17 H :    0.060858
  18 C :   -0.104918
  19 H :    0.061896
  20 H :    0.039504
  21 H :    0.050948
  22 C :    0.079152
  23 H :    0.035438
  24 H :    0.015393
  25 O :   -0.739938
  26 C :    0.217982
  27 N :   -0.322828
  28 N :   -0.309568
  29 H :    0.227361
  30 H :    0.265634
  31 H :    0.223199
  32 H :    0.283872
  33 H :    0.108108
  34 H :    0.133739
Sum of atomic charges:   -0.0000000

LOEWDIN ATOMIC CHARGES
----------------------
   0 C :   -0.214063
   1 C :   -0.255301
   2 H :    0.134353
   3 C :   -0.264295
   4 H :    0.141303
   5 H :    0.136788
   6 H :    0.138088
   7 C :   -0.265919
   8 H :    0.129286
   9 C :   -0.260203
  10 H :    0.131625
  11 C :   -0.268201
  12 H :    0.132019
  13 H :    0.133631
  14 C :   -0.272447
  15 H :    0.128869
  16 H :    0.132277
  17 H :    0.132629
  18 C :   -0.282366
  19 H :    0.129559
  20 H :    0.120699
  21 H :    0.123667
  22 C :   -0.455622
  23 H :    0.099411
  24 H :    0.095578
  25 O :   -0.299039
  26 C :   -0.332263
  27 N :    0.089445
  28 N :    0.093400
  29 H :    0.176158
  30 H :    0.148346
  31 H :    0.174665
  32 H :    0.146653
  33 H :    0.145841
  34 H :    0.155428

  Mayer bond orders larger than 0.100000
B(  0-C ,  1-C ) :   0.9421 B(  0-C , 26-C ) :   0.9861 B(  0-C , 33-H ) :   0.9714
B(  0-C , 34-H ) :   0.9546 B(  1-C ,  2-H ) :   0.9837 B(  1-C ,  3-C ) :   0.9418
B(  1-C ,  4-H ) :   0.9643 B(  3-C ,  5-H ) :   0.9769 B(  3-C ,  6-H ) :   0.9659
B(  3-C ,  7-C ) :   0.9442 B(  7-C ,  8-H ) :   0.9743 B(  7-C ,  9-C ) :   0.9680
B(  7-C , 10-H ) :   0.9642 B(  9-C , 11-C ) :   0.9608 B(  9-C , 12-H ) :   0.9715
B(  9-C , 13-H ) :   0.9718 B( 11-C , 14-C ) :   0.9584 B( 11-C , 15-H ) :   0.9778
B( 11-C , 16-H ) :   0.9714 B( 14-C , 17-H ) :   0.9805 B( 14-C , 18-C ) :   0.9914
B( 14-C , 19-H ) :   0.9577 B( 18-C , 20-H ) :   0.9573 B( 18-C , 21-H ) :   0.9485
B( 18-C , 22-C ) :   0.9396 B( 22-C , 23-H ) :   0.9553 B( 22-C , 24-H ) :   0.9585
B( 22-C , 25-O ) :   1.1725 B( 25-O , 30-H ) :   0.2560 B( 25-O , 32-H ) :   0.2521
B( 26-C , 27-N ) :   1.4965 B( 26-C , 28-N ) :   1.4725 B( 27-N , 31-H ) :   0.9118
B( 27-N , 32-H ) :   0.7280 B( 28-N , 29-H ) :   0.9134 B( 28-N , 30-H ) :   0.7342

Dispersion correction           -0.064108675
FINAL SINGLE POINT ENERGY      -578.928953946438

DIPOLE MOMENT
-------------
                                X             Y             Z
Electronic contribution:      2.77865      -0.26998       7.58848
Nuclear contribution   :     -0.17996       0.53390      -8.68067
                        -----------------------------------------
Total Dipole Moment    :      2.59869       0.26393      -1.09219
                        -----------------------------------------
Magnitude (a.u.)       :      2.83121
Magnitude (Debye)      :      7.19635

Rotational constants in cm-1:     0.028240     0.022734     0.014600
Rotational constants in MHz :   846.611263   681.554306   437.693928

                             ****ORCA TERMINATED NORMALLY****
TOTAL RUN TIME: 0 days 0 hours 1 minutes 20 seconds 202 msec
