                         Program Version 5.0.0 -  RELEASE  -
|  1> !B3LYP D3BJ RIJCOSX def2-SVP def2/J TightSCF
|  2> *xyz 0 1
|  3> C         -0.90349       -0.87394       -1.98739
|  4> C         -0.96015       -0.52236       -0.48987
|  5> H         -1.69039       -1.20813       -0.02168
|  6> H         -1.41449        0.48633       -0.40668
|  7> F          0.26170       -0.58031        0.13861
|  8> H         -1.88568       -0.80774       -2.40670
|  9> H         -0.53143       -1.87013       -2.10605
| 10> H         -0.25399       -0.18836       -2.49039
| 11> *
| 12>
| 13> %MaxCore 64000
| 14>
| 15> %pal nprocs 4
| 16> end
| 17>
| 18> %scf
| 19>   MaxIter 150
| 20> end
| 21>
| 22>
| 23>                          ****END OF INPUT****

CARTESIAN COORDINATES (ANGSTROEM)
---------------------------------
  C     -0.903490   -0.873940   -1.987390
  C     -0.960150   -0.522360   -0.489870
  H     -1.690390   -1.208130   -0.021680
  H     -1.414490    0.486330   -0.406680
  F      0.261700   -0.580310    0.138610
  H     -1.885680   -0.807740   -2.406700
  H     -0.531430   -1.870130   -2.106050
  H     -0.253990   -0.188360   -2.490390

 Total Charge           Charge          ....    0
 Multiplicity           Mult            ....    1
 Number of Electrons    NEL             ....   26
 Basis Dimension        Dim             ....   67

ORBITAL ENERGIES
----------------

  NO   OCC          E(Eh)            E(eV)
   0   2.0000     -24.659908      -671.0302
   1   2.0000     -10.256664      -279.0980
   2   2.0000     -10.178471      -276.9703
   3   2.0000      -1.163374       -31.6570
   4   2.0000      -0.752637       -20.4803
   5   2.0000      -0.619394       -16.8546
   6   2.0000      -0.496035       -13.4978
   7   2.0000      -0.487183       -13.2569
   8   2.0000      -0.447166       -12.1680
   9   2.0000      -0.397919       -10.8279
  10   2.0000      -0.397863       -10.8264
  11   2.0000      -0.327913        -8.9230
  12   2.0000      -0.323881        -8.8133
  13   0.0000       0.064066         1.7433
  14   0.0000       0.109317         2.9747
  15   0.0000       0.116373         3.1667
  16   0.0000       0.132220         3.5979
  17   0.0000       0.147750         4.0205

MULLIKEN ATOMIC CHARGES
-----------------------
   0 C :   -0.017890
   1 C :    0.240030
   2 H :   -0.000191
   3 H :    0.000173
   4 F :   -0.267294
   5 H :    0.007749
   6 H :    0.018690
   7 H :    0.018733
Sum of atomic charges:   -0.0000000

LOEWDIN ATOMIC CHARGES
----------------------
   0 C :   -0.064862
   1 C :    0.116945
   2 H :    0.007018
   3 H :    0.007480
   4 F :   -0.139881
   5 H :    0.027636
   6 H :    0.022834
   7 H :    0.022830

  Mayer bond orders larger than 0.100000
B(  0-C ,  1-C ) :   1.1016 B(  0-C ,  5-H ) :   0.9584 B(  0-C ,  6-H ) :   0.9701
B(  0-C ,  7-H ) :   0.9702 B(  1-C ,  2-H ) :   0.9571 B(  1-C ,  3-H ) :   0.9568
B(  1-C ,  4-F ) :   1.0042

Dispersion correction           -0.005735807
FINAL SINGLE POINT ENERGY      -178.830693328325

DIPOLE MOMENT
-------------
                                X             Y             Z
Electronic contribution:      3.27127       0.37652       4.01929
Nuclear contribution   :     -3.84149      -0.36812      -4.38946
                        -----------------------------------------
Total Dipole Moment    :     -0.57022       0.00840      -0.37017
                        -----------------------------------------
Magnitude (a.u.)       :      0.67989
Magnitude (Debye)      :      1.72814

Rotational constants in cm-1:     1.270659     0.299196     0.265842
Rotational constants in MHz : 38093.410361  8969.665806  7969.741481

                             ****ORCA TERMINATED NORMALLY****
TOTAL RUN TIME: 0 days 0 hours 0 minutes 7 seconds 938 msec
