                         Program Version 5.0.0 -  RELEASE  -
|  1> !B3LYP D3BJ RIJCOSX def2-SVP def2/J TightSCF
|  2> *xyz 0 1
|  3> C          4.36645       -0.13321       -1.41606
|  4> C          4.50829       -0.93187       -2.72425
|  5> C          3.05650       -0.32080       -0.70738
|  6> C          2.38983        0.71129       -0.24391
|  7> N          2.51600       -1.50772       -0.55023
|  8> H          2.96768       -2.32291       -0.95631
|  9> H          1.54987       -1.49063       -0.24988
| 10> H          2.74307        1.64947       -0.41280
| 11> H          1.44036        0.50278        0.03703
| 12> H          4.48784        0.93300       -1.61157
| 13> H          5.16967       -0.41443       -0.72982
| 14> H          5.46700       -0.73824       -3.15818
| 15> H          3.74074       -0.63528       -3.40821
| 16> H          4.41574       -1.97727       -2.51573
| 17> *
| 18>
| 19> %MaxCore 64000
| 20>
| 21> %pal nprocs 4
| 22> end
| 23>
| 24> %scf
| 25>   MaxIter 150
| 26> end
| 27>
| 28>
| 29>                          ****END OF INPUT****

CARTESIAN COORDINATES (ANGSTROEM)
---------------------------------
  C      4.366450   -0.133210   -1.416060
  C      4.508290   -0.931870   -2.724250
  C      3.056500   -0.320800   -0.707380
  C      2.389830    0.711290   -0.243910
  N      2.516000   -1.507720   -0.550230
  H      2.967680   -2.322910   -0.956310
  H      1.549870   -1.490630   -0.249880
  H      2.743070    1.649470   -0.412800
  H      1.440360    0.502780    0.037030
  H      4.487840    0.933000   -1.611570
  H      5.169670   -0.414430   -0.729820
  H      5.467000   -0.738240   -3.158180
  H      3.740740   -0.635280   -3.408210
  H      4.415740   -1.977270   -2.515730

 Total Charge           Charge          ....    0
 Multiplicity           Mult            ....    1
 Number of Electrons    NEL             ....   40
 Basis Dimension        Dim             ....  115

ORBITAL ENERGIES
----------------

  NO   OCC          E(Eh)            E(eV)
   0   2.0000     -14.319644      -389.6573
   1   2.0000     -10.191328      -277.3201
   2   2.0000     -10.180067      -277.0137
   3   2.0000     -10.174865      -276.8721
   4   2.0000     -10.108321      -275.0614
   5   2.0000      -0.915434       -24.9102
   6   2.0000      -0.765438       -20.8286
   7   2.0000      -0.708216       -19.2715
   8   2.0000      -0.625443       -17.0192
   9   2.0000      -0.552660       -15.0386
  10   2.0000      -0.526183       -14.3182
  11   2.0000      -0.463071       -12.6008
  12   2.0000      -0.435544       -11.8518
  13   2.0000      -0.424577       -11.5533
  14   2.0000      -0.386717       -10.5231
  15   2.0000      -0.375632       -10.2215
  16   2.0000      -0.354546        -9.6477
  17   2.0000      -0.339071        -9.2266
  18   2.0000      -0.319168        -8.6850
  19   2.0000      -0.178643        -4.8611
  20   0.0000       0.046590         1.2678
  21   0.0000       0.060462         1.6453
  22   0.0000       0.094944         2.5836
  23   0.0000       0.098618         2.6835
  24   0.0000       0.120597         3.2816

MULLIKEN ATOMIC CHARGES
-----------------------
   0 C :    0.089437
   1 C :    0.026471
   2 C :   -0.167392
   3 C :   -0.007423
   4 N :   -0.034014
   5 H :    0.097839
   6 H :    0.109786
   7 H :   -0.053066
   8 H :   -0.071033
   9 H :   -0.007387
  10 H :    0.007320
  11 H :    0.005127
  12 H :    0.011824
  13 H :   -0.007491
Sum of atomic charges:    0.0000000

LOEWDIN ATOMIC CHARGES
----------------------
   0 C :   -0.023532
   1 C :   -0.042905
   2 C :    0.003231
   3 C :   -0.172459
   4 N :   -0.004499
   5 H :    0.066817
   6 H :    0.077151
   7 H :   -0.003875
   8 H :   -0.011763
   9 H :    0.030382
  10 H :    0.026161
  11 H :    0.022694
  12 H :    0.021996
  13 H :    0.010601

  Mayer bond orders larger than 0.100000
B(  0-C ,  1-C ) :   1.0933 B(  0-C ,  2-C ) :   1.0386 B(  0-C ,  9-H ) :   0.9233
B(  0-C , 10-H ) :   0.9247 B(  1-C , 11-H ) :   0.9622 B(  1-C , 12-H ) :   0.9728
B(  1-C , 13-H ) :   0.9684 B(  2-C ,  3-C ) :   1.8596 B(  2-C ,  4-N ) :   1.2828
B(  3-C ,  7-H ) :   0.9358 B(  3-C ,  8-H ) :   0.9326 B(  4-N ,  5-H ) :   0.9493
B(  4-N ,  6-H ) :   0.9386

Dispersion correction           -0.017381912
FINAL SINGLE POINT ENERGY      -212.268481535315

DIPOLE MOMENT
-------------
                                X             Y             Z
Electronic contribution:     -1.50473      -0.51712       2.08625
Nuclear contribution   :      1.56827      -0.21459      -2.46657
                        -----------------------------------------
Total Dipole Moment    :      0.06354      -0.73170      -0.38032
                        -----------------------------------------
Magnitude (a.u.)       :      0.82709
Magnitude (Debye)      :      2.10229

Rotational constants in cm-1:     0.294070     0.127722     0.097792
Rotational constants in MHz :  8815.983970  3829.010547  2931.715816

                             ****ORCA TERMINATED NORMALLY****
TOTAL RUN TIME: 0 days 0 hours 0 minutes 12 seconds 689 msec
