                         Program Version 5.0.0 -  RELEASE  -
|  1> !B3LYP D3BJ RIJCOSX def2-SVP def2/J TightSCF
|  2> *xyz 0 1
|  3> C          4.36645       -0.13321       -1.41606
|  4> C          4.50829       -0.93187       -2.72425
|  5> C          3.05650       -0.32080       -0.70738
|  6> N          2.38983        0.71129       -0.24391
|  7> C          2.51600       -1.50772       -0.55023
|  8> H          2.96768       -2.32291       -0.95631
|  9> H          1.54987       -1.49063       -0.24988
| 10> H          2.74307        1.64947       -0.41280
| 11> H          1.44036        0.50278        0.03703
| 12> H          4.48784        0.93300       -1.61157
| 13> H          5.16967       -0.41443       -0.72982
| 14> H          5.46700       -0.73824       -3.15818
| 15> H          3.74074       -0.63528       -3.40821
| 16> H          4.41574       -1.97727       -2.51573
| 17> *
| 18>
| 19> %MaxCore 64000
| 20>
| 21> %pal nprocs 4
| 22> end
| 23>
| 24> %scf
| 25>   MaxIter 150
| 26> end
| 27>
| 28>
| 29>                          ****END OF INPUT****

CARTESIAN COORDINATES (ANGSTROEM)
---------------------------------
  C      4.366450   -0.133210   -1.416060
  C      4.508290   -0.931870   -2.724250
  C      3.056500   -0.320800   -0.707380
  N      2.389830    0.711290   -0.243910
  C      2.516000   -1.507720   -0.550230
  H      2.967680   -2.322910   -0.956310
  H      1.549870   -1.490630   -0.249880
  H      2.743070    1.649470   -0.412800
  H      1.440360    0.502780    0.037030
  H      4.487840    0.933000   -1.611570
  H      5.169670   -0.414430   -0.729820
  H      5.467000   -0.738240   -3.158180
  H      3.740740   -0.635280   -3.408210
  H      4.415740   -1.977270   -2.515730

 Total Charge           Charge          ....    0
 Multiplicity           Mult            ....    1
 Number of Electrons    NEL             ....   40
 Basis Dimension        Dim             ....  115

ORBITAL ENERGIES
----------------

  NO   OCC          E(Eh)            E(eV)
   0   2.0000     -14.319716      -389.6593
   1   2.0000     -10.191560      -277.3264
   2   2.0000     -10.181527      -277.0534
   3   2.0000     -10.167741      -276.6783
   4   2.0000     -10.106422      -275.0097
   5   2.0000      -0.915290       -24.9063
   6   2.0000      -0.766411       -20.8551
   7   2.0000      -0.697048       -18.9676
   8   2.0000      -0.634687       -17.2707
   9   2.0000      -0.543195       -14.7811
  10   2.0000      -0.523345       -14.2409
  11   2.0000      -0.470206       -12.7949
  12   2.0000      -0.444727       -12.1016
  13   2.0000      -0.401898       -10.9362
  14   2.0000      -0.384650       -10.4669
  15   2.0000      -0.374740       -10.1972
  16   2.0000      -0.353603        -9.6220
  17   2.0000      -0.338152        -9.2016
  18   2.0000      -0.319990        -8.7074
  19   2.0000      -0.176751        -4.8096
  20   0.0000       0.052524         1.4292
  21   0.0000       0.058594         1.5944
  22   0.0000       0.093455         2.5430
  23   0.0000       0.097835         2.6622
  24   0.0000       0.125643         3.4189

MULLIKEN ATOMIC CHARGES
-----------------------
   0 C :    0.088154
   1 C :    0.039778
   2 C :   -0.171244
   3 N :   -0.036315
   4 C :   -0.010385
   5 H :   -0.054073
   6 H :   -0.068261
   7 H :    0.101061
   8 H :    0.106861
   9 H :   -0.032381
  10 H :    0.018182
  11 H :   -0.004293
  12 H :    0.006666
  13 H :    0.016251
Sum of atomic charges:   -0.0000000

LOEWDIN ATOMIC CHARGES
----------------------
   0 C :   -0.024997
   1 C :   -0.033371
   2 C :    0.003398
   3 N :   -0.001836
   4 C :   -0.176968
   5 H :   -0.005348
   6 H :   -0.011046
   7 H :    0.067994
   8 H :    0.076263
   9 H :    0.012861
  10 H :    0.033737
  11 H :    0.017324
  12 H :    0.020526
  13 H :    0.021462

  Mayer bond orders larger than 0.100000
B(  0-C ,  1-C ) :   1.1143 B(  0-C ,  2-C ) :   1.0099 B(  0-C ,  9-H ) :   0.9227
B(  0-C , 10-H ) :   0.9257 B(  1-C , 11-H ) :   0.9597 B(  1-C , 12-H ) :   0.9733
B(  1-C , 13-H ) :   0.9715 B(  2-C ,  3-N ) :   1.2840 B(  2-C ,  4-C ) :   1.8606
B(  3-N ,  7-H ) :   0.9431 B(  3-N ,  8-H ) :   0.9398 B(  4-C ,  5-H ) :   0.9457
B(  4-C ,  6-H ) :   0.9324

Dispersion correction           -0.017452118
FINAL SINGLE POINT ENERGY      -212.267079241738

DIPOLE MOMENT
-------------
                                X             Y             Z
Electronic contribution:     -1.62055       1.52351       2.38843
Nuclear contribution   :      1.59749      -0.72853      -2.53752
                        -----------------------------------------
Total Dipole Moment    :     -0.02306       0.79498      -0.14909
                        -----------------------------------------
Magnitude (a.u.)       :      0.80917
Magnitude (Debye)      :      2.05674

Rotational constants in cm-1:     0.304597     0.124127     0.096828
Rotational constants in MHz :  9131.600925  3721.227051  2902.830760

                             ****ORCA TERMINATED NORMALLY****
TOTAL RUN TIME: 0 days 0 hours 0 minutes 13 seconds 749 msec
