                         Program Version 5.0.0 -  RELEASE  -
|  1> !B3LYP D3BJ RIJCOSX def2-TZVP def2/J TightSCF xyzfile
|  2>
|  3> *xyzfile 0 1 D2.xyz
|  4>
|  5> %MaxCore 64000
|  6>
|  7> %pal nprocs 18
|  8> end
|  9>
| 10> %scf
| 11>   MaxIter 150
| 12> end
| 13>
| 14>
| 15>                          ****END OF INPUT****

CARTESIAN COORDINATES (ANGSTROEM)
---------------------------------
  C      4.366454   -0.133215   -1.416062
  C      4.508292   -0.931872   -2.724249
  H      4.753716   -1.972051   -2.488408
  C      3.294164   -0.918214   -3.656570
  H      5.385637   -0.536236   -3.242640
  H      2.483463   -1.477378   -3.185764
  H      3.553092   -1.478495   -4.560331
  C      2.772335    0.460100   -4.051448
  H      2.608762    1.065107   -3.155194
  C      1.465354    0.410537   -4.853644
  H      3.532940    0.988848   -4.635671
  C      0.326171   -0.375613   -4.192580
  H      1.666704   -0.022269   -5.839323
  H      1.138198    1.439246   -5.035449
  C     -0.017405    0.080588   -2.778406
  H      0.585573   -1.439385   -4.168057
  H     -0.560005   -0.311425   -4.831461
  H      0.902090    0.201296   -2.206729
  C     -0.903495   -0.873945   -1.987388
  H     -0.479549    1.074657   -2.811915
  H     -0.502554   -1.892096   -2.081204
  H     -1.917039   -0.895427   -2.406277
  C     -0.960148   -0.522365   -0.489867
  H     -1.690392   -1.208130   -0.021677
  H     -1.414490    0.486329   -0.406677
  F      0.261703   -0.580307    0.138611
  C      3.056503   -0.320797   -0.707384
  N      2.389825    0.711285   -0.243909
  C      2.515999   -1.507721   -0.550229
  H      2.967683   -2.322915   -0.956305
  H      1.549872   -1.490634   -0.249876
  H      2.743071    1.649471   -0.412802
  H      1.440364    0.502778    0.037031
  H      4.487835    0.932997   -1.611569
  H      5.169672   -0.414432   -0.729817

 Total Charge           Charge          ....    0
 Multiplicity           Mult            ....    1
 Number of Electrons    NEL             ....  104
 Basis Dimension        Dim             ....  535

ORBITAL ENERGIES
----------------

  NO   OCC          E(Eh)            E(eV)
   0   2.0000     -24.698051      -672.0681
   1   2.0000     -14.287618      -388.7858
   2   2.0000     -10.259300      -279.1697
   3   2.0000     -10.178048      -276.9588
   4   2.0000     -10.166059      -276.6325
   5   2.0000     -10.159878      -276.4643
   6   2.0000     -10.159568      -276.4559
   7   2.0000     -10.158006      -276.4134
   8   2.0000     -10.156740      -276.3790
   9   2.0000     -10.155454      -276.3439
  10   2.0000     -10.152814      -276.2721
  11   2.0000     -10.146962      -276.1129
  12   2.0000     -10.069864      -274.0149
  13   2.0000      -1.237149       -33.6645
  14   2.0000      -0.914648       -24.8888
  15   2.0000      -0.816600       -22.2208
  16   2.0000      -0.794338       -21.6150
  17   2.0000      -0.769384       -20.9360
  18   2.0000      -0.728277       -19.8174
  19   2.0000      -0.697558       -18.9815
  20   2.0000      -0.685026       -18.6405
  21   2.0000      -0.640442       -17.4273
  22   2.0000      -0.616195       -16.7675
  23   2.0000      -0.586016       -15.9463
  24   2.0000      -0.553806       -15.0698
  25   2.0000      -0.544056       -14.8045
  26   2.0000      -0.530295       -14.4300
  27   2.0000      -0.522044       -14.2055
  28   2.0000      -0.508538       -13.8380
  29   2.0000      -0.483022       -13.1437
  30   2.0000      -0.473863       -12.8945
  31   2.0000      -0.460316       -12.5258
  32   2.0000      -0.447834       -12.1862
  33   2.0000      -0.434823       -11.8321
  34   2.0000      -0.427242       -11.6259
  35   2.0000      -0.413116       -11.2415
  36   2.0000      -0.396566       -10.7911
  37   2.0000      -0.388475       -10.5709
  38   2.0000      -0.379836       -10.3359
  39   2.0000      -0.367235        -9.9930
  40   2.0000      -0.363213        -9.8835
  41   2.0000      -0.357864        -9.7380
  42   2.0000      -0.350781        -9.5452
  43   2.0000      -0.346600        -9.4315
  44   2.0000      -0.333154        -9.0656
  45   2.0000      -0.327250        -8.9049
  46   2.0000      -0.315169        -8.5762
  47   2.0000      -0.308189        -8.3862
  48   2.0000      -0.307330        -8.3629
  49   2.0000      -0.300286        -8.1712
  50   2.0000      -0.299023        -8.1368
  51   2.0000      -0.168776        -4.5926
  52   0.0000       0.029612         0.8058
  53   0.0000       0.038591         1.0501
  54   0.0000       0.045594         1.2407
  55   0.0000       0.049540         1.3481
  56   0.0000       0.054287         1.4772

MULLIKEN ATOMIC CHARGES
-----------------------
   0 C :   -0.170744
   1 C :   -0.197006
   2 H :    0.100184
   3 C :   -0.119132
   4 H :    0.081655
   5 H :    0.093588
   6 H :    0.074328
   7 C :   -0.209685
   8 H :    0.083674
   9 C :   -0.125709
  10 H :    0.082343
  11 C :   -0.180594
  12 H :    0.084684
  13 H :    0.080404
  14 C :   -0.210600
  15 H :    0.098751
  16 H :    0.083355
  17 H :    0.115171
  18 C :   -0.163456
  19 H :    0.072413
  20 H :    0.102846
  21 H :    0.096228
  22 C :    0.037748
  23 H :    0.111578
  24 H :    0.094881
  25 F :   -0.238047
  26 C :    0.141291
  27 N :   -0.426552
  28 C :   -0.435628
  29 H :    0.077652
  30 H :    0.131099
  31 H :    0.202923
  32 H :    0.244991
  33 H :    0.077829
  34 H :    0.107537
Sum of atomic charges:    0.0000000

LOEWDIN ATOMIC CHARGES
----------------------
   0 C :   -0.214837
   1 C :   -0.251677
   2 H :    0.135441
   3 C :   -0.264091
   4 H :    0.132186
   5 H :    0.137812
   6 H :    0.131406
   7 C :   -0.264052
   8 H :    0.130334
   9 C :   -0.259815
  10 H :    0.130977
  11 C :   -0.264668
  12 H :    0.133111
  13 H :    0.131626
  14 C :   -0.269569
  15 H :    0.133756
  16 H :    0.130778
  17 H :    0.145727
  18 C :   -0.267730
  19 H :    0.130658
  20 H :    0.139969
  21 H :    0.139646
  22 C :   -0.329639
  23 H :    0.125369
  24 H :    0.123770
  25 F :    0.141477
  26 C :   -0.380737
  27 N :   -0.004657
  28 C :   -0.288105
  29 H :    0.099503
  30 H :    0.094382
  31 H :    0.159373
  32 H :    0.154101
  33 H :    0.131697
  34 H :    0.146481

  Mayer bond orders larger than 0.100000
B(  0-C ,  1-C ) :   0.9697 B(  0-C , 26-C ) :   0.9425 B(  0-C , 33-H ) :   0.9747
B(  0-C , 34-H ) :   0.9689 B(  1-C ,  2-H ) :   0.9733 B(  1-C ,  3-C ) :   0.9715
B(  1-C ,  4-H ) :   0.9689 B(  3-C ,  5-H ) :   0.9640 B(  3-C ,  6-H ) :   0.9635
B(  3-C ,  7-C ) :   0.9438 B(  7-C ,  8-H ) :   0.9747 B(  7-C ,  9-C ) :   0.9683
B(  7-C , 10-H ) :   0.9670 B(  9-C , 11-C ) :   0.9703 B(  9-C , 12-H ) :   0.9699
B(  9-C , 13-H ) :   0.9733 B( 11-C , 14-C ) :   0.9676 B( 11-C , 15-H ) :   0.9753
B( 11-C , 16-H ) :   0.9694 B( 14-C , 17-H ) :   0.9880 B( 14-C , 18-C ) :   0.9609
B( 14-C , 19-H ) :   0.9635 B( 18-C , 20-H ) :   0.9611 B( 18-C , 21-H ) :   0.9520
B( 18-C , 22-C ) :   0.9690 B( 22-C , 23-H ) :   0.9749 B( 22-C , 24-H ) :   0.9745
B( 22-C , 25-F ) :   0.9122 B( 26-C , 27-N ) :   1.1655 B( 26-C , 28-C ) :   1.7213
B( 27-N , 31-H ) :   0.9273 B( 27-N , 32-H ) :   0.8808 B( 28-C , 29-H ) :   1.0067
B( 28-C , 30-H ) :   0.9699

Dispersion correction           -0.064175189
FINAL SINGLE POINT ENERGY      -586.859755499558

DIPOLE MOMENT
-------------
                                X             Y             Z
Electronic contribution:     -2.79108       0.02846      10.70629
Nuclear contribution   :      1.85154       0.58682     -11.15333
                        -----------------------------------------
Total Dipole Moment    :     -0.93955       0.61528      -0.44704
                        -----------------------------------------
Magnitude (a.u.)       :      1.20879
Magnitude (Debye)      :      3.07249

Rotational constants in cm-1:     0.028379     0.022321     0.014415
Rotational constants in MHz :   850.785777   669.176075   432.155504

                             ****ORCA TERMINATED NORMALLY****
TOTAL RUN TIME: 0 days 0 hours 1 minutes 14 seconds 552 msec
