                         Program Version 5.0.0 -  RELEASE  -
|  1> !B3LYP D3BJ RIJCOSX def2-SVPD def2/J TightSCF
|  2> *xyz -1 1
|  3> C         -5.57236       -5.80780       -0.81644
|  4> S         -6.90318       -4.61903       -0.52846
|  5> O         -8.11485       -5.25093       -0.95701
|  6> O         -6.53271       -3.42684       -1.31485
|  7> O         -6.86563       -4.29496        0.91412
|  8> C         -3.82708       -4.66110        0.78617
|  9> C         -4.45780       -5.94187        0.22919
| 10> H         -5.17735       -5.54257       -1.79771
| 11> H         -6.07420       -6.76889       -0.92127
| 12> H         -3.68106       -6.56224       -0.22988
| 13> H         -4.84394       -6.51273        1.07581
| 14> H         -3.43706       -4.07576       -0.02016
| 15> H         -3.03403       -4.91680        1.45744
| 16> H         -4.56975       -4.09647        1.31013
| 17> *
| 18> %MaxCore 64000
| 19>
| 20> %pal nprocs 4
| 21> end
| 22>
| 23> %scf
| 24>   MaxIter 150
| 25> end
| 26>
| 27>                          ****END OF INPUT****

CARTESIAN COORDINATES (ANGSTROEM)
---------------------------------
  C     -5.572360   -5.807800   -0.816440
  S     -6.903180   -4.619030   -0.528460
  O     -8.114850   -5.250930   -0.957010
  O     -6.532710   -3.426840   -1.314850
  O     -6.865630   -4.294960    0.914120
  C     -3.827080   -4.661100    0.786170
  C     -4.457800   -5.941870    0.229190
  H     -5.177350   -5.542570   -1.797710
  H     -6.074200   -6.768890   -0.921270
  H     -3.681060   -6.562240   -0.229880
  H     -4.843940   -6.512730    1.075810
  H     -3.437060   -4.075760   -0.020160
  H     -3.034030   -4.916800    1.457440
  H     -4.569750   -4.096470    1.310130

 Total Charge           Charge          ....   -1
 Multiplicity           Mult            ....    1
 Number of Electrons    NEL             ....   66
 Basis Dimension        Dim             ....  212

ORBITAL ENERGIES
----------------

  NO   OCC          E(Eh)            E(eV)
   0   2.0000     -88.883558     -2418.6446
   1   2.0000     -18.926056      -515.0042
   2   2.0000     -18.913170      -514.6535
   3   2.0000     -18.911919      -514.6195
   4   2.0000     -10.057936      -273.6904
   5   2.0000     -10.048781      -273.4412
   6   2.0000     -10.034087      -273.0414
   7   2.0000      -7.937081      -215.9790
   8   2.0000      -5.906017      -160.7109
   9   2.0000      -5.905904      -160.7078
  10   2.0000      -5.905375      -160.6934
  11   2.0000      -0.930855       -25.3299
  12   2.0000      -0.791314       -21.5328
  13   2.0000      -0.767749       -20.8915
  14   2.0000      -0.649638       -17.6776
  15   2.0000      -0.563647       -15.3376
  16   2.0000      -0.470313       -12.7979
  17   2.0000      -0.379928       -10.3384
  18   2.0000      -0.333318        -9.0701
  19   2.0000      -0.317836        -8.6488
  20   2.0000      -0.295994        -8.0544
  21   2.0000      -0.281055        -7.6479
  22   2.0000      -0.264592        -7.1999
  23   2.0000      -0.253022        -6.8851
  24   2.0000      -0.224726        -6.1151
  25   2.0000      -0.220478        -5.9995
  26   2.0000      -0.206219        -5.6115
  27   2.0000      -0.153263        -4.1705
  28   2.0000      -0.150468        -4.0944
  29   2.0000      -0.119152        -3.2423
  30   2.0000      -0.106956        -2.9104
  31   2.0000      -0.103128        -2.8062
  32   2.0000      -0.066853        -1.8192
  33   0.0000       0.133477         3.6321
  34   0.0000       0.160111         4.3568
  35   0.0000       0.167290         4.5522
  36   0.0000       0.175277         4.7695
  37   0.0000       0.195557         5.3214

MULLIKEN ATOMIC CHARGES
-----------------------
   0 C :    0.204463
   1 S :    1.337843
   2 O :   -0.806156
   3 O :   -0.812713
   4 O :   -0.853042
   5 C :    1.020335
   6 C :   -0.121225
   7 H :   -0.059513
   8 H :   -0.112316
   9 H :   -0.201965
  10 H :   -0.114152
  11 H :   -0.131013
  12 H :   -0.137197
  13 H :   -0.213351
Sum of atomic charges:   -1.0000000

LOEWDIN ATOMIC CHARGES
----------------------
   0 C :   -0.074392
   1 S :    0.876179
   2 O :   -0.570181
   3 O :   -0.596591
   4 O :   -0.582737
   5 C :    0.129846
   6 C :   -0.083425
   7 H :   -0.002086
   8 H :   -0.008633
   9 H :    0.001559
  10 H :    0.012423
  11 H :   -0.021295
  12 H :   -0.037279
  13 H :   -0.043389

  Mayer bond orders larger than 0.100000
B(  0-C ,  1-S ) :   0.8652 B(  0-C ,  6-C ) :   1.2740 B(  0-C ,  7-H ) :   0.8709
B(  0-C ,  8-H ) :   0.8555 B(  0-C ,  9-H ) :   0.1869 B(  0-C , 10-H ) :   0.1561
B(  1-S ,  2-O ) :   1.3463 B(  1-S ,  3-O ) :   1.2449 B(  1-S ,  4-O ) :   1.2318
B(  5-C ,  6-C ) :   1.2613 B(  5-C , 11-H ) :   0.7080 B(  5-C , 12-H ) :   0.6615
B(  5-C , 13-H ) :   0.7717 B(  6-C ,  7-H ) :   0.1497 B(  6-C ,  8-H ) :   0.1633
B(  6-C ,  9-H ) :   0.7989 B(  6-C , 10-H ) :   0.8604 B(  6-C , 11-H ) :   0.2406
B(  6-C , 12-H ) :   0.2524 B(  6-C , 13-H ) :   0.2432

Dispersion correction           -0.022517277
FINAL SINGLE POINT ENERGY      -741.848060506915

DIPOLE MOMENT
-------------
                                X             Y             Z
Electronic contribution:     -9.83428       3.20441      -2.57632
Nuclear contribution   :     11.75544      -4.53524       2.70749
                        -----------------------------------------
Total Dipole Moment    :      1.92116      -1.33083       0.13117
                        -----------------------------------------
Magnitude (a.u.)       :      2.34077
Magnitude (Debye)      :      5.94976

Rotational constants in cm-1:     0.134586     0.054907     0.051455
Rotational constants in MHz :  4034.798577  1646.069534  1542.570153

                             ****ORCA TERMINATED NORMALLY****
TOTAL RUN TIME: 0 days 0 hours 0 minutes 23 seconds 855 msec
