                         Program Version 5.0.0 -  RELEASE  -
|  1> !B3LYP D3BJ RIJCOSX def2-SVPD def2/J TightSCF
|  2> *xyz 1 1
|  3> C         -4.38262       -1.67089        1.21620
|  4> N         -5.76354       -1.91517        0.70501
|  5> C         -3.28173       -2.19127        0.29436
|  6> H         -5.84081       -2.11520       -0.30065
|  7> H         -6.40882       -1.14866        0.93612
|  8> H         -6.17478       -2.79061        1.05143
|  9> H         -4.32862       -2.13922        2.19810
| 10> H         -4.26158       -0.59740        1.35725
| 11> C         -3.47464       -3.60590       -0.25961
| 12> H         -2.35455       -2.12760        0.87143
| 13> H         -3.16661       -1.49969       -0.54504
| 14> H         -2.64612       -3.85908       -0.88759
| 15> H         -4.37934       -3.64545       -0.82956
| 16> H         -3.53324       -4.30157        0.55126
| 17> *
| 18> %MaxCore 64000
| 19>
| 20> %pal nprocs 4
| 21> end
| 22>
| 23> %scf
| 24>   MaxIter 150
| 25> end
| 26>
| 27>                          ****END OF INPUT****

CARTESIAN COORDINATES (ANGSTROEM)
---------------------------------
  C     -4.382620   -1.670890    1.216200
  N     -5.763540   -1.915170    0.705010
  C     -3.281730   -2.191270    0.294360
  H     -5.840810   -2.115200   -0.300650
  H     -6.408820   -1.148660    0.936120
  H     -6.174780   -2.790610    1.051430
  H     -4.328620   -2.139220    2.198100
  H     -4.261580   -0.597400    1.357250
  C     -3.474640   -3.605900   -0.259610
  H     -2.354550   -2.127600    0.871430
  H     -3.166610   -1.499690   -0.545040
  H     -2.646120   -3.859080   -0.887590
  H     -4.379340   -3.645450   -0.829560
  H     -3.533240   -4.301570    0.551260

 Total Charge           Charge          ....    1
 Multiplicity           Mult            ....    1
 Number of Electrons    NEL             ....   34
 Basis Dimension        Dim             ....  160

ORBITAL ENERGIES
----------------

  NO   OCC          E(Eh)            E(eV)
   0   2.0000     -14.659990      -398.9186
   1   2.0000     -10.431097      -283.8446
   2   2.0000     -10.360776      -281.9311
   3   2.0000     -10.333271      -281.1826
   4   2.0000      -1.201919       -32.7059
   5   2.0000      -0.966905       -26.3108
   6   2.0000      -0.884262       -24.0620
   7   2.0000      -0.798453       -21.7270
   8   2.0000      -0.786927       -21.4134
   9   2.0000      -0.766344       -20.8533
  10   2.0000      -0.689590       -18.7647
  11   2.0000      -0.636039       -17.3075
  12   2.0000      -0.607397       -16.5281
  13   2.0000      -0.585006       -15.9188
  14   2.0000      -0.530757       -14.4426
  15   2.0000      -0.526623       -14.3301
  16   2.0000      -0.509170       -13.8552
  17   0.0000      -0.193518        -5.2659
  18   0.0000      -0.140351        -3.8192
  19   0.0000      -0.137365        -3.7379
  20   0.0000      -0.117978        -3.2103
  21   0.0000      -0.093922        -2.5557

MULLIKEN ATOMIC CHARGES
-----------------------
   0 C :    0.826329
   1 N :   -0.766347
   2 C :   -0.252339
   3 H :    0.337391
   4 H :    0.325900
   5 H :    0.404528
   6 H :   -0.123083
   7 H :   -0.118043
   8 C :    1.001288
   9 H :   -0.106675
  10 H :   -0.120400
  11 H :   -0.139890
  12 H :   -0.186764
  13 H :   -0.081897
Sum of atomic charges:    1.0000000

LOEWDIN ATOMIC CHARGES
----------------------
   0 C :    0.104352
   1 N :    0.334896
   2 C :   -0.037277
   3 H :    0.088416
   4 H :    0.107650
   5 H :    0.104241
   6 H :    0.049532
   7 H :    0.047952
   8 C :    0.157149
   9 H :    0.043715
  10 H :    0.032752
  11 H :    0.004821
  12 H :   -0.032538
  13 H :   -0.005660

  Mayer bond orders larger than 0.100000
B(  0-C ,  1-N ) :   0.6498 B(  0-C ,  2-C ) :   1.2245 B(  0-C ,  6-H ) :   0.7584
B(  0-C ,  7-H ) :   0.8465 B(  0-C ,  9-H ) :   0.1566 B(  0-C , 10-H ) :   0.1345
B(  1-N ,  3-H ) :   0.7130 B(  1-N ,  4-H ) :   0.7981 B(  1-N ,  5-H ) :   0.7579
B(  1-N ,  6-H ) :   0.1536 B(  2-C ,  6-H ) :   0.1556 B(  2-C ,  8-C ) :   1.3042
B(  2-C ,  9-H ) :   0.8875 B(  2-C , 10-H ) :   0.8893 B(  2-C , 11-H ) :   0.2512
B(  2-C , 12-H ) :   0.2063 B(  2-C , 13-H ) :   0.2170 B(  8-C , 11-H ) :   0.7157
B(  8-C , 12-H ) :   0.7818 B(  8-C , 13-H ) :   0.7415

Dispersion correction           -0.015253219
FINAL SINGLE POINT ENERGY      -174.621275968525

DIPOLE MOMENT
-------------
                                X             Y             Z
Electronic contribution:     -1.72125       1.31394       0.78688
Nuclear contribution   :     -0.18358      -0.73024      -0.44649
                        -----------------------------------------
Total Dipole Moment    :     -1.90482       0.58370       0.34039
                        -----------------------------------------
Magnitude (a.u.)       :      2.02112
Magnitude (Debye)      :      5.13727

Rotational constants in cm-1:     0.423641     0.164544     0.133152
Rotational constants in MHz : 12700.438743  4932.897948  3991.802402

                             ****ORCA TERMINATED NORMALLY****
TOTAL RUN TIME: 0 days 0 hours 0 minutes 12 seconds 897 msec
