                         Program Version 5.0.0 -  RELEASE  -
|  1> !B3LYP D3BJ RIJCOSX def2-SVPD def2/J TightSCF
|  2> *xyz 0 1
|  3> C         -5.57236       -5.80780       -0.81644
|  4> S         -6.90318       -4.61903       -0.52846
|  5> F         -8.11485       -5.25093       -0.95701
|  6> O         -6.53271       -3.42684       -1.31485
|  7> O         -6.86563       -4.29496        0.91412
|  8> C         -3.82708       -4.66110        0.78617
|  9> C         -4.45780       -5.94187        0.22919
| 10> H         -5.17735       -5.54257       -1.79771
| 11> H         -6.07420       -6.76889       -0.92127
| 12> H         -3.68106       -6.56224       -0.22988
| 13> H         -4.84394       -6.51273        1.07581
| 14> H         -3.43706       -4.07576       -0.02016
| 15> H         -3.03403       -4.91680        1.45744
| 16> H         -4.56975       -4.09647        1.31013
| 17> *
| 18> %MaxCore 64000
| 19>
| 20> %pal nprocs 4
| 21> end
| 22>
| 23> %scf
| 24>   MaxIter 150
| 25> end
| 26>
| 27>                          ****END OF INPUT****

CARTESIAN COORDINATES (ANGSTROEM)
---------------------------------
  C     -5.572360   -5.807800   -0.816440
  S     -6.903180   -4.619030   -0.528460
  F     -8.114850   -5.250930   -0.957010
  O     -6.532710   -3.426840   -1.314850
  O     -6.865630   -4.294960    0.914120
  C     -3.827080   -4.661100    0.786170
  C     -4.457800   -5.941870    0.229190
  H     -5.177350   -5.542570   -1.797710
  H     -6.074200   -6.768890   -0.921270
  H     -3.681060   -6.562240   -0.229880
  H     -4.843940   -6.512730    1.075810
  H     -3.437060   -4.075760   -0.020160
  H     -3.034030   -4.916800    1.457440
  H     -4.569750   -4.096470    1.310130

 Total Charge           Charge          ....    0
 Multiplicity           Mult            ....    1
 Number of Electrons    NEL             ....   66
 Basis Dimension        Dim             ....  212

ORBITAL ENERGIES
----------------

  NO   OCC          E(Eh)            E(eV)
   0   2.0000     -89.139966     -2425.6218
   1   2.0000     -24.821239      -675.4202
   2   2.0000     -19.144115      -520.9379
   3   2.0000     -19.143886      -520.9316
   4   2.0000     -10.248132      -278.8658
   5   2.0000     -10.214621      -277.9540
   6   2.0000     -10.174031      -276.8495
   7   2.0000      -8.194466      -222.9827
   8   2.0000      -6.167480      -167.8257
   9   2.0000      -6.160988      -167.6490
  10   2.0000      -6.159690      -167.6137
  11   2.0000      -1.386813       -37.7371
  12   2.0000      -1.097721       -29.8705
  13   2.0000      -0.995467       -27.0880
  14   2.0000      -0.825439       -22.4613
  15   2.0000      -0.757726       -20.6188
  16   2.0000      -0.711377       -19.3576
  17   2.0000      -0.638951       -17.3867
  18   2.0000      -0.597243       -16.2518
  19   2.0000      -0.585689       -15.9374
  20   2.0000      -0.553027       -15.0486
  21   2.0000      -0.495612       -13.4863
  22   2.0000      -0.483581       -13.1589
  23   2.0000      -0.460057       -12.5188
  24   2.0000      -0.447233       -12.1698
  25   2.0000      -0.422439       -11.4952
  26   2.0000      -0.387982       -10.5575
  27   2.0000      -0.378723       -10.3056
  28   2.0000      -0.371580       -10.1112
  29   2.0000      -0.358414        -9.7529
  30   2.0000      -0.324286        -8.8243
  31   2.0000      -0.323520        -8.8034
  32   2.0000      -0.302930        -8.2431
  33   0.0000      -0.005923        -0.1612
  34   0.0000       0.008627         0.2347
  35   0.0000       0.033553         0.9130
  36   0.0000       0.034447         0.9374
  37   0.0000       0.042932         1.1682

MULLIKEN ATOMIC CHARGES
-----------------------
   0 C :    0.175927
   1 S :    1.524817
   2 F :   -0.435527
   3 O :   -0.666583
   4 O :   -0.719534
   5 C :    1.033710
   6 C :   -0.111779
   7 H :   -0.013634
   8 H :   -0.063165
   9 H :   -0.170056
  10 H :   -0.089735
  11 H :   -0.118049
  12 H :   -0.117714
  13 H :   -0.228678
Sum of atomic charges:    0.0000000

LOEWDIN ATOMIC CHARGES
----------------------
   0 C :   -0.040690
   1 S :    1.140121
   2 F :   -0.256027
   3 O :   -0.481562
   4 O :   -0.478424
   5 C :    0.151488
   6 C :   -0.055281
   7 H :    0.019999
   8 H :    0.008579
   9 H :    0.028247
  10 H :    0.026018
  11 H :   -0.010684
  12 H :   -0.015212
  13 H :   -0.036572

  Mayer bond orders larger than 0.100000
B(  0-C ,  1-S ) :   0.9113 B(  0-C ,  6-C ) :   1.3196 B(  0-C ,  7-H ) :   0.8811
B(  0-C ,  8-H ) :   0.8191 B(  0-C ,  9-H ) :   0.1835 B(  0-C , 10-H ) :   0.1545
B(  1-S ,  2-F ) :   0.6818 B(  1-S ,  3-O ) :   1.4623 B(  1-S ,  4-O ) :   1.4256
B(  5-C ,  6-C ) :   1.2829 B(  5-C , 11-H ) :   0.7090 B(  5-C , 12-H ) :   0.6658
B(  5-C , 13-H ) :   0.7750 B(  6-C ,  7-H ) :   0.1396 B(  6-C ,  8-H ) :   0.1741
B(  6-C ,  9-H ) :   0.7911 B(  6-C , 10-H ) :   0.8584 B(  6-C , 11-H ) :   0.2350
B(  6-C , 12-H ) :   0.2443 B(  6-C , 13-H ) :   0.2323 B( 11-H , 13-H ) :   0.1002

Dispersion correction           -0.021757996
FINAL SINGLE POINT ENERGY      -766.327109825848

DIPOLE MOMENT
-------------
                                X             Y             Z
Electronic contribution:    -13.36081       2.42221      -3.88177
Nuclear contribution   :     13.81909      -4.05404       3.42760
                        -----------------------------------------
Total Dipole Moment    :      0.45828      -1.63183      -0.45417
                        -----------------------------------------
Magnitude (a.u.)       :      1.75475
Magnitude (Debye)      :      4.46023

Rotational constants in cm-1:     0.132500     0.053014     0.049575
Rotational constants in MHz :  3972.256497  1589.318970  1486.215991

                             ****ORCA TERMINATED NORMALLY****
TOTAL RUN TIME: 0 days 0 hours 0 minutes 23 seconds 352 msec
