                         Program Version 5.0.0 -  RELEASE  -
|  1> !B3LYP D3BJ RIJCOSX def2-SVPD def2/J TightSCF
|  2> *xyz 0 1
|  3> C         -4.38262       -1.67089        1.21620
|  4> C         -5.76354       -1.91517        0.70501
|  5> C         -3.28173       -2.19127        0.29436
|  6> H         -5.84081       -2.11520       -0.30065
|  7> H         -6.40882       -1.14866        0.93612
|  8> H         -6.17478       -2.79061        1.05143
|  9> H         -4.32862       -2.13922        2.19810
| 10> H         -4.26158       -0.59740        1.35725
| 11> C         -3.47464       -3.60590       -0.25961
| 12> H         -2.35455       -2.12760        0.87143
| 13> H         -3.16661       -1.49969       -0.54504
| 14> H         -2.64612       -3.85908       -0.88759
| 15> H         -4.37934       -3.64545       -0.82956
| 16> H         -3.53324       -4.30157        0.55126
| 17> *
| 18> %MaxCore 64000
| 19>
| 20> %pal nprocs 4
| 21> end
| 22>
| 23> %scf
| 24>   MaxIter 150
| 25> end
| 26>
| 27>                          ****END OF INPUT****

CARTESIAN COORDINATES (ANGSTROEM)
---------------------------------
  C     -4.382620   -1.670890    1.216200
  C     -5.763540   -1.915170    0.705010
  C     -3.281730   -2.191270    0.294360
  H     -5.840810   -2.115200   -0.300650
  H     -6.408820   -1.148660    0.936120
  H     -6.174780   -2.790610    1.051430
  H     -4.328620   -2.139220    2.198100
  H     -4.261580   -0.597400    1.357250
  C     -3.474640   -3.605900   -0.259610
  H     -2.354550   -2.127600    0.871430
  H     -3.166610   -1.499690   -0.545040
  H     -2.646120   -3.859080   -0.887590
  H     -4.379340   -3.645450   -0.829560
  H     -3.533240   -4.301570    0.551260

 Total Charge           Charge          ....    0
 Multiplicity           Mult            ....    1
 Number of Electrons    NEL             ....   34
 Basis Dimension        Dim             ....  160

ORBITAL ENERGIES
----------------

  NO   OCC          E(Eh)            E(eV)
   0   2.0000     -10.172405      -276.8052
   1   2.0000     -10.169116      -276.7157
   2   2.0000     -10.163566      -276.5647
   3   2.0000     -10.144513      -276.0462
   4   2.0000      -0.791962       -21.5504
   5   2.0000      -0.720644       -19.6097
   6   2.0000      -0.644412       -17.5353
   7   2.0000      -0.560757       -15.2590
   8   2.0000      -0.464722       -12.6457
   9   2.0000      -0.459652       -12.5078
  10   2.0000      -0.417950       -11.3730
  11   2.0000      -0.396086       -10.7781
  12   2.0000      -0.384132       -10.4528
  13   2.0000      -0.359614        -9.7856
  14   2.0000      -0.329194        -8.9578
  15   2.0000      -0.322042        -8.7632
  16   2.0000      -0.313138        -8.5209
  17   0.0000       0.022722         0.6183
  18   0.0000       0.048257         1.3131
  19   0.0000       0.052845         1.4380
  20   0.0000       0.064847         1.7646
  21   0.0000       0.089294         2.4298

MULLIKEN ATOMIC CHARGES
-----------------------
   0 C :   -0.017621
   1 C :    1.257995
   2 C :   -0.148724
   3 H :   -0.428241
   4 H :   -0.447299
   5 H :   -0.156574
   6 H :   -0.170747
   7 H :   -0.138112
   8 C :    0.921621
   9 H :   -0.161544
  10 H :   -0.096434
  11 H :   -0.145891
  12 H :   -0.138441
  13 H :   -0.129988
Sum of atomic charges:   -0.0000000

LOEWDIN ATOMIC CHARGES
----------------------
   0 C :   -0.058176
   1 C :    0.126552
   2 C :   -0.072618
   3 H :   -0.047997
   4 H :   -0.036293
   5 H :   -0.034019
   6 H :    0.017569
   7 H :    0.016072
   8 C :    0.133845
   9 H :    0.011740
  10 H :    0.017257
  11 H :   -0.022523
  12 H :   -0.033052
  13 H :   -0.018358

  Mayer bond orders larger than 0.100000
B(  0-C ,  1-C ) :   1.2312 B(  0-C ,  2-C ) :   1.2382 B(  0-C ,  3-H ) :   0.2858
B(  0-C ,  4-H ) :   0.2099 B(  0-C ,  5-H ) :   0.2591 B(  0-C ,  6-H ) :   0.7863
B(  0-C ,  7-H ) :   0.8359 B(  0-C ,  9-H ) :   0.1990 B(  0-C , 10-H ) :   0.1589
B(  1-C ,  2-C ) :   0.1007 B(  1-C ,  3-H ) :   0.5210 B(  1-C ,  4-H ) :   0.6377
B(  1-C ,  5-H ) :   0.5127 B(  1-C ,  6-H ) :   0.1423 B(  2-C ,  6-H ) :   0.1582
B(  2-C ,  8-C ) :   1.3162 B(  2-C ,  9-H ) :   0.8370 B(  2-C , 10-H ) :   0.8426
B(  2-C , 11-H ) :   0.2487 B(  2-C , 12-H ) :   0.2186 B(  2-C , 13-H ) :   0.2139
B(  3-H ,  5-H ) :   0.3300 B(  8-C , 10-H ) :   0.1019 B(  8-C , 11-H ) :   0.6842
B(  8-C , 12-H ) :   0.7973 B(  8-C , 13-H ) :   0.7494 B( 12-H , 13-H ) :   0.1022

Dispersion correction           -0.015367541
FINAL SINGLE POINT ENERGY      -158.221653706355

DIPOLE MOMENT
-------------
                                X             Y             Z
Electronic contribution:      0.63790       0.59549       0.37841
Nuclear contribution   :     -0.64996      -0.59433      -0.37777
                        -----------------------------------------
Total Dipole Moment    :     -0.01206       0.00117       0.00063
                        -----------------------------------------
Magnitude (a.u.)       :      0.01213
Magnitude (Debye)      :      0.03084

Rotational constants in cm-1:     0.431358     0.171688     0.138554
Rotational constants in MHz : 12931.797515  5147.084397  4153.759343

                             ****ORCA TERMINATED NORMALLY****
TOTAL RUN TIME: 0 days 0 hours 0 minutes 11 seconds 688 msec
