                         Program Version 5.0.0 -  RELEASE  -
|  1> !B3LYP D3BJ RIJCOSX def2-SVPD def2/J TightSCF
|  2> *xyz 0 1
|  3> C         -5.57236       -5.80780       -0.81644
|  4> S         -6.90318       -4.61903       -0.52846
|  5> O         -8.11485       -5.25093       -0.95701
|  6> F         -6.53271       -3.42684       -1.31485
|  7> O         -6.86563       -4.29496        0.91412
|  8> C         -3.82708       -4.66110        0.78617
|  9> C         -4.45780       -5.94187        0.22919
| 10> H         -5.17735       -5.54257       -1.79771
| 11> H         -6.07420       -6.76889       -0.92127
| 12> H         -3.68106       -6.56224       -0.22988
| 13> H         -4.84394       -6.51273        1.07581
| 14> H         -3.43706       -4.07576       -0.02016
| 15> H         -3.03403       -4.91680        1.45744
| 16> H         -4.56975       -4.09647        1.31013
| 17> *
| 18> %MaxCore 64000
| 19>
| 20> %pal nprocs 4
| 21> end
| 22>
| 23> %scf
| 24>   MaxIter 150
| 25> end
| 26>
| 27>                          ****END OF INPUT****

CARTESIAN COORDINATES (ANGSTROEM)
---------------------------------
  C     -5.572360   -5.807800   -0.816440
  S     -6.903180   -4.619030   -0.528460
  O     -8.114850   -5.250930   -0.957010
  F     -6.532710   -3.426840   -1.314850
  O     -6.865630   -4.294960    0.914120
  C     -3.827080   -4.661100    0.786170
  C     -4.457800   -5.941870    0.229190
  H     -5.177350   -5.542570   -1.797710
  H     -6.074200   -6.768890   -0.921270
  H     -3.681060   -6.562240   -0.229880
  H     -4.843940   -6.512730    1.075810
  H     -3.437060   -4.075760   -0.020160
  H     -3.034030   -4.916800    1.457440
  H     -4.569750   -4.096470    1.310130

 Total Charge           Charge          ....    0
 Multiplicity           Mult            ....    1
 Number of Electrons    NEL             ....   66
 Basis Dimension        Dim             ....  212

ORBITAL ENERGIES
----------------

  NO   OCC          E(Eh)            E(eV)
   0   2.0000     -89.138081     -2425.5705
   1   2.0000     -24.799897      -674.8395
   2   2.0000     -19.157942      -521.3141
   3   2.0000     -19.143352      -520.9171
   4   2.0000     -10.247570      -278.8505
   5   2.0000     -10.214255      -277.9440
   6   2.0000     -10.180100      -277.0146
   7   2.0000      -8.192480      -222.9287
   8   2.0000      -6.165353      -167.7678
   9   2.0000      -6.159208      -167.6006
  10   2.0000      -6.157870      -167.5642
  11   2.0000      -1.349942       -36.7338
  12   2.0000      -1.114201       -30.3190
  13   2.0000      -1.011502       -27.5244
  14   2.0000      -0.826171       -22.4813
  15   2.0000      -0.750783       -20.4298
  16   2.0000      -0.702060       -19.1040
  17   2.0000      -0.635096       -17.2818
  18   2.0000      -0.573103       -15.5949
  19   2.0000      -0.568579       -15.4718
  20   2.0000      -0.553444       -15.0600
  21   2.0000      -0.500137       -13.6094
  22   2.0000      -0.481891       -13.1129
  23   2.0000      -0.458811       -12.4849
  24   2.0000      -0.450507       -12.2589
  25   2.0000      -0.436851       -11.8873
  26   2.0000      -0.394404       -10.7323
  27   2.0000      -0.383066       -10.4238
  28   2.0000      -0.378097       -10.2885
  29   2.0000      -0.361687        -9.8420
  30   2.0000      -0.338020        -9.1980
  31   2.0000      -0.326991        -8.8979
  32   2.0000      -0.312711        -8.5093
  33   0.0000      -0.003961        -0.1078
  34   0.0000       0.011853         0.3225
  35   0.0000       0.028225         0.7680
  36   0.0000       0.033896         0.9224
  37   0.0000       0.044696         1.2162

MULLIKEN ATOMIC CHARGES
-----------------------
   0 C :    0.172004
   1 S :    1.479198
   2 O :   -0.663015
   3 F :   -0.403486
   4 O :   -0.717918
   5 C :    1.030260
   6 C :   -0.082645
   7 H :   -0.013973
   8 H :   -0.072114
   9 H :   -0.168260
  10 H :   -0.089579
  11 H :   -0.129610
  12 H :   -0.112093
  13 H :   -0.228768
Sum of atomic charges:   -0.0000000

LOEWDIN ATOMIC CHARGES
----------------------
   0 C :   -0.034357
   1 S :    1.135617
   2 O :   -0.457189
   3 F :   -0.274979
   4 O :   -0.474834
   5 C :    0.145828
   6 C :   -0.059865
   7 H :    0.015072
   8 H :    0.021235
   9 H :    0.026310
  10 H :    0.028282
  11 H :   -0.015753
  12 H :   -0.014426
  13 H :   -0.040941

  Mayer bond orders larger than 0.100000
B(  0-C ,  1-S ) :   0.9226 B(  0-C ,  6-C ) :   1.3100 B(  0-C ,  7-H ) :   0.8550
B(  0-C ,  8-H ) :   0.8633 B(  0-C ,  9-H ) :   0.1779 B(  0-C , 10-H ) :   0.1606
B(  1-S ,  2-O ) :   1.5693 B(  1-S ,  3-F ) :   0.6173 B(  1-S ,  4-O ) :   1.4605
B(  5-C ,  6-C ) :   1.2815 B(  5-C , 11-H ) :   0.7077 B(  5-C , 12-H ) :   0.6746
B(  5-C , 13-H ) :   0.7750 B(  6-C ,  7-H ) :   0.1469 B(  6-C ,  8-H ) :   0.1533
B(  6-C ,  9-H ) :   0.7927 B(  6-C , 10-H ) :   0.8590 B(  6-C , 11-H ) :   0.2301
B(  6-C , 12-H ) :   0.2420 B(  6-C , 13-H ) :   0.2293

Dispersion correction           -0.021666664
FINAL SINGLE POINT ENERGY      -766.345544891309

DIPOLE MOMENT
-------------
                                X             Y             Z
Electronic contribution:    -10.63547       5.55581      -4.49781
Nuclear contribution   :     12.11759      -6.01574       3.81244
                        -----------------------------------------
Total Dipole Moment    :      1.48211      -0.45993      -0.68537
                        -----------------------------------------
Magnitude (a.u.)       :      1.69645
Magnitude (Debye)      :      4.31202

Rotational constants in cm-1:     0.128152     0.053825     0.050608
Rotational constants in MHz :  3841.897096  1613.621976  1517.196867

                             ****ORCA TERMINATED NORMALLY****
TOTAL RUN TIME: 0 days 0 hours 0 minutes 23 seconds 788 msec
