                         Program Version 5.0.0 -  RELEASE  -
|  1> !B3LYP D3BJ RIJCOSX def2-SVPD def2/J TightSCF
|  2> *xyz 0 1
|  3> C         -5.57236       -5.80780       -0.81644
|  4> S         -6.90318       -4.61903       -0.52846
|  5> O         -8.11485       -5.25093       -0.95701
|  6> O         -6.53271       -3.42684       -1.31485
|  7> F         -6.86563       -4.29496        0.91412
|  8> C         -3.82708       -4.66110        0.78617
|  9> C         -4.45780       -5.94187        0.22919
| 10> H         -5.17735       -5.54257       -1.79771
| 11> H         -6.07420       -6.76889       -0.92127
| 12> H         -3.68106       -6.56224       -0.22988
| 13> H         -4.84394       -6.51273        1.07581
| 14> H         -3.43706       -4.07576       -0.02016
| 15> H         -3.03403       -4.91680        1.45744
| 16> H         -4.56975       -4.09647        1.31013
| 17> *
| 18> %MaxCore 64000
| 19>
| 20> %pal nprocs 4
| 21> end
| 22>
| 23> %scf
| 24>   MaxIter 150
| 25> end
| 26>
| 27>                          ****END OF INPUT****

CARTESIAN COORDINATES (ANGSTROEM)
---------------------------------
  C     -5.572360   -5.807800   -0.816440
  S     -6.903180   -4.619030   -0.528460
  O     -8.114850   -5.250930   -0.957010
  O     -6.532710   -3.426840   -1.314850
  F     -6.865630   -4.294960    0.914120
  C     -3.827080   -4.661100    0.786170
  C     -4.457800   -5.941870    0.229190
  H     -5.177350   -5.542570   -1.797710
  H     -6.074200   -6.768890   -0.921270
  H     -3.681060   -6.562240   -0.229880
  H     -4.843940   -6.512730    1.075810
  H     -3.437060   -4.075760   -0.020160
  H     -3.034030   -4.916800    1.457440
  H     -4.569750   -4.096470    1.310130

 Total Charge           Charge          ....    0
 Multiplicity           Mult            ....    1
 Number of Electrons    NEL             ....   66
 Basis Dimension        Dim             ....  212

ORBITAL ENERGIES
----------------

  NO   OCC          E(Eh)            E(eV)
   0   2.0000     -89.136848     -2425.5369
   1   2.0000     -24.798717      -674.8074
   2   2.0000     -19.157135      -521.2921
   3   2.0000     -19.142075      -520.8823
   4   2.0000     -10.246434      -278.8197
   5   2.0000     -10.220792      -278.1219
   6   2.0000     -10.190475      -277.2969
   7   2.0000      -8.191279      -222.8960
   8   2.0000      -6.164220      -167.7370
   9   2.0000      -6.158025      -167.5684
  10   2.0000      -6.156592      -167.5294
  11   2.0000      -1.347404       -36.6647
  12   2.0000      -1.114104       -30.3163
  13   2.0000      -1.010891       -27.5077
  14   2.0000      -0.830217       -22.5913
  15   2.0000      -0.751745       -20.4560
  16   2.0000      -0.703438       -19.1415
  17   2.0000      -0.641274       -17.4500
  18   2.0000      -0.579816       -15.7776
  19   2.0000      -0.570184       -15.5155
  20   2.0000      -0.542946       -14.7743
  21   2.0000      -0.499347       -13.5879
  22   2.0000      -0.477250       -12.9866
  23   2.0000      -0.472030       -12.8446
  24   2.0000      -0.452410       -12.3107
  25   2.0000      -0.436877       -11.8880
  26   2.0000      -0.397847       -10.8260
  27   2.0000      -0.389913       -10.6101
  28   2.0000      -0.383609       -10.4385
  29   2.0000      -0.367864       -10.0101
  30   2.0000      -0.337434        -9.1821
  31   2.0000      -0.325120        -8.8470
  32   2.0000      -0.313690        -8.5359
  33   0.0000      -0.011294        -0.3073
  34   0.0000       0.022279         0.6062
  35   0.0000       0.029665         0.8072
  36   0.0000       0.034152         0.9293
  37   0.0000       0.040551         1.1034

MULLIKEN ATOMIC CHARGES
-----------------------
   0 C :    0.201220
   1 S :    1.450725
   2 O :   -0.662588
   3 O :   -0.674687
   4 F :   -0.432043
   5 C :    1.041886
   6 C :   -0.095882
   7 H :   -0.016947
   8 H :   -0.064459
   9 H :   -0.156918
  10 H :   -0.113720
  11 H :   -0.119068
  12 H :   -0.108728
  13 H :   -0.248790
Sum of atomic charges:   -0.0000000

LOEWDIN ATOMIC CHARGES
----------------------
   0 C :   -0.029338
   1 S :    1.128443
   2 O :   -0.457442
   3 O :   -0.483359
   4 F :   -0.275919
   5 C :    0.147608
   6 C :   -0.067134
   7 H :    0.028212
   8 H :    0.015920
   9 H :    0.027526
  10 H :    0.022729
  11 H :   -0.008037
  12 H :   -0.013210
  13 H :   -0.035997

  Mayer bond orders larger than 0.100000
B(  0-C ,  1-S ) :   0.9349 B(  0-C ,  6-C ) :   1.2827 B(  0-C ,  7-H ) :   0.8673
B(  0-C ,  8-H ) :   0.8615 B(  0-C ,  9-H ) :   0.1818 B(  0-C , 10-H ) :   0.1494
B(  1-S ,  2-O ) :   1.5522 B(  1-S ,  3-O ) :   1.4724 B(  1-S ,  4-F ) :   0.6270
B(  5-C ,  6-C ) :   1.2802 B(  5-C , 11-H ) :   0.7148 B(  5-C , 12-H ) :   0.6680
B(  5-C , 13-H ) :   0.7662 B(  6-C ,  7-H ) :   0.1483 B(  6-C ,  8-H ) :   0.1588
B(  6-C ,  9-H ) :   0.7887 B(  6-C , 10-H ) :   0.8719 B(  6-C , 11-H ) :   0.2393
B(  6-C , 12-H ) :   0.2434 B(  6-C , 13-H ) :   0.2278 B( 11-H , 13-H ) :   0.1096

Dispersion correction           -0.021543310
FINAL SINGLE POINT ENERGY      -766.345565586536

DIPOLE MOMENT
-------------
                                X             Y             Z
Electronic contribution:    -11.13565       4.03202      -0.68217
Nuclear contribution   :     12.47562      -5.08213       1.41531
                        -----------------------------------------
Total Dipole Moment    :      1.33997      -1.05010       0.73314
                        -----------------------------------------
Magnitude (a.u.)       :      1.85357
Magnitude (Debye)      :      4.71140

Rotational constants in cm-1:     0.128398     0.054249     0.051014
Rotational constants in MHz :  3849.278549  1626.338413  1529.351405

                             ****ORCA TERMINATED NORMALLY****
TOTAL RUN TIME: 0 days 0 hours 0 minutes 23 seconds 451 msec
