                         Program Version 5.0.0 -  RELEASE  -
|  1> !B3LYP D3BJ RIJCOSX def2-SVPD def2/J TightSCF xyzfile
|  2>
|  3> *xyzfile 0 1 D2.xyz
|  4>
|  5> %MaxCore 64000
|  6>
|  7> %pal nprocs 4
|  8> end
|  9>
| 10> %scf
| 11>   MaxIter 150
| 12> end
| 13>
| 14>
| 15>                          ****END OF INPUT****

CARTESIAN COORDINATES (ANGSTROEM)
---------------------------------
  C     -4.382623   -1.670889    1.216201
  C     -5.763539   -1.915170    0.705012
  C     -3.281728   -2.191272    0.294361
  C     -5.572364   -5.807798   -0.816445
  S     -6.903179   -4.619033   -0.528458
  H     -5.840812   -2.115205   -0.300646
  H     -6.408823   -1.148656    0.936124
  H     -6.174781   -2.790606    1.051433
  O     -8.114853   -5.250932   -0.957007
  F     -6.532715   -3.426838   -1.314848
  H     -4.328618   -2.139223    2.198103
  H     -4.261583   -0.597399    1.357248
  O     -6.865632   -4.294957    0.914118
  C     -3.474641   -3.605898   -0.259608
  H     -2.354548   -2.127602    0.871433
  H     -3.166611   -1.499693   -0.545037
  C     -3.827078   -4.661097    0.786174
  H     -2.560559   -3.889391   -0.788050
  H     -4.255932   -3.570040   -1.019300
  C     -4.457800   -5.941875    0.229195
  H     -5.177347   -5.542575   -1.797714
  H     -6.074202   -6.768894   -0.921272
  H     -4.530506   -4.253640    1.511979
  H     -2.933400   -4.932302    1.356825
  H     -3.681064   -6.562236   -0.229885
  H     -4.843942   -6.512728    1.075805

 Total Charge           Charge          ....    0
 Multiplicity           Mult            ....    1
 Number of Electrons    NEL             ....   98
 Basis Dimension        Dim             ....  356

ORBITAL ENERGIES
----------------

  NO   OCC          E(Eh)            E(eV)
   0   2.0000     -89.144447     -2425.7437
   1   2.0000     -24.804142      -674.9550
   2   2.0000     -19.162307      -521.4329
   3   2.0000     -19.147714      -521.0358
   4   2.0000     -10.249165      -278.8940
   5   2.0000     -10.212778      -277.9038
   6   2.0000     -10.186642      -277.1926
   7   2.0000     -10.184932      -277.1461
   8   2.0000     -10.173840      -276.8443
   9   2.0000     -10.160851      -276.4908
  10   2.0000     -10.112514      -275.1755
  11   2.0000      -8.197787      -223.0731
  12   2.0000      -6.170676      -167.9126
  13   2.0000      -6.164657      -167.7489
  14   2.0000      -6.163200      -167.7092
  15   2.0000      -1.357734       -36.9458
  16   2.0000      -1.119837       -30.4723
  17   2.0000      -1.020483       -27.7688
  18   2.0000      -0.834379       -22.7046
  19   2.0000      -0.799081       -21.7441
  20   2.0000      -0.752805       -20.4849
  21   2.0000      -0.728483       -19.8230
  22   2.0000      -0.693187       -18.8626
  23   2.0000      -0.653136       -17.7727
  24   2.0000      -0.616565       -16.7776
  25   2.0000      -0.585596       -15.9349
  26   2.0000      -0.573311       -15.6006
  27   2.0000      -0.556636       -15.1468
  28   2.0000      -0.551903       -15.0180
  29   2.0000      -0.500708       -13.6250
  30   2.0000      -0.491703       -13.3799
  31   2.0000      -0.473734       -12.8910
  32   2.0000      -0.467511       -12.7216
  33   2.0000      -0.456800       -12.4301
  34   2.0000      -0.440305       -11.9813
  35   2.0000      -0.426615       -11.6088
  36   2.0000      -0.407147       -11.0790
  37   2.0000      -0.398218       -10.8361
  38   2.0000      -0.392700       -10.6859
  39   2.0000      -0.388779       -10.5792
  40   2.0000      -0.361857        -9.8466
  41   2.0000      -0.355854        -9.6833
  42   2.0000      -0.354714        -9.6523
  43   2.0000      -0.339114        -9.2278
  44   2.0000      -0.330628        -8.9968
  45   2.0000      -0.323134        -8.7929
  46   2.0000      -0.313404        -8.5282
  47   2.0000      -0.312581        -8.5058
  48   2.0000      -0.278098        -7.5674
  49   0.0000      -0.002941        -0.0800
  50   0.0000       0.009571         0.2604
  51   0.0000       0.019911         0.5418
  52   0.0000       0.028107         0.7648
  53   0.0000       0.036128         0.9831

MULLIKEN ATOMIC CHARGES
-----------------------
   0 C :    0.141768
   1 C :    2.133077
   2 C :    0.621460
   3 C :    0.371834
   4 S :    1.527509
   5 H :   -0.480099
   6 H :   -0.497752
   7 H :   -0.934571
   8 O :   -0.697294
   9 F :   -0.457605
  10 H :    0.068908
  11 H :   -0.513882
  12 O :   -0.761995
  13 C :    0.268694
  14 H :   -0.144613
  15 H :   -0.028642
  16 C :    0.197779
  17 H :   -0.423668
  18 H :   -0.142643
  19 C :    0.676034
  20 H :    0.072112
  21 H :   -0.399715
  22 H :   -0.070765
  23 H :   -0.318737
  24 H :   -0.112681
  25 H :   -0.094511
Sum of atomic charges:    0.0000000

LOEWDIN ATOMIC CHARGES
----------------------
   0 C :   -0.035567
   1 C :    0.144000
   2 C :   -0.018001
   3 C :   -0.024845
   4 S :    1.174137
   5 H :   -0.080019
   6 H :   -0.019888
   7 H :   -0.138981
   8 O :   -0.442429
   9 F :   -0.278615
  10 H :    0.015597
  11 H :    0.013543
  12 O :   -0.446454
  13 C :   -0.007973
  14 H :    0.015278
  15 H :    0.021844
  16 C :   -0.004264
  17 H :    0.022795
  18 H :   -0.019187
  19 C :   -0.010630
  20 H :    0.015008
  21 H :    0.020076
  22 H :   -0.005242
  23 H :    0.029510
  24 H :    0.029971
  25 H :    0.030340

  Mayer bond orders larger than 0.100000
B(  0-C ,  1-C ) :   1.0420 B(  0-C ,  2-C ) :   1.1286 B(  0-C ,  5-H ) :   0.3590
B(  0-C ,  6-H ) :   0.1054 B(  0-C ,  7-H ) :   0.4264 B(  0-C , 10-H ) :   0.6463
B(  0-C , 11-H ) :   0.9371 B(  0-C , 14-H ) :   0.1883 B(  0-C , 15-H ) :   0.1839
B(  0-C , 16-C ) :   0.1004 B(  1-C ,  2-C ) :   0.1899 B(  1-C ,  5-H ) :  -0.2361
B(  1-C ,  6-H ) :   0.3579 B(  1-C ,  7-H ) :  -0.6713 B(  1-C , 10-H ) :   0.2242
B(  1-C , 17-H ) :   0.1338 B(  2-C , 10-H ) :   0.1496 B(  2-C , 13-C ) :   1.2362
B(  2-C , 14-H ) :   0.6976 B(  2-C , 15-H ) :   0.5884 B(  2-C , 17-H ) :   0.1113
B(  2-C , 18-H ) :   0.1378 B(  3-C ,  4-S ) :   0.9116 B(  3-C ,  8-O ) :   0.1046
B(  3-C , 16-C ) :   0.1193 B(  3-C , 19-C ) :   1.1850 B(  3-C , 20-H ) :   0.8276
B(  3-C , 21-H ) :   0.8162 B(  3-C , 24-H ) :   0.1580 B(  3-C , 25-H ) :   0.1441
B(  4-S ,  8-O ) :   1.5888 B(  4-S ,  9-F ) :   0.5795 B(  4-S , 12-O ) :   1.4127
B(  5-H ,  6-H ) :  -0.1276 B(  5-H ,  7-H ) :   1.0233 B(  5-H ,  9-F ) :   0.1674
B(  5-H , 11-H ) :   0.1631 B(  5-H , 17-H ) :  -0.1182 B(  5-H , 18-H ) :   0.1599
B(  6-H ,  7-H ) :   0.1669 B(  6-H , 11-H ) :  -0.1556 B(  6-H , 17-H ) :   0.1312
B(  6-H , 18-H ) :  -0.1533 B(  7-H ,  9-F ) :   0.1055 B(  7-H , 10-H ) :  -0.1361
B(  7-H , 11-H ) :   0.1119 B(  7-H , 12-O ) :   0.1254 B(  7-H , 17-H ) :  -0.1513
B(  9-F , 12-O ) :   0.1176 B( 10-H , 11-H ) :  -0.2646 B( 10-H , 22-H ) :   0.1566
B( 11-H , 14-H ) :   0.1185 B( 13-C , 14-H ) :   0.1980 B( 13-C , 15-H ) :   0.2881
B( 13-C , 16-C ) :   1.1789 B( 13-C , 17-H ) :   0.7691 B( 13-C , 18-H ) :   0.7492
B( 13-C , 22-H ) :   0.1296 B( 13-C , 23-H ) :   0.1764 B( 14-H , 15-H ) :  -0.1324
B( 16-C , 17-H ) :   0.2055 B( 16-C , 18-H ) :   0.1900 B( 16-C , 19-C ) :   1.2481
B( 16-C , 22-H ) :   0.8529 B( 16-C , 23-H ) :   0.7314 B( 16-C , 24-H ) :   0.1480
B( 16-C , 25-H ) :   0.2863 B( 19-C , 20-H ) :   0.1031 B( 19-C , 21-H ) :   0.2082
B( 19-C , 24-H ) :   0.6886 B( 19-C , 25-H ) :   0.5990 B( 24-H , 25-H ) :  -0.1104

Dispersion correction           -0.050390772
FINAL SINGLE POINT ENERGY      -923.348259231339

DIPOLE MOMENT
-------------
                                X             Y             Z
Electronic contribution:    -15.93731      -5.39188      -7.21193
Nuclear contribution   :     17.25367       4.78608       6.55647
                        -----------------------------------------
Total Dipole Moment    :      1.31636      -0.60580      -0.65546
                        -----------------------------------------
Magnitude (a.u.)       :      1.59042
Magnitude (Debye)      :      4.04253

Rotational constants in cm-1:     0.048508     0.025517     0.020225
Rotational constants in MHz :  1454.219007   764.979652   606.316599

                             ****ORCA TERMINATED NORMALLY****
TOTAL RUN TIME: 0 days 0 hours 1 minutes 42 seconds 597 msec
