                         Program Version 5.0.0 -  RELEASE  -
|  1> !TPSS D3BJ RIJCOSX def2-TZVP def2/J TightSCF
|  2> *xyz -1 1
|  3> C         -0.72184       -0.99951       -3.43931
|  4> C          0.28725       -1.71177       -2.52740
|  5> H          1.13178       -2.06738       -3.15940
|  6> H         -0.20414       -2.63733       -2.17048
|  7> O          0.71050       -0.92751       -1.48177
|  8> H         -1.01315       -1.65739       -4.23129
|  9> H         -0.27123       -0.12142       -3.85259
| 10> H         -1.58442       -0.72333       -2.86958
| 11> *
| 12> %MaxCore 64000
| 13>
| 14> %pal nprocs 4
| 15> end
| 16>
| 17> %scf
| 18>   MaxIter 150
| 19> end
| 20>
| 21>
| 22>                          ****END OF INPUT****

CARTESIAN COORDINATES (ANGSTROEM)
---------------------------------
  C     -0.721840   -0.999510   -3.439310
  C      0.287250   -1.711770   -2.527400
  H      1.131780   -2.067380   -3.159400
  H     -0.204140   -2.637330   -2.170480
  O      0.710500   -0.927510   -1.481770
  H     -1.013150   -1.657390   -4.231290
  H     -0.271230   -0.121420   -3.852590
  H     -1.584420   -0.723330   -2.869580

 Total Charge           Charge          ....   -1
 Multiplicity           Mult            ....    1
 Number of Electrons    NEL             ....   26
 Basis Dimension        Dim             ....  123

ORBITAL ENERGIES
----------------

  NO   OCC          E(Eh)            E(eV)
   0   2.0000     -18.532941      -504.3070
   1   2.0000      -9.787700      -266.3369
   2   2.0000      -9.768255      -265.8077
   3   2.0000      -0.599670       -16.3178
   4   2.0000      -0.464252       -12.6329
   5   2.0000      -0.317003        -8.6261
   6   2.0000      -0.201636        -5.4868
   7   2.0000      -0.180714        -4.9175
   8   2.0000      -0.125418        -3.4128
   9   2.0000      -0.111444        -3.0326
  10   2.0000      -0.056773        -1.5449
  11   2.0000       0.083413         2.2698
  12   2.0000       0.086256         2.3471
  13   0.0000       0.208889         5.6842
  14   0.0000       0.243856         6.6357
  15   0.0000       0.267734         7.2854
  16   0.0000       0.271216         7.3802
  17   0.0000       0.303996         8.2722

MULLIKEN ATOMIC CHARGES
-----------------------
   0 C :   -0.090809
   1 C :    0.054037
   2 H :   -0.084381
   3 H :   -0.082384
   4 O :   -0.759325
   5 H :   -0.058959
   6 H :    0.009451
   7 H :    0.012370
Sum of atomic charges:   -1.0000000

LOEWDIN ATOMIC CHARGES
----------------------
   0 C :   -0.358961
   1 C :   -0.547764
   2 H :    0.046156
   3 H :    0.047677
   4 O :   -0.413906
   5 H :    0.064206
   6 H :    0.080840
   7 H :    0.081750

  Mayer bond orders larger than 0.100000
B(  0-C ,  1-C ) :   0.8967 B(  0-C ,  4-O ) :  -0.3250 B(  0-C ,  5-H ) :   0.8947
B(  0-C ,  6-H ) :   0.9521 B(  0-C ,  7-H ) :   0.9546 B(  1-C ,  2-H ) :   0.9035
B(  1-C ,  3-H ) :   0.9050 B(  1-C ,  4-O ) :   1.6334 B(  4-O ,  5-H ) :   0.1344

Dispersion correction           -0.004554556
FINAL SINGLE POINT ENERGY      -154.504532004954

DIPOLE MOMENT
-------------
                                X             Y             Z
Electronic contribution:      1.57244       0.85187       2.59945
Nuclear contribution   :     -2.24828      -1.06600      -3.62481
                        -----------------------------------------
Total Dipole Moment    :     -0.67584      -0.21413      -1.02536
                        -----------------------------------------
Magnitude (a.u.)       :      1.24658
Magnitude (Debye)      :      3.16856

Rotational constants in cm-1:     1.278116     0.325414     0.286672
Rotational constants in MHz : 38316.964654  9755.653004  8594.216906

                             ****ORCA TERMINATED NORMALLY****
TOTAL RUN TIME: 0 days 0 hours 0 minutes 8 seconds 444 msec
