                         Program Version 5.0.0 -  RELEASE  -
|  1> !TPSS D3BJ RIJCOSX def2-TZVP def2/J TightSCF
|  2> *xyz 1 1
|  3> C          3.48828        1.60092       -1.52204
|  4> C          4.34297        1.31342       -2.75683
|  5> N          2.81029        0.42878       -1.01420
|  6> H          2.71455        2.33145       -1.76030
|  7> H          4.09099        2.06315       -0.73338
|  8> C          3.29098       -0.41802       -0.12908
|  9> N          2.51754       -1.43202        0.23936
| 10> N          4.53549       -0.28441        0.39580
| 11> H          5.04363        0.57189        0.22290
| 12> H          4.72335       -0.73327        1.28180
| 13> H          1.93479        0.10230       -1.40379
| 14> H          1.67464       -1.50562       -0.31610
| 15> H          2.92850       -2.21850        0.72549
| 16> H          3.73575        0.86277       -3.51385
| 17> H          5.13754        0.64699       -2.49333
| 18> H          4.75374        2.22930       -3.12740
| 19> *
| 20> %MaxCore 64000
| 21>
| 22> %pal nprocs 4
| 23> end
| 24>
| 25> %scf
| 26>   MaxIter 150
| 27> end
| 28>
| 29>
| 30>                          ****END OF INPUT****

CARTESIAN COORDINATES (ANGSTROEM)
---------------------------------
  C      3.488280    1.600920   -1.522040
  C      4.342970    1.313420   -2.756830
  N      2.810290    0.428780   -1.014200
  H      2.714550    2.331450   -1.760300
  H      4.090990    2.063150   -0.733380
  C      3.290980   -0.418020   -0.129080
  N      2.517540   -1.432020    0.239360
  N      4.535490   -0.284410    0.395800
  H      5.043630    0.571890    0.222900
  H      4.723350   -0.733270    1.281800
  H      1.934790    0.102300   -1.403790
  H      1.674640   -1.505620   -0.316100
  H      2.928500   -2.218500    0.725490
  H      3.735750    0.862770   -3.513850
  H      5.137540    0.646990   -2.493330
  H      4.753740    2.229300   -3.127400

 Total Charge           Charge          ....    1
 Multiplicity           Mult            ....    1
 Number of Electrons    NEL             ....   48
 Basis Dimension        Dim             ....  246

ORBITAL ENERGIES
----------------

  NO   OCC          E(Eh)            E(eV)
   0   2.0000     -14.327619      -389.8743
   1   2.0000     -14.323543      -389.7634
   2   2.0000     -14.321508      -389.7081
   3   2.0000     -10.306034      -280.4414
   4   2.0000     -10.196033      -277.4482
   5   2.0000     -10.122312      -275.4421
   6   2.0000      -1.151232       -31.3266
   7   2.0000      -1.045777       -28.4570
   8   2.0000      -1.033407       -28.1204
   9   2.0000      -0.878705       -23.9108
  10   2.0000      -0.788496       -21.4561
  11   2.0000      -0.759231       -20.6597
  12   2.0000      -0.731888       -19.9157
  13   2.0000      -0.701578       -19.0909
  14   2.0000      -0.647478       -17.6188
  15   2.0000      -0.640794       -17.4369
  16   2.0000      -0.610915       -16.6239
  17   2.0000      -0.593093       -16.1389
  18   2.0000      -0.564189       -15.3524
  19   2.0000      -0.521272       -14.1845
  20   2.0000      -0.497163       -13.5285
  21   2.0000      -0.479472       -13.0471
  22   2.0000      -0.439061       -11.9475
  23   2.0000      -0.415959       -11.3188
  24   0.0000      -0.193527        -5.2661
  25   0.0000      -0.170462        -4.6385
  26   0.0000      -0.138167        -3.7597
  27   0.0000      -0.121976        -3.3191
  28   0.0000      -0.098576        -2.6824

MULLIKEN ATOMIC CHARGES
-----------------------
   0 C :   -0.169541
   1 C :   -0.298174
   2 N :   -0.209289
   3 H :    0.163220
   4 H :    0.129036
   5 C :    0.372795
   6 N :   -0.367072
   7 N :   -0.405323
   8 H :    0.278741
   9 H :    0.282114
  10 H :    0.242769
  11 H :    0.268085
  12 H :    0.292510
  13 H :    0.133256
  14 H :    0.126186
  15 H :    0.160686
Sum of atomic charges:    1.0000000

LOEWDIN ATOMIC CHARGES
----------------------
   0 C :   -0.279370
   1 C :   -0.273174
   2 N :    0.184772
   3 H :    0.150343
   4 H :    0.138348
   5 C :   -0.416355
   6 N :    0.070850
   7 N :    0.055261
   8 H :    0.189950
   9 H :    0.195093
  10 H :    0.208702
  11 H :    0.197258
  12 H :    0.199894
  13 H :    0.124461
  14 H :    0.119645
  15 H :    0.134324

  Mayer bond orders larger than 0.100000
B(  0-C ,  1-C ) :   1.0241 B(  0-C ,  2-N ) :   0.9075 B(  0-C ,  3-H ) :   0.9412
B(  0-C ,  4-H ) :   0.9507 B(  1-C , 13-H ) :   0.9613 B(  1-C , 14-H ) :   0.9576
B(  1-C , 15-H ) :   0.9577 B(  2-N ,  5-C ) :   1.4071 B(  2-N , 10-H ) :   0.8932
B(  5-C ,  6-N ) :   1.3483 B(  5-C ,  7-N ) :   1.3242 B(  6-N , 11-H ) :   0.8932
B(  6-N , 12-H ) :   0.8845 B(  7-N ,  8-H ) :   0.8880 B(  7-N ,  9-H ) :   0.8900

Dispersion correction           -0.015193734
FINAL SINGLE POINT ENERGY      -284.555163838167

DIPOLE MOMENT
-------------
                                X             Y             Z
Electronic contribution:     -1.93088      -3.00649       3.72996
Nuclear contribution   :      1.59382       2.33278      -3.02574
                        -----------------------------------------
Total Dipole Moment    :     -0.33706      -0.67371       0.70422
                        -----------------------------------------
Magnitude (a.u.)       :      1.03122
Magnitude (Debye)      :      2.62116

Rotational constants in cm-1:     0.232230     0.073139     0.063030
Rotational constants in MHz :  6962.079716  2192.649203  1889.578947

                             ****ORCA TERMINATED NORMALLY****
TOTAL RUN TIME: 0 days 0 hours 0 minutes 14 seconds 293 msec
