                         Program Version 5.0.0 -  RELEASE  -
|  1> !TPSS D3BJ RIJCOSX def2-TZVP def2/J TightSCF
|  2> *xyz 0 1
|  3> C         -0.72184       -0.99951       -3.43931
|  4> C          0.28725       -1.71177       -2.52740
|  5> H          1.13178       -2.06738       -3.15940
|  6> H         -0.20414       -2.63733       -2.17048
|  7> F          0.71050       -0.92751       -1.48177
|  8> H         -1.01315       -1.65739       -4.23129
|  9> H         -0.27123       -0.12142       -3.85259
| 10> H         -1.58442       -0.72333       -2.86958
| 11> *
| 12> %MaxCore 64000
| 13>
| 14> %pal nprocs 4
| 15> end
| 16>
| 17> %scf
| 18>   MaxIter 150
| 19> end
| 20>
| 21>
| 22>                          ****END OF INPUT****

CARTESIAN COORDINATES (ANGSTROEM)
---------------------------------
  C     -0.721840   -0.999510   -3.439310
  C      0.287250   -1.711770   -2.527400
  H      1.131780   -2.067380   -3.159400
  H     -0.204140   -2.637330   -2.170480
  F      0.710500   -0.927510   -1.481770
  H     -1.013150   -1.657390   -4.231290
  H     -0.271230   -0.121420   -3.852590
  H     -1.584420   -0.723330   -2.869580

 Total Charge           Charge          ....    0
 Multiplicity           Mult            ....    1
 Number of Electrons    NEL             ....   26
 Basis Dimension        Dim             ....  123

ORBITAL ENERGIES
----------------

  NO   OCC          E(Eh)            E(eV)
   0   2.0000     -24.392916      -663.7650
   1   2.0000     -10.060644      -273.7640
   2   2.0000      -9.980033      -271.5705
   3   2.0000      -1.117966       -30.4214
   4   2.0000      -0.708999       -19.2928
   5   2.0000      -0.580654       -15.8004
   6   2.0000      -0.456960       -12.4345
   7   2.0000      -0.444972       -12.1083
   8   2.0000      -0.404715       -11.0128
   9   2.0000      -0.362184        -9.8555
  10   2.0000      -0.359539        -9.7836
  11   2.0000      -0.289978        -7.8907
  12   2.0000      -0.287388        -7.8202
  13   0.0000       0.032282         0.8784
  14   0.0000       0.069284         1.8853
  15   0.0000       0.076337         2.0772
  16   0.0000       0.086745         2.3605
  17   0.0000       0.100971         2.7476

MULLIKEN ATOMIC CHARGES
-----------------------
   0 C :   -0.312798
   1 C :    0.025424
   2 H :    0.086663
   3 H :    0.086029
   4 F :   -0.223055
   5 H :    0.107370
   6 H :    0.114815
   7 H :    0.115552
Sum of atomic charges:    0.0000000

LOEWDIN ATOMIC CHARGES
----------------------
   0 C :   -0.303726
   1 C :   -0.367874
   2 H :    0.113719
   3 H :    0.113260
   4 F :    0.097503
   5 H :    0.119143
   6 H :    0.113825
   7 H :    0.114149

  Mayer bond orders larger than 0.100000
B(  0-C ,  1-C ) :   1.0256 B(  0-C ,  5-H ) :   0.9517 B(  0-C ,  6-H ) :   0.9660
B(  0-C ,  7-H ) :   0.9661 B(  1-C ,  2-H ) :   0.9608 B(  1-C ,  3-H ) :   0.9616
B(  1-C ,  4-F ) :   1.0196

Dispersion correction           -0.004200916
FINAL SINGLE POINT ENERGY      -179.157766612578

DIPOLE MOMENT
-------------
                                X             Y             Z
Electronic contribution:      2.71745       1.07373       4.25990
Nuclear contribution   :     -2.97459      -1.40206      -4.79987
                        -----------------------------------------
Total Dipole Moment    :     -0.25714      -0.32833      -0.53996
                        -----------------------------------------
Magnitude (a.u.)       :      0.68226
Magnitude (Debye)      :      1.73418

Rotational constants in cm-1:     1.257024     0.302702     0.267953
Rotational constants in MHz : 37684.643733  9074.792567  8033.038070

                             ****ORCA TERMINATED NORMALLY****
TOTAL RUN TIME: 0 days 0 hours 0 minutes 4 seconds 534 msec
