                         Program Version 5.0.0 -  RELEASE  -
|  1> !TPSS D3BJ RIJCOSX def2-TZVP def2/J TightSCF
|  2> *xyz 0 1
|  3> C          3.48828        1.60092       -1.52204
|  4> C          4.34297        1.31342       -2.75683
|  5> C          2.81029        0.42878       -1.01420
|  6> H          2.71455        2.33145       -1.76030
|  7> H          4.09099        2.06315       -0.73338
|  8> C          3.29098       -0.41802       -0.12908
|  9> N          2.51754       -1.43202        0.23936
| 10> N          4.53549       -0.28441        0.39580
| 11> H          5.04363        0.57189        0.22290
| 12> H          4.72335       -0.73327        1.28180
| 13> H          1.93479        0.10230       -1.40379
| 14> H          1.67464       -1.50562       -0.31610
| 15> H          2.92850       -2.21850        0.72549
| 16> H          3.73575        0.86277       -3.51385
| 17> H          5.13754        0.64699       -2.49333
| 18> H          4.75374        2.22930       -3.12740
| 19> *
| 20> %MaxCore 64000
| 21>
| 22> %pal nprocs 4
| 23> end
| 24>
| 25> %scf
| 26>   MaxIter 150
| 27> end
| 28>
| 29>
| 30>                          ****END OF INPUT****

CARTESIAN COORDINATES (ANGSTROEM)
---------------------------------
  C      3.488280    1.600920   -1.522040
  C      4.342970    1.313420   -2.756830
  C      2.810290    0.428780   -1.014200
  H      2.714550    2.331450   -1.760300
  H      4.090990    2.063150   -0.733380
  C      3.290980   -0.418020   -0.129080
  N      2.517540   -1.432020    0.239360
  N      4.535490   -0.284410    0.395800
  H      5.043630    0.571890    0.222900
  H      4.723350   -0.733270    1.281800
  H      1.934790    0.102300   -1.403790
  H      1.674640   -1.505620   -0.316100
  H      2.928500   -2.218500    0.725490
  H      3.735750    0.862770   -3.513850
  H      5.137540    0.646990   -2.493330
  H      4.753740    2.229300   -3.127400

 Total Charge           Charge          ....    0
 Multiplicity           Mult            ....    1
 Number of Electrons    NEL             ....   48
 Basis Dimension        Dim             ....  246

ORBITAL ENERGIES
----------------

  NO   OCC          E(Eh)            E(eV)
   0   2.0000     -14.099892      -383.6776
   1   2.0000     -14.095773      -383.5655
   2   2.0000     -10.015646      -272.5396
   3   2.0000      -9.960673      -271.0437
   4   2.0000      -9.948772      -270.7199
   5   2.0000      -9.904932      -269.5269
   6   2.0000      -0.892355       -24.2822
   7   2.0000      -0.810486       -22.0545
   8   2.0000      -0.715862       -19.4796
   9   2.0000      -0.639973       -17.4146
  10   2.0000      -0.563943       -15.3457
  11   2.0000      -0.530661       -14.4400
  12   2.0000      -0.489885       -13.3305
  13   2.0000      -0.464992       -12.6531
  14   2.0000      -0.422314       -11.4918
  15   2.0000      -0.396591       -10.7918
  16   2.0000      -0.374876       -10.2009
  17   2.0000      -0.352561        -9.5937
  18   2.0000      -0.339532        -9.2391
  19   2.0000      -0.311538        -8.4774
  20   2.0000      -0.293953        -7.9989
  21   2.0000      -0.285141        -7.7591
  22   2.0000      -0.223356        -6.0778
  23   2.0000      -0.130950        -3.5633
  24   0.0000       0.009800         0.2667
  25   0.0000       0.039415         1.0725
  26   0.0000       0.046264         1.2589
  27   0.0000       0.062772         1.7081
  28   0.0000       0.076123         2.0714

MULLIKEN ATOMIC CHARGES
-----------------------
   0 C :   -0.177589
   1 C :   -0.277916
   2 C :   -0.285268
   3 H :    0.079569
   4 H :    0.054033
   5 C :    0.308591
   6 N :   -0.463015
   7 N :   -0.494237
   8 H :    0.236502
   9 H :    0.215776
  10 H :    0.061906
  11 H :    0.236438
  12 H :    0.220841
  13 H :    0.094419
  14 H :    0.098026
  15 H :    0.091924
Sum of atomic charges:   -0.0000000

LOEWDIN ATOMIC CHARGES
----------------------
   0 C :   -0.303595
   1 C :   -0.295105
   2 C :   -0.273987
   3 H :    0.136230
   4 H :    0.124256
   5 C :   -0.460086
   6 N :   -0.013642
   7 N :   -0.024588
   8 H :    0.168820
   9 H :    0.157219
  10 H :    0.118548
  11 H :    0.180338
  12 H :    0.160221
  13 H :    0.111212
  14 H :    0.109822
  15 H :    0.104337

  Mayer bond orders larger than 0.100000
B(  0-C ,  1-C ) :   0.9935 B(  0-C ,  2-C ) :   1.0809 B(  0-C ,  3-H ) :   0.9518
B(  0-C ,  4-H ) :   0.9515 B(  1-C , 13-H ) :   0.9744 B(  1-C , 14-H ) :   0.9725
B(  1-C , 15-H ) :   0.9636 B(  2-C ,  5-C ) :   1.6857 B(  2-C , 10-H ) :   0.9615
B(  5-C ,  6-N ) :   1.1678 B(  5-C ,  7-N ) :   1.1457 B(  6-N , 11-H ) :   0.9110
B(  6-N , 12-H ) :   0.9142 B(  7-N ,  8-H ) :   0.9154 B(  7-N ,  9-H ) :   0.9164

Dispersion correction           -0.015810076
FINAL SINGLE POINT ENERGY      -268.066831604359

DIPOLE MOMENT
-------------
                                X             Y             Z
Electronic contribution:     -1.27300      -2.98458       3.70339
Nuclear contribution   :      1.44676       2.38443      -3.07370
                        -----------------------------------------
Total Dipole Moment    :      0.17376      -0.60015       0.62969
                        -----------------------------------------
Magnitude (a.u.)       :      0.88706
Magnitude (Debye)      :      2.25473

Rotational constants in cm-1:     0.235977     0.073199     0.063283
Rotational constants in MHz :  7074.404583  2194.453291  1897.179599

                             ****ORCA TERMINATED NORMALLY****
TOTAL RUN TIME: 0 days 0 hours 0 minutes 14 seconds 555 msec
