                         Program Version 5.0.0 -  RELEASE  -
|  1> !TPSS D3BJ RIJCOSX def2-TZVP def2/J TightSCF
|  2> *xyz 0 1
|  3> C          3.48828        1.60092       -1.52204
|  4> C          4.34297        1.31342       -2.75683
|  5> N          2.81029        0.42878       -1.01420
|  6> H          2.71455        2.33145       -1.76030
|  7> H          4.09099        2.06315       -0.73338
|  8> C          3.29098       -0.41802       -0.12908
|  9> C          2.51754       -1.43202        0.23936
| 10> N          4.53549       -0.28441        0.39580
| 11> H          5.04363        0.57189        0.22290
| 12> H          4.72335       -0.73327        1.28180
| 13> H          1.93479        0.10230       -1.40379
| 14> H          1.67464       -1.50562       -0.31610
| 15> H          2.92850       -2.21850        0.72549
| 16> H          3.73575        0.86277       -3.51385
| 17> H          5.13754        0.64699       -2.49333
| 18> H          4.75374        2.22930       -3.12740
| 19> *
| 20> %MaxCore 64000
| 21>
| 22> %pal nprocs 4
| 23> end
| 24>
| 25> %scf
| 26>   MaxIter 150
| 27> end
| 28>
| 29>
| 30>                          ****END OF INPUT****

CARTESIAN COORDINATES (ANGSTROEM)
---------------------------------
  C      3.488280    1.600920   -1.522040
  C      4.342970    1.313420   -2.756830
  N      2.810290    0.428780   -1.014200
  H      2.714550    2.331450   -1.760300
  H      4.090990    2.063150   -0.733380
  C      3.290980   -0.418020   -0.129080
  C      2.517540   -1.432020    0.239360
  N      4.535490   -0.284410    0.395800
  H      5.043630    0.571890    0.222900
  H      4.723350   -0.733270    1.281800
  H      1.934790    0.102300   -1.403790
  H      1.674640   -1.505620   -0.316100
  H      2.928500   -2.218500    0.725490
  H      3.735750    0.862770   -3.513850
  H      5.137540    0.646990   -2.493330
  H      4.753740    2.229300   -3.127400

 Total Charge           Charge          ....    0
 Multiplicity           Mult            ....    1
 Number of Electrons    NEL             ....   48
 Basis Dimension        Dim             ....  246

ORBITAL ENERGIES
----------------

  NO   OCC          E(Eh)            E(eV)
   0   2.0000     -14.100993      -383.7075
   1   2.0000     -14.099831      -383.6759
   2   2.0000     -10.027750      -272.8689
   3   2.0000     -10.019271      -272.6382
   4   2.0000      -9.975824      -271.4560
   5   2.0000      -9.892426      -269.1866
   6   2.0000      -0.903022       -24.5725
   7   2.0000      -0.822836       -22.3905
   8   2.0000      -0.718926       -19.5630
   9   2.0000      -0.647443       -17.6178
  10   2.0000      -0.580552       -15.7976
  11   2.0000      -0.548983       -14.9386
  12   2.0000      -0.488818       -13.3014
  13   2.0000      -0.455553       -12.3962
  14   2.0000      -0.435985       -11.8638
  15   2.0000      -0.400574       -10.9002
  16   2.0000      -0.387110       -10.5338
  17   2.0000      -0.363503        -9.8914
  18   2.0000      -0.338897        -9.2218
  19   2.0000      -0.334250        -9.0954
  20   2.0000      -0.325183        -8.8487
  21   2.0000      -0.317104        -8.6288
  22   2.0000      -0.218013        -5.9324
  23   2.0000      -0.130027        -3.5382
  24   0.0000       0.009555         0.2600
  25   0.0000       0.034581         0.9410
  26   0.0000       0.042646         1.1605
  27   0.0000       0.063468         1.7271
  28   0.0000       0.068484         1.8635

MULLIKEN ATOMIC CHARGES
-----------------------
   0 C :   -0.137663
   1 C :   -0.267454
   2 N :   -0.279686
   3 H :    0.106142
   4 H :    0.089830
   5 C :    0.339649
   6 C :   -0.502892
   7 N :   -0.491267
   8 H :    0.217536
   9 H :    0.245089
  10 H :    0.214450
  11 H :    0.058210
  12 H :    0.096030
  13 H :    0.100266
  14 H :    0.110691
  15 H :    0.101069
Sum of atomic charges:    0.0000000

LOEWDIN ATOMIC CHARGES
----------------------
   0 C :   -0.312652
   1 C :   -0.298157
   2 N :    0.132751
   3 H :    0.128896
   4 H :    0.124210
   5 C :   -0.464711
   6 C :   -0.344988
   7 N :   -0.020702
   8 H :    0.155067
   9 H :    0.174885
  10 H :    0.196152
  11 H :    0.095843
  12 H :    0.095010
  13 H :    0.112875
  14 H :    0.113576
  15 H :    0.111945

  Mayer bond orders larger than 0.100000
B(  0-C ,  1-C ) :   1.0006 B(  0-C ,  2-N ) :   0.9863 B(  0-C ,  3-H ) :   0.9591
B(  0-C ,  4-H ) :   0.9578 B(  1-C , 13-H ) :   0.9669 B(  1-C , 14-H ) :   0.9666
B(  1-C , 15-H ) :   0.9584 B(  2-N ,  5-C ) :   1.2066 B(  2-N , 10-H ) :   0.9121
B(  5-C ,  6-C ) :   1.6583 B(  5-C ,  7-N ) :   1.1402 B(  6-C , 11-H ) :   0.9915
B(  6-C , 12-H ) :   0.9925 B(  7-N ,  8-H ) :   0.9183 B(  7-N ,  9-H ) :   0.9149

Dispersion correction           -0.015662292
FINAL SINGLE POINT ENERGY      -268.056928018210

DIPOLE MOMENT
-------------
                                X             Y             Z
Electronic contribution:     -0.86476      -1.05616       2.43491
Nuclear contribution   :      1.38466       1.98967      -2.80776
                        -----------------------------------------
Total Dipole Moment    :      0.51990       0.93351      -0.37285
                        -----------------------------------------
Magnitude (a.u.)       :      1.13170
Magnitude (Debye)      :      2.87655

Rotational constants in cm-1:     0.235618     0.075969     0.065309
Rotational constants in MHz :  7063.646698  2277.495424  1957.925383

                             ****ORCA TERMINATED NORMALLY****
TOTAL RUN TIME: 0 days 0 hours 0 minutes 14 seconds 311 msec
