                         Program Version 5.0.0 -  RELEASE  -
|  1> !TPSS D3BJ RIJCOSX def2-TZVP def2/J TightSCF
|  2> *xyz 0 1
|  3> C          3.48828        1.60092       -1.52204
|  4> C          4.34297        1.31342       -2.75683
|  5> N          2.81029        0.42878       -1.01420
|  6> H          2.71455        2.33145       -1.76030
|  7> H          4.09099        2.06315       -0.73338
|  8> C          3.29098       -0.41802       -0.12908
|  9> N          2.51754       -1.43202        0.23936
| 10> C          4.53549       -0.28441        0.39580
| 11> H          5.04363        0.57189        0.22290
| 12> H          4.72335       -0.73327        1.28180
| 13> H          1.93479        0.10230       -1.40379
| 14> H          1.67464       -1.50562       -0.31610
| 15> H          2.92850       -2.21850        0.72549
| 16> H          3.73575        0.86277       -3.51385
| 17> H          5.13754        0.64699       -2.49333
| 18> H          4.75374        2.22930       -3.12740
| 19> *
| 20> %MaxCore 64000
| 21>
| 22> %pal nprocs 4
| 23> end
| 24>
| 25> %scf
| 26>   MaxIter 150
| 27> end
| 28>
| 29>
| 30>                          ****END OF INPUT****

CARTESIAN COORDINATES (ANGSTROEM)
---------------------------------
  C      3.488280    1.600920   -1.522040
  C      4.342970    1.313420   -2.756830
  N      2.810290    0.428780   -1.014200
  H      2.714550    2.331450   -1.760300
  H      4.090990    2.063150   -0.733380
  C      3.290980   -0.418020   -0.129080
  N      2.517540   -1.432020    0.239360
  C      4.535490   -0.284410    0.395800
  H      5.043630    0.571890    0.222900
  H      4.723350   -0.733270    1.281800
  H      1.934790    0.102300   -1.403790
  H      1.674640   -1.505620   -0.316100
  H      2.928500   -2.218500    0.725490
  H      3.735750    0.862770   -3.513850
  H      5.137540    0.646990   -2.493330
  H      4.753740    2.229300   -3.127400

 Total Charge           Charge          ....    0
 Multiplicity           Mult            ....    1
 Number of Electrons    NEL             ....   48
 Basis Dimension        Dim             ....  246

ORBITAL ENERGIES
----------------

  NO   OCC          E(Eh)            E(eV)
   0   2.0000     -14.105985      -383.8434
   1   2.0000     -14.101685      -383.7264
   2   2.0000     -10.021317      -272.6939
   3   2.0000     -10.020141      -272.6619
   4   2.0000      -9.968012      -271.2434
   5   2.0000      -9.893020      -269.2028
   6   2.0000      -0.911438       -24.8015
   7   2.0000      -0.827494       -22.5173
   8   2.0000      -0.700883       -19.0720
   9   2.0000      -0.649304       -17.6685
  10   2.0000      -0.593977       -16.1629
  11   2.0000      -0.516159       -14.0454
  12   2.0000      -0.494598       -13.4587
  13   2.0000      -0.484705       -13.1895
  14   2.0000      -0.425164       -11.5693
  15   2.0000      -0.399519       -10.8715
  16   2.0000      -0.381377       -10.3778
  17   2.0000      -0.352899        -9.6029
  18   2.0000      -0.340715        -9.2713
  19   2.0000      -0.328540        -8.9400
  20   2.0000      -0.318413        -8.6645
  21   2.0000      -0.312501        -8.5036
  22   2.0000      -0.212702        -5.7879
  23   2.0000      -0.132787        -3.6133
  24   0.0000       0.003025         0.0823
  25   0.0000       0.039151         1.0654
  26   0.0000       0.046654         1.2695
  27   0.0000       0.060773         1.6537
  28   0.0000       0.080257         2.1839

MULLIKEN ATOMIC CHARGES
-----------------------
   0 C :   -0.093879
   1 C :   -0.296335
   2 N :   -0.289712
   3 H :    0.099135
   4 H :    0.111103
   5 C :    0.317447
   6 N :   -0.452480
   7 C :   -0.535946
   8 H :    0.083274
   9 H :    0.090965
  10 H :    0.177648
  11 H :    0.203371
  12 H :    0.254213
  13 H :    0.088444
  14 H :    0.138346
  15 H :    0.104406
Sum of atomic charges:   -0.0000000

LOEWDIN ATOMIC CHARGES
----------------------
   0 C :   -0.294876
   1 C :   -0.295832
   2 N :    0.130077
   3 H :    0.126477
   4 H :    0.135425
   5 C :   -0.476890
   6 N :   -0.005670
   7 C :   -0.362522
   8 H :    0.092208
   9 H :    0.092956
  10 H :    0.175216
  11 H :    0.160548
  12 H :    0.179762
  13 H :    0.109335
  14 H :    0.120457
  15 H :    0.113329

  Mayer bond orders larger than 0.100000
B(  0-C ,  1-C ) :   1.0123 B(  0-C ,  2-N ) :   0.9638 B(  0-C ,  3-H ) :   0.9602
B(  0-C ,  4-H ) :   0.9455 B(  1-C , 13-H ) :   0.9675 B(  1-C , 14-H ) :   0.9689
B(  1-C , 15-H ) :   0.9619 B(  2-N ,  5-C ) :   1.1994 B(  2-N , 10-H ) :   0.9184
B(  5-C ,  6-N ) :   1.1626 B(  5-C ,  7-C ) :   1.6452 B(  6-N , 11-H ) :   0.9198
B(  6-N , 12-H ) :   0.9095 B(  7-C ,  8-H ) :   0.9970 B(  7-C ,  9-H ) :   0.9839

Dispersion correction           -0.015762636
FINAL SINGLE POINT ENERGY      -268.056649100750

DIPOLE MOMENT
-------------
                                X             Y             Z
Electronic contribution:     -2.86706      -2.32091       2.18586
Nuclear contribution   :      1.81275       2.23313      -2.77458
                        -----------------------------------------
Total Dipole Moment    :     -1.05431      -0.08778      -0.58872
                        -----------------------------------------
Magnitude (a.u.)       :      1.21073
Magnitude (Debye)      :      3.07742

Rotational constants in cm-1:     0.245202     0.073668     0.064348
Rotational constants in MHz :  7350.977980  2208.513334  1929.108541

                             ****ORCA TERMINATED NORMALLY****
TOTAL RUN TIME: 0 days 0 hours 0 minutes 14 seconds 86 msec
