                         Program Version 5.0.0 -  RELEASE  -
|  1> !TPSS D3BJ RIJCOSX def2-TZVP def2/J TightSCF xyzfile
|  2>
|  3> *xyzfile 0 1 D1.xyz
|  4>
|  5> %MaxCore 64000
|  6>
|  7> %pal nprocs 18
|  8> end
|  9>
| 10> %scf
| 11>   MaxIter 150
| 12> end
| 13>
| 14>
| 15>                          ****END OF INPUT****

CARTESIAN COORDINATES (ANGSTROEM)
---------------------------------
  C      3.488276    1.600919   -1.522040
  C      4.342970    1.313419   -2.756826
  C      2.810285    0.428783   -1.014196
  H      5.132033    0.604994   -2.484466
  C      3.535896    0.749253   -3.924604
  H      4.841247    2.242136   -3.054083
  H      2.991617   -0.132199   -3.574137
  H      4.225505    0.392784   -4.695962
  C      2.564776    1.750890   -4.544523
  H      1.918749    2.171679   -3.769419
  C      1.686235    1.161657   -5.650111
  H      3.132494    2.594775   -4.951604
  C      0.839616   -0.037582   -5.220473
  H      2.323886    0.866395   -6.490796
  H      1.029518    1.951850   -6.029329
  C     -0.151019    0.254955   -4.094256
  H      1.499442   -0.857141   -4.922958
  H      0.290097   -0.410143   -6.091131
  H      0.328265    0.833022   -3.299125
  C     -0.721843   -0.999513   -3.439309
  H     -0.957367    0.884951   -4.485450
  H     -1.083403   -1.697555   -4.205656
  H     -1.581056   -0.723848   -2.820490
  C      0.287250   -1.711771   -2.527405
  H      1.131780   -2.067380   -3.159396
  H     -0.204137   -2.637326   -2.170480
  F      0.710505   -0.927506   -1.481767
  H      2.714548    2.331455   -1.760302
  H      4.090991    2.063151   -0.733382
  C      3.290978   -0.418021   -0.129083
  N      2.517536   -1.432017    0.239360
  N      4.535490   -0.284410    0.395800
  H      5.043627    0.571888    0.222899
  H      4.723346   -0.733273    1.281800
  H      1.934787    0.102305   -1.403788
  H      1.674638   -1.505616   -0.316095
  H      2.928503   -2.218502    0.725494

 Total Charge           Charge          ....    0
 Multiplicity           Mult            ....    1
 Number of Electrons    NEL             ....  112
 Basis Dimension        Dim             ....  572

ORBITAL ENERGIES
----------------

  NO   OCC          E(Eh)            E(eV)
   0   2.0000     -24.425278      -664.6456
   1   2.0000     -14.085825      -383.2948
   2   2.0000     -14.070418      -382.8755
   3   2.0000     -10.071966      -274.0721
   4   2.0000      -9.999084      -272.0889
   5   2.0000      -9.995840      -272.0006
   6   2.0000      -9.981104      -271.5996
   7   2.0000      -9.977146      -271.4920
   8   2.0000      -9.972489      -271.3652
   9   2.0000      -9.964739      -271.1543
  10   2.0000      -9.959028      -270.9989
  11   2.0000      -9.953557      -270.8501
  12   2.0000      -9.947835      -270.6943
  13   2.0000      -9.879204      -268.8268
  14   2.0000      -1.158223       -31.5169
  15   2.0000      -0.875149       -23.8140
  16   2.0000      -0.794089       -21.6083
  17   2.0000      -0.759447       -20.6656
  18   2.0000      -0.735115       -20.0035
  19   2.0000      -0.707185       -19.2435
  20   2.0000      -0.674868       -18.3641
  21   2.0000      -0.638284       -17.3686
  22   2.0000      -0.613617       -16.6974
  23   2.0000      -0.581745       -15.8301
  24   2.0000      -0.553516       -15.0619
  25   2.0000      -0.539041       -14.6680
  26   2.0000      -0.516607       -14.0576
  27   2.0000      -0.500853       -13.6289
  28   2.0000      -0.484004       -13.1704
  29   2.0000      -0.472506       -12.8575
  30   2.0000      -0.465306       -12.6616
  31   2.0000      -0.446669       -12.1545
  32   2.0000      -0.441262       -12.0074
  33   2.0000      -0.418664       -11.3924
  34   2.0000      -0.411958       -11.2100
  35   2.0000      -0.400002       -10.8846
  36   2.0000      -0.393794       -10.7157
  37   2.0000      -0.380382       -10.3507
  38   2.0000      -0.372372       -10.1328
  39   2.0000      -0.360953        -9.8220
  40   2.0000      -0.352890        -9.6026
  41   2.0000      -0.333809        -9.0834
  42   2.0000      -0.332240        -9.0407
  43   2.0000      -0.323380        -8.7996
  44   2.0000      -0.319836        -8.7032
  45   2.0000      -0.319722        -8.7001
  46   2.0000      -0.298066        -8.1108
  47   2.0000      -0.292036        -7.9467
  48   2.0000      -0.283718        -7.7204
  49   2.0000      -0.281662        -7.6644
  50   2.0000      -0.278118        -7.5680
  51   2.0000      -0.265450        -7.2233
  52   2.0000      -0.259007        -7.0479
  53   2.0000      -0.252818        -6.8795
  54   2.0000      -0.207112        -5.6358
  55   2.0000      -0.115128        -3.1328
  56   0.0000       0.018039         0.4909
  57   0.0000       0.026409         0.7186
  58   0.0000       0.035433         0.9642
  59   0.0000       0.041755         1.1362
  60   0.0000       0.049640         1.3508

MULLIKEN ATOMIC CHARGES
-----------------------
   0 C :   -0.252494
   1 C :   -0.014429
   2 C :   -0.433375
   3 H :    0.070902
   4 C :   -0.199630
   5 H :    0.049107
   6 H :    0.096303
   7 H :    0.069113
   8 C :   -0.239109
   9 H :    0.098090
  10 C :   -0.051579
  11 H :    0.078580
  12 C :   -0.253429
  13 H :    0.075332
  14 H :    0.072656
  15 C :   -0.179979
  16 H :    0.098296
  17 H :    0.084854
  18 H :    0.111485
  19 C :   -0.109833
  20 H :    0.088114
  21 H :    0.087340
  22 H :    0.094759
  23 C :   -0.030718
  24 H :    0.098384
  25 H :    0.108997
  26 F :   -0.219025
  27 H :    0.084309
  28 H :    0.060803
  29 C :    0.311606
  30 N :   -0.482943
  31 N :   -0.496091
  32 H :    0.233268
  33 H :    0.210376
  34 H :    0.224653
  35 H :    0.247454
  36 H :    0.207857
Sum of atomic charges:   -0.0000000

LOEWDIN ATOMIC CHARGES
----------------------
   0 C :   -0.285020
   1 C :   -0.257738
   2 C :   -0.280474
   3 H :    0.130573
   4 C :   -0.262247
   5 H :    0.123701
   6 H :    0.131822
   7 H :    0.129471
   8 C :   -0.263883
   9 H :    0.130058
  10 C :   -0.262270
  11 H :    0.132504
  12 C :   -0.266273
  13 H :    0.132692
  14 H :    0.132028
  15 C :   -0.262671
  16 H :    0.129333
  17 H :    0.131514
  18 H :    0.140147
  19 C :   -0.266970
  20 H :    0.134201
  21 H :    0.141659
  22 H :    0.136644
  23 C :   -0.344073
  24 H :    0.122375
  25 H :    0.122352
  26 F :    0.157296
  27 H :    0.135098
  28 H :    0.125072
  29 C :   -0.462246
  30 N :   -0.021219
  31 N :   -0.029617
  32 H :    0.166538
  33 H :    0.153989
  34 H :    0.114647
  35 H :    0.157479
  36 H :    0.153509

  Mayer bond orders larger than 0.100000
B(  0-C ,  1-C ) :   0.9892 B(  0-C ,  2-C ) :   1.0324 B(  0-C , 27-H ) :   0.9777
B(  0-C , 28-H ) :   0.9494 B(  1-C ,  3-H ) :   0.9343 B(  1-C ,  4-C ) :   1.0340
B(  1-C ,  5-H ) :   0.9353 B(  2-C , 29-C ) :   1.6452 B(  2-C , 34-H ) :   0.9357
B(  4-C ,  6-H ) :   0.9555 B(  4-C ,  7-H ) :   0.9400 B(  4-C ,  8-C ) :   1.0233
B(  8-C ,  9-H ) :   0.9709 B(  8-C , 10-C ) :   1.0197 B(  8-C , 11-H ) :   0.9380
B( 10-C , 12-C ) :   1.0151 B( 10-C , 13-H ) :   0.9403 B( 10-C , 14-H ) :   0.9437
B( 12-C , 15-C ) :   1.0172 B( 12-C , 16-H ) :   0.9690 B( 12-C , 17-H ) :   0.9370
B( 15-C , 18-H ) :   0.9606 B( 15-C , 19-C ) :   1.0091 B( 15-C , 20-H ) :   0.9426
B( 19-C , 21-H ) :   0.9322 B( 19-C , 22-H ) :   0.9412 B( 19-C , 23-C ) :   1.0509
B( 23-C , 24-H ) :   0.9626 B( 23-C , 25-H ) :   0.9460 B( 23-C , 26-F ) :   0.9274
B( 29-C , 30-N ) :   1.2036 B( 29-C , 31-N ) :   1.1367 B( 30-N , 35-H ) :   0.8780
B( 30-N , 36-H ) :   0.9190 B( 31-N , 32-H ) :   0.9153 B( 31-N , 33-H ) :   0.9175

Dispersion correction           -0.050132530
FINAL SINGLE POINT ENERGY      -642.683438583019

DIPOLE MOMENT
-------------
                                X             Y             Z
Electronic contribution:     -1.56629      -4.89789      10.80653
Nuclear contribution   :      1.15699       3.94991     -10.89335
                        -----------------------------------------
Total Dipole Moment    :     -0.40931      -0.94798      -0.08682
                        -----------------------------------------
Magnitude (a.u.)       :      1.03621
Magnitude (Debye)      :      2.63385

Rotational constants in cm-1:     0.026548     0.016177     0.010851
Rotational constants in MHz :   795.884848   484.988695   325.313537

                             ****ORCA TERMINATED NORMALLY****
TOTAL RUN TIME: 0 days 0 hours 0 minutes 32 seconds 156 msec
