                         Program Version 5.0.0 -  RELEASE  -
|  1> !TPSS D3BJ RIJCOSX def2-TZVP def2/J TightSCF xyzfile
|  2>
|  3> *xyzfile 0 1 D2.xyz
|  4>
|  5> %MaxCore 64000
|  6>
|  7> %pal nprocs 18
|  8> end
|  9>
| 10> %scf
| 11>   MaxIter 150
| 12> end
| 13>
| 14>
| 15>                          ****END OF INPUT****

CARTESIAN COORDINATES (ANGSTROEM)
---------------------------------
  C      3.488276    1.600919   -1.522040
  C      4.342970    1.313419   -2.756826
  N      2.810285    0.428783   -1.014196
  H      5.132033    0.604994   -2.484466
  C      3.535896    0.749253   -3.924604
  H      4.841247    2.242136   -3.054083
  H      2.991617   -0.132199   -3.574137
  H      4.225505    0.392784   -4.695962
  C      2.564776    1.750890   -4.544523
  H      1.918749    2.171679   -3.769419
  C      1.686235    1.161657   -5.650111
  H      3.132494    2.594775   -4.951604
  C      0.839616   -0.037582   -5.220473
  H      2.323886    0.866395   -6.490796
  H      1.029518    1.951850   -6.029329
  C     -0.151019    0.254955   -4.094256
  H      1.499442   -0.857141   -4.922958
  H      0.290097   -0.410143   -6.091131
  H      0.328265    0.833022   -3.299125
  C     -0.721843   -0.999513   -3.439309
  H     -0.957367    0.884951   -4.485450
  H     -1.083403   -1.697555   -4.205656
  H     -1.581056   -0.723848   -2.820490
  C      0.287250   -1.711771   -2.527405
  H      1.131780   -2.067380   -3.159396
  H     -0.204137   -2.637326   -2.170480
  F      0.710505   -0.927506   -1.481767
  H      2.714548    2.331455   -1.760302
  H      4.090991    2.063151   -0.733382
  C      3.290978   -0.418021   -0.129083
  C      2.517536   -1.432017    0.239360
  N      4.535490   -0.284410    0.395800
  H      5.043627    0.571888    0.222899
  H      4.723346   -0.733273    1.281800
  H      1.934787    0.102305   -1.403788
  H      1.674638   -1.505616   -0.316095
  H      2.928503   -2.218502    0.725494

 Total Charge           Charge          ....    0
 Multiplicity           Mult            ....    1
 Number of Electrons    NEL             ....  112
 Basis Dimension        Dim             ....  572

ORBITAL ENERGIES
----------------

  NO   OCC          E(Eh)            E(eV)
   0   2.0000     -24.423416      -664.5949
   1   2.0000     -14.084023      -383.2457
   2   2.0000     -14.074941      -382.9986
   3   2.0000     -10.071162      -274.0502
   4   2.0000     -10.011881      -272.4371
   5   2.0000     -10.000558      -272.1290
   6   2.0000      -9.997939      -272.0577
   7   2.0000      -9.988417      -271.7986
   8   2.0000      -9.985035      -271.7066
   9   2.0000      -9.982957      -271.6501
  10   2.0000      -9.979888      -271.5666
  11   2.0000      -9.977752      -271.5084
  12   2.0000      -9.976671      -271.4790
  13   2.0000      -9.865879      -268.4642
  14   2.0000      -1.156343       -31.4657
  15   2.0000      -0.884674       -24.0732
  16   2.0000      -0.806939       -21.9579
  17   2.0000      -0.767471       -20.8839
  18   2.0000      -0.741590       -20.1797
  19   2.0000      -0.715541       -19.4709
  20   2.0000      -0.672527       -18.3004
  21   2.0000      -0.649524       -17.6744
  22   2.0000      -0.616961       -16.7884
  23   2.0000      -0.592555       -16.1242
  24   2.0000      -0.562031       -15.2936
  25   2.0000      -0.547040       -14.8857
  26   2.0000      -0.528916       -14.3925
  27   2.0000      -0.513117       -13.9626
  28   2.0000      -0.485951       -13.2234
  29   2.0000      -0.472481       -12.8569
  30   2.0000      -0.463244       -12.6055
  31   2.0000      -0.447694       -12.1824
  32   2.0000      -0.439992       -11.9728
  33   2.0000      -0.429283       -11.6814
  34   2.0000      -0.422836       -11.5059
  35   2.0000      -0.410780       -11.1779
  36   2.0000      -0.394504       -10.7350
  37   2.0000      -0.389380       -10.5956
  38   2.0000      -0.385382       -10.4868
  39   2.0000      -0.373540       -10.1645
  40   2.0000      -0.353644        -9.6231
  41   2.0000      -0.343400        -9.3444
  42   2.0000      -0.334907        -9.1133
  43   2.0000      -0.334333        -9.0977
  44   2.0000      -0.324383        -8.8269
  45   2.0000      -0.319285        -8.6882
  46   2.0000      -0.308093        -8.3836
  47   2.0000      -0.305841        -8.3224
  48   2.0000      -0.299128        -8.1397
  49   2.0000      -0.291894        -7.9428
  50   2.0000      -0.281751        -7.6668
  51   2.0000      -0.279817        -7.6142
  52   2.0000      -0.279206        -7.5976
  53   2.0000      -0.275063        -7.4848
  54   2.0000      -0.201263        -5.4766
  55   2.0000      -0.111971        -3.0469
  56   0.0000       0.016613         0.4521
  57   0.0000       0.023297         0.6339
  58   0.0000       0.030404         0.8273
  59   0.0000       0.035908         0.9771
  60   0.0000       0.044787         1.2187

MULLIKEN ATOMIC CHARGES
-----------------------
   0 C :   -0.212479
   1 C :   -0.010556
   2 N :   -0.287519
   3 H :    0.086863
   4 C :   -0.251468
   5 H :    0.061693
   6 H :    0.106920
   7 H :    0.083643
   8 C :   -0.232946
   9 H :    0.093701
  10 C :   -0.053768
  11 H :    0.084565
  12 C :   -0.258922
  13 H :    0.080336
  14 H :    0.077250
  15 C :   -0.186264
  16 H :    0.102455
  17 H :    0.090381
  18 H :    0.096739
  19 C :   -0.107459
  20 H :    0.092875
  21 H :    0.087874
  22 H :    0.097669
  23 C :   -0.014751
  24 H :    0.096055
  25 H :    0.115015
  26 F :   -0.219796
  27 H :    0.114077
  28 H :    0.099333
  29 C :    0.328801
  30 C :   -0.576279
  31 N :   -0.499929
  32 H :    0.214166
  33 H :    0.240426
  34 H :    0.243395
  35 H :    0.130278
  36 H :    0.087625
Sum of atomic charges:    0.0000000

LOEWDIN ATOMIC CHARGES
----------------------
   0 C :   -0.295395
   1 C :   -0.265667
   2 N :    0.131926
   3 H :    0.133858
   4 C :   -0.264545
   5 H :    0.130478
   6 H :    0.132387
   7 H :    0.134115
   8 C :   -0.265529
   9 H :    0.128192
  10 C :   -0.260960
  11 H :    0.133806
  12 C :   -0.265833
  13 H :    0.134093
  14 H :    0.133550
  15 C :   -0.264484
  16 H :    0.129909
  17 H :    0.133455
  18 H :    0.134453
  19 C :   -0.267670
  20 H :    0.135047
  21 H :    0.141895
  22 H :    0.137371
  23 C :   -0.337714
  24 H :    0.121944
  25 H :    0.126942
  26 F :    0.157153
  27 H :    0.128126
  28 H :    0.125139
  29 C :   -0.466922
  30 C :   -0.358669
  31 N :   -0.026947
  32 H :    0.152255
  33 H :    0.171869
  34 H :    0.172006
  35 H :    0.090413
  36 H :    0.089953

  Mayer bond orders larger than 0.100000
B(  0-C ,  1-C ) :   0.9771 B(  0-C ,  2-N ) :   0.9804 B(  0-C , 27-H ) :   0.9698
B(  0-C , 28-H ) :   0.9569 B(  1-C ,  3-H ) :   0.9339 B(  1-C ,  4-C ) :   1.0101
B(  1-C ,  5-H ) :   0.9342 B(  2-N , 29-C ) :   1.2196 B(  2-N , 34-H ) :   0.8698
B(  4-C ,  6-H ) :   0.9630 B(  4-C ,  7-H ) :   0.9408 B(  4-C ,  8-C ) :   1.0181
B(  8-C ,  9-H ) :   0.9693 B(  8-C , 10-C ) :   1.0226 B(  8-C , 11-H ) :   0.9376
B( 10-C , 12-C ) :   1.0097 B( 10-C , 13-H ) :   0.9415 B( 10-C , 14-H ) :   0.9442
B( 12-C , 15-C ) :   1.0138 B( 12-C , 16-H ) :   0.9714 B( 12-C , 17-H ) :   0.9370
B( 15-C , 18-H ) :   0.9656 B( 15-C , 19-C ) :   1.0068 B( 15-C , 20-H ) :   0.9418
B( 19-C , 21-H ) :   0.9322 B( 19-C , 22-H ) :   0.9416 B( 19-C , 23-C ) :   1.0432
B( 23-C , 24-H ) :   0.9624 B( 23-C , 25-H ) :   0.9523 B( 23-C , 26-F ) :   0.9132
B( 29-C , 30-C ) :   1.6488 B( 29-C , 31-N ) :   1.1194 B( 30-C , 35-H ) :   0.9947
B( 30-C , 36-H ) :   0.9841 B( 31-N , 32-H ) :   0.9180 B( 31-N , 33-H ) :   0.9159

Dispersion correction           -0.049817180
FINAL SINGLE POINT ENERGY      -642.673463639535

DIPOLE MOMENT
-------------
                                X             Y             Z
Electronic contribution:     -1.25446      -3.13751       9.49423
Nuclear contribution   :      1.09892       3.58083     -10.64472
                        -----------------------------------------
Total Dipole Moment    :     -0.15554       0.44332      -1.15048
                        -----------------------------------------
Magnitude (a.u.)       :      1.24271
Magnitude (Debye)      :      3.15872

Rotational constants in cm-1:     0.026768     0.016312     0.010954
Rotational constants in MHz :   802.489946   489.033275   328.388904

                             ****ORCA TERMINATED NORMALLY****
TOTAL RUN TIME: 0 days 0 hours 0 minutes 28 seconds 171 msec
