                         Program Version 5.0.0 -  RELEASE  -
|  1> !wB97X-D3 RIJCOSX def2-TZVP def2/J TightSCF
|  2> *xyz -1 1
|  3> C         -0.91495        0.61511        2.50554
|  4> C         -0.05915        1.50352        3.41058
|  5> H          0.36536        2.34431        2.86116
|  6> H         -0.69226        1.92021        4.19898
|  7> C          1.08303        0.74964        4.08571
|  8> O          2.22817        1.26348        4.01983
|  9> O          0.81003       -0.34541        4.63627
| 10> H         -0.30401        0.20228        1.73015
| 11> H         -1.69811        1.19946        2.06954
| 12> H         -1.34124       -0.17772        3.08397
| 13> *
| 14>
| 15> %MaxCore 64000
| 16>
| 17> %pal nprocs 4
| 18> end
| 19>
| 20> %scf
| 21>   MaxIter 150
| 22> end
| 23>
| 24>
| 25>                          ****END OF INPUT****

CARTESIAN COORDINATES (ANGSTROEM)
---------------------------------
  C     -0.914950    0.615110    2.505540
  C     -0.059150    1.503520    3.410580
  H      0.365360    2.344310    2.861160
  H     -0.692260    1.920210    4.198980
  C      1.083030    0.749640    4.085710
  O      2.228170    1.263480    4.019830
  O      0.810030   -0.345410    4.636270
  H     -0.304010    0.202280    1.730150
  H     -1.698110    1.199460    2.069540
  H     -1.341240   -0.177720    3.083970

 Total Charge           Charge          ....   -1
 Multiplicity           Mult            ....    1
 Number of Electrons    NEL             ....   40
 Basis Dimension        Dim             ....  185

ORBITAL ENERGIES
----------------

  NO   OCC          E(Eh)            E(eV)
   0   2.0000     -18.952453      -515.7225
   1   2.0000     -18.951437      -515.6948
   2   2.0000     -10.148764      -276.1619
   3   2.0000     -10.106630      -275.0154
   4   2.0000     -10.095488      -274.7122
   5   2.0000      -0.926455       -25.2101
   6   2.0000      -0.831192       -22.6179
   7   2.0000      -0.718363       -19.5477
   8   2.0000      -0.582765       -15.8579
   9   2.0000      -0.419559       -11.4168
  10   2.0000      -0.391262       -10.6468
  11   2.0000      -0.356485        -9.7005
  12   2.0000      -0.323982        -8.8160
  13   2.0000      -0.307618        -8.3707
  14   2.0000      -0.299191        -8.1414
  15   2.0000      -0.268066        -7.2944
  16   2.0000      -0.250577        -6.8186
  17   2.0000      -0.131834        -3.5874
  18   2.0000      -0.126894        -3.4530
  19   2.0000      -0.114098        -3.1048
  20   0.0000       0.262973         7.1559
  21   0.0000       0.305291         8.3074
  22   0.0000       0.324612         8.8331
  23   0.0000       0.329329         8.9615
  24   0.0000       0.343717         9.3530

MULLIKEN ATOMIC CHARGES
-----------------------
   0 C :   -0.310014
   1 C :   -0.131776
   2 H :    0.046705
   3 H :    0.037911
   4 C :    0.251781
   5 O :   -0.565105
   6 O :   -0.568082
   7 H :    0.085869
   8 H :    0.052829
   9 H :    0.099882
Sum of atomic charges:   -1.0000000

LOEWDIN ATOMIC CHARGES
----------------------
   0 C :   -0.323749
   1 C :   -0.290071
   2 H :    0.118790
   3 H :    0.121818
   4 C :   -0.694343
   5 O :   -0.123655
   6 O :   -0.120357
   7 H :    0.107769
   8 H :    0.092115
   9 H :    0.111683

  Mayer bond orders larger than 0.100000
B(  0-C ,  1-C ) :   0.9584 B(  0-C ,  7-H ) :   0.9846 B(  0-C ,  8-H ) :   0.9763
B(  0-C ,  9-H ) :   0.9753 B(  1-C ,  2-H ) :   0.9665 B(  1-C ,  3-H ) :   0.9628
B(  1-C ,  4-C ) :   0.9513 B(  4-C ,  5-O ) :   1.8511 B(  4-C ,  6-O ) :   1.8104

Dispersion correction           -0.001940068
FINAL SINGLE POINT ENERGY      -267.866303439363

DIPOLE MOMENT
-------------
                                X             Y             Z
Electronic contribution:      4.76536      -1.01357       3.37881
Nuclear contribution   :     -6.38408       1.63097      -4.40540
                        -----------------------------------------
Total Dipole Moment    :     -1.61872       0.61740      -1.02659
                        -----------------------------------------
Magnitude (a.u.)       :      2.01378
Magnitude (Debye)      :      5.11862

Rotational constants in cm-1:     0.319732     0.134414     0.104753
Rotational constants in MHz :  9585.336550  4029.633034  3140.404334

                             ****ORCA TERMINATED NORMALLY****
TOTAL RUN TIME: 0 days 0 hours 0 minutes 28 seconds 639 msec
