                         Program Version 5.0.0 -  RELEASE  -
|  1> !wB97X-D3 RIJCOSX def2-TZVP def2/J TightSCF
|  2> *xyz 1 1
|  3> C          4.60295       -2.44010        2.63478
|  4> C          3.86085       -1.59157        3.62289
|  5> N          2.75650       -2.04616        4.16633
|  6> N          4.25433       -0.36291        3.86046
|  7> H          3.56526        0.31099        4.16898
|  8> H          5.05429       -0.01606        3.33784
|  9> H          2.43970       -2.97389        3.89740
| 10> H          2.06687       -1.41253        4.54981
| 11> C          3.74469       -2.58056        1.36188
| 12> H          5.56156       -1.97135        2.40708
| 13> H          4.81050       -3.42255        3.06310
| 14> H          4.26314       -3.18477        0.64702
| 15> H          3.56325       -1.61180        0.94535
| 16> H          2.81197       -3.04259        1.60980
| 17> *
| 18>
| 19> %MaxCore 64000
| 20>
| 21> %pal nprocs 4
| 22> end
| 23>
| 24> %scf
| 25>   MaxIter 150
| 26> end
| 27>
| 28>
| 29>                          ****END OF INPUT****

CARTESIAN COORDINATES (ANGSTROEM)
---------------------------------
  C      4.602950   -2.440100    2.634780
  C      3.860850   -1.591570    3.622890
  N      2.756500   -2.046160    4.166330
  N      4.254330   -0.362910    3.860460
  H      3.565260    0.310990    4.168980
  H      5.054290   -0.016060    3.337840
  H      2.439700   -2.973890    3.897400
  H      2.066870   -1.412530    4.549810
  C      3.744690   -2.580560    1.361880
  H      5.561560   -1.971350    2.407080
  H      4.810500   -3.422550    3.063100
  H      4.263140   -3.184770    0.647020
  H      3.563250   -1.611800    0.945350
  H      2.811970   -3.042590    1.609800

 Total Charge           Charge          ....    1
 Multiplicity           Mult            ....    1
 Number of Electrons    NEL             ....   40
 Basis Dimension        Dim             ....  209

ORBITAL ENERGIES
----------------

  NO   OCC          E(Eh)            E(eV)
   0   2.0000     -14.667032      -399.1102
   1   2.0000     -14.666181      -399.0871
   2   2.0000     -10.601054      -288.4693
   3   2.0000     -10.477848      -285.1167
   4   2.0000     -10.434848      -283.9466
   5   2.0000      -1.327397       -36.1203
   6   2.0000      -1.227045       -33.3896
   7   2.0000      -1.089221       -29.6392
   8   2.0000      -0.972948       -26.4753
   9   2.0000      -0.925301       -25.1787
  10   2.0000      -0.875610       -23.8265
  11   2.0000      -0.858473       -23.3603
  12   2.0000      -0.796385       -21.6707
  13   2.0000      -0.767207       -20.8768
  14   2.0000      -0.726835       -19.7782
  15   2.0000      -0.700718       -19.0675
  16   2.0000      -0.645359       -17.5611
  17   2.0000      -0.639710       -17.4074
  18   2.0000      -0.627015       -17.0620
  19   2.0000      -0.589234       -16.0339
  20   0.0000      -0.131972        -3.5911
  21   0.0000      -0.075600        -2.0572
  22   0.0000      -0.030155        -0.8206
  23   0.0000      -0.028513        -0.7759
  24   0.0000       0.003352         0.0912

MULLIKEN ATOMIC CHARGES
-----------------------
   0 C :   -0.250674
   1 C :    0.352829
   2 N :   -0.385390
   3 N :   -0.373015
   4 H :    0.293054
   5 H :    0.310032
   6 H :    0.312194
   7 H :    0.296323
   8 C :   -0.337865
   9 H :    0.148971
  10 H :    0.187169
  11 H :    0.179177
  12 H :    0.142815
  13 H :    0.124379
Sum of atomic charges:    1.0000000

LOEWDIN ATOMIC CHARGES
----------------------
   0 C :   -0.216337
   1 C :   -0.290198
   2 N :    0.111332
   3 N :    0.109903
   4 H :    0.202335
   5 H :    0.211797
   6 H :    0.211620
   7 H :    0.201817
   8 C :   -0.256485
   9 H :    0.158020
  10 H :    0.166784
  11 H :    0.139432
  12 H :    0.128760
  13 H :    0.121220

  Mayer bond orders larger than 0.100000
B(  0-C ,  1-C ) :   0.9883 B(  0-C ,  8-C ) :   0.9466 B(  0-C ,  9-H ) :   0.9668
B(  0-C , 10-H ) :   0.9477 B(  1-C ,  2-N ) :   1.4318 B(  1-C ,  3-N ) :   1.4533
B(  2-N ,  6-H ) :   0.8856 B(  2-N ,  7-H ) :   0.8867 B(  3-N ,  4-H ) :   0.8872
B(  3-N ,  5-H ) :   0.8817 B(  8-C , 11-H ) :   0.9638 B(  8-C , 12-H ) :   0.9590
B(  8-C , 13-H ) :   0.9744

Dispersion correction           -0.003043751
FINAL SINGLE POINT ENERGY      -229.052845431077

DIPOLE MOMENT
-------------
                                X             Y             Z
Electronic contribution:     -0.24147       1.79950       3.73133
Nuclear contribution   :     -0.22400      -1.16268      -3.30447
                        -----------------------------------------
Total Dipole Moment    :     -0.46548       0.63682       0.42686
                        -----------------------------------------
Magnitude (a.u.)       :      0.89689
Magnitude (Debye)      :      2.27972

Rotational constants in cm-1:     0.258103     0.130571     0.102508
Rotational constants in MHz :  7737.732062  3914.431392  3073.119154

                             ****ORCA TERMINATED NORMALLY****
TOTAL RUN TIME: 0 days 0 hours 0 minutes 39 seconds 147 msec
