                         Program Version 5.0.0 -  RELEASE  -
|  1> !wB97X-D3 RIJCOSX def2-TZVP def2/J TightSCF xyzfile
|  2>
|  3> *xyzfile 0 1 B.xyz
|  4>
|  5> %MaxCore 64000
|  6>
|  7> %pal nprocs 18
|  8> end
|  9>
| 10> %scf
| 11>   MaxIter 150
| 12> end
| 13>
| 14>
| 15>                          ****END OF INPUT****

CARTESIAN COORDINATES (ANGSTROEM)
---------------------------------
  C      4.602954   -2.440100    2.634780
  C     -0.914947    0.615112    2.505538
  C     -0.059146    1.503524    3.410578
  H      0.365364    2.344315    2.861161
  H     -0.692261    1.920207    4.198985
  C      1.083027    0.749640    4.085705
  C      3.860851   -1.591565    3.622893
  N      2.756502   -2.046159    4.166333
  N      4.254325   -0.362905    3.860455
  H      3.565256    0.310994    4.168983
  H      5.054292   -0.016059    3.337838
  H      2.439696   -2.973894    3.897395
  H      2.066869   -1.412532    4.549813
  O      2.228167    1.263475    4.019826
  O      0.810034   -0.345411    4.636269
  C      3.744685   -2.580557    1.361882
  C      0.772139    0.636882    0.562129
  C     -0.130740   -0.193985    1.470763
  H     -0.840563   -0.760165    0.856377
  H      0.466691   -0.938942    2.006959
  H     -1.647961    1.245963    1.991076
  H     -1.478180   -0.081046    3.130424
  C      3.203721   -1.256004    0.826211
  H      2.898939   -3.239289    1.583074
  H      4.334962   -3.095523    0.600188
  C      2.107815   -1.442385   -0.216865
  H      2.786775   -0.672760    1.650711
  H      4.021008   -0.652993    0.414046
  C      1.390662   -0.145912   -0.602422
  H      1.372179   -2.152184    0.176151
  H      2.523302   -1.906787   -1.117115
  H      1.561361    1.100094    1.161831
  H      0.195516    1.468325    0.142758
  H      0.602893   -0.398214   -1.319716
  H      2.087247    0.508272   -1.137335
  H      5.561557   -1.971347    2.407084
  H      4.810498   -3.422552    3.063099

 Total Charge           Charge          ....    0
 Multiplicity           Mult            ....    1
 Number of Electrons    NEL             ....  118
 Basis Dimension        Dim             ....  597

ORBITAL ENERGIES
----------------

  NO   OCC          E(Eh)            E(eV)
   0   2.0000     -19.149527      -521.0851
   1   2.0000     -19.147556      -521.0315
   2   2.0000     -14.462860      -393.5544
   3   2.0000     -14.462643      -393.5485
   4   2.0000     -10.415264      -283.4137
   5   2.0000     -10.336753      -281.2773
   6   2.0000     -10.327646      -281.0295
   7   2.0000     -10.308467      -280.5076
   8   2.0000     -10.284019      -279.8424
   9   2.0000     -10.275002      -279.5970
  10   2.0000     -10.266873      -279.3758
  11   2.0000     -10.255912      -279.0776
  12   2.0000     -10.252588      -278.9871
  13   2.0000     -10.248337      -278.8714
  14   2.0000     -10.238935      -278.6156
  15   2.0000      -1.139084       -30.9961
  16   2.0000      -1.122321       -30.5399
  17   2.0000      -1.040302       -28.3081
  18   2.0000      -1.023825       -27.8597
  19   2.0000      -0.956541       -26.0288
  20   2.0000      -0.921457       -25.0741
  21   2.0000      -0.890456       -24.2305
  22   2.0000      -0.849387       -23.1130
  23   2.0000      -0.809757       -22.0346
  24   2.0000      -0.770296       -20.9608
  25   2.0000      -0.752854       -20.4862
  26   2.0000      -0.729054       -19.8386
  27   2.0000      -0.694845       -18.9077
  28   2.0000      -0.684308       -18.6210
  29   2.0000      -0.675794       -18.3893
  30   2.0000      -0.653803       -17.7909
  31   2.0000      -0.616341       -16.7715
  32   2.0000      -0.607212       -16.5231
  33   2.0000      -0.587420       -15.9845
  34   2.0000      -0.577659       -15.7189
  35   2.0000      -0.565234       -15.3808
  36   2.0000      -0.557737       -15.1768
  37   2.0000      -0.542653       -14.7663
  38   2.0000      -0.531609       -14.4658
  39   2.0000      -0.518484       -14.1087
  40   2.0000      -0.512529       -13.9466
  41   2.0000      -0.503583       -13.7032
  42   2.0000      -0.498959       -13.5774
  43   2.0000      -0.492987       -13.4149
  44   2.0000      -0.471146       -12.8205
  45   2.0000      -0.467980       -12.7344
  46   2.0000      -0.461942       -12.5701
  47   2.0000      -0.456550       -12.4234
  48   2.0000      -0.445087       -12.1114
  49   2.0000      -0.427753       -11.6398
  50   2.0000      -0.424047       -11.5389
  51   2.0000      -0.415708       -11.3120
  52   2.0000      -0.400583       -10.9004
  53   2.0000      -0.395404       -10.7595
  54   2.0000      -0.392846       -10.6899
  55   2.0000      -0.385689       -10.4951
  56   2.0000      -0.327366        -8.9081
  57   2.0000      -0.316451        -8.6111
  58   2.0000      -0.313390        -8.5278
  59   0.0000       0.047374         1.2891
  60   0.0000       0.080275         2.1844
  61   0.0000       0.101247         2.7551
  62   0.0000       0.116186         3.1616
  63   0.0000       0.129816         3.5325

MULLIKEN ATOMIC CHARGES
-----------------------
   0 C :   -0.221383
   1 C :   -0.164301
   2 C :   -0.166905
   3 H :    0.107833
   4 H :    0.106925
   5 C :    0.338373
   6 C :    0.247008
   7 N :   -0.341944
   8 N :   -0.341696
   9 H :    0.289545
  10 H :    0.254408
  11 H :    0.255562
  12 H :    0.291637
  13 O :   -0.570126
  14 O :   -0.559412
  15 C :   -0.231144
  16 C :   -0.282295
  17 C :   -0.217736
  18 H :    0.098381
  19 H :    0.095245
  20 H :    0.092465
  21 H :    0.103845
  22 C :   -0.270873
  23 H :    0.123545
  24 H :    0.125268
  25 C :   -0.185452
  26 H :    0.131574
  27 H :    0.102713
  28 C :   -0.172259
  29 H :    0.111339
  30 H :    0.105766
  31 H :    0.148176
  32 H :    0.105673
  33 H :    0.107038
  34 H :    0.099101
  35 H :    0.127570
  36 H :    0.156535
Sum of atomic charges:   -0.0000000

LOEWDIN ATOMIC CHARGES
----------------------
   0 C :   -0.211051
   1 C :   -0.265777
   2 C :   -0.239581
   3 H :    0.137108
   4 H :    0.144507
   5 C :   -0.627242
   6 C :   -0.329046
   7 N :    0.104024
   8 N :    0.098441
   9 H :    0.157344
  10 H :    0.186816
  11 H :    0.188193
  12 H :    0.157888
  13 O :   -0.066983
  14 O :   -0.061019
  15 C :   -0.250702
  16 C :   -0.270584
  17 C :   -0.271515
  18 H :    0.133400
  19 H :    0.132645
  20 H :    0.131875
  21 H :    0.139741
  22 C :   -0.264381
  23 H :    0.137843
  24 H :    0.141726
  25 C :   -0.268382
  26 H :    0.146580
  27 H :    0.136574
  28 C :   -0.267020
  29 H :    0.136906
  30 H :    0.134258
  31 H :    0.139005
  32 H :    0.137147
  33 H :    0.136508
  34 H :    0.134366
  35 H :    0.147527
  36 H :    0.152864

  Mayer bond orders larger than 0.100000
B(  0-C ,  6-C ) :   0.9715 B(  0-C , 15-C ) :   0.9403 B(  0-C , 35-H ) :   0.9798
B(  0-C , 36-H ) :   0.9752 B(  1-C ,  2-C ) :   0.9582 B(  1-C , 17-C ) :   0.9960
B(  1-C , 20-H ) :   0.9776 B(  1-C , 21-H ) :   0.9686 B(  2-C ,  3-H ) :   0.9792
B(  2-C ,  4-H ) :   0.9544 B(  2-C ,  5-C ) :   0.9568 B(  5-C , 13-O ) :   1.6520
B(  5-C , 14-O ) :   1.6661 B(  6-C ,  7-N ) :   1.4843 B(  6-C ,  8-N ) :   1.4897
B(  7-N , 11-H ) :   0.9123 B(  7-N , 12-H ) :   0.7562 B(  8-N ,  9-H ) :   0.7645
B(  8-N , 10-H ) :   0.9096 B(  9-H , 13-O ) :   0.1931 B( 12-H , 14-O ) :   0.2004
B( 15-C , 22-C ) :   0.9182 B( 15-C , 23-H ) :   0.9941 B( 15-C , 24-H ) :   0.9719
B( 16-C , 17-C ) :   0.9191 B( 16-C , 28-C ) :   0.9765 B( 16-C , 31-H ) :   0.9782
B( 16-C , 32-H ) :   0.9732 B( 17-C , 18-H ) :   0.9739 B( 17-C , 19-H ) :   0.9754
B( 22-C , 25-C ) :   0.9722 B( 22-C , 26-H ) :   0.9756 B( 22-C , 27-H ) :   0.9620
B( 25-C , 28-C ) :   0.9739 B( 25-C , 29-H ) :   0.9791 B( 25-C , 30-H ) :   0.9747
B( 28-C , 33-H ) :   0.9803 B( 28-C , 34-H ) :   0.9847

Dispersion correction           -0.019998660
FINAL SINGLE POINT ENERGY      -692.510268763223

DIPOLE MOMENT
-------------
                                X             Y             Z
Electronic contribution:      3.47567       1.58164      12.99132
Nuclear contribution   :     -1.50655      -3.48027     -14.35034
                        -----------------------------------------
Total Dipole Moment    :      1.96912      -1.89864      -1.35902
                        -----------------------------------------
Magnitude (a.u.)       :      3.05437
Magnitude (Debye)      :      7.76360

Rotational constants in cm-1:     0.021781     0.017296     0.011403
Rotational constants in MHz :   652.971749   518.510612   341.853154

                             ****ORCA TERMINATED NORMALLY****
TOTAL RUN TIME: 0 days 0 hours 1 minutes 44 seconds 893 msec
