                         Program Version 5.0.0 -  RELEASE  -
|  1> !wB97X-D3 RIJCOSX def2-TZVP def2/J TightSCF
|  2> *xyz 0 1
|  3> C         -0.91495        0.61511        2.50554
|  4> C         -0.05915        1.50352        3.41058
|  5> H          0.36536        2.34431        2.86116
|  6> H         -0.69226        1.92021        4.19898
|  7> C          1.08303        0.74964        4.08571
|  8> F          2.22817        1.26348        4.01983
|  9> O          0.81003       -0.34541        4.63627
| 10> H         -0.30401        0.20228        1.73015
| 11> H         -1.69811        1.19946        2.06954
| 12> H         -1.34124       -0.17772        3.08397
| 13> *
| 14>
| 15> %MaxCore 64000
| 16>
| 17> %pal nprocs 4
| 18> end
| 19>
| 20> %scf
| 21>   MaxIter 150
| 22> end
| 23>
| 24>
| 25>                          ****END OF INPUT****

CARTESIAN COORDINATES (ANGSTROEM)
---------------------------------
  C     -0.914950    0.615110    2.505540
  C     -0.059150    1.503520    3.410580
  H      0.365360    2.344310    2.861160
  H     -0.692260    1.920210    4.198980
  C      1.083030    0.749640    4.085710
  F      2.228170    1.263480    4.019830
  O      0.810030   -0.345410    4.636270
  H     -0.304010    0.202280    1.730150
  H     -1.698110    1.199460    2.069540
  H     -1.341240   -0.177720    3.083970

 Total Charge           Charge          ....    0
 Multiplicity           Mult            ....    1
 Number of Electrons    NEL             ....   40
 Basis Dimension        Dim             ....  185

ORBITAL ENERGIES
----------------

  NO   OCC          E(Eh)            E(eV)
   0   2.0000     -24.854046      -676.3130
   1   2.0000     -19.234206      -523.3894
   2   2.0000     -10.454193      -284.4731
   3   2.0000     -10.307341      -280.4770
   4   2.0000     -10.276848      -279.6473
   5   2.0000      -1.434053       -39.0226
   6   2.0000      -1.147806       -31.2334
   7   2.0000      -0.917697       -24.9718
   8   2.0000      -0.802856       -21.8468
   9   2.0000      -0.745485       -20.2857
  10   2.0000      -0.652857       -17.7651
  11   2.0000      -0.638971       -17.3873
  12   2.0000      -0.612802       -16.6752
  13   2.0000      -0.567141       -15.4327
  14   2.0000      -0.533816       -14.5259
  15   2.0000      -0.494261       -13.4495
  16   2.0000      -0.473852       -12.8942
  17   2.0000      -0.470408       -12.8004
  18   2.0000      -0.441473       -12.0131
  19   2.0000      -0.389317       -10.5939
  20   0.0000       0.057088         1.5535
  21   0.0000       0.116928         3.1818
  22   0.0000       0.155692         4.2366
  23   0.0000       0.171300         4.6613
  24   0.0000       0.182600         4.9688

MULLIKEN ATOMIC CHARGES
-----------------------
   0 C :   -0.344975
   1 C :   -0.205986
   2 H :    0.113933
   3 H :    0.129267
   4 C :    0.395801
   5 F :   -0.106884
   6 O :   -0.361894
   7 H :    0.117719
   8 H :    0.121807
   9 H :    0.141211
Sum of atomic charges:    0.0000000

LOEWDIN ATOMIC CHARGES
----------------------
   0 C :   -0.285430
   1 C :   -0.260377
   2 H :    0.138816
   3 H :    0.155279
   4 C :   -0.490755
   5 F :    0.320559
   6 O :    0.058103
   7 H :    0.119699
   8 H :    0.118494
   9 H :    0.125613

  Mayer bond orders larger than 0.100000
B(  0-C ,  1-C ) :   0.9774 B(  0-C ,  7-H ) :   0.9777 B(  0-C ,  8-H ) :   0.9731
B(  0-C ,  9-H ) :   0.9696 B(  1-C ,  2-H ) :   0.9668 B(  1-C ,  3-H ) :   0.9413
B(  1-C ,  4-C ) :   0.9903 B(  4-C ,  5-F ) :   1.1577 B(  4-C ,  6-O ) :   2.0226

Dispersion correction           -0.001903263
FINAL SINGLE POINT ENERGY      -292.437970841963

DIPOLE MOMENT
-------------
                                X             Y             Z
Electronic contribution:      7.74297      -0.15606       4.09272
Nuclear contribution   :     -8.12386       1.06915      -4.71960
                        -----------------------------------------
Total Dipole Moment    :     -0.38089       0.91308      -0.62688
                        -----------------------------------------
Magnitude (a.u.)       :      1.17123
Magnitude (Debye)      :      2.97703

Rotational constants in cm-1:     0.309513     0.127560     0.099675
Rotational constants in MHz :  9278.979128  3824.146597  2988.174827

                             ****ORCA TERMINATED NORMALLY****
TOTAL RUN TIME: 0 days 0 hours 0 minutes 29 seconds 512 msec
