                         Program Version 5.0.0 -  RELEASE  -
|  1> !wB97X-D3 RIJCOSX def2-TZVP def2/J TightSCF
|  2> *xyz 0 1
|  3> C          4.60295       -2.44010        2.63478
|  4> C          3.86085       -1.59157        3.62289
|  5> C          2.75650       -2.04616        4.16633
|  6> N          4.25433       -0.36291        3.86046
|  7> H          3.56526        0.31099        4.16898
|  8> H          5.05429       -0.01606        3.33784
|  9> H          2.43970       -2.97389        3.89740
| 10> H          2.06687       -1.41253        4.54981
| 11> C          3.74469       -2.58056        1.36188
| 12> H          5.56156       -1.97135        2.40708
| 13> H          4.81050       -3.42255        3.06310
| 14> H          4.26314       -3.18477        0.64702
| 15> H          3.56325       -1.61180        0.94535
| 16> H          2.81197       -3.04259        1.60980
| 17> *
| 18>
| 19> %MaxCore 64000
| 20>
| 21> %pal nprocs 4
| 22> end
| 23>
| 24> %scf
| 25>   MaxIter 150
| 26> end
| 27>
| 28>
| 29>                          ****END OF INPUT****

CARTESIAN COORDINATES (ANGSTROEM)
---------------------------------
  C      4.602950   -2.440100    2.634780
  C      3.860850   -1.591570    3.622890
  C      2.756500   -2.046160    4.166330
  N      4.254330   -0.362910    3.860460
  H      3.565260    0.310990    4.168980
  H      5.054290   -0.016060    3.337840
  H      2.439700   -2.973890    3.897400
  H      2.066870   -1.412530    4.549810
  C      3.744690   -2.580560    1.361880
  H      5.561560   -1.971350    2.407080
  H      4.810500   -3.422550    3.063100
  H      4.263140   -3.184770    0.647020
  H      3.563250   -1.611800    0.945350
  H      2.811970   -3.042590    1.609800

 Total Charge           Charge          ....    0
 Multiplicity           Mult            ....    1
 Number of Electrons    NEL             ....   40
 Basis Dimension        Dim             ....  209

ORBITAL ENERGIES
----------------

  NO   OCC          E(Eh)            E(eV)
   0   2.0000     -14.420044      -392.3894
   1   2.0000     -10.293236      -280.0932
   2   2.0000     -10.277291      -279.6593
   3   2.0000     -10.258750      -279.1548
   4   2.0000     -10.199051      -277.5303
   5   2.0000      -1.050209       -28.5777
   6   2.0000      -0.898713       -24.4552
   7   2.0000      -0.826191       -22.4818
   8   2.0000      -0.751749       -20.4561
   9   2.0000      -0.667546       -18.1648
  10   2.0000      -0.626104       -17.0372
  11   2.0000      -0.584400       -15.9023
  12   2.0000      -0.548988       -14.9387
  13   2.0000      -0.511207       -13.9107
  14   2.0000      -0.485440       -13.2095
  15   2.0000      -0.474239       -12.9047
  16   2.0000      -0.447752       -12.1840
  17   2.0000      -0.436579       -11.8799
  18   2.0000      -0.423307       -11.5188
  19   2.0000      -0.276792        -7.5319
  20   0.0000       0.107929         2.9369
  21   0.0000       0.118389         3.2215
  22   0.0000       0.151755         4.1295
  23   0.0000       0.157271         4.2796
  24   0.0000       0.170094         4.6285

MULLIKEN ATOMIC CHARGES
-----------------------
   0 C :   -0.200292
   1 C :    0.222048
   2 C :   -0.424343
   3 N :   -0.486914
   4 H :    0.243146
   5 H :    0.233550
   6 H :    0.092170
   7 H :    0.089366
   8 C :   -0.315127
   9 H :    0.083741
  10 H :    0.125023
  11 H :    0.110705
  12 H :    0.108542
  13 H :    0.118386
Sum of atomic charges:   -0.0000000

LOEWDIN ATOMIC CHARGES
----------------------
   0 C :   -0.233776
   1 C :   -0.372777
   2 C :   -0.277059
   3 N :   -0.003457
   4 H :    0.175695
   5 H :    0.169715
   6 H :    0.106240
   7 H :    0.098060
   8 C :   -0.285378
   9 H :    0.130405
  10 H :    0.146057
  11 H :    0.111754
  12 H :    0.116261
  13 H :    0.118260

  Mayer bond orders larger than 0.100000
B(  0-C ,  1-C ) :   0.9394 B(  0-C ,  8-C ) :   0.9596 B(  0-C ,  9-H ) :   0.9857
B(  0-C , 10-H ) :   0.9877 B(  1-C ,  2-C ) :   1.7598 B(  1-C ,  3-N ) :   1.1496
B(  2-C ,  6-H ) :   1.0070 B(  2-C ,  7-H ) :   0.9950 B(  3-N ,  4-H ) :   0.9178
B(  3-N ,  5-H ) :   0.9248 B(  8-C , 11-H ) :   0.9783 B(  8-C , 12-H ) :   0.9762
B(  8-C , 13-H ) :   0.9794

Dispersion correction           -0.003025704
FINAL SINGLE POINT ENERGY      -212.577923316430

DIPOLE MOMENT
-------------
                                X             Y             Z
Electronic contribution:      0.82634       1.79948       2.52390
Nuclear contribution   :     -0.47010      -1.22282      -3.06417
                        -----------------------------------------
Total Dipole Moment    :      0.35624       0.57666      -0.54026
                        -----------------------------------------
Magnitude (a.u.)       :      0.86679
Magnitude (Debye)      :      2.20321

Rotational constants in cm-1:     0.271862     0.131962     0.105499
Rotational constants in MHz :  8150.219120  3956.123671  3162.785522

                             ****ORCA TERMINATED NORMALLY****
TOTAL RUN TIME: 0 days 0 hours 0 minutes 41 seconds 624 msec
