                         Program Version 5.0.0 -  RELEASE  -
|  1> !wB97X-D3 RIJCOSX def2-TZVP def2/J TightSCF
|  2> *xyz 0 1
|  3> C         -0.91495        0.61511        2.50554
|  4> C         -0.05915        1.50352        3.41058
|  5> H          0.36536        2.34431        2.86116
|  6> H         -0.69226        1.92021        4.19898
|  7> C          1.08303        0.74964        4.08571
|  8> O          2.22817        1.26348        4.01983
|  9> F          0.81003       -0.34541        4.63627
| 10> H         -0.30401        0.20228        1.73015
| 11> H         -1.69811        1.19946        2.06954
| 12> H         -1.34124       -0.17772        3.08397
| 13> *
| 14>
| 15> %MaxCore 64000
| 16>
| 17> %pal nprocs 4
| 18> end
| 19>
| 20> %scf
| 21>   MaxIter 150
| 22> end
| 23>
| 24>
| 25>                          ****END OF INPUT****

CARTESIAN COORDINATES (ANGSTROEM)
---------------------------------
  C     -0.914950    0.615110    2.505540
  C     -0.059150    1.503520    3.410580
  H      0.365360    2.344310    2.861160
  H     -0.692260    1.920210    4.198980
  C      1.083030    0.749640    4.085710
  O      2.228170    1.263480    4.019830
  F      0.810030   -0.345410    4.636270
  H     -0.304010    0.202280    1.730150
  H     -1.698110    1.199460    2.069540
  H     -1.341240   -0.177720    3.083970

 Total Charge           Charge          ....    0
 Multiplicity           Mult            ....    1
 Number of Electrons    NEL             ....   40
 Basis Dimension        Dim             ....  185

ORBITAL ENERGIES
----------------

  NO   OCC          E(Eh)            E(eV)
   0   2.0000     -24.855239      -676.3454
   1   2.0000     -19.233122      -523.3599
   2   2.0000     -10.453496      -284.4541
   3   2.0000     -10.306747      -280.4608
   4   2.0000     -10.282378      -279.7977
   5   2.0000      -1.435560       -39.0636
   6   2.0000      -1.145800       -31.1788
   7   2.0000      -0.922020       -25.0894
   8   2.0000      -0.798683       -21.7333
   9   2.0000      -0.752736       -20.4830
  10   2.0000      -0.655757       -17.8441
  11   2.0000      -0.645872       -17.5751
  12   2.0000      -0.603005       -16.4086
  13   2.0000      -0.568087       -15.4584
  14   2.0000      -0.534775       -14.5520
  15   2.0000      -0.499485       -13.5917
  16   2.0000      -0.481062       -13.0904
  17   2.0000      -0.474051       -12.8996
  18   2.0000      -0.442977       -12.0540
  19   2.0000      -0.383833       -10.4446
  20   0.0000       0.060084         1.6350
  21   0.0000       0.112236         3.0541
  22   0.0000       0.154544         4.2053
  23   0.0000       0.173462         4.7201
  24   0.0000       0.184377         5.0172

MULLIKEN ATOMIC CHARGES
-----------------------
   0 C :   -0.347237
   1 C :   -0.204198
   2 H :    0.139556
   3 H :    0.119994
   4 C :    0.385173
   5 O :   -0.358365
   6 F :   -0.109303
   7 H :    0.125781
   8 H :    0.126830
   9 H :    0.121768
Sum of atomic charges:    0.0000000

LOEWDIN ATOMIC CHARGES
----------------------
   0 C :   -0.293627
   1 C :   -0.255805
   2 H :    0.152067
   3 H :    0.150001
   4 C :   -0.492918
   5 O :    0.054315
   6 F :    0.325255
   7 H :    0.120885
   8 H :    0.120559
   9 H :    0.119268

  Mayer bond orders larger than 0.100000
B(  0-C ,  1-C ) :   0.9658 B(  0-C ,  7-H ) :   0.9749 B(  0-C ,  8-H ) :   0.9738
B(  0-C ,  9-H ) :   0.9722 B(  1-C ,  2-H ) :   0.9675 B(  1-C ,  3-H ) :   0.9439
B(  1-C ,  4-C ) :   1.0055 B(  4-C ,  5-O ) :   2.0398 B(  4-C ,  6-F ) :   1.1474

Dispersion correction           -0.001900834
FINAL SINGLE POINT ENERGY      -292.436944704521

DIPOLE MOMENT
-------------
                                X             Y             Z
Electronic contribution:      5.34122      -2.84346       5.10909
Nuclear contribution   :     -6.57765       2.82334      -5.39171
                        -----------------------------------------
Total Dipole Moment    :     -1.23643      -0.02012      -0.28261
                        -----------------------------------------
Magnitude (a.u.)       :      1.26848
Magnitude (Debye)      :      3.22422

Rotational constants in cm-1:     0.294245     0.132994     0.101060
Rotational constants in MHz :  8821.228602  3987.049251  3029.696815

                             ****ORCA TERMINATED NORMALLY****
TOTAL RUN TIME: 0 days 0 hours 0 minutes 31 seconds 374 msec
