                         Program Version 5.0.0 -  RELEASE  -
|  1> !wB97X-D3 RIJCOSX def2-TZVP def2/J TightSCF
|  2> *xyz 0 1
|  3> C          4.60295       -2.44010        2.63478
|  4> C          3.86085       -1.59157        3.62289
|  5> N          2.75650       -2.04616        4.16633
|  6> C          4.25433       -0.36291        3.86046
|  7> H          3.56526        0.31099        4.16898
|  8> H          5.05429       -0.01606        3.33784
|  9> H          2.43970       -2.97389        3.89740
| 10> H          2.06687       -1.41253        4.54981
| 11> C          3.74469       -2.58056        1.36188
| 12> H          5.56156       -1.97135        2.40708
| 13> H          4.81050       -3.42255        3.06310
| 14> H          4.26314       -3.18477        0.64702
| 15> H          3.56325       -1.61180        0.94535
| 16> H          2.81197       -3.04259        1.60980
| 17> *
| 18>
| 19> %MaxCore 64000
| 20>
| 21> %pal nprocs 4
| 22> end
| 23>
| 24> %scf
| 25>   MaxIter 150
| 26> end
| 27>
| 28>
| 29>                          ****END OF INPUT****

CARTESIAN COORDINATES (ANGSTROEM)
---------------------------------
  C      4.602950   -2.440100    2.634780
  C      3.860850   -1.591570    3.622890
  N      2.756500   -2.046160    4.166330
  C      4.254330   -0.362910    3.860460
  H      3.565260    0.310990    4.168980
  H      5.054290   -0.016060    3.337840
  H      2.439700   -2.973890    3.897400
  H      2.066870   -1.412530    4.549810
  C      3.744690   -2.580560    1.361880
  H      5.561560   -1.971350    2.407080
  H      4.810500   -3.422550    3.063100
  H      4.263140   -3.184770    0.647020
  H      3.563250   -1.611800    0.945350
  H      2.811970   -3.042590    1.609800

 Total Charge           Charge          ....    0
 Multiplicity           Mult            ....    1
 Number of Electrons    NEL             ....   40
 Basis Dimension        Dim             ....  209

ORBITAL ENERGIES
----------------

  NO   OCC          E(Eh)            E(eV)
   0   2.0000     -14.420196      -392.3935
   1   2.0000     -10.294374      -280.1242
   2   2.0000     -10.276859      -279.6475
   3   2.0000     -10.262646      -279.2608
   4   2.0000     -10.200439      -277.5681
   5   2.0000      -1.050106       -28.5748
   6   2.0000      -0.896847       -24.4044
   7   2.0000      -0.834511       -22.7082
   8   2.0000      -0.747057       -20.3285
   9   2.0000      -0.674599       -18.3568
  10   2.0000      -0.627792       -17.0831
  11   2.0000      -0.579606       -15.7719
  12   2.0000      -0.538916       -14.6647
  13   2.0000      -0.529241       -14.4014
  14   2.0000      -0.484806       -13.1922
  15   2.0000      -0.477186       -12.9849
  16   2.0000      -0.451596       -12.2886
  17   2.0000      -0.434206       -11.8153
  18   2.0000      -0.419351       -11.4111
  19   2.0000      -0.279442        -7.6040
  20   0.0000       0.105336         2.8663
  21   0.0000       0.121232         3.2989
  22   0.0000       0.156005         4.2451
  23   0.0000       0.157019         4.2727
  24   0.0000       0.165429         4.5016

MULLIKEN ATOMIC CHARGES
-----------------------
   0 C :   -0.202962
   1 C :    0.215922
   2 N :   -0.497579
   3 C :   -0.398459
   4 H :    0.084122
   5 H :    0.088187
   6 H :    0.236819
   7 H :    0.243072
   8 C :   -0.319230
   9 H :    0.112688
  10 H :    0.105075
  11 H :    0.118458
  12 H :    0.122359
  13 H :    0.091528
Sum of atomic charges:    0.0000000

LOEWDIN ATOMIC CHARGES
----------------------
   0 C :   -0.234110
   1 C :   -0.373411
   2 N :    0.000328
   3 C :   -0.278104
   4 H :    0.099085
   5 H :    0.105777
   6 H :    0.170842
   7 H :    0.174743
   8 C :   -0.289194
   9 H :    0.145381
  10 H :    0.134416
  11 H :    0.114697
  12 H :    0.120090
  13 H :    0.109459

  Mayer bond orders larger than 0.100000
B(  0-C ,  1-C ) :   0.9685 B(  0-C ,  8-C ) :   0.9501 B(  0-C ,  9-H ) :   0.9855
B(  0-C , 10-H ) :   0.9783 B(  1-C ,  2-N ) :   1.1402 B(  1-C ,  3-C ) :   1.7835
B(  2-N ,  6-H ) :   0.9296 B(  2-N ,  7-H ) :   0.9184 B(  3-C ,  4-H ) :   0.9956
B(  3-C ,  5-H ) :   1.0006 B(  8-C , 11-H ) :   0.9789 B(  8-C , 12-H ) :   0.9759
B(  8-C , 13-H ) :   0.9797

Dispersion correction           -0.003043251
FINAL SINGLE POINT ENERGY      -212.578497348645

DIPOLE MOMENT
-------------
                                X             Y             Z
Electronic contribution:     -0.51229       0.28918       2.81476
Nuclear contribution   :     -0.12319      -0.83296      -3.13501
                        -----------------------------------------
Total Dipole Moment    :     -0.63548      -0.54378      -0.32025
                        -----------------------------------------
Magnitude (a.u.)       :      0.89559
Magnitude (Debye)      :      2.27642

Rotational constants in cm-1:     0.266453     0.134423     0.106086
Rotational constants in MHz :  7988.053142  4029.892766  3180.375228

                             ****ORCA TERMINATED NORMALLY****
TOTAL RUN TIME: 0 days 0 hours 0 minutes 41 seconds 574 msec
