                         Program Version 5.0.0 -  RELEASE  -
|  1> !wB97X-D3 RIJCOSX def2-TZVP def2/J TightSCF xyzfile
|  2>
|  3> *xyzfile 0 1 D4.xyz
|  4>
|  5> %MaxCore 64000
|  6>
|  7> %pal nprocs 18
|  8> end
|  9>
| 10> %scf
| 11>   MaxIter 150
| 12> end
| 13>
| 14>
| 15>                          ****END OF INPUT****

CARTESIAN COORDINATES (ANGSTROEM)
---------------------------------
  C      4.602954   -2.440100    2.634780
  C     -0.914947    0.615112    2.505538
  C     -0.059146    1.503524    3.410578
  H      0.365364    2.344315    2.861161
  H     -0.692261    1.920207    4.198985
  C      1.083027    0.749640    4.085705
  C      3.860851   -1.591565    3.622893
  N      2.756502   -2.046159    4.166333
  C      4.254325   -0.362905    3.860455
  H      3.565256    0.310994    4.168983
  H      5.054292   -0.016059    3.337838
  H      2.439696   -2.973894    3.897395
  H      2.066869   -1.412532    4.549813
  O      2.228167    1.263475    4.019826
  F      0.810034   -0.345411    4.636269
  C      3.744685   -2.580557    1.361882
  C      0.772139    0.636882    0.562129
  C     -0.130740   -0.193985    1.470763
  H     -0.840563   -0.760165    0.856377
  H      0.466691   -0.938942    2.006959
  H     -1.647961    1.245963    1.991076
  H     -1.478180   -0.081046    3.130424
  C      3.203721   -1.256004    0.826211
  H      2.898939   -3.239289    1.583074
  H      4.334962   -3.095523    0.600188
  C      2.107815   -1.442385   -0.216865
  H      2.786775   -0.672760    1.650711
  H      4.021008   -0.652993    0.414046
  C      1.390662   -0.145912   -0.602422
  H      1.372179   -2.152184    0.176151
  H      2.523302   -1.906787   -1.117115
  H      1.561361    1.100094    1.161831
  H      0.195516    1.468325    0.142758
  H      0.602893   -0.398214   -1.319716
  H      2.087247    0.508272   -1.137335
  H      5.561557   -1.971347    2.407084
  H      4.810498   -3.422552    3.063099

 Total Charge           Charge          ....    0
 Multiplicity           Mult            ....    1
 Number of Electrons    NEL             ....  118
 Basis Dimension        Dim             ....  597

ORBITAL ENERGIES
----------------

  NO   OCC          E(Eh)            E(eV)
   0   2.0000     -24.883348      -677.1103
   1   2.0000     -19.249744      -523.8122
   2   2.0000     -14.397705      -391.7815
   3   2.0000     -10.472048      -284.9589
   4   2.0000     -10.313635      -280.6483
   5   2.0000     -10.297316      -280.2042
   6   2.0000     -10.282951      -279.8133
   7   2.0000     -10.273664      -279.5606
   8   2.0000     -10.269574      -279.4493
   9   2.0000     -10.269343      -279.4430
  10   2.0000     -10.264422      -279.3091
  11   2.0000     -10.263441      -279.2824
  12   2.0000     -10.259793      -279.1832
  13   2.0000     -10.255726      -279.0725
  14   2.0000     -10.165181      -276.6086
  15   2.0000      -1.466998       -39.9191
  16   2.0000      -1.168602       -31.7993
  17   2.0000      -1.031865       -28.0785
  18   2.0000      -0.954293       -25.9676
  19   2.0000      -0.923990       -25.1430
  20   2.0000      -0.897315       -24.4172
  21   2.0000      -0.859521       -23.3888
  22   2.0000      -0.832225       -22.6460
  23   2.0000      -0.806635       -21.9497
  24   2.0000      -0.791590       -21.5403
  25   2.0000      -0.759766       -20.6743
  26   2.0000      -0.725377       -19.7385
  27   2.0000      -0.696379       -18.9494
  28   2.0000      -0.689529       -18.7630
  29   2.0000      -0.679281       -18.4842
  30   2.0000      -0.662053       -18.0154
  31   2.0000      -0.648030       -17.6338
  32   2.0000      -0.624448       -16.9921
  33   2.0000      -0.603546       -16.4233
  34   2.0000      -0.589835       -16.0502
  35   2.0000      -0.585326       -15.9275
  36   2.0000      -0.562159       -15.2971
  37   2.0000      -0.548083       -14.9141
  38   2.0000      -0.541293       -14.7293
  39   2.0000      -0.535974       -14.5846
  40   2.0000      -0.519999       -14.1499
  41   2.0000      -0.512671       -13.9505
  42   2.0000      -0.506850       -13.7921
  43   2.0000      -0.486852       -13.2479
  44   2.0000      -0.480262       -13.0686
  45   2.0000      -0.471890       -12.8408
  46   2.0000      -0.468254       -12.7418
  47   2.0000      -0.456531       -12.4228
  48   2.0000      -0.450869       -12.2688
  49   2.0000      -0.442795       -12.0491
  50   2.0000      -0.438672       -11.9369
  51   2.0000      -0.423293       -11.5184
  52   2.0000      -0.416575       -11.3356
  53   2.0000      -0.415173       -11.2974
  54   2.0000      -0.404292       -11.0013
  55   2.0000      -0.400310       -10.8930
  56   2.0000      -0.393306       -10.7024
  57   2.0000      -0.363065        -9.8795
  58   2.0000      -0.255673        -6.9572
  59   0.0000       0.040495         1.1019
  60   0.0000       0.097937         2.6650
  61   0.0000       0.112323         3.0565
  62   0.0000       0.123735         3.3670
  63   0.0000       0.130313         3.5460

MULLIKEN ATOMIC CHARGES
-----------------------
   0 C :   -0.209333
   1 C :   -0.210079
   2 C :   -0.216737
   3 H :    0.159698
   4 H :    0.144368
   5 C :    0.399347
   6 C :    0.155758
   7 N :   -0.478079
   8 C :   -0.384420
   9 H :    0.124462
  10 H :    0.071561
  11 H :    0.226055
  12 H :    0.231388
  13 O :   -0.339011
  14 F :   -0.134777
  15 C :   -0.201133
  16 C :   -0.275702
  17 C :   -0.244176
  18 H :    0.118096
  19 H :    0.110819
  20 H :    0.121035
  21 H :    0.122078
  22 C :   -0.240873
  23 H :    0.092617
  24 H :    0.104442
  25 C :   -0.172163
  26 H :    0.096050
  27 H :    0.097030
  28 C :   -0.173026
  29 H :    0.100867
  30 H :    0.105103
  31 H :    0.153807
  32 H :    0.108343
  33 H :    0.105115
  34 H :    0.104610
  35 H :    0.114163
  36 H :    0.112696
Sum of atomic charges:   -0.0000000

LOEWDIN ATOMIC CHARGES
----------------------
   0 C :   -0.215010
   1 C :   -0.265696
   2 C :   -0.227074
   3 H :    0.157715
   4 H :    0.155268
   5 C :   -0.477834
   6 C :   -0.391667
   7 N :   -0.007115
   8 C :   -0.273826
   9 H :    0.090306
  10 H :    0.100766
  11 H :    0.166428
  12 H :    0.152479
  13 O :    0.100744
  14 F :    0.335757
  15 C :   -0.259182
  16 C :   -0.271109
  17 C :   -0.270615
  18 H :    0.140905
  19 H :    0.134348
  20 H :    0.142491
  21 H :    0.139568
  22 C :   -0.260838
  23 H :    0.128828
  24 H :    0.133793
  25 C :   -0.271464
  26 H :    0.143429
  27 H :    0.137047
  28 C :   -0.265799
  29 H :    0.132885
  30 H :    0.134407
  31 H :    0.139705
  32 H :    0.136394
  33 H :    0.135113
  34 H :    0.137021
  35 H :    0.146912
  36 H :    0.134920

  Mayer bond orders larger than 0.100000
B(  0-C ,  6-C ) :   0.9482 B(  0-C , 15-C ) :   0.9519 B(  0-C , 35-H ) :   0.9862
B(  0-C , 36-H ) :   0.9896 B(  1-C ,  2-C ) :   0.9399 B(  1-C , 17-C ) :   0.9685
B(  1-C , 20-H ) :   0.9717 B(  1-C , 21-H ) :   0.9829 B(  2-C ,  3-H ) :   0.9708
B(  2-C ,  4-H ) :   0.9466 B(  2-C ,  5-C ) :   0.9928 B(  5-C , 13-O ) :   1.9824
B(  5-C , 14-F ) :   1.0729 B(  6-C ,  7-N ) :   1.1407 B(  6-C ,  8-C ) :   1.7784
B(  7-N , 11-H ) :   0.9323 B(  7-N , 12-H ) :   0.8976 B(  8-C ,  9-H ) :   0.9850
B(  8-C , 10-H ) :   1.0049 B( 15-C , 22-C ) :   0.9438 B( 15-C , 23-H ) :   0.9979
B( 15-C , 24-H ) :   0.9718 B( 16-C , 17-C ) :   0.9172 B( 16-C , 28-C ) :   0.9843
B( 16-C , 31-H ) :   0.9723 B( 16-C , 32-H ) :   0.9721 B( 17-C , 18-H ) :   0.9725
B( 17-C , 19-H ) :   0.9807 B( 22-C , 25-C ) :   0.9540 B( 22-C , 26-H ) :   1.0043
B( 22-C , 27-H ) :   0.9663 B( 25-C , 28-C ) :   0.9682 B( 25-C , 29-H ) :   0.9824
B( 25-C , 30-H ) :   0.9774 B( 28-C , 33-H ) :   0.9829 B( 28-C , 34-H ) :   0.9820

Dispersion correction           -0.019740342
FINAL SINGLE POINT ENERGY      -700.375477711288

DIPOLE MOMENT
-------------
                                X             Y             Z
Electronic contribution:     -2.29556       3.57241      16.20301
Nuclear contribution   :      0.32481      -3.64700     -16.75441
                        -----------------------------------------
Total Dipole Moment    :     -1.97075      -0.07460      -0.55140
                        -----------------------------------------
Magnitude (a.u.)       :      2.04780
Magnitude (Debye)      :      5.20509

Rotational constants in cm-1:     0.021629     0.017327     0.011372
Rotational constants in MHz :   648.414821   519.443407   340.925013

                             ****ORCA TERMINATED NORMALLY****
TOTAL RUN TIME: 0 days 0 hours 2 minutes 18 seconds 954 msec
