                         Program Version 5.0.0 -  RELEASE  -
|  1> !CAM-B3LYP RIJCOSX def2-TZVP def2/J TightSCF
|  2> *xyz -1 1
|  3> C         -0.90349       -0.87394       -1.98739
|  4> C         -0.96015       -0.52236       -0.48987
|  5> H         -1.69039       -1.20813       -0.02168
|  6> H         -1.41449        0.48633       -0.40668
|  7> O          0.26170       -0.58031        0.13861
|  8> H         -1.88568       -0.80774       -2.40670
|  9> H         -0.53143       -1.87013       -2.10605
| 10> H         -0.25399       -0.18836       -2.49039
| 11> *
| 12>
| 13> %MaxCore 64000
| 14>
| 15> %pal nprocs 4
| 16> end
| 17>
| 18> %scf
| 19>   MaxIter 150
| 20> end
| 21>
| 22>
| 23>                          ****END OF INPUT****

CARTESIAN COORDINATES (ANGSTROEM)
---------------------------------
  C     -0.903490   -0.873940   -1.987390
  C     -0.960150   -0.522360   -0.489870
  H     -1.690390   -1.208130   -0.021680
  H     -1.414490    0.486330   -0.406680
  O      0.261700   -0.580310    0.138610
  H     -1.885680   -0.807740   -2.406700
  H     -0.531430   -1.870130   -2.106050
  H     -0.253990   -0.188360   -2.490390

 Total Charge           Charge          ....   -1
 Multiplicity           Mult            ....    1
 Number of Electrons    NEL             ....   26
 Basis Dimension        Dim             ....  123

ORBITAL ENERGIES
----------------

  NO   OCC          E(Eh)            E(eV)
   0   2.0000     -18.838396      -512.6188
   1   2.0000     -10.046570      -273.3811
   2   2.0000     -10.027259      -272.8556
   3   2.0000      -0.741397       -20.1744
   4   2.0000      -0.599994       -16.3267
   5   2.0000      -0.440374       -11.9832
   6   2.0000      -0.314274        -8.5518
   7   2.0000      -0.290702        -7.9104
   8   2.0000      -0.231351        -6.2954
   9   2.0000      -0.215808        -5.8724
  10   2.0000      -0.161646        -4.3986
  11   2.0000      -0.016636        -0.4527
  12   2.0000      -0.014081        -0.3832
  13   0.0000       0.252544         6.8721
  14   0.0000       0.290467         7.9040
  15   0.0000       0.316690         8.6176
  16   0.0000       0.317712         8.6454
  17   0.0000       0.352682         9.5970

MULLIKEN ATOMIC CHARGES
-----------------------
   0 C :   -0.163652
   1 C :    0.052629
   2 H :   -0.065748
   3 H :   -0.067757
   4 O :   -0.785673
   5 H :   -0.023969
   6 H :    0.027041
   7 H :    0.027129
Sum of atomic charges:   -1.0000000

LOEWDIN ATOMIC CHARGES
----------------------
   0 C :   -0.362250
   1 C :   -0.546765
   2 H :    0.054254
   3 H :    0.053875
   4 O :   -0.447411
   5 H :    0.074402
   6 H :    0.086945
   7 H :    0.086950

  Mayer bond orders larger than 0.100000
B(  0-C ,  1-C ) :   0.8736 B(  0-C ,  4-O ) :  -0.2304 B(  0-C ,  5-H ) :   0.9358
B(  0-C ,  6-H ) :   0.9718 B(  0-C ,  7-H ) :   0.9718 B(  1-C ,  2-H ) :   0.9329
B(  1-C ,  3-H ) :   0.9317 B(  1-C ,  4-O ) :   1.6173

FINAL SINGLE POINT ENERGY      -154.406406613550

DIPOLE MOMENT
-------------
                                X             Y             Z
Electronic contribution:      1.99478       0.16460       2.17943
Nuclear contribution   :     -2.90669      -0.27617      -3.31210
                        -----------------------------------------
Total Dipole Moment    :     -0.91192      -0.11157      -1.13267
                        -----------------------------------------
Magnitude (a.u.)       :      1.45842
Magnitude (Debye)      :      3.70701

Rotational constants in cm-1:     1.291883     0.321656     0.284469
Rotational constants in MHz : 38729.676116  9643.011620  8528.167295

                             ****ORCA TERMINATED NORMALLY****
TOTAL RUN TIME: 0 days 0 hours 0 minutes 15 seconds 173 msec
