                         Program Version 5.0.0 -  RELEASE  -
|  1> !CAM-B3LYP RIJCOSX def2-TZVP def2/J TightSCF
|  2> *xyz 1 1
|  3> C          4.36645       -0.13321       -1.41606
|  4> C          4.50829       -0.93187       -2.72425
|  5> C          3.05650       -0.32080       -0.70738
|  6> N          2.38983        0.71129       -0.24391
|  7> N          2.51600       -1.50772       -0.55023
|  8> H          2.96768       -2.32291       -0.95631
|  9> H          1.54987       -1.49063       -0.24988
| 10> H          2.74307        1.64947       -0.41280
| 11> H          1.44036        0.50278        0.03703
| 12> H          4.48784        0.93300       -1.61157
| 13> H          5.16967       -0.41443       -0.72982
| 14> H          5.46700       -0.73824       -3.15818
| 15> H          3.74074       -0.63528       -3.40821
| 16> H          4.41574       -1.97727       -2.51573
| 17> *
| 18>
| 19> %MaxCore 64000
| 20>
| 21> %pal nprocs 4
| 22> end
| 23>
| 24> %scf
| 25>   MaxIter 150
| 26> end
| 27>
| 28>
| 29>                          ****END OF INPUT****

CARTESIAN COORDINATES (ANGSTROEM)
---------------------------------
  C      4.366450   -0.133210   -1.416060
  C      4.508290   -0.931870   -2.724250
  C      3.056500   -0.320800   -0.707380
  N      2.389830    0.711290   -0.243910
  N      2.516000   -1.507720   -0.550230
  H      2.967680   -2.322910   -0.956310
  H      1.549870   -1.490630   -0.249880
  H      2.743070    1.649470   -0.412800
  H      1.440360    0.502780    0.037030
  H      4.487840    0.933000   -1.611570
  H      5.169670   -0.414430   -0.729820
  H      5.467000   -0.738240   -3.158180
  H      3.740740   -0.635280   -3.408210
  H      4.415740   -1.977270   -2.515730

 Total Charge           Charge          ....    1
 Multiplicity           Mult            ....    1
 Number of Electrons    NEL             ....   40
 Basis Dimension        Dim             ....  209

ORBITAL ENERGIES
----------------

  NO   OCC          E(Eh)            E(eV)
   0   2.0000     -14.635875      -398.2624
   1   2.0000     -14.634497      -398.2249
   2   2.0000     -10.569381      -287.6075
   3   2.0000     -10.445918      -284.2479
   4   2.0000     -10.401756      -283.0462
   5   2.0000      -1.297711       -35.3125
   6   2.0000      -1.189656       -32.3722
   7   2.0000      -1.054410       -28.6920
   8   2.0000      -0.939710       -25.5708
   9   2.0000      -0.894897       -24.3514
  10   2.0000      -0.842997       -22.9391
  11   2.0000      -0.829402       -22.5692
  12   2.0000      -0.773800       -21.0562
  13   2.0000      -0.733418       -19.9573
  14   2.0000      -0.698296       -19.0016
  15   2.0000      -0.672020       -18.2866
  16   2.0000      -0.621691       -16.9171
  17   2.0000      -0.608364       -16.5544
  18   2.0000      -0.593887       -16.1605
  19   2.0000      -0.558480       -15.1970
  20   0.0000      -0.163189        -4.4406
  21   0.0000      -0.125286        -3.4092
  22   0.0000      -0.079489        -2.1630
  23   0.0000      -0.077488        -2.1086
  24   0.0000      -0.040231        -1.0947

MULLIKEN ATOMIC CHARGES
-----------------------
   0 C :   -0.234950
   1 C :   -0.356554
   2 C :    0.308222
   3 N :   -0.311307
   4 N :   -0.307056
   5 H :    0.296459
   6 H :    0.266879
   7 H :    0.299555
   8 H :    0.264394
   9 H :    0.141214
  10 H :    0.187612
  11 H :    0.176759
  12 H :    0.154077
  13 H :    0.114694
Sum of atomic charges:    1.0000000

LOEWDIN ATOMIC CHARGES
----------------------
   0 C :   -0.216723
   1 C :   -0.262810
   2 C :   -0.286614
   3 N :    0.109953
   4 N :    0.110137
   5 H :    0.209157
   6 H :    0.200892
   7 H :    0.211455
   8 H :    0.200180
   9 H :    0.159338
  10 H :    0.174401
  11 H :    0.140315
  12 H :    0.130724
  13 H :    0.119594

  Mayer bond orders larger than 0.100000
B(  0-C ,  1-C ) :   0.9520 B(  0-C ,  2-C ) :   0.9560 B(  0-C ,  9-H ) :   0.9689
B(  0-C , 10-H ) :   0.9326 B(  1-C , 11-H ) :   0.9671 B(  1-C , 12-H ) :   0.9649
B(  1-C , 13-H ) :   0.9671 B(  2-C ,  3-N ) :   1.4580 B(  2-C ,  4-N ) :   1.4340
B(  3-N ,  7-H ) :   0.8851 B(  3-N ,  8-H ) :   0.8979 B(  4-N ,  5-H ) :   0.8905
B(  4-N ,  6-H ) :   0.8964

FINAL SINGLE POINT ENERGY      -228.991079861182

DIPOLE MOMENT
-------------
                                X             Y             Z
Electronic contribution:     -2.67098       0.63379       3.11379
Nuclear contribution   :      1.78847      -0.48174      -2.67127
                        -----------------------------------------
Total Dipole Moment    :     -0.88251       0.15205       0.44252
                        -----------------------------------------
Magnitude (a.u.)       :      0.99889
Magnitude (Debye)      :      2.53897

Rotational constants in cm-1:     0.286883     0.123210     0.094446
Rotational constants in MHz :  8600.540572  3693.747366  2831.415242

                             ****ORCA TERMINATED NORMALLY****
TOTAL RUN TIME: 0 days 0 hours 0 minutes 36 seconds 583 msec
