                         Program Version 5.0.0 -  RELEASE  -
|  1> !CAM-B3LYP RIJCOSX def2-TZVP def2/J TightSCF xyzfile
|  2>
|  3> *xyzfile 0 1 B.xyz
|  4>
|  5> %MaxCore 64000
|  6>
|  7> %pal nprocs 18
|  8> end
|  9>
| 10> %scf
| 11>   MaxIter 150
| 12> end
| 13>
| 14>
| 15>                          ****END OF INPUT****

CARTESIAN COORDINATES (ANGSTROEM)
---------------------------------
  C      4.366454   -0.133215   -1.416062
  C      4.508292   -0.931872   -2.724249
  H      4.753716   -1.972051   -2.488408
  C      3.294164   -0.918214   -3.656570
  H      5.385637   -0.536236   -3.242640
  H      2.483463   -1.477378   -3.185764
  H      3.553092   -1.478495   -4.560331
  C      2.772335    0.460100   -4.051448
  H      2.608762    1.065107   -3.155194
  C      1.465354    0.410537   -4.853644
  H      3.532940    0.988848   -4.635671
  C      0.326171   -0.375613   -4.192580
  H      1.666704   -0.022269   -5.839323
  H      1.138198    1.439246   -5.035449
  C     -0.017405    0.080588   -2.778406
  H      0.585573   -1.439385   -4.168057
  H     -0.560005   -0.311425   -4.831461
  H      0.902090    0.201296   -2.206729
  C     -0.903495   -0.873945   -1.987388
  H     -0.479549    1.074657   -2.811915
  H     -0.502554   -1.892096   -2.081204
  H     -1.917039   -0.895427   -2.406277
  C     -0.960148   -0.522365   -0.489867
  H     -1.690392   -1.208130   -0.021677
  H     -1.414490    0.486329   -0.406677
  O      0.261703   -0.580307    0.138611
  C      3.056503   -0.320797   -0.707384
  N      2.389825    0.711285   -0.243909
  N      2.515999   -1.507721   -0.550229
  H      2.967683   -2.322915   -0.956305
  H      1.549872   -1.490634   -0.249876
  H      2.743071    1.649471   -0.412802
  H      1.440364    0.502778    0.037031
  H      4.487835    0.932997   -1.611569
  H      5.169672   -0.414432   -0.729817

 Total Charge           Charge          ....    0
 Multiplicity           Mult            ....    1
 Number of Electrons    NEL             ....  104
 Basis Dimension        Dim             ....  535

ORBITAL ENERGIES
----------------

  NO   OCC          E(Eh)            E(eV)
   0   2.0000     -19.064969      -518.7842
   1   2.0000     -14.416272      -392.2867
   2   2.0000     -14.415904      -392.2767
   3   2.0000     -10.370883      -282.2061
   4   2.0000     -10.289352      -279.9875
   5   2.0000     -10.273403      -279.5535
   6   2.0000     -10.251766      -278.9647
   7   2.0000     -10.245295      -278.7886
   8   2.0000     -10.236415      -278.5470
   9   2.0000     -10.225346      -278.2458
  10   2.0000     -10.222314      -278.1633
  11   2.0000     -10.211370      -277.8655
  12   2.0000     -10.198182      -277.5066
  13   2.0000      -1.092135       -29.7185
  14   2.0000      -0.982841       -26.7445
  15   2.0000      -0.966551       -26.3012
  16   2.0000      -0.919089       -25.0097
  17   2.0000      -0.882013       -24.0008
  18   2.0000      -0.841360       -22.8946
  19   2.0000      -0.800785       -21.7905
  20   2.0000      -0.761532       -20.7223
  21   2.0000      -0.716629       -19.5005
  22   2.0000      -0.699769       -19.0417
  23   2.0000      -0.686938       -18.6925
  24   2.0000      -0.643450       -17.5092
  25   2.0000      -0.628085       -17.0911
  26   2.0000      -0.623621       -16.9696
  27   2.0000      -0.600239       -16.3333
  28   2.0000      -0.575516       -15.6606
  29   2.0000      -0.572013       -15.5653
  30   2.0000      -0.555506       -15.1161
  31   2.0000      -0.534033       -14.5318
  32   2.0000      -0.517933       -14.0937
  33   2.0000      -0.498660       -13.5692
  34   2.0000      -0.488571       -13.2947
  35   2.0000      -0.481558       -13.1039
  36   2.0000      -0.475492       -12.9388
  37   2.0000      -0.470516       -12.8034
  38   2.0000      -0.447505       -12.1772
  39   2.0000      -0.437467       -11.9041
  40   2.0000      -0.427984       -11.6460
  41   2.0000      -0.418487       -11.3876
  42   2.0000      -0.408132       -11.1058
  43   2.0000      -0.403079       -10.9683
  44   2.0000      -0.383638       -10.4393
  45   2.0000      -0.376780       -10.2527
  46   2.0000      -0.366909        -9.9841
  47   2.0000      -0.362721        -9.8701
  48   2.0000      -0.358337        -9.7509
  49   2.0000      -0.347515        -9.4564
  50   2.0000      -0.243062        -6.6140
  51   2.0000      -0.238047        -6.4776
  52   0.0000       0.023401         0.6368
  53   0.0000       0.041382         1.1261
  54   0.0000       0.058227         1.5844
  55   0.0000       0.077207         2.1009
  56   0.0000       0.086942         2.3658

MULLIKEN ATOMIC CHARGES
-----------------------
   0 C :   -0.215064
   1 C :   -0.282985
   2 H :    0.135136
   3 C :   -0.199361
   4 H :    0.123616
   5 H :    0.115674
   6 H :    0.113337
   7 C :   -0.239419
   8 H :    0.099570
   9 C :   -0.158342
  10 H :    0.106365
  11 C :   -0.221737
  12 H :    0.103035
  13 H :    0.102783
  14 C :   -0.182354
  15 H :    0.107550
  16 H :    0.104386
  17 H :    0.055602
  18 C :   -0.142984
  19 H :    0.083624
  20 H :    0.057249
  21 H :    0.068663
  22 C :    0.051126
  23 H :    0.047049
  24 H :    0.028651
  25 O :   -0.751385
  26 C :    0.214512
  27 N :   -0.327049
  28 N :   -0.311468
  29 H :    0.236026
  30 H :    0.274861
  31 H :    0.231440
  32 H :    0.292643
  33 H :    0.128252
  34 H :    0.150999
Sum of atomic charges:   -0.0000000

LOEWDIN ATOMIC CHARGES
----------------------
   0 C :   -0.216424
   1 C :   -0.259541
   2 H :    0.136689
   3 C :   -0.268238
   4 H :    0.143639
   5 H :    0.138810
   6 H :    0.140521
   7 C :   -0.269909
   8 H :    0.131057
   9 C :   -0.264600
  10 H :    0.133999
  11 C :   -0.272618
  12 H :    0.134315
  13 H :    0.135893
  14 C :   -0.275751
  15 H :    0.130951
  16 H :    0.134592
  17 H :    0.133917
  18 C :   -0.286917
  19 H :    0.132068
  20 H :    0.123164
  21 H :    0.126319
  22 C :   -0.461142
  23 H :    0.101659
  24 H :    0.097927
  25 O :   -0.310870
  26 C :   -0.326548
  27 N :    0.085838
  28 N :    0.089977
  29 H :    0.178482
  30 H :    0.150688
  31 H :    0.177027
  32 H :    0.148780
  33 H :    0.148297
  34 H :    0.157950

  Mayer bond orders larger than 0.100000
B(  0-C ,  1-C ) :   0.9181 B(  0-C , 26-C ) :   0.9612 B(  0-C , 33-H ) :   0.9843
B(  0-C , 34-H ) :   0.9626 B(  1-C ,  2-H ) :   0.9961 B(  1-C ,  3-C ) :   0.9199
B(  1-C ,  4-H ) :   0.9747 B(  3-C ,  5-H ) :   0.9861 B(  3-C ,  6-H ) :   0.9759
B(  3-C ,  7-C ) :   0.9115 B(  7-C ,  8-H ) :   0.9833 B(  7-C ,  9-C ) :   0.9517
B(  7-C , 10-H ) :   0.9759 B(  9-C , 11-C ) :   0.9423 B(  9-C , 12-H ) :   0.9844
B(  9-C , 13-H ) :   0.9851 B( 11-C , 14-C ) :   0.9305 B( 11-C , 15-H ) :   0.9906
B( 11-C , 16-H ) :   0.9828 B( 14-C , 17-H ) :   0.9832 B( 14-C , 18-C ) :   0.9714
B( 14-C , 19-H ) :   0.9677 B( 18-C , 20-H ) :   0.9696 B( 18-C , 21-H ) :   0.9612
B( 18-C , 22-C ) :   0.9358 B( 22-C , 23-H ) :   0.9697 B( 22-C , 24-H ) :   0.9703
B( 22-C , 25-O ) :   1.1628 B( 25-O , 30-H ) :   0.2541 B( 25-O , 32-H ) :   0.2496
B( 26-C , 27-N ) :   1.5044 B( 26-C , 28-N ) :   1.4751 B( 27-N , 31-H ) :   0.9144
B( 27-N , 32-H ) :   0.7291 B( 28-N , 29-H ) :   0.9151 B( 28-N , 30-H ) :   0.7352

FINAL SINGLE POINT ENERGY      -578.932406038639

DIPOLE MOMENT
-------------
                                X             Y             Z
Electronic contribution:      2.82885      -0.26323       7.53518
Nuclear contribution   :     -0.17996       0.53390      -8.68067
                        -----------------------------------------
Total Dipole Moment    :      2.64889       0.27067      -1.14548
                        -----------------------------------------
Magnitude (a.u.)       :      2.89862
Magnitude (Debye)      :      7.36772

Rotational constants in cm-1:     0.028240     0.022734     0.014600
Rotational constants in MHz :   846.611263   681.554306   437.693928

                             ****ORCA TERMINATED NORMALLY****
TOTAL RUN TIME: 0 days 0 hours 1 minutes 54 seconds 939 msec
