                         Program Version 5.0.0 -  RELEASE  -
|  1> !CAM-B3LYP RIJCOSX def2-TZVP def2/J TightSCF
|  2> *xyz 0 1
|  3> C         -0.90349       -0.87394       -1.98739
|  4> C         -0.96015       -0.52236       -0.48987
|  5> H         -1.69039       -1.20813       -0.02168
|  6> H         -1.41449        0.48633       -0.40668
|  7> F          0.26170       -0.58031        0.13861
|  8> H         -1.88568       -0.80774       -2.40670
|  9> H         -0.53143       -1.87013       -2.10605
| 10> H         -0.25399       -0.18836       -2.49039
| 11> *
| 12>
| 13> %MaxCore 64000
| 14>
| 15> %pal nprocs 4
| 16> end
| 17>
| 18> %scf
| 19>   MaxIter 150
| 20> end
| 21>
| 22>
| 23>                          ****END OF INPUT****

CARTESIAN COORDINATES (ANGSTROEM)
---------------------------------
  C     -0.903490   -0.873940   -1.987390
  C     -0.960150   -0.522360   -0.489870
  H     -1.690390   -1.208130   -0.021680
  H     -1.414490    0.486330   -0.406680
  F      0.261700   -0.580310    0.138610
  H     -1.885680   -0.807740   -2.406700
  H     -0.531430   -1.870130   -2.106050
  H     -0.253990   -0.188360   -2.490390

 Total Charge           Charge          ....    0
 Multiplicity           Mult            ....    1
 Number of Electrons    NEL             ....   26
 Basis Dimension        Dim             ....  123

ORBITAL ENERGIES
----------------

  NO   OCC          E(Eh)            E(eV)
   0   2.0000     -24.739941      -673.2080
   1   2.0000     -10.322869      -280.8996
   2   2.0000     -10.238828      -278.6127
   3   2.0000      -1.276638       -34.7391
   4   2.0000      -0.847760       -23.0687
   5   2.0000      -0.710330       -19.3291
   6   2.0000      -0.578227       -15.7344
   7   2.0000      -0.569001       -15.4833
   8   2.0000      -0.529014       -14.3952
   9   2.0000      -0.475598       -12.9417
  10   2.0000      -0.470016       -12.7898
  11   2.0000      -0.403593       -10.9823
  12   2.0000      -0.398426       -10.8417
  13   0.0000       0.077962         2.1214
  14   0.0000       0.117170         3.1884
  15   0.0000       0.137722         3.7476
  16   0.0000       0.140092         3.8121
  17   0.0000       0.151888         4.1331

MULLIKEN ATOMIC CHARGES
-----------------------
   0 C :   -0.328499
   1 C :    0.043041
   2 H :    0.091618
   3 H :    0.091212
   4 F :   -0.245504
   5 H :    0.110648
   6 H :    0.118689
   7 H :    0.118795
Sum of atomic charges:   -0.0000000

LOEWDIN ATOMIC CHARGES
----------------------
   0 C :   -0.309269
   1 C :   -0.361804
   2 H :    0.116245
   3 H :    0.116829
   4 F :    0.083553
   5 H :    0.121272
   6 H :    0.116585
   7 H :    0.116590

  Mayer bond orders larger than 0.100000
B(  0-C ,  1-C ) :   0.9670 B(  0-C ,  5-H ) :   0.9604 B(  0-C ,  6-H ) :   0.9726
B(  0-C ,  7-H ) :   0.9726 B(  1-C ,  2-H ) :   0.9742 B(  1-C ,  3-H ) :   0.9741
B(  1-C ,  4-F ) :   0.9898

FINAL SINGLE POINT ENERGY      -179.062366208573

DIPOLE MOMENT
-------------
                                X             Y             Z
Electronic contribution:      3.21980       0.37667       3.98241
Nuclear contribution   :     -3.84149      -0.36812      -4.38946
                        -----------------------------------------
Total Dipole Moment    :     -0.62169       0.00855      -0.40706
                        -----------------------------------------
Magnitude (a.u.)       :      0.74315
Magnitude (Debye)      :      1.88893

Rotational constants in cm-1:     1.270659     0.299196     0.265842
Rotational constants in MHz : 38093.410361  8969.665806  7969.741481

                             ****ORCA TERMINATED NORMALLY****
TOTAL RUN TIME: 0 days 0 hours 0 minutes 12 seconds 878 msec
