                         Program Version 5.0.0 -  RELEASE  -
|  1> !CAM-B3LYP RIJCOSX def2-TZVP def2/J TightSCF
|  2> *xyz 0 1
|  3> C          4.36645       -0.13321       -1.41606
|  4> C          4.50829       -0.93187       -2.72425
|  5> C          3.05650       -0.32080       -0.70738
|  6> C          2.38983        0.71129       -0.24391
|  7> N          2.51600       -1.50772       -0.55023
|  8> H          2.96768       -2.32291       -0.95631
|  9> H          1.54987       -1.49063       -0.24988
| 10> H          2.74307        1.64947       -0.41280
| 11> H          1.44036        0.50278        0.03703
| 12> H          4.48784        0.93300       -1.61157
| 13> H          5.16967       -0.41443       -0.72982
| 14> H          5.46700       -0.73824       -3.15818
| 15> H          3.74074       -0.63528       -3.40821
| 16> H          4.41574       -1.97727       -2.51573
| 17> *
| 18>
| 19> %MaxCore 64000
| 20>
| 21> %pal nprocs 4
| 22> end
| 23>
| 24> %scf
| 25>   MaxIter 150
| 26> end
| 27>
| 28>
| 29>                          ****END OF INPUT****

CARTESIAN COORDINATES (ANGSTROEM)
---------------------------------
  C      4.366450   -0.133210   -1.416060
  C      4.508290   -0.931870   -2.724250
  C      3.056500   -0.320800   -0.707380
  C      2.389830    0.711290   -0.243910
  N      2.516000   -1.507720   -0.550230
  H      2.967680   -2.322910   -0.956310
  H      1.549870   -1.490630   -0.249880
  H      2.743070    1.649470   -0.412800
  H      1.440360    0.502780    0.037030
  H      4.487840    0.933000   -1.611570
  H      5.169670   -0.414430   -0.729820
  H      5.467000   -0.738240   -3.158180
  H      3.740740   -0.635280   -3.408210
  H      4.415740   -1.977270   -2.515730

 Total Charge           Charge          ....    0
 Multiplicity           Mult            ....    1
 Number of Electrons    NEL             ....   40
 Basis Dimension        Dim             ....  209

ORBITAL ENERGIES
----------------

  NO   OCC          E(Eh)            E(eV)
   0   2.0000     -14.385161      -391.4401
   1   2.0000     -10.261210      -279.2217
   2   2.0000     -10.244473      -278.7663
   3   2.0000     -10.234239      -278.4878
   4   2.0000     -10.171202      -276.7725
   5   2.0000      -1.015764       -27.6403
   6   2.0000      -0.860756       -23.4224
   7   2.0000      -0.803175       -21.8555
   8   2.0000      -0.714631       -19.4461
   9   2.0000      -0.635586       -17.2952
  10   2.0000      -0.605625       -16.4799
  11   2.0000      -0.541220       -14.7274
  12   2.0000      -0.510104       -13.8806
  13   2.0000      -0.499596       -13.5947
  14   2.0000      -0.461001       -12.5445
  15   2.0000      -0.448278       -12.1983
  16   2.0000      -0.423751       -11.5309
  17   2.0000      -0.409063       -11.1312
  18   2.0000      -0.391497       -10.6532
  19   2.0000      -0.246957        -6.7200
  20   0.0000       0.062222         1.6931
  21   0.0000       0.086480         2.3532
  22   0.0000       0.107843         2.9346
  23   0.0000       0.111681         3.0390
  24   0.0000       0.129763         3.5310

MULLIKEN ATOMIC CHARGES
-----------------------
   0 C :   -0.194759
   1 C :   -0.343889
   2 C :    0.214262
   3 C :   -0.401483
   4 N :   -0.424150
   5 H :    0.220786
   6 H :    0.223813
   7 H :    0.088441
   8 H :    0.065669
   9 H :    0.106971
  10 H :    0.110672
  11 H :    0.122298
  12 H :    0.123542
  13 H :    0.087829
Sum of atomic charges:   -0.0000000

LOEWDIN ATOMIC CHARGES
----------------------
   0 C :   -0.234615
   1 C :   -0.296636
   2 C :   -0.367651
   3 C :   -0.281194
   4 N :   -0.003473
   5 H :    0.168217
   6 H :    0.178236
   7 H :    0.104540
   8 H :    0.099455
   9 H :    0.146672
  10 H :    0.141498
  11 H :    0.117410
  12 H :    0.119393
  13 H :    0.108150

  Mayer bond orders larger than 0.100000
B(  0-C ,  1-C ) :   0.9453 B(  0-C ,  2-C ) :   0.9525 B(  0-C ,  9-H ) :   0.9810
B(  0-C , 10-H ) :   0.9745 B(  1-C , 11-H ) :   0.9827 B(  1-C , 12-H ) :   0.9743
B(  1-C , 13-H ) :   0.9783 B(  2-C ,  3-C ) :   1.7527 B(  2-C ,  4-N ) :   1.1504
B(  3-C ,  7-H ) :   1.0062 B(  3-C ,  8-H ) :   0.9916 B(  4-N ,  5-H ) :   0.9328
B(  4-N ,  6-H ) :   0.9224

FINAL SINGLE POINT ENERGY      -212.517563918958

DIPOLE MOMENT
-------------
                                X             Y             Z
Electronic contribution:     -1.48707      -0.45519       2.06300
Nuclear contribution   :      1.56827      -0.21459      -2.46657
                        -----------------------------------------
Total Dipole Moment    :      0.08120      -0.66978      -0.40357
                        -----------------------------------------
Magnitude (a.u.)       :      0.78618
Magnitude (Debye)      :      1.99830

Rotational constants in cm-1:     0.294070     0.127722     0.097792
Rotational constants in MHz :  8815.983970  3829.010547  2931.715816

                             ****ORCA TERMINATED NORMALLY****
TOTAL RUN TIME: 0 days 0 hours 0 minutes 40 seconds 498 msec
