                         Program Version 5.0.0 -  RELEASE  -
|  1> !CAM-B3LYP RIJCOSX def2-TZVP def2/J TightSCF
|  2> *xyz 0 1
|  3> C          4.36645       -0.13321       -1.41606
|  4> C          4.50829       -0.93187       -2.72425
|  5> C          3.05650       -0.32080       -0.70738
|  6> N          2.38983        0.71129       -0.24391
|  7> C          2.51600       -1.50772       -0.55023
|  8> H          2.96768       -2.32291       -0.95631
|  9> H          1.54987       -1.49063       -0.24988
| 10> H          2.74307        1.64947       -0.41280
| 11> H          1.44036        0.50278        0.03703
| 12> H          4.48784        0.93300       -1.61157
| 13> H          5.16967       -0.41443       -0.72982
| 14> H          5.46700       -0.73824       -3.15818
| 15> H          3.74074       -0.63528       -3.40821
| 16> H          4.41574       -1.97727       -2.51573
| 17> *
| 18>
| 19> %MaxCore 64000
| 20>
| 21> %pal nprocs 4
| 22> end
| 23>
| 24> %scf
| 25>   MaxIter 150
| 26> end
| 27>
| 28>
| 29>                          ****END OF INPUT****

CARTESIAN COORDINATES (ANGSTROEM)
---------------------------------
  C      4.366450   -0.133210   -1.416060
  C      4.508290   -0.931870   -2.724250
  C      3.056500   -0.320800   -0.707380
  N      2.389830    0.711290   -0.243910
  C      2.516000   -1.507720   -0.550230
  H      2.967680   -2.322910   -0.956310
  H      1.549870   -1.490630   -0.249880
  H      2.743070    1.649470   -0.412800
  H      1.440360    0.502780    0.037030
  H      4.487840    0.933000   -1.611570
  H      5.169670   -0.414430   -0.729820
  H      5.467000   -0.738240   -3.158180
  H      3.740740   -0.635280   -3.408210
  H      4.415740   -1.977270   -2.515730

 Total Charge           Charge          ....    0
 Multiplicity           Mult            ....    1
 Number of Electrons    NEL             ....   40
 Basis Dimension        Dim             ....  209

ORBITAL ENERGIES
----------------

  NO   OCC          E(Eh)            E(eV)
   0   2.0000     -14.385656      -391.4536
   1   2.0000     -10.261326      -279.2249
   2   2.0000     -10.245789      -278.8021
   3   2.0000     -10.227783      -278.3121
   4   2.0000     -10.169210      -276.7183
   5   2.0000      -1.015921       -27.6446
   6   2.0000      -0.862287       -23.4640
   7   2.0000      -0.791716       -21.5437
   8   2.0000      -0.724205       -19.7066
   9   2.0000      -0.626137       -17.0380
  10   2.0000      -0.602577       -16.3970
  11   2.0000      -0.549001       -14.9391
  12   2.0000      -0.521053       -14.1786
  13   2.0000      -0.476319       -12.9613
  14   2.0000      -0.457931       -12.4609
  15   2.0000      -0.447578       -12.1792
  16   2.0000      -0.423873       -11.5342
  17   2.0000      -0.407434       -11.0868
  18   2.0000      -0.392770       -10.6878
  19   2.0000      -0.245248        -6.6735
  20   0.0000       0.066353         1.8056
  21   0.0000       0.082451         2.2436
  22   0.0000       0.107622         2.9285
  23   0.0000       0.110220         2.9992
  24   0.0000       0.133223         3.6252

MULLIKEN ATOMIC CHARGES
-----------------------
   0 C :   -0.193483
   1 C :   -0.338153
   2 C :    0.222126
   3 N :   -0.425570
   4 C :   -0.403253
   5 H :    0.083164
   6 H :    0.066992
   7 H :    0.221260
   8 H :    0.221536
   9 H :    0.080625
  10 H :    0.120621
  11 H :    0.113490
  12 H :    0.116608
  13 H :    0.114038
Sum of atomic charges:   -0.0000000

LOEWDIN ATOMIC CHARGES
----------------------
   0 C :   -0.234842
   1 C :   -0.288186
   2 C :   -0.366566
   3 N :   -0.004906
   4 C :   -0.283878
   5 H :    0.103629
   6 H :    0.099831
   7 H :    0.168448
   8 H :    0.177550
   9 H :    0.132224
  10 H :    0.147186
  11 H :    0.113753
  12 H :    0.118360
  13 H :    0.117397

  Mayer bond orders larger than 0.100000
B(  0-C ,  1-C ) :   0.9667 B(  0-C ,  2-C ) :   0.9230 B(  0-C ,  9-H ) :   0.9821
B(  0-C , 10-H ) :   0.9776 B(  1-C , 11-H ) :   0.9799 B(  1-C , 12-H ) :   0.9768
B(  1-C , 13-H ) :   0.9788 B(  2-C ,  3-N ) :   1.1658 B(  2-C ,  4-C ) :   1.7279
B(  3-N ,  7-H ) :   0.9264 B(  3-N ,  8-H ) :   0.9220 B(  4-C ,  5-H ) :   1.0155
B(  4-C ,  6-H ) :   0.9886

FINAL SINGLE POINT ENERGY      -212.516207995085

DIPOLE MOMENT
-------------
                                X             Y             Z
Electronic contribution:     -1.60142       1.49437       2.34471
Nuclear contribution   :      1.59749      -0.72853      -2.53752
                        -----------------------------------------
Total Dipole Moment    :     -0.00393       0.76584      -0.19280
                        -----------------------------------------
Magnitude (a.u.)       :      0.78975
Magnitude (Debye)      :      2.00737

Rotational constants in cm-1:     0.304597     0.124127     0.096828
Rotational constants in MHz :  9131.600925  3721.227051  2902.830760

                             ****ORCA TERMINATED NORMALLY****
TOTAL RUN TIME: 0 days 0 hours 0 minutes 40 seconds 663 msec
