                         Program Version 5.0.0 -  RELEASE  -
|  1> !CAM-B3LYP RIJCOSX def2-TZVP def2/J TightSCF xyzfile
|  2>
|  3> *xyzfile 0 1 D1.xyz
|  4>
|  5> %MaxCore 64000
|  6>
|  7> %pal nprocs 18
|  8> end
|  9>
| 10> %scf
| 11>   MaxIter 150
| 12> end
| 13>
| 14>
| 15>                          ****END OF INPUT****

CARTESIAN COORDINATES (ANGSTROEM)
---------------------------------
  C      4.366454   -0.133215   -1.416062
  C      4.508292   -0.931872   -2.724249
  H      4.753716   -1.972051   -2.488408
  C      3.294164   -0.918214   -3.656570
  H      5.385637   -0.536236   -3.242640
  H      2.483463   -1.477378   -3.185764
  H      3.553092   -1.478495   -4.560331
  C      2.772335    0.460100   -4.051448
  H      2.608762    1.065107   -3.155194
  C      1.465354    0.410537   -4.853644
  H      3.532940    0.988848   -4.635671
  C      0.326171   -0.375613   -4.192580
  H      1.666704   -0.022269   -5.839323
  H      1.138198    1.439246   -5.035449
  C     -0.017405    0.080588   -2.778406
  H      0.585573   -1.439385   -4.168057
  H     -0.560005   -0.311425   -4.831461
  H      0.902090    0.201296   -2.206729
  C     -0.903495   -0.873945   -1.987388
  H     -0.479549    1.074657   -2.811915
  H     -0.502554   -1.892096   -2.081204
  H     -1.917039   -0.895427   -2.406277
  C     -0.960148   -0.522365   -0.489867
  H     -1.690392   -1.208130   -0.021677
  H     -1.414490    0.486329   -0.406677
  F      0.261703   -0.580307    0.138611
  C      3.056503   -0.320797   -0.707384
  C      2.389825    0.711285   -0.243909
  N      2.515999   -1.507721   -0.550229
  H      2.967683   -2.322915   -0.956305
  H      1.549872   -1.490634   -0.249876
  H      2.743071    1.649471   -0.412802
  H      1.440364    0.502778    0.037031
  H      4.487835    0.932997   -1.611569
  H      5.169672   -0.414432   -0.729817

 Total Charge           Charge          ....    0
 Multiplicity           Mult            ....    1
 Number of Electrons    NEL             ....  104
 Basis Dimension        Dim             ....  535

ORBITAL ENERGIES
----------------

  NO   OCC          E(Eh)            E(eV)
   0   2.0000     -24.772925      -674.1056
   1   2.0000     -14.360813      -390.7776
   2   2.0000     -10.335429      -281.2413
   3   2.0000     -10.255217      -279.0586
   4   2.0000     -10.243777      -278.7473
   5   2.0000     -10.235317      -278.5171
   6   2.0000     -10.234961      -278.5075
   7   2.0000     -10.232675      -278.4452
   8   2.0000     -10.232532      -278.4414
   9   2.0000     -10.230567      -278.3879
  10   2.0000     -10.228244      -278.3247
  11   2.0000     -10.226209      -278.2693
  12   2.0000     -10.146003      -276.0868
  13   2.0000      -1.319139       -35.8956
  14   2.0000      -0.998517       -27.1710
  15   2.0000      -0.902837       -24.5674
  16   2.0000      -0.880020       -23.9466
  17   2.0000      -0.852940       -23.2097
  18   2.0000      -0.814135       -22.1537
  19   2.0000      -0.786252       -21.3950
  20   2.0000      -0.765078       -20.8188
  21   2.0000      -0.716626       -19.5004
  22   2.0000      -0.693279       -18.8651
  23   2.0000      -0.663107       -18.0441
  24   2.0000      -0.631839       -17.1932
  25   2.0000      -0.616168       -16.7668
  26   2.0000      -0.608211       -16.5503
  27   2.0000      -0.600173       -16.3315
  28   2.0000      -0.588541       -16.0150
  29   2.0000      -0.558442       -15.1960
  30   2.0000      -0.543077       -14.7779
  31   2.0000      -0.530769       -14.4430
  32   2.0000      -0.513122       -13.9627
  33   2.0000      -0.507729       -13.8160
  34   2.0000      -0.496943       -13.5225
  35   2.0000      -0.490852       -13.3568
  36   2.0000      -0.465974       -12.6798
  37   2.0000      -0.457058       -12.4372
  38   2.0000      -0.447293       -12.1715
  39   2.0000      -0.438988       -11.9455
  40   2.0000      -0.431445       -11.7402
  41   2.0000      -0.422796       -11.5049
  42   2.0000      -0.415219       -11.2987
  43   2.0000      -0.407119       -11.0783
  44   2.0000      -0.403855       -10.9894
  45   2.0000      -0.395670       -10.7667
  46   2.0000      -0.376932       -10.2568
  47   2.0000      -0.375763       -10.2250
  48   2.0000      -0.368473       -10.0267
  49   2.0000      -0.365125        -9.9356
  50   2.0000      -0.361711        -9.8427
  51   2.0000      -0.229154        -6.2356
  52   0.0000       0.063858         1.7377
  53   0.0000       0.074134         2.0173
  54   0.0000       0.081362         2.2140
  55   0.0000       0.089696         2.4408
  56   0.0000       0.097487         2.6528

MULLIKEN ATOMIC CHARGES
-----------------------
   0 C :   -0.192491
   1 C :   -0.271940
   2 H :    0.115662
   3 C :   -0.168906
   4 H :    0.106804
   5 H :    0.089107
   6 H :    0.098177
   7 C :   -0.242828
   8 H :    0.132748
   9 C :   -0.164443
  10 H :    0.100532
  11 C :   -0.228349
  12 H :    0.101464
  13 H :    0.101213
  14 C :   -0.217966
  15 H :    0.111955
  16 H :    0.102746
  17 H :    0.133989
  18 C :   -0.218425
  19 H :    0.095892
  20 H :    0.109106
  21 H :    0.112471
  22 C :    0.022103
  23 H :    0.120886
  24 H :    0.114342
  25 F :   -0.239362
  26 C :    0.125417
  27 C :   -0.451149
  28 N :   -0.415899
  29 H :    0.215897
  30 H :    0.241255
  31 H :    0.082256
  32 H :    0.140860
  33 H :    0.119264
  34 H :    0.117613
Sum of atomic charges:   -0.0000000

LOEWDIN ATOMIC CHARGES
----------------------
   0 C :   -0.217615
   1 C :   -0.266355
   2 H :    0.131255
   3 C :   -0.269435
   4 H :    0.136990
   5 H :    0.132437
   6 H :    0.134526
   7 C :   -0.267134
   8 H :    0.140811
   9 C :   -0.264413
  10 H :    0.133334
  11 C :   -0.270874
  12 H :    0.134457
  13 H :    0.135064
  14 C :   -0.270340
  15 H :    0.133156
  16 H :    0.132957
  17 H :    0.150584
  18 C :   -0.276036
  19 H :    0.135312
  20 H :    0.137029
  21 H :    0.142236
  22 C :   -0.331568
  23 H :    0.126340
  24 H :    0.129700
  25 F :    0.138912
  26 C :   -0.378373
  27 C :   -0.293815
  28 N :   -0.003829
  29 H :    0.163762
  30 H :    0.157275
  31 H :    0.099297
  32 H :    0.093378
  33 H :    0.147445
  34 H :    0.143532

  Mayer bond orders larger than 0.100000
B(  0-C ,  1-C ) :   0.9228 B(  0-C , 26-C ) :   0.9394 B(  0-C , 33-H ) :   0.9877
B(  0-C , 34-H ) :   0.9805 B(  1-C ,  2-H ) :   0.9992 B(  1-C ,  3-C ) :   0.9260
B(  1-C ,  4-H ) :   0.9791 B(  3-C ,  5-H ) :   0.9803 B(  3-C ,  6-H ) :   0.9765
B(  3-C ,  7-C ) :   0.9108 B(  7-C ,  8-H ) :   0.9841 B(  7-C ,  9-C ) :   0.9481
B(  7-C , 10-H ) :   0.9773 B(  9-C , 11-C ) :   0.9544 B(  9-C , 12-H ) :   0.9838
B(  9-C , 13-H ) :   0.9855 B( 11-C , 14-C ) :   0.9321 B( 11-C , 15-H ) :   0.9877
B( 11-C , 16-H ) :   0.9820 B( 14-C , 17-H ) :   0.9898 B( 14-C , 18-C ) :   0.9330
B( 14-C , 19-H ) :   0.9753 B( 18-C , 20-H ) :   0.9756 B( 18-C , 21-H ) :   0.9596
B( 18-C , 22-C ) :   0.9620 B( 22-C , 23-H ) :   0.9803 B( 22-C , 24-H ) :   0.9818
B( 22-C , 25-F ) :   0.9008 B( 26-C , 27-C ) :   1.7372 B( 26-C , 28-N ) :   1.1612
B( 27-C , 31-H ) :   1.0103 B( 27-C , 32-H ) :   0.9799 B( 28-N , 29-H ) :   0.9325
B( 28-N , 30-H ) :   0.8878

FINAL SINGLE POINT ENERGY      -586.865916583780

DIPOLE MOMENT
-------------
                                X             Y             Z
Electronic contribution:     -2.70616      -1.61863      10.44363
Nuclear contribution   :      1.82572       1.04089     -11.09065
                        -----------------------------------------
Total Dipole Moment    :     -0.88044      -0.57774      -0.64702
                        -----------------------------------------
Magnitude (a.u.)       :      1.23596
Magnitude (Debye)      :      3.14155

Rotational constants in cm-1:     0.028436     0.022359     0.014416
Rotational constants in MHz :   852.496561   670.291843   432.183951

                             ****ORCA TERMINATED NORMALLY****
TOTAL RUN TIME: 0 days 0 hours 2 minutes 6 seconds 821 msec
