                         Program Version 5.0.0 -  RELEASE  -
|  1> !LC-BLYP RIJCOSX def2-SVPD def2/J TightSCF
|  2> *xyz -1 1
|  3> C         -0.91495        0.61511        2.50554
|  4> C         -0.05915        1.50352        3.41058
|  5> H          0.36536        2.34431        2.86116
|  6> H         -0.69226        1.92021        4.19898
|  7> C          1.08303        0.74964        4.08571
|  8> O          2.22817        1.26348        4.01983
|  9> O          0.81003       -0.34541        4.63627
| 10> H         -0.30401        0.20228        1.73015
| 11> H         -1.69811        1.19946        2.06954
| 12> H         -1.34124       -0.17772        3.08397
| 13> *
| 14>
| 15> %MaxCore 64000
| 16>
| 17> %pal nprocs 4
| 18> end
| 19>
| 20> %scf
| 21>   MaxIter 150
| 22> end
| 23>
| 24>
| 25>                          ****END OF INPUT****

CARTESIAN COORDINATES (ANGSTROEM)
---------------------------------
  C     -0.914950    0.615110    2.505540
  C     -0.059150    1.503520    3.410580
  H      0.365360    2.344310    2.861160
  H     -0.692260    1.920210    4.198980
  C      1.083030    0.749640    4.085710
  O      2.228170    1.263480    4.019830
  O      0.810030   -0.345410    4.636270
  H     -0.304010    0.202280    1.730150
  H     -1.698110    1.199460    2.069540
  H     -1.341240   -0.177720    3.083970

 Total Charge           Charge          ....   -1
 Multiplicity           Mult            ....    1
 Number of Electrons    NEL             ....   40
 Basis Dimension        Dim             ....  146

ORBITAL ENERGIES
----------------

  NO   OCC          E(Eh)            E(eV)
   0   2.0000     -18.697216      -508.7771
   1   2.0000     -18.696392      -508.7547
   2   2.0000      -9.974994      -271.4334
   3   2.0000      -9.923868      -270.0422
   4   2.0000      -9.913331      -269.7555
   5   2.0000      -0.908227       -24.7141
   6   2.0000      -0.812803       -22.1175
   7   2.0000      -0.711568       -19.3628
   8   2.0000      -0.579581       -15.7712
   9   2.0000      -0.426724       -11.6118
  10   2.0000      -0.401727       -10.9315
  11   2.0000      -0.362464        -9.8631
  12   2.0000      -0.338063        -9.1992
  13   2.0000      -0.319671        -8.6987
  14   2.0000      -0.310951        -8.4614
  15   2.0000      -0.281713        -7.6658
  16   2.0000      -0.266919        -7.2632
  17   2.0000      -0.151531        -4.1234
  18   2.0000      -0.144575        -3.9341
  19   2.0000      -0.130505        -3.5512
  20   0.0000       0.204773         5.5721
  21   0.0000       0.238692         6.4952
  22   0.0000       0.249724         6.7953
  23   0.0000       0.271724         7.3940
  24   0.0000       0.298589         8.1250

MULLIKEN ATOMIC CHARGES
-----------------------
   0 C :    0.795719
   1 C :   -0.104196
   2 H :   -0.139985
   3 H :   -0.083197
   4 C :    0.132726
   5 O :   -0.565886
   6 O :   -0.591839
   7 H :   -0.160405
   8 H :   -0.171106
   9 H :   -0.111830
Sum of atomic charges:   -1.0000000

LOEWDIN ATOMIC CHARGES
----------------------
   0 C :    0.087856
   1 C :   -0.052955
   2 H :    0.004598
   3 H :    0.016073
   4 C :   -0.349490
   5 O :   -0.315744
   6 O :   -0.305525
   7 H :   -0.018855
   8 H :   -0.039747
   9 H :   -0.026211

  Mayer bond orders larger than 0.100000
B(  0-C ,  1-C ) :   1.2725 B(  0-C ,  2-H ) :   0.1011 B(  0-C ,  7-H ) :   0.7930
B(  0-C ,  8-H ) :   0.7760 B(  0-C ,  9-H ) :   0.7793 B(  1-C ,  2-H ) :   0.9340
B(  1-C ,  3-H ) :   0.8478 B(  1-C ,  4-C ) :   1.0390 B(  1-C ,  7-H ) :   0.1918
B(  1-C ,  8-H ) :   0.2084 B(  1-C ,  9-H ) :   0.2177 B(  2-H ,  4-C ) :   0.2098
B(  4-C ,  5-O ) :   1.6036 B(  4-C ,  6-O ) :   1.6366

FINAL SINGLE POINT ENERGY      -267.062821297499

DIPOLE MOMENT
-------------
                                X             Y             Z
Electronic contribution:      4.66447      -0.97248       3.32383
Nuclear contribution   :     -6.38408       1.63097      -4.40540
                        -----------------------------------------
Total Dipole Moment    :     -1.71960       0.65848      -1.08157
                        -----------------------------------------
Magnitude (a.u.)       :      2.13551
Magnitude (Debye)      :      5.42805

Rotational constants in cm-1:     0.319732     0.134414     0.104753
Rotational constants in MHz :  9585.336550  4029.633034  3140.404334

                             ****ORCA TERMINATED NORMALLY****
TOTAL RUN TIME: 0 days 0 hours 0 minutes 17 seconds 192 msec
