                         Program Version 5.0.0 -  RELEASE  -
|  1> !LC-BLYP RIJCOSX def2-SVPD def2/J TightSCF
|  2> *xyz 1 1
|  3> C          4.60295       -2.44010        2.63478
|  4> C          3.86085       -1.59157        3.62289
|  5> N          2.75650       -2.04616        4.16633
|  6> N          4.25433       -0.36291        3.86046
|  7> H          3.56526        0.31099        4.16898
|  8> H          5.05429       -0.01606        3.33784
|  9> H          2.43970       -2.97389        3.89740
| 10> H          2.06687       -1.41253        4.54981
| 11> C          3.74469       -2.58056        1.36188
| 12> H          5.56156       -1.97135        2.40708
| 13> H          4.81050       -3.42255        3.06310
| 14> H          4.26314       -3.18477        0.64702
| 15> H          3.56325       -1.61180        0.94535
| 16> H          2.81197       -3.04259        1.60980
| 17> *
| 18>
| 19> %MaxCore 64000
| 20>
| 21> %pal nprocs 4
| 22> end
| 23>
| 24> %scf
| 25>   MaxIter 150
| 26> end
| 27>
| 28>
| 29>                          ****END OF INPUT****

CARTESIAN COORDINATES (ANGSTROEM)
---------------------------------
  C      4.602950   -2.440100    2.634780
  C      3.860850   -1.591570    3.622890
  N      2.756500   -2.046160    4.166330
  N      4.254330   -0.362910    3.860460
  H      3.565260    0.310990    4.168980
  H      5.054290   -0.016060    3.337840
  H      2.439700   -2.973890    3.897400
  H      2.066870   -1.412530    4.549810
  C      3.744690   -2.580560    1.361880
  H      5.561560   -1.971350    2.407080
  H      4.810500   -3.422550    3.063100
  H      4.263140   -3.184770    0.647020
  H      3.563250   -1.611800    0.945350
  H      2.811970   -3.042590    1.609800

 Total Charge           Charge          ....    1
 Multiplicity           Mult            ....    1
 Number of Electrons    NEL             ....   40
 Basis Dimension        Dim             ....  172

ORBITAL ENERGIES
----------------

  NO   OCC          E(Eh)            E(eV)
   0   2.0000     -14.436019      -392.8240
   1   2.0000     -14.435262      -392.8034
   2   2.0000     -10.412444      -283.3370
   3   2.0000     -10.288116      -279.9539
   4   2.0000     -10.247401      -278.8460
   5   2.0000      -1.304809       -35.5057
   6   2.0000      -1.205369       -32.7998
   7   2.0000      -1.077545       -29.3215
   8   2.0000      -0.965123       -26.2623
   9   2.0000      -0.923727       -25.1359
  10   2.0000      -0.880521       -23.9602
  11   2.0000      -0.857829       -23.3427
  12   2.0000      -0.800667       -21.7873
  13   2.0000      -0.775967       -21.1151
  14   2.0000      -0.731437       -19.9034
  15   2.0000      -0.708805       -19.2876
  16   2.0000      -0.651490       -17.7280
  17   2.0000      -0.644233       -17.5305
  18   2.0000      -0.630275       -17.1507
  19   2.0000      -0.596768       -16.2389
  20   0.0000      -0.138813        -3.7773
  21   0.0000      -0.101007        -2.7485
  22   0.0000      -0.058571        -1.5938
  23   0.0000      -0.056139        -1.5276
  24   0.0000      -0.032058        -0.8723

MULLIKEN ATOMIC CHARGES
-----------------------
   0 C :   -0.010322
   1 C :    0.150203
   2 N :    0.331936
   3 N :    0.242397
   4 H :   -0.099865
   5 H :    0.053433
   6 H :    0.046252
   7 H :   -0.171252
   8 C :    0.897051
   9 H :   -0.076949
  10 H :   -0.022761
  11 H :   -0.089714
  12 H :   -0.115892
  13 H :   -0.134517
Sum of atomic charges:    1.0000000

LOEWDIN ATOMIC CHARGES
----------------------
   0 C :    0.008078
   1 C :   -0.078583
   2 N :    0.295586
   3 N :    0.294752
   4 H :    0.051428
   5 H :    0.054524
   6 H :    0.053578
   7 H :    0.053396
   8 C :    0.161553
   9 H :    0.042999
  10 H :    0.055499
  11 H :    0.013261
  12 H :    0.004732
  13 H :   -0.010803

  Mayer bond orders larger than 0.100000
B(  0-C ,  1-C ) :   1.2644 B(  0-C ,  8-C ) :   1.2541 B(  0-C ,  9-H ) :   0.8519
B(  0-C , 10-H ) :   0.7921 B(  0-C , 11-H ) :   0.1788 B(  0-C , 12-H ) :   0.1699
B(  0-C , 13-H ) :   0.2058 B(  1-C ,  2-N ) :   1.2589 B(  1-C ,  3-N ) :   1.2091
B(  1-C ,  4-H ) :  -0.1103 B(  1-C ,  7-H ) :  -0.1216 B(  1-C ,  9-H ) :   0.2072
B(  1-C , 10-H ) :   0.1919 B(  2-N ,  3-N ) :   0.1587 B(  2-N ,  6-H ) :   1.0186
B(  2-N ,  7-H ) :   1.2462 B(  3-N ,  4-H ) :   1.1972 B(  3-N ,  5-H ) :   1.0157
B(  4-H ,  5-H ) :  -0.1472 B(  6-H ,  7-H ) :  -0.1672 B(  8-C , 11-H ) :   0.8207
B(  8-C , 12-H ) :   0.7864 B(  8-C , 13-H ) :   0.7428

FINAL SINGLE POINT ENERGY      -228.260971316999

DIPOLE MOMENT
-------------
                                X             Y             Z
Electronic contribution:     -0.24076       1.79734       3.74307
Nuclear contribution   :     -0.22400      -1.16268      -3.30447
                        -----------------------------------------
Total Dipole Moment    :     -0.46477       0.63467       0.43860
                        -----------------------------------------
Magnitude (a.u.)       :      0.90065
Magnitude (Debye)      :      2.28928

Rotational constants in cm-1:     0.258103     0.130571     0.102508
Rotational constants in MHz :  7737.732062  3914.431392  3073.119154

                             ****ORCA TERMINATED NORMALLY****
TOTAL RUN TIME: 0 days 0 hours 0 minutes 23 seconds 756 msec
