                         Program Version 5.0.0 -  RELEASE  -
|  1> !LC-BLYP RIJCOSX def2-SVPD def2/J TightSCF xyzfile
|  2>
|  3> *xyzfile 0 1 B.xyz
|  4>
|  5> %MaxCore 64000
|  6>
|  7> %pal nprocs 4
|  8> end
|  9>
| 10> %scf
| 11>   MaxIter 150
| 12> end
| 13>
| 14>
| 15>                          ****END OF INPUT****

CARTESIAN COORDINATES (ANGSTROEM)
---------------------------------
  C      4.602954   -2.440100    2.634780
  C     -0.914947    0.615112    2.505538
  C     -0.059146    1.503524    3.410578
  H      0.365364    2.344315    2.861161
  H     -0.692261    1.920207    4.198985
  C      1.083027    0.749640    4.085705
  C      3.860851   -1.591565    3.622893
  N      2.756502   -2.046159    4.166333
  N      4.254325   -0.362905    3.860455
  H      3.565256    0.310994    4.168983
  H      5.054292   -0.016059    3.337838
  H      2.439696   -2.973894    3.897395
  H      2.066869   -1.412532    4.549813
  O      2.228167    1.263475    4.019826
  O      0.810034   -0.345411    4.636269
  C      3.744685   -2.580557    1.361882
  C      0.772139    0.636882    0.562129
  C     -0.130740   -0.193985    1.470763
  H     -0.840563   -0.760165    0.856377
  H      0.466691   -0.938942    2.006959
  H     -1.647961    1.245963    1.991076
  H     -1.478180   -0.081046    3.130424
  C      3.203721   -1.256004    0.826211
  H      2.898939   -3.239289    1.583074
  H      4.334962   -3.095523    0.600188
  C      2.107815   -1.442385   -0.216865
  H      2.786775   -0.672760    1.650711
  H      4.021008   -0.652993    0.414046
  C      1.390662   -0.145912   -0.602422
  H      1.372179   -2.152184    0.176151
  H      2.523302   -1.906787   -1.117115
  H      1.561361    1.100094    1.161831
  H      0.195516    1.468325    0.142758
  H      0.602893   -0.398214   -1.319716
  H      2.087247    0.508272   -1.137335
  H      5.561557   -1.971347    2.407084
  H      4.810498   -3.422552    3.063099

 Total Charge           Charge          ....    0
 Multiplicity           Mult            ....    1
 Number of Electrons    NEL             ....  118
 Basis Dimension        Dim             ....  482

ORBITAL ENERGIES
----------------

  NO   OCC          E(Eh)            E(eV)
   0   2.0000     -18.885016      -513.8874
   1   2.0000     -18.883290      -513.8404
   2   2.0000     -14.231226      -387.2513
   3   2.0000     -14.230799      -387.2397
   4   2.0000     -10.226901      -278.2881
   5   2.0000     -10.155527      -276.3459
   6   2.0000     -10.137365      -275.8517
   7   2.0000     -10.118443      -275.3368
   8   2.0000     -10.094524      -274.6860
   9   2.0000     -10.085435      -274.4386
  10   2.0000     -10.077366      -274.2191
  11   2.0000     -10.066951      -273.9357
  12   2.0000     -10.063972      -273.8546
  13   2.0000     -10.059906      -273.7440
  14   2.0000     -10.051580      -273.5174
  15   2.0000      -1.116145       -30.3719
  16   2.0000      -1.096646       -29.8413
  17   2.0000      -1.016977       -27.6734
  18   2.0000      -0.999088       -27.1866
  19   2.0000      -0.944160       -25.6919
  20   2.0000      -0.910089       -24.7648
  21   2.0000      -0.879634       -23.9361
  22   2.0000      -0.838990       -22.8301
  23   2.0000      -0.800740       -21.7892
  24   2.0000      -0.763001       -20.7623
  25   2.0000      -0.747746       -20.3472
  26   2.0000      -0.726743       -19.7757
  27   2.0000      -0.693199       -18.8629
  28   2.0000      -0.686840       -18.6899
  29   2.0000      -0.676906       -18.4195
  30   2.0000      -0.651297       -17.7227
  31   2.0000      -0.623627       -16.9698
  32   2.0000      -0.611814       -16.6483
  33   2.0000      -0.593352       -16.1459
  34   2.0000      -0.581582       -15.8256
  35   2.0000      -0.569978       -15.5099
  36   2.0000      -0.561153       -15.2697
  37   2.0000      -0.551063       -14.9952
  38   2.0000      -0.539683       -14.6855
  39   2.0000      -0.523675       -14.2499
  40   2.0000      -0.517965       -14.0945
  41   2.0000      -0.512457       -13.9447
  42   2.0000      -0.505516       -13.7558
  43   2.0000      -0.499689       -13.5972
  44   2.0000      -0.480116       -13.0646
  45   2.0000      -0.474200       -12.9036
  46   2.0000      -0.468765       -12.7557
  47   2.0000      -0.463799       -12.6206
  48   2.0000      -0.451241       -12.2789
  49   2.0000      -0.434484       -11.8229
  50   2.0000      -0.429876       -11.6975
  51   2.0000      -0.422482       -11.4963
  52   2.0000      -0.407864       -11.0986
  53   2.0000      -0.401953       -10.9377
  54   2.0000      -0.400504       -10.8983
  55   2.0000      -0.391935       -10.6651
  56   2.0000      -0.339217        -9.2306
  57   2.0000      -0.327308        -8.9065
  58   2.0000      -0.322762        -8.7828
  59   0.0000       0.037366         1.0168
  60   0.0000       0.052712         1.4344
  61   0.0000       0.067707         1.8424
  62   0.0000       0.078693         2.1413
  63   0.0000       0.086724         2.3599

MULLIKEN ATOMIC CHARGES
-----------------------
   0 C :    0.775273
   1 C :    0.700943
   2 C :    0.391366
   3 H :    0.082562
   4 H :   -0.273424
   5 C :    0.117561
   6 C :   -0.111510
   7 N :    0.675814
   8 N :    0.660716
   9 H :   -0.530565
  10 H :    0.103100
  11 H :    0.086542
  12 H :   -0.654958
  13 O :   -0.510032
  14 O :   -0.566712
  15 C :    0.370403
  16 C :   -0.003864
  17 C :    0.042752
  18 H :   -0.273473
  19 H :   -0.211608
  20 H :   -0.168343
  21 H :   -0.021813
  22 C :    0.451755
  23 H :   -0.046328
  24 H :   -0.376751
  25 C :    0.152076
  26 H :   -0.609377
  27 H :   -0.069712
  28 C :    0.999667
  29 H :    0.119994
  30 H :   -0.461103
  31 H :    0.066239
  32 H :   -0.626113
  33 H :    0.008535
  34 H :   -0.098407
  35 H :   -0.062952
  36 H :   -0.128253
Sum of atomic charges:   -0.0000000

LOEWDIN ATOMIC CHARGES
----------------------
   0 C :    0.029785
   1 C :   -0.035761
   2 C :    0.021764
   3 H :    0.021251
   4 H :    0.037503
   5 C :   -0.227602
   6 C :   -0.092830
   7 N :    0.319191
   8 N :    0.308027
   9 H :   -0.099831
  10 H :    0.038981
  11 H :    0.040518
  12 H :   -0.101270
  13 O :   -0.221823
  14 O :   -0.218224
  15 C :   -0.024254
  16 C :   -0.042909
  17 C :   -0.044722
  18 H :    0.031284
  19 H :    0.009541
  20 H :    0.025089
  21 H :    0.027528
  22 C :   -0.038186
  23 H :    0.023975
  24 H :    0.035934
  25 C :   -0.047078
  26 H :   -0.005595
  27 H :    0.044114
  28 C :   -0.039496
  29 H :    0.021944
  30 H :    0.029727
  31 H :    0.016016
  32 H :    0.030916
  33 H :    0.027357
  34 H :    0.027313
  35 H :    0.032125
  36 H :    0.039699

  Mayer bond orders larger than 0.100000
B(  0-C ,  6-C ) :   1.1882 B(  0-C ,  8-N ) :   0.1159 B(  0-C , 15-C ) :   1.0990
B(  0-C , 35-H ) :   0.6407 B(  0-C , 36-H ) :   0.5465 B(  1-C ,  2-C ) :   1.1619
B(  1-C ,  3-H ) :   0.1152 B(  1-C ,  4-H ) :   0.1724 B(  1-C ,  5-C ) :   0.1023
B(  1-C , 17-C ) :   1.1962 B(  1-C , 19-H ) :   0.1075 B(  1-C , 20-H ) :   0.6728
B(  1-C , 21-H ) :   0.5475 B(  1-C , 28-C ) :   0.1433 B(  2-C ,  3-H ) :   0.8052
B(  2-C ,  4-H ) :   0.6239 B(  2-C ,  5-C ) :   1.1296 B(  2-C , 17-C ) :   0.1863
B(  2-C , 20-H ) :   0.1875 B(  2-C , 21-H ) :   0.1190 B(  3-H ,  4-H ) :  -0.1119
B(  3-H ,  5-C ) :   0.2428 B(  4-H ,  5-C ) :   0.2436 B(  5-C , 13-O ) :   1.5562
B(  5-C , 14-O ) :   1.4953 B(  6-C ,  7-N ) :   1.1561 B(  6-C ,  8-N ) :   1.1722
B(  6-C , 15-C ) :   0.1120 B(  6-C , 35-H ) :   0.2964 B(  6-C , 36-H ) :   0.2621
B(  7-N ,  8-N ) :   0.1865 B(  7-N , 11-H ) :   0.9764 B(  7-N , 12-H ) :   1.1213
B(  8-N ,  9-H ) :   1.0766 B(  8-N , 10-H ) :   0.9683 B(  9-H , 10-H ) :  -0.2636
B(  9-H , 13-O ) :   0.1790 B( 11-H , 12-H ) :  -0.2944 B( 12-H , 14-O ) :   0.2580
B( 13-O , 14-O ) :   0.1566 B( 15-C , 22-C ) :   1.1441 B( 15-C , 23-H ) :   0.8087
B( 15-C , 24-H ) :   0.8139 B( 15-C , 25-C ) :   0.1433 B( 15-C , 26-H ) :   0.1876
B( 15-C , 27-H ) :   0.1212 B( 15-C , 35-H ) :   0.1452 B( 15-C , 36-H ) :   0.2013
B( 16-C , 17-C ) :   1.2620 B( 16-C , 18-H ) :   0.1962 B( 16-C , 19-H ) :   0.1675
B( 16-C , 25-C ) :   0.2332 B( 16-C , 28-C ) :   1.0386 B( 16-C , 31-H ) :   0.8113
B( 16-C , 32-H ) :   1.0400 B( 16-C , 33-H ) :   0.1670 B( 16-C , 34-H ) :   0.3531
B( 17-C , 18-H ) :   0.8137 B( 17-C , 19-H ) :   0.8739 B( 17-C , 20-H ) :   0.2232
B( 17-C , 21-H ) :   0.3270 B( 17-C , 31-H ) :   0.1266 B( 17-C , 32-H ) :   0.1204
B( 20-H , 21-H ) :  -0.1627 B( 22-C , 23-H ) :   0.1428 B( 22-C , 24-H ) :   0.2691
B( 22-C , 25-C ) :   1.1785 B( 22-C , 26-H ) :   0.6092 B( 22-C , 27-H ) :   0.6521
B( 22-C , 29-H ) :   0.1556 B( 22-C , 30-H ) :   0.2536 B( 22-C , 31-H ) :  -0.1226
B( 25-C , 26-H ) :   0.1342 B( 25-C , 27-H ) :   0.1183 B( 25-C , 28-C ) :   1.1221
B( 25-C , 29-H ) :   0.7743 B( 25-C , 30-H ) :   0.8762 B( 25-C , 33-H ) :   0.2808
B( 25-C , 34-H ) :   0.1606 B( 26-H , 27-H ) :   0.2176 B( 26-H , 31-H ) :   0.2617
B( 26-H , 32-H ) :  -0.1767 B( 28-C , 29-H ) :   0.1091 B( 28-C , 33-H ) :   0.5527
B( 28-C , 34-H ) :   0.5150 B( 33-H , 34-H ) :  -0.1544

FINAL SINGLE POINT ENERGY      -690.201538025381

DIPOLE MOMENT
-------------
                                X             Y             Z
Electronic contribution:      3.43061       1.60428      12.96713
Nuclear contribution   :     -1.50655      -3.48027     -14.35034
                        -----------------------------------------
Total Dipole Moment    :      1.92406      -1.87599      -1.38321
                        -----------------------------------------
Magnitude (a.u.)       :      3.02235
Magnitude (Debye)      :      7.68221

Rotational constants in cm-1:     0.021781     0.017296     0.011403
Rotational constants in MHz :   652.971749   518.510612   341.853154

                             ****ORCA TERMINATED NORMALLY****
TOTAL RUN TIME: 0 days 0 hours 4 minutes 30 seconds 721 msec
