                         Program Version 5.0.0 -  RELEASE  -
|  1> !LC-BLYP RIJCOSX def2-SVPD def2/J TightSCF
|  2> *xyz 0 1
|  3> C         -0.91495        0.61511        2.50554
|  4> C         -0.05915        1.50352        3.41058
|  5> H          0.36536        2.34431        2.86116
|  6> H         -0.69226        1.92021        4.19898
|  7> C          1.08303        0.74964        4.08571
|  8> F          2.22817        1.26348        4.01983
|  9> O          0.81003       -0.34541        4.63627
| 10> H         -0.30401        0.20228        1.73015
| 11> H         -1.69811        1.19946        2.06954
| 12> H         -1.34124       -0.17772        3.08397
| 13> *
| 14>
| 15> %MaxCore 64000
| 16>
| 17> %pal nprocs 4
| 18> end
| 19>
| 20> %scf
| 21>   MaxIter 150
| 22> end
| 23>
| 24>
| 25>                          ****END OF INPUT****

CARTESIAN COORDINATES (ANGSTROEM)
---------------------------------
  C     -0.914950    0.615110    2.505540
  C     -0.059150    1.503520    3.410580
  H      0.365360    2.344310    2.861160
  H     -0.692260    1.920210    4.198980
  C      1.083030    0.749640    4.085710
  F      2.228170    1.263480    4.019830
  O      0.810030   -0.345410    4.636270
  H     -0.304010    0.202280    1.730150
  H     -1.698110    1.199460    2.069540
  H     -1.341240   -0.177720    3.083970

 Total Charge           Charge          ....    0
 Multiplicity           Mult            ....    1
 Number of Electrons    NEL             ....   40
 Basis Dimension        Dim             ....  146

ORBITAL ENERGIES
----------------

  NO   OCC          E(Eh)            E(eV)
   0   2.0000     -24.549019      -668.0128
   1   2.0000     -18.969958      -516.1988
   2   2.0000     -10.272333      -279.5244
   3   2.0000     -10.120768      -275.4001
   4   2.0000     -10.091019      -274.5906
   5   2.0000      -1.388977       -37.7960
   6   2.0000      -1.122258       -30.5382
   7   2.0000      -0.907627       -24.6978
   8   2.0000      -0.795214       -21.6389
   9   2.0000      -0.744122       -20.2486
  10   2.0000      -0.662129       -18.0174
  11   2.0000      -0.643586       -17.5129
  12   2.0000      -0.613714       -16.7000
  13   2.0000      -0.573621       -15.6090
  14   2.0000      -0.540210       -14.6999
  15   2.0000      -0.503477       -13.7003
  16   2.0000      -0.480747       -13.0818
  17   2.0000      -0.476969       -12.9790
  18   2.0000      -0.453368       -12.3368
  19   2.0000      -0.399503       -10.8710
  20   0.0000       0.045118         1.2277
  21   0.0000       0.066304         1.8042
  22   0.0000       0.094352         2.5674
  23   0.0000       0.105624         2.8742
  24   0.0000       0.127523         3.4701

MULLIKEN ATOMIC CHARGES
-----------------------
   0 C :    0.828335
   1 C :   -0.150631
   2 H :   -0.113364
   3 H :   -0.012837
   4 C :    0.446770
   5 F :   -0.271749
   6 O :   -0.356436
   7 H :   -0.135710
   8 H :   -0.136877
   9 H :   -0.097501
Sum of atomic charges:    0.0000000

LOEWDIN ATOMIC CHARGES
----------------------
   0 C :    0.129832
   1 C :   -0.009109
   2 H :    0.028246
   3 H :    0.046917
   4 C :   -0.053124
   5 F :   -0.012883
   6 O :   -0.111252
   7 H :   -0.003856
   8 H :   -0.008616
   9 H :   -0.006155

  Mayer bond orders larger than 0.100000
B(  0-C ,  1-C ) :   1.3185 B(  0-C ,  2-H ) :   0.1037 B(  0-C ,  7-H ) :   0.7909
B(  0-C ,  8-H ) :   0.7785 B(  0-C ,  9-H ) :   0.7762 B(  1-C ,  2-H ) :   0.9328
B(  1-C ,  3-H ) :   0.8388 B(  1-C ,  4-C ) :   1.0945 B(  1-C ,  7-H ) :   0.1843
B(  1-C ,  8-H ) :   0.2018 B(  1-C ,  9-H ) :   0.2010 B(  2-H ,  4-C ) :   0.1212
B(  4-C ,  5-F ) :   0.8898 B(  4-C ,  6-O ) :   1.9653 B(  5-F ,  6-O ) :   0.1085

FINAL SINGLE POINT ENERGY      -291.580276977396

DIPOLE MOMENT
-------------
                                X             Y             Z
Electronic contribution:      7.71009      -0.14165       4.07764
Nuclear contribution   :     -8.12386       1.06915      -4.71960
                        -----------------------------------------
Total Dipole Moment    :     -0.41378       0.92750      -0.64196
                        -----------------------------------------
Magnitude (a.u.)       :      1.20149
Magnitude (Debye)      :      3.05394

Rotational constants in cm-1:     0.309513     0.127560     0.099675
Rotational constants in MHz :  9278.979128  3824.146597  2988.174827

                             ****ORCA TERMINATED NORMALLY****
TOTAL RUN TIME: 0 days 0 hours 0 minutes 18 seconds 489 msec
