                         Program Version 5.0.0 -  RELEASE  -
|  1> !LC-BLYP RIJCOSX def2-SVPD def2/J TightSCF
|  2> *xyz 0 1
|  3> C          4.60295       -2.44010        2.63478
|  4> C          3.86085       -1.59157        3.62289
|  5> C          2.75650       -2.04616        4.16633
|  6> N          4.25433       -0.36291        3.86046
|  7> H          3.56526        0.31099        4.16898
|  8> H          5.05429       -0.01606        3.33784
|  9> H          2.43970       -2.97389        3.89740
| 10> H          2.06687       -1.41253        4.54981
| 11> C          3.74469       -2.58056        1.36188
| 12> H          5.56156       -1.97135        2.40708
| 13> H          4.81050       -3.42255        3.06310
| 14> H          4.26314       -3.18477        0.64702
| 15> H          3.56325       -1.61180        0.94535
| 16> H          2.81197       -3.04259        1.60980
| 17> *
| 18>
| 19> %MaxCore 64000
| 20>
| 21> %pal nprocs 4
| 22> end
| 23>
| 24> %scf
| 25>   MaxIter 150
| 26> end
| 27>
| 28>
| 29>                          ****END OF INPUT****

CARTESIAN COORDINATES (ANGSTROEM)
---------------------------------
  C      4.602950   -2.440100    2.634780
  C      3.860850   -1.591570    3.622890
  C      2.756500   -2.046160    4.166330
  N      4.254330   -0.362910    3.860460
  H      3.565260    0.310990    4.168980
  H      5.054290   -0.016060    3.337840
  H      2.439700   -2.973890    3.897400
  H      2.066870   -1.412530    4.549810
  C      3.744690   -2.580560    1.361880
  H      5.561560   -1.971350    2.407080
  H      4.810500   -3.422550    3.063100
  H      4.263140   -3.184770    0.647020
  H      3.563250   -1.611800    0.945350
  H      2.811970   -3.042590    1.609800

 Total Charge           Charge          ....    0
 Multiplicity           Mult            ....    1
 Number of Electrons    NEL             ....   40
 Basis Dimension        Dim             ....  172

ORBITAL ENERGIES
----------------

  NO   OCC          E(Eh)            E(eV)
   0   2.0000     -14.190007      -386.1297
   1   2.0000     -10.106377      -275.0085
   2   2.0000     -10.088074      -274.5104
   3   2.0000     -10.071816      -274.0681
   4   2.0000     -10.016243      -272.5558
   5   2.0000      -1.028923       -27.9984
   6   2.0000      -0.886171       -24.1139
   7   2.0000      -0.814550       -22.1650
   8   2.0000      -0.744969       -20.2716
   9   2.0000      -0.666779       -18.1440
  10   2.0000      -0.629250       -17.1228
  11   2.0000      -0.588751       -16.0207
  12   2.0000      -0.555293       -15.1103
  13   2.0000      -0.517062       -14.0700
  14   2.0000      -0.491842       -13.3837
  15   2.0000      -0.479330       -13.0432
  16   2.0000      -0.452698       -12.3185
  17   2.0000      -0.442252       -12.0343
  18   2.0000      -0.431378       -11.7384
  19   2.0000      -0.286981        -7.8091
  20   0.0000       0.071469         1.9448
  21   0.0000       0.098421         2.6782
  22   0.0000       0.103945         2.8285
  23   0.0000       0.114461         3.1147
  24   0.0000       0.125323         3.4102

MULLIKEN ATOMIC CHARGES
-----------------------
   0 C :    0.129515
   1 C :   -0.313802
   2 C :    0.540078
   3 N :    0.341227
   4 H :   -0.117373
   5 H :   -0.081265
   6 H :   -0.214481
   7 H :   -0.531579
   8 C :    0.875157
   9 H :   -0.152710
  10 H :   -0.037310
  11 H :   -0.098570
  12 H :   -0.159424
  13 H :   -0.179459
Sum of atomic charges:    0.0000000

LOEWDIN ATOMIC CHARGES
----------------------
   0 C :   -0.034003
   1 C :   -0.283182
   2 C :    0.161670
   3 N :    0.180927
   4 H :    0.008823
   5 H :   -0.001811
   6 H :   -0.075964
   7 H :   -0.079799
   8 C :    0.124604
   9 H :    0.015333
  10 H :    0.032518
  11 H :   -0.017179
  12 H :   -0.010088
  13 H :   -0.021851

  Mayer bond orders larger than 0.100000
B(  0-C ,  1-C ) :   1.2466 B(  0-C ,  2-C ) :   0.1368 B(  0-C ,  8-C ) :   1.2674
B(  0-C ,  9-H ) :   0.7380 B(  0-C , 10-H ) :   0.7797 B(  0-C , 11-H ) :   0.1928
B(  0-C , 12-H ) :   0.1920 B(  0-C , 13-H ) :   0.2082 B(  1-C ,  2-C ) :   1.8412
B(  1-C ,  3-N ) :   1.1800 B(  1-C ,  6-H ) :   0.1198 B(  1-C ,  7-H ) :   0.1529
B(  1-C ,  9-H ) :   0.2417 B(  1-C , 10-H ) :   0.2227 B(  2-C ,  3-N ) :   0.2639
B(  2-C ,  6-H ) :   0.6776 B(  2-C ,  7-H ) :   0.7518 B(  3-N ,  4-H ) :   1.1000
B(  3-N ,  5-H ) :   1.0083 B(  4-H ,  5-H ) :  -0.1340 B(  8-C ,  9-H ) :   0.1130
B(  8-C , 11-H ) :   0.7669 B(  8-C , 12-H ) :   0.7811 B(  8-C , 13-H ) :   0.7950

FINAL SINGLE POINT ENERGY      -211.806813693779

DIPOLE MOMENT
-------------
                                X             Y             Z
Electronic contribution:      0.80190       1.76821       2.54361
Nuclear contribution   :     -0.47010      -1.22282      -3.06417
                        -----------------------------------------
Total Dipole Moment    :      0.33180       0.54539      -0.52056
                        -----------------------------------------
Magnitude (a.u.)       :      0.82372
Magnitude (Debye)      :      2.09374

Rotational constants in cm-1:     0.271862     0.131962     0.105499
Rotational constants in MHz :  8150.219120  3956.123671  3162.785522

                             ****ORCA TERMINATED NORMALLY****
TOTAL RUN TIME: 0 days 0 hours 0 minutes 23 seconds 440 msec
