                         Program Version 5.0.0 -  RELEASE  -
|  1> !LC-BLYP RIJCOSX def2-SVPD def2/J TightSCF
|  2> *xyz 0 1
|  3> C         -0.91495        0.61511        2.50554
|  4> C         -0.05915        1.50352        3.41058
|  5> H          0.36536        2.34431        2.86116
|  6> H         -0.69226        1.92021        4.19898
|  7> C          1.08303        0.74964        4.08571
|  8> O          2.22817        1.26348        4.01983
|  9> F          0.81003       -0.34541        4.63627
| 10> H         -0.30401        0.20228        1.73015
| 11> H         -1.69811        1.19946        2.06954
| 12> H         -1.34124       -0.17772        3.08397
| 13> *
| 14>
| 15> %MaxCore 64000
| 16>
| 17> %pal nprocs 4
| 18> end
| 19>
| 20> %scf
| 21>   MaxIter 150
| 22> end
| 23>
| 24>
| 25>                          ****END OF INPUT****

CARTESIAN COORDINATES (ANGSTROEM)
---------------------------------
  C     -0.914950    0.615110    2.505540
  C     -0.059150    1.503520    3.410580
  H      0.365360    2.344310    2.861160
  H     -0.692260    1.920210    4.198980
  C      1.083030    0.749640    4.085710
  O      2.228170    1.263480    4.019830
  F      0.810030   -0.345410    4.636270
  H     -0.304010    0.202280    1.730150
  H     -1.698110    1.199460    2.069540
  H     -1.341240   -0.177720    3.083970

 Total Charge           Charge          ....    0
 Multiplicity           Mult            ....    1
 Number of Electrons    NEL             ....   40
 Basis Dimension        Dim             ....  146

ORBITAL ENERGIES
----------------

  NO   OCC          E(Eh)            E(eV)
   0   2.0000     -24.550385      -668.0499
   1   2.0000     -18.968651      -516.1632
   2   2.0000     -10.271732      -279.5080
   3   2.0000     -10.120149      -275.3833
   4   2.0000     -10.096748      -274.7465
   5   2.0000      -1.390575       -37.8395
   6   2.0000      -1.120241       -30.4833
   7   2.0000      -0.912017       -24.8173
   8   2.0000      -0.790804       -21.5189
   9   2.0000      -0.751145       -20.4397
  10   2.0000      -0.664478       -18.0814
  11   2.0000      -0.651496       -17.7281
  12   2.0000      -0.604332       -16.4447
  13   2.0000      -0.574024       -15.6200
  14   2.0000      -0.540146       -14.6981
  15   2.0000      -0.509324       -13.8594
  16   2.0000      -0.488827       -13.3017
  17   2.0000      -0.479875       -13.0581
  18   2.0000      -0.455674       -12.3995
  19   2.0000      -0.393707       -10.7133
  20   0.0000       0.047406         1.2900
  21   0.0000       0.064763         1.7623
  22   0.0000       0.095784         2.6064
  23   0.0000       0.103533         2.8173
  24   0.0000       0.127528         3.4702

MULLIKEN ATOMIC CHARGES
-----------------------
   0 C :    0.825118
   1 C :   -0.126093
   2 H :   -0.120838
   3 H :   -0.029794
   4 C :    0.459195
   5 O :   -0.329832
   6 F :   -0.294805
   7 H :   -0.138738
   8 H :   -0.133864
   9 H :   -0.110350
Sum of atomic charges:   -0.0000000

LOEWDIN ATOMIC CHARGES
----------------------
   0 C :    0.123263
   1 C :   -0.003786
   2 H :    0.039320
   3 H :    0.044057
   4 C :   -0.056840
   5 O :   -0.115592
   6 F :   -0.007910
   7 H :   -0.003766
   8 H :   -0.008024
   9 H :   -0.010722

  Mayer bond orders larger than 0.100000
B(  0-C ,  1-C ) :   1.2925 B(  0-C ,  7-H ) :   0.7989 B(  0-C ,  8-H ) :   0.7863
B(  0-C ,  9-H ) :   0.7680 B(  1-C ,  2-H ) :   0.9547 B(  1-C ,  3-H ) :   0.8387
B(  1-C ,  4-C ) :   1.0647 B(  1-C ,  7-H ) :   0.1800 B(  1-C ,  8-H ) :   0.2027
B(  1-C ,  9-H ) :   0.1918 B(  2-H ,  4-C ) :   0.1524 B(  4-C ,  5-O ) :   1.9558
B(  4-C ,  6-F ) :   0.8641 B(  5-O ,  6-F ) :   0.1158

FINAL SINGLE POINT ENERGY      -291.579143720540

DIPOLE MOMENT
-------------
                                X             Y             Z
Electronic contribution:      5.31172      -2.82560       5.09130
Nuclear contribution   :     -6.57765       2.82334      -5.39171
                        -----------------------------------------
Total Dipole Moment    :     -1.26593      -0.00226      -0.30040
                        -----------------------------------------
Magnitude (a.u.)       :      1.30109
Magnitude (Debye)      :      3.30710

Rotational constants in cm-1:     0.294245     0.132994     0.101060
Rotational constants in MHz :  8821.228602  3987.049251  3029.696815

                             ****ORCA TERMINATED NORMALLY****
TOTAL RUN TIME: 0 days 0 hours 0 minutes 17 seconds 759 msec
