                         Program Version 5.0.0 -  RELEASE  -
|  1> !LC-BLYP RIJCOSX def2-SVPD def2/J TightSCF
|  2> *xyz 0 1
|  3> C          4.60295       -2.44010        2.63478
|  4> C          3.86085       -1.59157        3.62289
|  5> N          2.75650       -2.04616        4.16633
|  6> C          4.25433       -0.36291        3.86046
|  7> H          3.56526        0.31099        4.16898
|  8> H          5.05429       -0.01606        3.33784
|  9> H          2.43970       -2.97389        3.89740
| 10> H          2.06687       -1.41253        4.54981
| 11> C          3.74469       -2.58056        1.36188
| 12> H          5.56156       -1.97135        2.40708
| 13> H          4.81050       -3.42255        3.06310
| 14> H          4.26314       -3.18477        0.64702
| 15> H          3.56325       -1.61180        0.94535
| 16> H          2.81197       -3.04259        1.60980
| 17> *
| 18>
| 19> %MaxCore 64000
| 20>
| 21> %pal nprocs 4
| 22> end
| 23>
| 24> %scf
| 25>   MaxIter 150
| 26> end
| 27>
| 28>
| 29>                          ****END OF INPUT****

CARTESIAN COORDINATES (ANGSTROEM)
---------------------------------
  C      4.602950   -2.440100    2.634780
  C      3.860850   -1.591570    3.622890
  N      2.756500   -2.046160    4.166330
  C      4.254330   -0.362910    3.860460
  H      3.565260    0.310990    4.168980
  H      5.054290   -0.016060    3.337840
  H      2.439700   -2.973890    3.897400
  H      2.066870   -1.412530    4.549810
  C      3.744690   -2.580560    1.361880
  H      5.561560   -1.971350    2.407080
  H      4.810500   -3.422550    3.063100
  H      4.263140   -3.184770    0.647020
  H      3.563250   -1.611800    0.945350
  H      2.811970   -3.042590    1.609800

 Total Charge           Charge          ....    0
 Multiplicity           Mult            ....    1
 Number of Electrons    NEL             ....   40
 Basis Dimension        Dim             ....  172

ORBITAL ENERGIES
----------------

  NO   OCC          E(Eh)            E(eV)
   0   2.0000     -14.190051      -386.1309
   1   2.0000     -10.107254      -275.0324
   2   2.0000     -10.087566      -274.4966
   3   2.0000     -10.075655      -274.1725
   4   2.0000     -10.017402      -272.5874
   5   2.0000      -1.028785       -27.9947
   6   2.0000      -0.883987       -24.0545
   7   2.0000      -0.823065       -22.3967
   8   2.0000      -0.739866       -20.1328
   9   2.0000      -0.674118       -18.3437
  10   2.0000      -0.630916       -17.1681
  11   2.0000      -0.584122       -15.8948
  12   2.0000      -0.544371       -14.8131
  13   2.0000      -0.535409       -14.5692
  14   2.0000      -0.490380       -13.3439
  15   2.0000      -0.482755       -13.1364
  16   2.0000      -0.455926       -12.4064
  17   2.0000      -0.441794       -12.0218
  18   2.0000      -0.426091       -11.5945
  19   2.0000      -0.289418        -7.8755
  20   0.0000       0.069556         1.8927
  21   0.0000       0.100346         2.7305
  22   0.0000       0.107810         2.9337
  23   0.0000       0.111737         3.0405
  24   0.0000       0.124435         3.3860

MULLIKEN ATOMIC CHARGES
-----------------------
   0 C :   -0.008945
   1 C :   -0.417089
   2 N :    0.470973
   3 C :    0.528279
   4 H :   -0.451413
   5 H :   -0.167053
   6 H :   -0.104282
   7 H :   -0.218077
   8 C :    0.948986
   9 H :   -0.012389
  10 H :   -0.113332
  11 H :   -0.172955
  12 H :   -0.140626
  13 H :   -0.142078
Sum of atomic charges:   -0.0000000

LOEWDIN ATOMIC CHARGES
----------------------
   0 C :   -0.035205
   1 C :   -0.288020
   2 N :    0.183880
   3 C :    0.163788
   4 H :   -0.080882
   5 H :   -0.079986
   6 H :    0.000323
   7 H :    0.010672
   8 C :    0.124263
   9 H :    0.026959
  10 H :    0.025034
  11 H :   -0.015892
  12 H :   -0.007427
  13 H :   -0.027507

  Mayer bond orders larger than 0.100000
B(  0-C ,  1-C ) :   1.3636 B(  0-C ,  3-C ) :   0.1280 B(  0-C ,  8-C ) :   1.2297
B(  0-C ,  9-H ) :   0.8512 B(  0-C , 10-H ) :   0.7817 B(  0-C , 11-H ) :   0.2338
B(  0-C , 12-H ) :   0.1796 B(  0-C , 13-H ) :   0.2344 B(  1-C ,  2-N ) :   1.2251
B(  1-C ,  3-C ) :   1.9645 B(  1-C ,  4-H ) :   0.2685 B(  1-C ,  5-H ) :   0.1132
B(  1-C ,  9-H ) :   0.2305 B(  1-C , 10-H ) :   0.2193 B(  2-N ,  3-C ) :   0.2579
B(  2-N ,  6-H ) :   1.0323 B(  2-N ,  7-H ) :   1.1375 B(  3-C ,  4-H ) :   0.6418
B(  3-C ,  5-H ) :   0.8543 B(  3-C ,  9-H ) :  -0.1138 B(  4-H ,  5-H ) :   0.1141
B(  6-H ,  7-H ) :  -0.1358 B(  8-C ,  9-H ) :   0.1196 B(  8-C , 11-H ) :   0.7793
B(  8-C , 12-H ) :   0.7903 B(  8-C , 13-H ) :   0.7331

FINAL SINGLE POINT ENERGY      -211.807563888501

DIPOLE MOMENT
-------------
                                X             Y             Z
Electronic contribution:     -0.48476       0.31467       2.81755
Nuclear contribution   :     -0.12319      -0.83296      -3.13501
                        -----------------------------------------
Total Dipole Moment    :     -0.60795      -0.51829      -0.31746
                        -----------------------------------------
Magnitude (a.u.)       :      0.85966
Magnitude (Debye)      :      2.18507

Rotational constants in cm-1:     0.266453     0.134423     0.106086
Rotational constants in MHz :  7988.053142  4029.892766  3180.375228

                             ****ORCA TERMINATED NORMALLY****
TOTAL RUN TIME: 0 days 0 hours 0 minutes 24 seconds 235 msec
