                         Program Version 5.0.0 -  RELEASE  -
|  1> !LC-BLYP RIJCOSX def2-SVPD def2/J TightSCF xyzfile
|  2>
|  3> *xyzfile 0 1 D3.xyz
|  4>
|  5> %MaxCore 64000
|  6>
|  7> %pal nprocs 4
|  8> end
|  9>
| 10> %scf
| 11>   MaxIter 150
| 12> end
| 13>
| 14>
| 15>                          ****END OF INPUT****

CARTESIAN COORDINATES (ANGSTROEM)
---------------------------------
  C      4.602954   -2.440100    2.634780
  C     -0.914947    0.615112    2.505538
  C     -0.059146    1.503524    3.410578
  H      0.365364    2.344315    2.861161
  H     -0.692261    1.920207    4.198985
  C      1.083027    0.749640    4.085705
  C      3.860851   -1.591565    3.622893
  C      2.756502   -2.046159    4.166333
  N      4.254325   -0.362905    3.860455
  H      3.565256    0.310994    4.168983
  H      5.054292   -0.016059    3.337838
  H      2.439696   -2.973894    3.897395
  H      2.066869   -1.412532    4.549813
  O      2.228167    1.263475    4.019826
  F      0.810034   -0.345411    4.636269
  C      3.744685   -2.580557    1.361882
  C      0.772139    0.636882    0.562129
  C     -0.130740   -0.193985    1.470763
  H     -0.840563   -0.760165    0.856377
  H      0.466691   -0.938942    2.006959
  H     -1.647961    1.245963    1.991076
  H     -1.478180   -0.081046    3.130424
  C      3.203721   -1.256004    0.826211
  H      2.898939   -3.239289    1.583074
  H      4.334962   -3.095523    0.600188
  C      2.107815   -1.442385   -0.216865
  H      2.786775   -0.672760    1.650711
  H      4.021008   -0.652993    0.414046
  C      1.390662   -0.145912   -0.602422
  H      1.372179   -2.152184    0.176151
  H      2.523302   -1.906787   -1.117115
  H      1.561361    1.100094    1.161831
  H      0.195516    1.468325    0.142758
  H      0.602893   -0.398214   -1.319716
  H      2.087247    0.508272   -1.137335
  H      5.561557   -1.971347    2.407084
  H      4.810498   -3.422552    3.063099

 Total Charge           Charge          ....    0
 Multiplicity           Mult            ....    1
 Number of Electrons    NEL             ....  118
 Basis Dimension        Dim             ....  482

ORBITAL ENERGIES
----------------

  NO   OCC          E(Eh)            E(eV)
   0   2.0000     -24.564601      -668.4368
   1   2.0000     -18.991252      -516.7782
   2   2.0000     -14.152014      -385.0959
   3   2.0000     -10.292314      -280.0681
   4   2.0000     -10.125382      -275.5257
   5   2.0000     -10.106923      -275.0233
   6   2.0000     -10.090869      -274.5865
   7   2.0000     -10.087864      -274.5047
   8   2.0000     -10.084336      -274.4087
   9   2.0000     -10.079807      -274.2855
  10   2.0000     -10.073852      -274.1235
  11   2.0000     -10.072556      -274.0882
  12   2.0000     -10.071899      -274.0703
  13   2.0000     -10.068346      -273.9736
  14   2.0000      -9.992243      -271.9028
  15   2.0000      -1.408806       -38.3356
  16   2.0000      -1.147669       -31.2297
  17   2.0000      -1.002918       -27.2908
  18   2.0000      -0.942035       -25.6341
  19   2.0000      -0.912275       -24.8243
  20   2.0000      -0.885204       -24.0876
  21   2.0000      -0.849408       -23.1136
  22   2.0000      -0.816497       -22.2180
  23   2.0000      -0.799704       -21.7610
  24   2.0000      -0.775059       -21.0904
  25   2.0000      -0.754728       -20.5372
  26   2.0000      -0.721469       -19.6322
  27   2.0000      -0.696507       -18.9529
  28   2.0000      -0.682626       -18.5752
  29   2.0000      -0.674624       -18.3575
  30   2.0000      -0.660707       -17.9788
  31   2.0000      -0.648029       -17.6338
  32   2.0000      -0.624921       -17.0050
  33   2.0000      -0.600491       -16.3402
  34   2.0000      -0.594287       -16.1714
  35   2.0000      -0.587319       -15.9818
  36   2.0000      -0.572865       -15.5885
  37   2.0000      -0.555397       -15.1131
  38   2.0000      -0.550516       -14.9803
  39   2.0000      -0.537418       -14.6239
  40   2.0000      -0.530457       -14.4345
  41   2.0000      -0.514295       -13.9947
  42   2.0000      -0.512597       -13.9485
  43   2.0000      -0.496400       -13.5077
  44   2.0000      -0.489655       -13.3242
  45   2.0000      -0.478941       -13.0327
  46   2.0000      -0.473536       -12.8856
  47   2.0000      -0.466532       -12.6950
  48   2.0000      -0.452852       -12.3227
  49   2.0000      -0.443607       -12.0712
  50   2.0000      -0.439948       -11.9716
  51   2.0000      -0.434794       -11.8313
  52   2.0000      -0.423117       -11.5136
  53   2.0000      -0.417053       -11.3486
  54   2.0000      -0.408942       -11.1279
  55   2.0000      -0.407434       -11.0869
  56   2.0000      -0.400872       -10.9083
  57   2.0000      -0.392307       -10.6752
  58   2.0000      -0.265910        -7.2358
  59   0.0000       0.029175         0.7939
  60   0.0000       0.062096         1.6897
  61   0.0000       0.079822         2.1721
  62   0.0000       0.081398         2.2149
  63   0.0000       0.085248         2.3197

MULLIKEN ATOMIC CHARGES
-----------------------
   0 C :    1.050985
   1 C :    0.723873
   2 C :    0.354364
   3 H :    0.105529
   4 H :   -0.263819
   5 C :    0.407867
   6 C :   -0.712728
   7 C :    1.359331
   8 N :    0.686688
   9 H :   -0.536704
  10 H :    0.105119
  11 H :   -0.303529
  12 H :   -1.217590
  13 O :   -0.364249
  14 F :   -0.367161
  15 C :    0.240223
  16 C :   -0.007673
  17 C :    0.087754
  18 H :   -0.262378
  19 H :   -0.237011
  20 H :   -0.149704
  21 H :   -0.061911
  22 C :    0.441807
  23 H :    0.004554
  24 H :   -0.382139
  25 C :    0.168372
  26 H :   -0.599632
  27 H :   -0.053624
  28 C :    0.999871
  29 H :    0.119954
  30 H :   -0.455000
  31 H :    0.062425
  32 H :   -0.640711
  33 H :   -0.003990
  34 H :   -0.093753
  35 H :   -0.130864
  36 H :   -0.074544
Sum of atomic charges:   -0.0000000

LOEWDIN ATOMIC CHARGES
----------------------
   0 C :    0.008807
   1 C :   -0.031438
   2 C :    0.050229
   3 H :    0.039961
   4 H :    0.048473
   5 C :    0.015145
   6 C :   -0.265641
   7 C :    0.186090
   8 N :    0.213890
   9 H :   -0.113083
  10 H :    0.005171
  11 H :   -0.070477
  12 H :   -0.145956
  13 O :   -0.088177
  14 F :   -0.008754
  15 C :   -0.030593
  16 C :   -0.044451
  17 C :   -0.039798
  18 H :    0.038412
  19 H :    0.016277
  20 H :    0.034724
  21 H :    0.031291
  22 C :   -0.041466
  23 H :    0.021770
  24 H :    0.026035
  25 C :   -0.048938
  26 H :   -0.011771
  27 H :    0.040169
  28 C :   -0.038834
  29 H :    0.021043
  30 H :    0.030077
  31 H :    0.015294
  32 H :    0.029721
  33 H :    0.026486
  34 H :    0.028945
  35 H :    0.018941
  36 H :    0.032424

  Mayer bond orders larger than 0.100000
B(  0-C ,  6-C ) :   1.2422 B(  0-C ,  8-N ) :   0.1147 B(  0-C , 15-C ) :   1.0501
B(  0-C , 35-H ) :   0.3621 B(  0-C , 36-H ) :   0.5405 B(  1-C ,  2-C ) :   1.1407
B(  1-C ,  3-H ) :   0.1031 B(  1-C ,  4-H ) :   0.1839 B(  1-C ,  5-C ) :   0.1115
B(  1-C , 17-C ) :   1.1866 B(  1-C , 19-H ) :   0.1136 B(  1-C , 20-H ) :   0.6893
B(  1-C , 21-H ) :   0.5517 B(  1-C , 28-C ) :   0.1485 B(  2-C ,  3-H ) :   0.8196
B(  2-C ,  4-H ) :   0.6163 B(  2-C ,  5-C ) :   1.2060 B(  2-C , 17-C ) :   0.1705
B(  2-C , 20-H ) :   0.1811 B(  2-C , 21-H ) :   0.1053 B(  3-H ,  4-H ) :  -0.1100
B(  3-H ,  5-C ) :   0.1799 B(  4-H ,  5-C ) :   0.2798 B(  5-C , 13-O ) :   1.8198
B(  5-C , 14-F ) :   0.7858 B(  6-C ,  7-C ) :   1.9965 B(  6-C ,  8-N ) :   0.9833
B(  6-C , 10-H ) :   0.1839 B(  6-C , 12-H ) :   0.4152 B(  6-C , 15-C ) :   0.2009
B(  6-C , 35-H ) :   0.4718 B(  6-C , 36-H ) :   0.2842 B(  7-C ,  8-N ) :   0.4254
B(  7-C , 11-H ) :   0.4952 B(  7-C , 12-H ) :  -0.6164 B(  8-N ,  9-H ) :   0.9898
B(  8-N , 10-H ) :   0.8700 B(  8-N , 11-H ) :   0.3211 B(  8-N , 12-H ) :  -0.2692
B(  9-H , 10-H ) :  -0.2769 B(  9-H , 13-O ) :   0.1359 B( 11-H , 12-H ) :  -0.1462
B( 12-H , 14-F ) :   0.2912 B( 13-O , 14-F ) :   0.1511 B( 15-C , 22-C ) :   1.1174
B( 15-C , 23-H ) :   0.8169 B( 15-C , 24-H ) :   0.8596 B( 15-C , 25-C ) :   0.1373
B( 15-C , 26-H ) :   0.2344 B( 15-C , 27-H ) :   0.1139 B( 15-C , 35-H ) :   0.2314
B( 15-C , 36-H ) :   0.1962 B( 16-C , 17-C ) :   1.2681 B( 16-C , 18-H ) :   0.1934
B( 16-C , 19-H ) :   0.1711 B( 16-C , 25-C ) :   0.2235 B( 16-C , 28-C ) :   1.0405
B( 16-C , 31-H ) :   0.8059 B( 16-C , 32-H ) :   1.0477 B( 16-C , 33-H ) :   0.1690
B( 16-C , 34-H ) :   0.3519 B( 17-C , 18-H ) :   0.8250 B( 17-C , 19-H ) :   0.8394
B( 17-C , 20-H ) :   0.2196 B( 17-C , 21-H ) :   0.3260 B( 17-C , 31-H ) :   0.1294
B( 17-C , 32-H ) :   0.1168 B( 20-H , 21-H ) :  -0.1728 B( 22-C , 23-H ) :   0.1437
B( 22-C , 24-H ) :   0.2796 B( 22-C , 25-C ) :   1.1787 B( 22-C , 26-H ) :   0.7008
B( 22-C , 27-H ) :   0.6475 B( 22-C , 29-H ) :   0.1478 B( 22-C , 30-H ) :   0.2674
B( 22-C , 31-H ) :  -0.1168 B( 23-H , 24-H ) :  -0.1124 B( 23-H , 30-H ) :  -0.1199
B( 25-C , 26-H ) :   0.1423 B( 25-C , 27-H ) :   0.1168 B( 25-C , 28-C ) :   1.1137
B( 25-C , 29-H ) :   0.7784 B( 25-C , 30-H ) :   0.8746 B( 25-C , 33-H ) :   0.2760
B( 25-C , 34-H ) :   0.1655 B( 26-H , 27-H ) :   0.1901 B( 26-H , 31-H ) :   0.2427
B( 26-H , 32-H ) :  -0.1738 B( 28-C , 29-H ) :   0.1064 B( 28-C , 33-H ) :   0.5560
B( 28-C , 34-H ) :   0.5177 B( 33-H , 34-H ) :  -0.1565

FINAL SINGLE POINT ENERGY      -698.050410866239

DIPOLE MOMENT
-------------
                                X             Y             Z
Electronic contribution:     -1.24599       4.75254      15.93506
Nuclear contribution   :      0.05905      -3.94566     -16.70013
                        -----------------------------------------
Total Dipole Moment    :     -1.18694       0.80688      -0.76508
                        -----------------------------------------
Magnitude (a.u.)       :      1.62641
Magnitude (Debye)      :      4.13401

Rotational constants in cm-1:     0.021602     0.017295     0.011353
Rotational constants in MHz :   647.614981   518.478934   340.359556

                             ****ORCA TERMINATED NORMALLY****
TOTAL RUN TIME: 0 days 0 hours 4 minutes 36 seconds 513 msec
