                         Program Version 5.0.0 -  RELEASE  -
|  1> !wB97X-D3 RIJCOSX def2-SVP def2/J TightSCF
|  2> *xyz -1 1
|  3> C         -1.91658       -2.48508       -3.64367
|  4> C         -1.36353       -1.98134       -2.29361
|  5> O         -0.35039       -2.74969       -1.79601
|  6> H         -2.22622       -1.90839       -1.60204
|  7> H         -1.05135       -0.91567       -2.44333
|  8> H         -1.11522       -2.57167       -4.34739
|  9> H         -2.64227       -1.79099       -4.01314
| 10> H         -2.37564       -3.44180       -3.50640
| 11> *
| 12>
| 13> %MaxCore 64000
| 14> %pal nprocs 4
| 15> end
| 16>
| 17> %scf
| 18>   MaxIter 150
| 19> end
| 20>
| 21>
| 22>                          ****END OF INPUT****

CARTESIAN COORDINATES (ANGSTROEM)
---------------------------------
  C     -1.916580   -2.485080   -3.643670
  C     -1.363530   -1.981340   -2.293610
  O     -0.350390   -2.749690   -1.796010
  H     -2.226220   -1.908390   -1.602040
  H     -1.051350   -0.915670   -2.443330
  H     -1.115220   -2.571670   -4.347390
  H     -2.642270   -1.790990   -4.013140
  H     -2.375640   -3.441800   -3.506400

 Total Charge           Charge          ....   -1
 Multiplicity           Mult            ....    1
 Number of Electrons    NEL             ....   26
 Basis Dimension        Dim             ....   67

ORBITAL ENERGIES
----------------

  NO   OCC          E(Eh)            E(eV)
   0   2.0000     -18.846643      -512.8432
   1   2.0000     -10.078559      -274.2515
   2   2.0000     -10.066231      -273.9161
   3   2.0000      -0.740919       -20.1614
   4   2.0000      -0.613622       -16.6975
   5   2.0000      -0.452659       -12.3175
   6   2.0000      -0.333151        -9.0655
   7   2.0000      -0.310386        -8.4460
   8   2.0000      -0.249482        -6.7888
   9   2.0000      -0.231208        -6.2915
  10   2.0000      -0.164068        -4.4645
  11   2.0000      -0.013809        -0.3757
  12   2.0000      -0.010854        -0.2953
  13   0.0000       0.335200         9.1213
  14   0.0000       0.379908        10.3378
  15   0.0000       0.393408        10.7052
  16   0.0000       0.403174        10.9709
  17   0.0000       0.445573        12.1247

MULLIKEN ATOMIC CHARGES
-----------------------
   0 C :    0.006563
   1 C :    0.245805
   2 O :   -0.727184
   3 H :   -0.165322
   4 H :   -0.169148
   5 H :   -0.046139
   6 H :   -0.098212
   7 H :   -0.046363
Sum of atomic charges:   -1.0000000

LOEWDIN ATOMIC CHARGES
----------------------
   0 C :   -0.114362
   1 C :    0.009697
   2 O :   -0.678373
   3 H :   -0.081426
   4 H :   -0.084628
   5 H :   -0.010645
   6 H :   -0.029401
   7 H :   -0.010862

  Mayer bond orders larger than 0.100000
B(  0-C ,  1-C ) :   0.9897 B(  0-C ,  5-H ) :   0.9637 B(  0-C ,  6-H ) :   0.9355
B(  0-C ,  7-H ) :   0.9663 B(  1-C ,  2-O ) :   1.5015 B(  1-C ,  3-H ) :   0.8771
B(  1-C ,  4-H ) :   0.8762

Dispersion correction           -0.000862866
FINAL SINGLE POINT ENERGY      -154.231764957508

DIPOLE MOMENT
-------------
                                X             Y             Z
Electronic contribution:      2.24282      -1.06556       1.91225
Nuclear contribution   :     -3.14382       1.30299      -2.83231
                        -----------------------------------------
Total Dipole Moment    :     -0.90100       0.23743      -0.92006
                        -----------------------------------------
Magnitude (a.u.)       :      1.30946
Magnitude (Debye)      :      3.32838

Rotational constants in cm-1:     1.288206     0.322942     0.285188
Rotational constants in MHz : 38619.437223  9681.562038  8549.712012

                             ****ORCA TERMINATED NORMALLY****
TOTAL RUN TIME: 0 days 0 hours 0 minutes 8 seconds 753 msec
