                         Program Version 5.0.0 -  RELEASE  -
|  1> !wB97X-D3 RIJCOSX def2-SVP def2/J TightSCF
|  2> *xyz 1 1
|  3> C          1.64703       -2.34528       -5.02041
|  4> C          2.20996       -2.81239       -3.66571
|  5> C          2.48901       -1.66851       -2.73754
|  6> N          3.59631       -0.94761       -2.95225
|  7> N          1.66394       -1.41369       -1.77781
|  8> H          0.81164       -1.96318       -1.70275
|  9> H          1.84550       -0.63508       -1.15875
| 10> H          4.20535       -1.17600       -3.73383
| 11> H          3.81723       -0.12585       -2.40604
| 12> H          3.14311       -3.36280       -3.81152
| 13> H          1.48768       -3.45893       -3.16521
| 14> H          1.46566       -3.19589       -5.64368
| 15> H          2.35406       -1.69850       -5.49654
| 16> H          0.73014       -1.81680       -4.86253
| 17> *
| 18>
| 19> %MaxCore 64000
| 20> %pal nprocs 4
| 21> end
| 22>
| 23> %scf
| 24>   MaxIter 150
| 25> end
| 26>
| 27>
| 28>                          ****END OF INPUT****

CARTESIAN COORDINATES (ANGSTROEM)
---------------------------------
  C      1.647030   -2.345280   -5.020410
  C      2.209960   -2.812390   -3.665710
  C      2.489010   -1.668510   -2.737540
  N      3.596310   -0.947610   -2.952250
  N      1.663940   -1.413690   -1.777810
  H      0.811640   -1.963180   -1.702750
  H      1.845500   -0.635080   -1.158750
  H      4.205350   -1.176000   -3.733830
  H      3.817230   -0.125850   -2.406040
  H      3.143110   -3.362800   -3.811520
  H      1.487680   -3.458930   -3.165210
  H      1.465660   -3.195890   -5.643680
  H      2.354060   -1.698500   -5.496540
  H      0.730140   -1.816800   -4.862530

 Total Charge           Charge          ....    1
 Multiplicity           Mult            ....    1
 Number of Electrons    NEL             ....   40
 Basis Dimension        Dim             ....  115

ORBITAL ENERGIES
----------------

  NO   OCC          E(Eh)            E(eV)
   0   2.0000     -14.688958      -399.7069
   1   2.0000     -14.679301      -399.4441
   2   2.0000     -10.614187      -288.8267
   3   2.0000     -10.487751      -285.3862
   4   2.0000     -10.445337      -284.2321
   5   2.0000      -1.316854       -35.8334
   6   2.0000      -1.217166       -33.1208
   7   2.0000      -1.079800       -29.3828
   8   2.0000      -0.966905       -26.3108
   9   2.0000      -0.923629       -25.1332
  10   2.0000      -0.880419       -23.9574
  11   2.0000      -0.854548       -23.2534
  12   2.0000      -0.805141       -21.9090
  13   2.0000      -0.752597       -20.4792
  14   2.0000      -0.723014       -19.6742
  15   2.0000      -0.713665       -19.4198
  16   2.0000      -0.640146       -17.4193
  17   2.0000      -0.630976       -17.1697
  18   2.0000      -0.625220       -17.0131
  19   2.0000      -0.586515       -15.9599
  20   0.0000      -0.119585        -3.2541
  21   0.0000      -0.057671        -1.5693
  22   0.0000      -0.010746        -0.2924
  23   0.0000      -0.008563        -0.2330
  24   0.0000       0.018878         0.5137

MULLIKEN ATOMIC CHARGES
-----------------------
   0 C :   -0.017618
   1 C :   -0.070254
   2 C :   -0.037871
   3 N :   -0.051519
   4 N :    0.016061
   5 H :    0.202079
   6 H :    0.187109
   7 H :    0.196500
   8 H :    0.183920
   9 H :    0.104246
  10 H :    0.076079
  11 H :    0.097911
  12 H :    0.053179
  13 H :    0.060177
Sum of atomic charges:    1.0000000

LOEWDIN ATOMIC CHARGES
----------------------
   0 C :   -0.024107
   1 C :   -0.036265
   2 C :    0.158875
   3 N :    0.071919
   4 N :    0.110187
   5 H :    0.128849
   6 H :    0.117165
   7 H :    0.122825
   8 H :    0.111632
   9 H :    0.062989
  10 H :    0.051860
  11 H :    0.054170
  12 H :    0.032457
  13 H :    0.037445

  Mayer bond orders larger than 0.100000
B(  0-C ,  1-C ) :   1.0557 B(  0-C , 11-H ) :   0.9674 B(  0-C , 12-H ) :   0.9750
B(  0-C , 13-H ) :   0.9714 B(  1-C ,  2-C ) :   1.0103 B(  1-C ,  9-H ) :   0.9301
B(  1-C , 10-H ) :   0.9340 B(  2-C ,  3-N ) :   1.4766 B(  2-C ,  4-N ) :   1.5536
B(  3-N ,  7-H ) :   0.9218 B(  3-N ,  8-H ) :   0.9315 B(  4-N ,  5-H ) :   0.9107
B(  4-N ,  6-H ) :   0.9251

Dispersion correction           -0.003021138
FINAL SINGLE POINT ENERGY      -228.806735463816

DIPOLE MOMENT
-------------
                                X             Y             Z
Electronic contribution:      1.20118       1.68523       3.65443
Nuclear contribution   :     -0.98617      -1.03178      -2.77619
                        -----------------------------------------
Total Dipole Moment    :      0.21502       0.65345       0.87824
                        -----------------------------------------
Magnitude (a.u.)       :      1.11559
Magnitude (Debye)      :      2.83560

Rotational constants in cm-1:     0.257311     0.127495     0.099037
Rotational constants in MHz :  7713.982239  3822.189706  2969.039713

                             ****ORCA TERMINATED NORMALLY****
TOTAL RUN TIME: 0 days 0 hours 0 minutes 18 seconds 260 msec
