                         Program Version 5.0.0 -  RELEASE  -
|  1> !wB97X-D3 RIJCOSX def2-SVP def2/J TightSCF xyzfile
|  2>
|  3> *xyzfile 0 1 B.xyz
|  4>
|  5> %MaxCore 64000
|  6>
|  7> %pal nprocs 18
|  8> end
|  9>
| 10> %scf
| 11>   MaxIter 150
| 12> end
| 13>
| 14>
| 15>                          ****END OF INPUT****

CARTESIAN COORDINATES (ANGSTROEM)
---------------------------------
  C      1.647032   -2.345276   -5.020411
  C      0.217628   -1.814022   -4.924389
  C      2.209964   -2.812388   -3.665708
  C     -0.811356   -2.908780   -4.607625
  C     -1.916579   -2.485081   -3.643665
  H     -2.554525   -1.712428   -4.091993
  C     -1.363531   -1.981337   -2.293608
  H     -2.553448   -3.355667   -3.458815
  O     -0.350395   -2.749689   -1.796006
  H      2.308385   -1.588704   -5.457128
  H      1.674286   -3.203478   -5.697392
  C      2.489007   -1.668510   -2.737538
  N      3.596314   -0.947608   -2.952247
  N      1.663936   -1.413685   -1.777806
  H      0.811642   -1.963178   -1.702755
  H      1.845503   -0.635078   -1.158749
  H      4.205351   -1.176003   -3.733825
  H      3.817230   -0.125845   -2.406041
  H     -1.244829   -3.280884   -5.541040
  H     -0.306331   -3.757746   -4.142734
  H     -0.036244   -1.318555   -5.865303
  H      0.175004   -1.035382   -4.158095
  H      3.143106   -3.362803   -3.811524
  H      1.487683   -3.458935   -3.165211
  H     -2.226220   -1.908386   -1.602039
  H     -1.051353   -0.915671   -2.443331

 Total Charge           Charge          ....    0
 Multiplicity           Mult            ....    1
 Number of Electrons    NEL             ....   80
 Basis Dimension        Dim             ....  220

ORBITAL ENERGIES
----------------

  NO   OCC          E(Eh)            E(eV)
   0   2.0000     -19.074488      -519.0432
   1   2.0000     -14.513113      -394.9219
   2   2.0000     -14.463997      -393.5854
   3   2.0000     -10.428838      -283.7831
   4   2.0000     -10.312117      -280.6070
   5   2.0000     -10.301596      -280.3207
   6   2.0000     -10.270607      -279.4774
   7   2.0000     -10.255032      -279.0536
   8   2.0000     -10.249348      -278.8989
   9   2.0000     -10.229713      -278.3646
  10   2.0000      -1.131054       -30.7775
  11   2.0000      -1.033684       -28.1280
  12   2.0000      -0.966696       -26.3051
  13   2.0000      -0.925745       -25.1908
  14   2.0000      -0.860752       -23.4223
  15   2.0000      -0.808832       -22.0094
  16   2.0000      -0.753737       -20.5102
  17   2.0000      -0.733781       -19.9672
  18   2.0000      -0.699995       -19.0478
  19   2.0000      -0.690477       -18.7888
  20   2.0000      -0.662980       -18.0406
  21   2.0000      -0.621108       -16.9012
  22   2.0000      -0.596573       -16.2336
  23   2.0000      -0.586653       -15.9637
  24   2.0000      -0.563077       -15.3221
  25   2.0000      -0.538123       -14.6431
  26   2.0000      -0.527012       -14.3407
  27   2.0000      -0.497550       -13.5390
  28   2.0000      -0.484438       -13.1822
  29   2.0000      -0.481046       -13.0899
  30   2.0000      -0.447586       -12.1794
  31   2.0000      -0.439213       -11.9516
  32   2.0000      -0.427983       -11.6460
  33   2.0000      -0.405535       -11.0352
  34   2.0000      -0.400830       -10.9071
  35   2.0000      -0.386720       -10.5232
  36   2.0000      -0.377328       -10.2676
  37   2.0000      -0.366611        -9.9760
  38   2.0000      -0.243344        -6.6217
  39   2.0000      -0.235892        -6.4189
  40   0.0000       0.059680         1.6240
  41   0.0000       0.093425         2.5422
  42   0.0000       0.134217         3.6522
  43   0.0000       0.159559         4.3418
  44   0.0000       0.172805         4.7023

MULLIKEN ATOMIC CHARGES
-----------------------
   0 C :   -0.055343
   1 C :   -0.011417
   2 C :    0.028065
   3 C :   -0.036246
   4 C :   -0.037171
   5 H :   -0.014947
   6 C :    0.219154
   7 H :    0.006642
   8 O :   -0.621869
   9 H :    0.001455
  10 H :    0.040401
  11 C :   -0.105068
  12 N :   -0.076217
  13 N :    0.072013
  14 H :    0.127531
  15 H :    0.126972
  16 H :    0.159064
  17 H :    0.148716
  18 H :    0.003563
  19 H :    0.022542
  20 H :    0.017141
  21 H :    0.009089
  22 H :    0.038878
  23 H :    0.081636
  24 H :   -0.045799
  25 H :   -0.098785
Sum of atomic charges:    0.0000000

LOEWDIN ATOMIC CHARGES
----------------------
   0 C :   -0.028050
   1 C :   -0.040606
   2 C :   -0.039212
   3 C :   -0.042451
   4 C :   -0.068733
   5 H :    0.006305
   6 C :    0.025605
   7 H :    0.017358
   8 O :   -0.490412
   9 H :    0.010841
  10 H :    0.030424
  11 C :    0.135427
  12 N :    0.021198
  13 N :    0.134739
  14 H :   -0.024878
  15 H :    0.081927
  16 H :    0.098443
  17 H :    0.089513
  18 H :    0.014359
  19 H :    0.018893
  20 H :    0.022028
  21 H :    0.016113
  22 H :    0.034236
  23 H :    0.052029
  24 H :   -0.022159
  25 H :   -0.052937

  Mayer bond orders larger than 0.100000
B(  0-C ,  1-C ) :   1.0697 B(  0-C ,  2-C ) :   1.0554 B(  0-C ,  9-H ) :   0.9525
B(  0-C , 10-H ) :   0.9483 B(  1-C ,  3-C ) :   1.0369 B(  1-C , 20-H ) :   0.9446
B(  1-C , 21-H ) :   0.9499 B(  2-C , 11-C ) :   1.0064 B(  2-C , 22-H ) :   0.9319
B(  2-C , 23-H ) :   0.8962 B(  3-C ,  4-C ) :   1.0692 B(  3-C , 18-H ) :   0.9486
B(  3-C , 19-H ) :   0.9534 B(  4-C ,  5-H ) :   0.9435 B(  4-C ,  6-C ) :   1.0092
B(  4-C ,  7-H ) :   0.9435 B(  6-C ,  8-O ) :   1.2266 B(  6-C , 24-H ) :   0.9352
B(  6-C , 25-H ) :   0.9048 B(  8-O , 14-H ) :   0.4095 B( 11-C , 12-N ) :   1.3529
B( 11-C , 13-N ) :   1.7149 B( 12-N , 16-H ) :   0.9312 B( 12-N , 17-H ) :   0.9429
B( 13-N , 14-H ) :   0.6906 B( 13-N , 15-H ) :   0.9331

Dispersion correction           -0.011117851
FINAL SINGLE POINT ENERGY      -460.617260280675

DIPOLE MOMENT
-------------
                                X             Y             Z
Electronic contribution:      5.72721       0.91720       4.40894
Nuclear contribution   :     -2.25948       0.71378      -5.15247
                        -----------------------------------------
Total Dipole Moment    :      3.46773       1.63098      -0.74353
                        -----------------------------------------
Magnitude (a.u.)       :      3.90360
Magnitude (Debye)      :      9.92215

Rotational constants in cm-1:     0.063973     0.031829     0.024059
Rotational constants in MHz :  1917.874550   954.201145   721.285252

                             ****ORCA TERMINATED NORMALLY****
TOTAL RUN TIME: 0 days 0 hours 0 minutes 27 seconds 401 msec
