                         Program Version 5.0.0 -  RELEASE  -
|  1> !wB97X-D3 RIJCOSX def2-SVP def2/J TightSCF
|  2> *xyz 0 1
|  3> C         -1.91658       -2.48508       -3.64367
|  4> C         -1.36353       -1.98134       -2.29361
|  5> F         -0.35039       -2.74969       -1.79601
|  6> H         -2.22622       -1.90839       -1.60204
|  7> H         -1.05135       -0.91567       -2.44333
|  8> H         -1.11522       -2.57167       -4.34739
|  9> H         -2.64227       -1.79099       -4.01314
| 10> H         -2.37564       -3.44180       -3.50640
| 11> *
| 12>
| 13> %MaxCore 64000
| 14> %pal nprocs 4
| 15> end
| 16>
| 17> %scf
| 18>   MaxIter 150
| 19> end
| 20>
| 21>
| 22>                          ****END OF INPUT****

CARTESIAN COORDINATES (ANGSTROEM)
---------------------------------
  C     -1.916580   -2.485080   -3.643670
  C     -1.363530   -1.981340   -2.293610
  F     -0.350390   -2.749690   -1.796010
  H     -2.226220   -1.908390   -1.602040
  H     -1.051350   -0.915670   -2.443330
  H     -1.115220   -2.571670   -4.347390
  H     -2.642270   -1.790990   -4.013140
  H     -2.375640   -3.441800   -3.506400

 Total Charge           Charge          ....    0
 Multiplicity           Mult            ....    1
 Number of Electrons    NEL             ....   26
 Basis Dimension        Dim             ....   67

ORBITAL ENERGIES
----------------

  NO   OCC          E(Eh)            E(eV)
   0   2.0000     -24.769303      -674.0070
   1   2.0000     -10.364772      -282.0398
   2   2.0000     -10.283414      -279.8259
   3   2.0000      -1.287216       -35.0269
   4   2.0000      -0.869755       -23.6672
   5   2.0000      -0.732032       -19.9196
   6   2.0000      -0.603807       -16.4304
   7   2.0000      -0.592816       -16.1313
   8   2.0000      -0.553535       -15.0625
   9   2.0000      -0.499684       -13.5971
  10   2.0000      -0.495916       -13.4946
  11   2.0000      -0.425062       -11.5665
  12   2.0000      -0.418913       -11.3992
  13   0.0000       0.151512         4.1229
  14   0.0000       0.197493         5.3741
  15   0.0000       0.203634         5.5412
  16   0.0000       0.221786         6.0351
  17   0.0000       0.240316         6.5393

MULLIKEN ATOMIC CHARGES
-----------------------
   0 C :   -0.095665
   1 C :    0.199100
   2 F :   -0.268602
   3 H :    0.022083
   4 H :    0.022882
   5 H :    0.044319
   6 H :    0.032992
   7 H :    0.042891
Sum of atomic charges:   -0.0000000

LOEWDIN ATOMIC CHARGES
----------------------
   0 C :   -0.077691
   1 C :    0.106500
   2 F :   -0.136153
   3 H :    0.010601
   4 H :    0.011713
   5 H :    0.027496
   6 H :    0.031212
   7 H :    0.026321

  Mayer bond orders larger than 0.100000
B(  0-C ,  1-C ) :   1.0796 B(  0-C ,  5-H ) :   0.9738 B(  0-C ,  6-H ) :   0.9655
B(  0-C ,  7-H ) :   0.9751 B(  1-C ,  2-F ) :   0.9937 B(  1-C ,  3-H ) :   0.9613
B(  1-C ,  4-H ) :   0.9624

Dispersion correction           -0.000873249
FINAL SINGLE POINT ENERGY      -178.873039618176

DIPOLE MOMENT
-------------
                                X             Y             Z
Electronic contribution:      3.63484      -1.36443       3.44507
Nuclear contribution   :     -4.15401       1.70894      -3.75000
                        -----------------------------------------
Total Dipole Moment    :     -0.51917       0.34451      -0.30493
                        -----------------------------------------
Magnitude (a.u.)       :      0.69369
Magnitude (Debye)      :      1.76322

Rotational constants in cm-1:     1.266842     0.300492     0.266603
Rotational constants in MHz : 37978.968232  9008.526876  7992.551454

                             ****ORCA TERMINATED NORMALLY****
TOTAL RUN TIME: 0 days 0 hours 0 minutes 6 seconds 850 msec
