                         Program Version 5.0.0 -  RELEASE  -
|  1> !wB97X-D3 RIJCOSX def2-SVP def2/J TightSCF
|  2> *xyz 0 1
|  3> C          1.64703       -2.34528       -5.02041
|  4> C          2.20996       -2.81239       -3.66571
|  5> C          2.48901       -1.66851       -2.73754
|  6> C          3.59631       -0.94761       -2.95225
|  7> N          1.66394       -1.41369       -1.77781
|  8> H          0.81164       -1.96318       -1.70275
|  9> H          1.84550       -0.63508       -1.15875
| 10> H          4.20535       -1.17600       -3.73383
| 11> H          3.81723       -0.12585       -2.40604
| 12> H          3.14311       -3.36280       -3.81152
| 13> H          1.48768       -3.45893       -3.16521
| 14> H          1.46566       -3.19589       -5.64368
| 15> H          2.35406       -1.69850       -5.49654
| 16> H          0.73014       -1.81680       -4.86253
| 17> *
| 18>
| 19> %MaxCore 64000
| 20> %pal nprocs 4
| 21> end
| 22>
| 23> %scf
| 24>   MaxIter 150
| 25> end
| 26>
| 27>
| 28>                          ****END OF INPUT****

CARTESIAN COORDINATES (ANGSTROEM)
---------------------------------
  C      1.647030   -2.345280   -5.020410
  C      2.209960   -2.812390   -3.665710
  C      2.489010   -1.668510   -2.737540
  C      3.596310   -0.947610   -2.952250
  N      1.663940   -1.413690   -1.777810
  H      0.811640   -1.963180   -1.702750
  H      1.845500   -0.635080   -1.158750
  H      4.205350   -1.176000   -3.733830
  H      3.817230   -0.125850   -2.406040
  H      3.143110   -3.362800   -3.811520
  H      1.487680   -3.458930   -3.165210
  H      1.465660   -3.195890   -5.643680
  H      2.354060   -1.698500   -5.496540
  H      0.730140   -1.816800   -4.862530

 Total Charge           Charge          ....    0
 Multiplicity           Mult            ....    1
 Number of Electrons    NEL             ....   40
 Basis Dimension        Dim             ....  115

ORBITAL ENERGIES
----------------

  NO   OCC          E(Eh)            E(eV)
   0   2.0000     -14.435105      -392.7992
   1   2.0000     -10.304420      -280.3975
   2   2.0000     -10.286401      -279.9072
   3   2.0000     -10.273032      -279.5434
   4   2.0000     -10.212516      -277.8967
   5   2.0000      -1.042155       -28.3585
   6   2.0000      -0.885914       -24.1069
   7   2.0000      -0.811074       -22.0705
   8   2.0000      -0.741897       -20.1880
   9   2.0000      -0.666747       -18.1431
  10   2.0000      -0.629459       -17.1285
  11   2.0000      -0.577828       -15.7235
  12   2.0000      -0.539726       -14.6867
  13   2.0000      -0.507179       -13.8010
  14   2.0000      -0.488154       -13.2833
  15   2.0000      -0.473834       -12.8937
  16   2.0000      -0.443781       -12.0759
  17   2.0000      -0.427090       -11.6217
  18   2.0000      -0.424425       -11.5492
  19   2.0000      -0.264393        -7.1945
  20   0.0000       0.131381         3.5751
  21   0.0000       0.148152         4.0314
  22   0.0000       0.182654         4.9703
  23   0.0000       0.186341         5.0706
  24   0.0000       0.208366         5.6699

MULLIKEN ATOMIC CHARGES
-----------------------
   0 C :    0.001896
   1 C :   -0.010047
   2 C :   -0.155740
   3 C :   -0.085554
   4 N :   -0.071433
   5 H :    0.123285
   6 H :    0.129001
   7 H :   -0.022419
   8 H :   -0.037225
   9 H :    0.046594
  10 H :    0.001430
  11 H :    0.027854
  12 H :    0.032057
  13 H :    0.020303
Sum of atomic charges:    0.0000000

LOEWDIN ATOMIC CHARGES
----------------------
   0 C :   -0.044023
   1 C :   -0.032110
   2 C :    0.002403
   3 C :   -0.198266
   4 N :    0.003391
   5 H :    0.075698
   6 H :    0.082267
   7 H :   -0.001329
   8 H :   -0.009105
   9 H :    0.038151
  10 H :    0.015231
  11 H :    0.021191
  12 H :    0.025364
  13 H :    0.021137

  Mayer bond orders larger than 0.100000
B(  0-C ,  1-C ) :   1.0840 B(  0-C , 11-H ) :   0.9739 B(  0-C , 12-H ) :   0.9761
B(  0-C , 13-H ) :   0.9720 B(  1-C ,  2-C ) :   0.9956 B(  1-C ,  9-H ) :   0.9464
B(  1-C , 10-H ) :   0.9458 B(  2-C ,  3-C ) :   1.8377 B(  2-C ,  4-N ) :   1.2918
B(  3-C ,  7-H ) :   0.9544 B(  3-C ,  8-H ) :   0.9642 B(  4-N ,  5-H ) :   0.9459
B(  4-N ,  6-H ) :   0.9465

Dispersion correction           -0.003005821
FINAL SINGLE POINT ENERGY      -212.345449153308

DIPOLE MOMENT
-------------
                                X             Y             Z
Electronic contribution:     -0.10417       0.64478       3.05314
Nuclear contribution   :     -0.69146      -0.83112      -2.71336
                        -----------------------------------------
Total Dipole Moment    :     -0.79563      -0.18634       0.33978
                        -----------------------------------------
Magnitude (a.u.)       :      0.88499
Magnitude (Debye)      :      2.24946

Rotational constants in cm-1:     0.270661     0.129240     0.102040
Rotational constants in MHz :  8114.202941  3874.518141  3059.074383

                             ****ORCA TERMINATED NORMALLY****
TOTAL RUN TIME: 0 days 0 hours 0 minutes 18 seconds 260 msec
