                         Program Version 5.0.0 -  RELEASE  -
|  1> !wB97X-D3 RIJCOSX def2-SVP def2/J TightSCF
|  2> *xyz 0 1
|  3> C          1.64703       -2.34528       -5.02041
|  4> C          2.20996       -2.81239       -3.66571
|  5> C          2.48901       -1.66851       -2.73754
|  6> N          3.59631       -0.94761       -2.95225
|  7> C          1.66394       -1.41369       -1.77781
|  8> H          0.81164       -1.96318       -1.70275
|  9> H          1.84550       -0.63508       -1.15875
| 10> H          4.20535       -1.17600       -3.73383
| 11> H          3.81723       -0.12585       -2.40604
| 12> H          3.14311       -3.36280       -3.81152
| 13> H          1.48768       -3.45893       -3.16521
| 14> H          1.46566       -3.19589       -5.64368
| 15> H          2.35406       -1.69850       -5.49654
| 16> H          0.73014       -1.81680       -4.86253
| 17> *
| 18>
| 19> %MaxCore 64000
| 20> %pal nprocs 4
| 21> end
| 22>
| 23> %scf
| 24>   MaxIter 150
| 25> end
| 26>
| 27>
| 28>                          ****END OF INPUT****

CARTESIAN COORDINATES (ANGSTROEM)
---------------------------------
  C      1.647030   -2.345280   -5.020410
  C      2.209960   -2.812390   -3.665710
  C      2.489010   -1.668510   -2.737540
  N      3.596310   -0.947610   -2.952250
  C      1.663940   -1.413690   -1.777810
  H      0.811640   -1.963180   -1.702750
  H      1.845500   -0.635080   -1.158750
  H      4.205350   -1.176000   -3.733830
  H      3.817230   -0.125850   -2.406040
  H      3.143110   -3.362800   -3.811520
  H      1.487680   -3.458930   -3.165210
  H      1.465660   -3.195890   -5.643680
  H      2.354060   -1.698500   -5.496540
  H      0.730140   -1.816800   -4.862530

 Total Charge           Charge          ....    0
 Multiplicity           Mult            ....    1
 Number of Electrons    NEL             ....   40
 Basis Dimension        Dim             ....  115

ORBITAL ENERGIES
----------------

  NO   OCC          E(Eh)            E(eV)
   0   2.0000     -14.428038      -392.6069
   1   2.0000     -10.301258      -280.3115
   2   2.0000     -10.284829      -279.8644
   3   2.0000     -10.274431      -279.5815
   4   2.0000     -10.216393      -278.0022
   5   2.0000      -1.023418       -27.8486
   6   2.0000      -0.885689       -24.1008
   7   2.0000      -0.825888       -22.4735
   8   2.0000      -0.737354       -20.0644
   9   2.0000      -0.662939       -18.0395
  10   2.0000      -0.617290       -16.7973
  11   2.0000      -0.578122       -15.7315
  12   2.0000      -0.531836       -14.4720
  13   2.0000      -0.519207       -14.1283
  14   2.0000      -0.489929       -13.3316
  15   2.0000      -0.478393       -13.0177
  16   2.0000      -0.443813       -12.0768
  17   2.0000      -0.423935       -11.5359
  18   2.0000      -0.418037       -11.3754
  19   2.0000      -0.276527        -7.5247
  20   0.0000       0.133644         3.6367
  21   0.0000       0.151584         4.1248
  22   0.0000       0.186324         5.0701
  23   0.0000       0.190793         5.1918
  24   0.0000       0.204649         5.5688

MULLIKEN ATOMIC CHARGES
-----------------------
   0 C :   -0.000008
   1 C :   -0.008558
   2 C :   -0.103191
   3 N :   -0.133869
   4 C :   -0.061841
   5 H :   -0.022067
   6 H :   -0.035880
   7 H :    0.119265
   8 H :    0.124666
   9 H :    0.020978
  10 H :    0.027888
  11 H :    0.030997
  12 H :    0.013139
  13 H :    0.028482
Sum of atomic charges:   -0.0000000

LOEWDIN ATOMIC CHARGES
----------------------
   0 C :   -0.048197
   1 C :   -0.031892
   2 C :    0.010314
   3 N :   -0.030099
   4 C :   -0.168217
   5 H :    0.003975
   6 H :   -0.004006
   7 H :    0.071083
   8 H :    0.075999
   9 H :    0.022103
  10 H :    0.033608
  11 H :    0.022819
  12 H :    0.016785
  13 H :    0.025726

  Mayer bond orders larger than 0.100000
B(  0-C ,  1-C ) :   1.0776 B(  0-C , 11-H ) :   0.9747 B(  0-C , 12-H ) :   0.9739
B(  0-C , 13-H ) :   0.9730 B(  1-C ,  2-C ) :   1.0106 B(  1-C ,  9-H ) :   0.9432
B(  1-C , 10-H ) :   0.9444 B(  2-C ,  3-N ) :   1.2260 B(  2-C ,  4-C ) :   1.8982
B(  3-N ,  7-H ) :   0.9545 B(  3-N ,  8-H ) :   0.9535 B(  4-C ,  5-H ) :   0.9417
B(  4-C ,  6-H ) :   0.9578

Dispersion correction           -0.003021473
FINAL SINGLE POINT ENERGY      -212.349408049054

DIPOLE MOMENT
-------------
                                X             Y             Z
Electronic contribution:      1.69886       1.09324       1.96223
Nuclear contribution   :     -1.13902      -0.93906      -2.44135
                        -----------------------------------------
Total Dipole Moment    :      0.55984       0.15418      -0.47912
                        -----------------------------------------
Magnitude (a.u.)       :      0.75283
Magnitude (Debye)      :      1.91354

Rotational constants in cm-1:     0.267243     0.130607     0.102304
Rotational constants in MHz :  8011.748167  3915.504600  3066.999841

                             ****ORCA TERMINATED NORMALLY****
TOTAL RUN TIME: 0 days 0 hours 0 minutes 18 seconds 495 msec
