                         Program Version 5.0.0 -  RELEASE  -
|  1> !wB97X-D3 RIJCOSX def2-SVP def2/J TightSCF xyzfile
|  2>
|  3> *xyzfile 0 1 D1.xyz
|  4>
|  5> %MaxCore 64000
|  6>
|  7> %pal nprocs 18
|  8> end
|  9>
| 10> %scf
| 11>   MaxIter 150
| 12> end
| 13>
| 14>
| 15>                          ****END OF INPUT****

CARTESIAN COORDINATES (ANGSTROEM)
---------------------------------
  C      1.647032   -2.345276   -5.020411
  C      0.217628   -1.814022   -4.924389
  C      2.209964   -2.812388   -3.665708
  C     -0.811356   -2.908780   -4.607625
  C     -1.916579   -2.485081   -3.643665
  H     -2.554525   -1.712428   -4.091993
  C     -1.363531   -1.981337   -2.293608
  H     -2.553448   -3.355667   -3.458815
  F     -0.350395   -2.749689   -1.796006
  H      2.308385   -1.588704   -5.457128
  H      1.674286   -3.203478   -5.697392
  C      2.489007   -1.668510   -2.737538
  C      3.596314   -0.947608   -2.952247
  N      1.663936   -1.413685   -1.777806
  H      0.811642   -1.963178   -1.702755
  H      1.845503   -0.635078   -1.158749
  H      4.205351   -1.176003   -3.733825
  H      3.817230   -0.125845   -2.406041
  H     -1.244829   -3.280884   -5.541040
  H     -0.306331   -3.757746   -4.142734
  H     -0.036244   -1.318555   -5.865303
  H      0.175004   -1.035382   -4.158095
  H      3.143106   -3.362803   -3.811524
  H      1.487683   -3.458935   -3.165211
  H     -2.226220   -1.908386   -1.602039
  H     -1.051353   -0.915671   -2.443331

 Total Charge           Charge          ....    0
 Multiplicity           Mult            ....    1
 Number of Electrons    NEL             ....   80
 Basis Dimension        Dim             ....  220

ORBITAL ENERGIES
----------------

  NO   OCC          E(Eh)            E(eV)
   0   2.0000     -24.827109      -675.5800
   1   2.0000     -14.398506      -391.8033
   2   2.0000     -10.388846      -282.6949
   3   2.0000     -10.306836      -280.4633
   4   2.0000     -10.290867      -280.0287
   5   2.0000     -10.288668      -279.9689
   6   2.0000     -10.282376      -279.7977
   7   2.0000     -10.278433      -279.6904
   8   2.0000     -10.272938      -279.5408
   9   2.0000     -10.197285      -277.4822
  10   2.0000      -1.352846       -36.8128
  11   2.0000      -1.020113       -27.7587
  12   2.0000      -0.932698       -25.3800
  13   2.0000      -0.888824       -24.1861
  14   2.0000      -0.842195       -22.9173
  15   2.0000      -0.796515       -21.6743
  16   2.0000      -0.771381       -20.9903
  17   2.0000      -0.716295       -19.4914
  18   2.0000      -0.693384       -18.8679
  19   2.0000      -0.677447       -18.4343
  20   2.0000      -0.638169       -17.3655
  21   2.0000      -0.629828       -17.1385
  22   2.0000      -0.613032       -16.6814
  23   2.0000      -0.585519       -15.9328
  24   2.0000      -0.564701       -15.3663
  25   2.0000      -0.558984       -15.2107
  26   2.0000      -0.536863       -14.6088
  27   2.0000      -0.516750       -14.0615
  28   2.0000      -0.515693       -14.0327
  29   2.0000      -0.484444       -13.1824
  30   2.0000      -0.463775       -12.6200
  31   2.0000      -0.457713       -12.4550
  32   2.0000      -0.453290       -12.3346
  33   2.0000      -0.447964       -12.1897
  34   2.0000      -0.432100       -11.7580
  35   2.0000      -0.423226       -11.5166
  36   2.0000      -0.412115       -11.2142
  37   2.0000      -0.400985       -10.9114
  38   2.0000      -0.398027       -10.8309
  39   2.0000      -0.247072        -6.7232
  40   0.0000       0.132911         3.6167
  41   0.0000       0.143461         3.9038
  42   0.0000       0.159978         4.3532
  43   0.0000       0.167482         4.5574
  44   0.0000       0.174616         4.7515

MULLIKEN ATOMIC CHARGES
-----------------------
   0 C :   -0.011841
   1 C :   -0.042971
   2 C :    0.038105
   3 C :   -0.058616
   4 C :   -0.100751
   5 H :    0.043387
   6 C :    0.211489
   7 H :    0.040935
   8 F :   -0.228795
   9 H :    0.027704
  10 H :    0.016368
  11 C :   -0.154819
  12 C :   -0.092257
  13 N :   -0.097387
  14 H :    0.133002
  15 H :    0.112303
  16 H :   -0.033121
  17 H :   -0.045925
  18 H :    0.033050
  19 H :    0.034120
  20 H :    0.024718
  21 H :    0.017845
  22 H :    0.039075
  23 H :    0.002954
  24 H :    0.046433
  25 H :    0.044997
Sum of atomic charges:   -0.0000000

LOEWDIN ATOMIC CHARGES
----------------------
   0 C :   -0.026382
   1 C :   -0.043915
   2 C :   -0.032537
   3 C :   -0.044325
   4 C :   -0.059254
   5 H :    0.035318
   6 C :    0.109303
   7 H :    0.028145
   8 F :   -0.033681
   9 H :    0.026800
  10 H :    0.018487
  11 C :    0.003949
  12 C :   -0.212086
  13 N :   -0.005987
  14 H :   -0.003500
  15 H :    0.071452
  16 H :   -0.005804
  17 H :   -0.012112
  18 H :    0.028744
  19 H :    0.021657
  20 H :    0.025393
  21 H :    0.017019
  22 H :    0.037568
  23 H :    0.013104
  24 H :    0.023383
  25 H :    0.019260

  Mayer bond orders larger than 0.100000
B(  0-C ,  1-C ) :   1.0727 B(  0-C ,  2-C ) :   1.0727 B(  0-C ,  9-H ) :   0.9482
B(  0-C , 10-H ) :   0.9513 B(  1-C ,  3-C ) :   1.0291 B(  1-C , 20-H ) :   0.9462
B(  1-C , 21-H ) :   0.9594 B(  2-C , 11-C ) :   0.9918 B(  2-C , 22-H ) :   0.9354
B(  2-C , 23-H ) :   0.9384 B(  3-C ,  4-C ) :   1.0668 B(  3-C , 18-H ) :   0.9480
B(  3-C , 19-H ) :   0.9605 B(  4-C ,  5-H ) :   0.9434 B(  4-C ,  6-C ) :   1.0629
B(  4-C ,  7-H ) :   0.9527 B(  6-C ,  8-F ) :   0.9004 B(  6-C , 24-H ) :   0.9616
B(  6-C , 25-H ) :   0.9534 B(  8-F , 14-H ) :   0.1328 B( 11-C , 12-C ) :   1.8295
B( 11-C , 13-N ) :   1.3103 B( 12-C , 16-H ) :   0.9495 B( 12-C , 17-H ) :   0.9621
B( 13-N , 14-H ) :   0.8889 B( 13-N , 15-H ) :   0.9459

Dispersion correction           -0.011043733
FINAL SINGLE POINT ENERGY      -468.565994313454

DIPOLE MOMENT
-------------
                                X             Y             Z
Electronic contribution:     -1.34346      -1.74263       6.99346
Nuclear contribution   :     -0.37390       1.73388      -6.94752
                        -----------------------------------------
Total Dipole Moment    :     -1.71737      -0.00875       0.04594
                        -----------------------------------------
Magnitude (a.u.)       :      1.71800
Magnitude (Debye)      :      4.36682

Rotational constants in cm-1:     0.062220     0.032742     0.024374
Rotational constants in MHz :  1865.297979   981.573941   730.711364

                             ****ORCA TERMINATED NORMALLY****
TOTAL RUN TIME: 0 days 0 hours 0 minutes 27 seconds 94 msec
