                         Program Version 5.0.0 -  RELEASE  -
|  1> !PBE0 D3BJ RIJCOSX def2-SVP def2/J TightSCF
|  2> *xyz -1 1
|  3> C         -0.72184       -0.99951       -3.43931
|  4> C          0.28725       -1.71177       -2.52740
|  5> H          1.13178       -2.06738       -3.15940
|  6> H         -0.20414       -2.63733       -2.17048
|  7> O          0.71050       -0.92751       -1.48177
|  8> H         -1.01315       -1.65739       -4.23129
|  9> H         -0.27123       -0.12142       -3.85259
| 10> H         -1.58442       -0.72333       -2.86958
| 11> *
| 12> %MaxCore 64000
| 13>
| 14> %pal nprocs 4
| 15> end
| 16>
| 17> %scf
| 18>   MaxIter 150
| 19> end
| 20>
| 21>
| 22>                          ****END OF INPUT****

CARTESIAN COORDINATES (ANGSTROEM)
---------------------------------
  C     -0.721840   -0.999510   -3.439310
  C      0.287250   -1.711770   -2.527400
  H      1.131780   -2.067380   -3.159400
  H     -0.204140   -2.637330   -2.170480
  O      0.710500   -0.927510   -1.481770
  H     -1.013150   -1.657390   -4.231290
  H     -0.271230   -0.121420   -3.852590
  H     -1.584420   -0.723330   -2.869580

 Total Charge           Charge          ....   -1
 Multiplicity           Mult            ....    1
 Number of Electrons    NEL             ....   26
 Basis Dimension        Dim             ....   67

ORBITAL ENERGIES
----------------

  NO   OCC          E(Eh)            E(eV)
   0   2.0000     -18.822494      -512.1861
   1   2.0000     -10.019109      -272.6338
   2   2.0000     -10.008031      -272.3324
   3   2.0000      -0.651760       -17.7353
   4   2.0000      -0.520661       -14.1679
   5   2.0000      -0.362359        -9.8603
   6   2.0000      -0.245685        -6.6854
   7   2.0000      -0.223348        -6.0776
   8   2.0000      -0.166289        -4.5250
   9   2.0000      -0.147277        -4.0076
  10   2.0000      -0.081920        -2.2292
  11   2.0000       0.065657         1.7866
  12   2.0000       0.068823         1.8728
  13   0.0000       0.262695         7.1483
  14   0.0000       0.306658         8.3446
  15   0.0000       0.319402         8.6914
  16   0.0000       0.327334         8.9072
  17   0.0000       0.370198        10.0736

MULLIKEN ATOMIC CHARGES
-----------------------
   0 C :   -0.002478
   1 C :    0.210880
   2 H :   -0.148517
   3 H :   -0.147939
   4 O :   -0.726150
   5 H :   -0.100538
   6 H :   -0.043491
   7 H :   -0.041768
Sum of atomic charges:   -1.0000000

LOEWDIN ATOMIC CHARGES
----------------------
   0 C :   -0.119760
   1 C :    0.003176
   2 H :   -0.078313
   3 H :   -0.077215
   4 O :   -0.672670
   5 H :   -0.033113
   6 H :   -0.011579
   7 H :   -0.010527

  Mayer bond orders larger than 0.100000
B(  0-C ,  1-C ) :   0.9936 B(  0-C ,  5-H ) :   0.9214 B(  0-C ,  6-H ) :   0.9599
B(  0-C ,  7-H ) :   0.9612 B(  1-C ,  2-H ) :   0.8745 B(  1-C ,  3-H ) :   0.8760
B(  1-C ,  4-O ) :   1.4802

Dispersion correction           -0.003049217
FINAL SINGLE POINT ENERGY      -154.098380772622

DIPOLE MOMENT
-------------
                                X             Y             Z
Electronic contribution:      1.56423       0.90423       2.62095
Nuclear contribution   :     -2.24828      -1.06600      -3.62481
                        -----------------------------------------
Total Dipole Moment    :     -0.68405      -0.16177      -1.00386
                        -----------------------------------------
Magnitude (a.u.)       :      1.22549
Magnitude (Debye)      :      3.11495

Rotational constants in cm-1:     1.278116     0.325414     0.286672
Rotational constants in MHz : 38316.964654  9755.653004  8594.216906

                             ****ORCA TERMINATED NORMALLY****
TOTAL RUN TIME: 0 days 0 hours 0 minutes 8 seconds 256 msec
