                         Program Version 5.0.0 -  RELEASE  -
|  1> !PBE0 D3BJ RIJCOSX def2-SVP def2/J TightSCF
|  2> *xyz 1 1
|  3> C          3.48828        1.60092       -1.52204
|  4> C          4.34297        1.31342       -2.75683
|  5> N          2.81029        0.42878       -1.01420
|  6> H          2.71455        2.33145       -1.76030
|  7> H          4.09099        2.06315       -0.73338
|  8> C          3.29098       -0.41802       -0.12908
|  9> N          2.51754       -1.43202        0.23936
| 10> N          4.53549       -0.28441        0.39580
| 11> H          5.04363        0.57189        0.22290
| 12> H          4.72335       -0.73327        1.28180
| 13> H          1.93479        0.10230       -1.40379
| 14> H          1.67464       -1.50562       -0.31610
| 15> H          2.92850       -2.21850        0.72549
| 16> H          3.73575        0.86277       -3.51385
| 17> H          5.13754        0.64699       -2.49333
| 18> H          4.75374        2.22930       -3.12740
| 19> *
| 20> %MaxCore 64000
| 21>
| 22> %pal nprocs 4
| 23> end
| 24>
| 25> %scf
| 26>   MaxIter 150
| 27> end
| 28>
| 29>
| 30>                          ****END OF INPUT****

CARTESIAN COORDINATES (ANGSTROEM)
---------------------------------
  C      3.488280    1.600920   -1.522040
  C      4.342970    1.313420   -2.756830
  N      2.810290    0.428780   -1.014200
  H      2.714550    2.331450   -1.760300
  H      4.090990    2.063150   -0.733380
  C      3.290980   -0.418020   -0.129080
  N      2.517540   -1.432020    0.239360
  N      4.535490   -0.284410    0.395800
  H      5.043630    0.571890    0.222900
  H      4.723350   -0.733270    1.281800
  H      1.934790    0.102300   -1.403790
  H      1.674640   -1.505620   -0.316100
  H      2.928500   -2.218500    0.725490
  H      3.735750    0.862770   -3.513850
  H      5.137540    0.646990   -2.493330
  H      4.753740    2.229300   -3.127400

 Total Charge           Charge          ....    1
 Multiplicity           Mult            ....    1
 Number of Electrons    NEL             ....   48
 Basis Dimension        Dim             ....  134

ORBITAL ENERGIES
----------------

  NO   OCC          E(Eh)            E(eV)
   0   2.0000     -14.623323      -397.9208
   1   2.0000     -14.617915      -397.7737
   2   2.0000     -14.615087      -397.6967
   3   2.0000     -10.563651      -287.4516
   4   2.0000     -10.442098      -284.1439
   5   2.0000     -10.367910      -282.1252
   6   2.0000      -1.239791       -33.7364
   7   2.0000      -1.125054       -30.6143
   8   2.0000      -1.110052       -30.2060
   9   2.0000      -0.950417       -25.8621
  10   2.0000      -0.853370       -23.2214
  11   2.0000      -0.823436       -22.4068
  12   2.0000      -0.797014       -21.6879
  13   2.0000      -0.762346       -20.7445
  14   2.0000      -0.707928       -19.2637
  15   2.0000      -0.698191       -18.9987
  16   2.0000      -0.669356       -18.2141
  17   2.0000      -0.654246       -17.8029
  18   2.0000      -0.615739       -16.7551
  19   2.0000      -0.574934       -15.6448
  20   2.0000      -0.543959       -14.8019
  21   2.0000      -0.523964       -14.2578
  22   2.0000      -0.489521       -13.3206
  23   2.0000      -0.463684       -12.6175
  24   0.0000      -0.155446        -4.2299
  25   0.0000      -0.131356        -3.5744
  26   0.0000      -0.099327        -2.7028
  27   0.0000      -0.081482        -2.2172
  28   0.0000      -0.057932        -1.5764

MULLIKEN ATOMIC CHARGES
-----------------------
   0 C :   -0.026685
   1 C :   -0.042626
   2 N :   -0.161276
   3 H :    0.096680
   4 H :    0.076920
   5 C :    0.123166
   6 N :   -0.067173
   7 N :   -0.105836
   8 H :    0.174663
   9 H :    0.183455
  10 H :    0.172947
  11 H :    0.175854
  12 H :    0.190707
  13 H :    0.067442
  14 H :    0.052646
  15 H :    0.089116
Sum of atomic charges:    1.0000000

LOEWDIN ATOMIC CHARGES
----------------------
   0 C :    0.030567
   1 C :   -0.055349
   2 N :    0.037539
   3 H :    0.054723
   4 H :    0.038491
   5 C :    0.146848
   6 N :    0.045944
   7 N :    0.028737
   8 H :    0.104967
   9 H :    0.112457
  10 H :    0.106634
  11 H :    0.109228
  12 H :    0.116694
  13 H :    0.039163
  14 H :    0.031267
  15 H :    0.052091

  Mayer bond orders larger than 0.100000
B(  0-C ,  1-C ) :   1.0813 B(  0-C ,  2-N ) :   0.9227 B(  0-C ,  3-H ) :   0.9446
B(  0-C ,  4-H ) :   0.9507 B(  1-C , 13-H ) :   0.9682 B(  1-C , 14-H ) :   0.9688
B(  1-C , 15-H ) :   0.9640 B(  2-N ,  5-C ) :   1.3851 B(  2-N , 10-H ) :   0.9057
B(  5-C ,  6-N ) :   1.3877 B(  5-C ,  7-N ) :   1.3629 B(  6-N , 11-H ) :   0.9212
B(  6-N , 12-H ) :   0.9233 B(  7-N ,  8-H ) :   0.9250 B(  7-N ,  9-H ) :   0.9263

Dispersion correction           -0.010418957
FINAL SINGLE POINT ENERGY      -283.869938745804

DIPOLE MOMENT
-------------
                                X             Y             Z
Electronic contribution:     -1.94669      -3.06094       3.79322
Nuclear contribution   :      1.59382       2.33278      -3.02574
                        -----------------------------------------
Total Dipole Moment    :     -0.35287      -0.72816       0.76748
                        -----------------------------------------
Magnitude (a.u.)       :      1.11524
Magnitude (Debye)      :      2.83472

Rotational constants in cm-1:     0.232230     0.073139     0.063030
Rotational constants in MHz :  6962.079716  2192.649203  1889.578947

                             ****ORCA TERMINATED NORMALLY****
TOTAL RUN TIME: 0 days 0 hours 0 minutes 14 seconds 985 msec
