                         Program Version 5.0.0 -  RELEASE  -
|  1> !PBE0 D3BJ RIJCOSX def2-TZVP def2/J TightSCF xyzfile
|  2>
|  3> *xyzfile 0 1 B.xyz
|  4>
|  5> %MaxCore 64000
|  6>
|  7> %pal nprocs 18
|  8> end
|  9>
| 10> %scf
| 11>   MaxIter 150
| 12> end
| 13>
| 14>
| 15>                          ****END OF INPUT****

CARTESIAN COORDINATES (ANGSTROEM)
---------------------------------
  C      3.488276    1.600919   -1.522040
  C      4.342970    1.313419   -2.756826
  N      2.810285    0.428783   -1.014196
  H      5.132033    0.604994   -2.484466
  C      3.535896    0.749253   -3.924604
  H      4.841247    2.242136   -3.054083
  H      2.991617   -0.132199   -3.574137
  H      4.225505    0.392784   -4.695962
  C      2.564776    1.750890   -4.544523
  H      1.918749    2.171679   -3.769419
  C      1.686235    1.161657   -5.650111
  H      3.132494    2.594775   -4.951604
  C      0.839616   -0.037582   -5.220473
  H      2.323886    0.866395   -6.490796
  H      1.029518    1.951850   -6.029329
  C     -0.151019    0.254955   -4.094256
  H      1.499442   -0.857141   -4.922958
  H      0.290097   -0.410143   -6.091131
  H      0.328265    0.833022   -3.299125
  C     -0.721843   -0.999513   -3.439309
  H     -0.957367    0.884951   -4.485450
  H     -1.083403   -1.697555   -4.205656
  H     -1.581056   -0.723848   -2.820490
  C      0.287250   -1.711771   -2.527405
  H      1.131780   -2.067380   -3.159396
  H     -0.204137   -2.637326   -2.170480
  O      0.710505   -0.927506   -1.481767
  H      2.714548    2.331455   -1.760302
  H      4.090991    2.063151   -0.733382
  C      3.290978   -0.418021   -0.129083
  N      2.517536   -1.432017    0.239360
  N      4.535490   -0.284410    0.395800
  H      5.043627    0.571888    0.222899
  H      4.723346   -0.733273    1.281800
  H      1.934787    0.102305   -1.403788
  H      1.674638   -1.505616   -0.316095
  H      2.928503   -2.218502    0.725494

 Total Charge           Charge          ....    0
 Multiplicity           Mult            ....    1
 Number of Electrons    NEL             ....  112
 Basis Dimension        Dim             ....  572

ORBITAL ENERGIES
----------------

  NO   OCC          E(Eh)            E(eV)
   0   2.0000     -19.072255      -518.9825
   1   2.0000     -14.441241      -392.9662
   2   2.0000     -14.405073      -391.9820
   3   2.0000     -14.395935      -391.7333
   4   2.0000     -10.366173      -282.0779
   5   2.0000     -10.274113      -279.5728
   6   2.0000     -10.229790      -278.3667
   7   2.0000     -10.212466      -277.8953
   8   2.0000     -10.207069      -277.7485
   9   2.0000     -10.200343      -277.5654
  10   2.0000     -10.195925      -277.4452
  11   2.0000     -10.188236      -277.2360
  12   2.0000     -10.177562      -276.9455
  13   2.0000     -10.165341      -276.6130
  14   2.0000      -1.060196       -28.8494
  15   2.0000      -0.954291       -25.9676
  16   2.0000      -0.934613       -25.4321
  17   2.0000      -0.907924       -24.7059
  18   2.0000      -0.834890       -22.7185
  19   2.0000      -0.800275       -21.7766
  20   2.0000      -0.761527       -20.7222
  21   2.0000      -0.723201       -19.6793
  22   2.0000      -0.681211       -18.5367
  23   2.0000      -0.667810       -18.1720
  24   2.0000      -0.629412       -17.1272
  25   2.0000      -0.616026       -16.7629
  26   2.0000      -0.612156       -16.6576
  27   2.0000      -0.580885       -15.8067
  28   2.0000      -0.560966       -15.2647
  29   2.0000      -0.535294       -14.5661
  30   2.0000      -0.525848       -14.3090
  31   2.0000      -0.508920       -13.8484
  32   2.0000      -0.496991       -13.5238
  33   2.0000      -0.485398       -13.2083
  34   2.0000      -0.474171       -12.9028
  35   2.0000      -0.465464       -12.6659
  36   2.0000      -0.447328       -12.1724
  37   2.0000      -0.432298       -11.7634
  38   2.0000      -0.425604       -11.5813
  39   2.0000      -0.406196       -11.0532
  40   2.0000      -0.401424       -10.9233
  41   2.0000      -0.390213       -10.6182
  42   2.0000      -0.371111       -10.0984
  43   2.0000      -0.363850        -9.9009
  44   2.0000      -0.356016        -9.6877
  45   2.0000      -0.344602        -9.3771
  46   2.0000      -0.332176        -9.0390
  47   2.0000      -0.322910        -8.7868
  48   2.0000      -0.321211        -8.7406
  49   2.0000      -0.317151        -8.6301
  50   2.0000      -0.299518        -8.1503
  51   2.0000      -0.295798        -8.0491
  52   2.0000      -0.290155        -7.8955
  53   2.0000      -0.276863        -7.5338
  54   2.0000      -0.188980        -5.1424
  55   2.0000      -0.181785        -4.9466
  56   0.0000       0.003081         0.0838
  57   0.0000       0.017226         0.4687
  58   0.0000       0.037818         1.0291
  59   0.0000       0.057580         1.5668
  60   0.0000       0.061179         1.6648

MULLIKEN ATOMIC CHARGES
-----------------------
   0 C :   -0.259089
   1 C :   -0.104157
   2 N :   -0.187732
   3 H :    0.104274
   4 C :   -0.251141
   5 H :    0.098180
   6 H :    0.137070
   7 H :    0.102351
   8 C :   -0.251819
   9 H :    0.104980
  10 C :   -0.108049
  11 H :    0.095205
  12 C :   -0.268512
  13 H :    0.091319
  14 H :    0.091147
  15 C :   -0.185922
  16 H :    0.109399
  17 H :    0.096209
  18 H :    0.088701
  19 C :   -0.072634
  20 H :    0.085416
  21 H :    0.055089
  22 H :    0.070348
  23 C :   -0.007430
  24 H :    0.017708
  25 H :    0.046270
  26 O :   -0.758877
  27 H :    0.158068
  28 H :    0.112855
  29 C :    0.359273
  30 N :   -0.408106
  31 N :   -0.457434
  32 H :    0.254952
  33 H :    0.252566
  34 H :    0.267870
  35 H :    0.290770
  36 H :    0.230882
Sum of atomic charges:   -0.0000000

LOEWDIN ATOMIC CHARGES
----------------------
   0 C :   -0.286834
   1 C :   -0.273105
   2 N :    0.182666
   3 H :    0.135784
   4 C :   -0.268637
   5 H :    0.140356
   6 H :    0.145876
   7 H :    0.139025
   8 C :   -0.274524
   9 H :    0.133344
  10 C :   -0.272607
  11 H :    0.134788
  12 C :   -0.275219
  13 H :    0.134743
  14 H :    0.136693
  15 C :   -0.278379
  16 H :    0.133069
  17 H :    0.134709
  18 H :    0.133679
  19 C :   -0.285331
  20 H :    0.130203
  21 H :    0.127207
  22 H :    0.131546
  23 C :   -0.475252
  24 H :    0.087492
  25 H :    0.100303
  26 O :   -0.298520
  27 H :    0.143845
  28 H :    0.126936
  29 C :   -0.424922
  30 N :    0.043913
  31 N :   -0.000752
  32 H :    0.175115
  33 H :    0.177882
  34 H :    0.163672
  35 H :    0.151373
  36 H :    0.169861

  Mayer bond orders larger than 0.100000
B(  0-C ,  1-C ) :   0.9702 B(  0-C ,  2-N ) :   0.9216 B(  0-C , 27-H ) :   0.9702
B(  0-C , 28-H ) :   0.9674 B(  1-C ,  3-H ) :   0.9526 B(  1-C ,  4-C ) :   0.9955
B(  1-C ,  5-H ) :   0.9556 B(  2-N , 29-C ) :   1.4583 B(  2-N , 34-H ) :   0.7350
B(  4-C ,  6-H ) :   0.9660 B(  4-C ,  7-H ) :   0.9556 B(  4-C ,  8-C ) :   0.9972
B(  8-C ,  9-H ) :   0.9730 B(  8-C , 10-C ) :   1.0136 B(  8-C , 11-H ) :   0.9504
B( 10-C , 12-C ) :   0.9913 B( 10-C , 13-H ) :   0.9584 B( 10-C , 14-H ) :   0.9569
B( 12-C , 15-C ) :   1.0001 B( 12-C , 16-H ) :   0.9778 B( 12-C , 17-H ) :   0.9526
B( 15-C , 18-H ) :   0.9618 B( 15-C , 19-C ) :   1.0071 B( 15-C , 20-H ) :   0.9526
B( 19-C , 21-H ) :   0.9448 B( 19-C , 22-H ) :   0.9443 B( 19-C , 23-C ) :   0.9967
B( 23-C , 24-H ) :   0.9571 B( 23-C , 25-H ) :   0.9419 B( 23-C , 26-O ) :   1.1517
B( 26-O , 34-H ) :   0.2530 B( 26-O , 35-H ) :   0.2435 B( 29-C , 30-N ) :   1.4246
B( 29-C , 31-N ) :   1.2337 B( 30-N , 35-H ) :   0.7315 B( 30-N , 36-H ) :   0.9101
B( 31-N , 32-H ) :   0.9022 B( 31-N , 33-H ) :   0.9071

Dispersion correction           -0.035222180
FINAL SINGLE POINT ENERGY      -633.908646026937

DIPOLE MOMENT
-------------
                                X             Y             Z
Electronic contribution:      3.61634      -2.06414      11.41615
Nuclear contribution   :     -0.74583       2.62534      -9.91488
                        -----------------------------------------
Total Dipole Moment    :      2.87051       0.56120       1.50127
                        -----------------------------------------
Magnitude (a.u.)       :      3.28764
Magnitude (Debye)      :      8.35652

Rotational constants in cm-1:     0.027028     0.016098     0.010898
Rotational constants in MHz :   810.278072   482.590922   326.703462

                             ****ORCA TERMINATED NORMALLY****
TOTAL RUN TIME: 0 days 0 hours 1 minutes 15 seconds 827 msec
