                         Program Version 5.0.0 -  RELEASE  -
|  1> !PBE0 D3BJ RIJCOSX def2-SVP def2/J TightSCF
|  2> *xyz 0 1
|  3> C         -0.72184       -0.99951       -3.43931
|  4> C          0.28725       -1.71177       -2.52740
|  5> H          1.13178       -2.06738       -3.15940
|  6> H         -0.20414       -2.63733       -2.17048
|  7> F          0.71050       -0.92751       -1.48177
|  8> H         -1.01315       -1.65739       -4.23129
|  9> H         -0.27123       -0.12142       -3.85259
| 10> H         -1.58442       -0.72333       -2.86958
| 11> *
| 12> %MaxCore 64000
| 13>
| 14> %pal nprocs 4
| 15> end
| 16>
| 17> %scf
| 18>   MaxIter 150
| 19> end
| 20>
| 21>
| 22>                          ****END OF INPUT****

CARTESIAN COORDINATES (ANGSTROEM)
---------------------------------
  C     -0.721840   -0.999510   -3.439310
  C      0.287250   -1.711770   -2.527400
  H      1.131780   -2.067380   -3.159400
  H     -0.204140   -2.637330   -2.170480
  F      0.710500   -0.927510   -1.481770
  H     -1.013150   -1.657390   -4.231290
  H     -0.271230   -0.121420   -3.852590
  H     -1.584420   -0.723330   -2.869580

 Total Charge           Charge          ....    0
 Multiplicity           Mult            ....    1
 Number of Electrons    NEL             ....   26
 Basis Dimension        Dim             ....   67

ORBITAL ENERGIES
----------------

  NO   OCC          E(Eh)            E(eV)
   0   2.0000     -24.749351      -673.4641
   1   2.0000     -10.305715      -280.4328
   2   2.0000     -10.226041      -278.2647
   3   2.0000      -1.198782       -32.6205
   4   2.0000      -0.777898       -21.1677
   5   2.0000      -0.640194       -17.4206
   6   2.0000      -0.515471       -14.0267
   7   2.0000      -0.504400       -13.7254
   8   2.0000      -0.465708       -12.6726
   9   2.0000      -0.413010       -11.2386
  10   2.0000      -0.410931       -11.1820
  11   2.0000      -0.343281        -9.3412
  12   2.0000      -0.336579        -9.1588
  13   0.0000       0.075011         2.0411
  14   0.0000       0.120277         3.2729
  15   0.0000       0.126620         3.4455
  16   0.0000       0.141847         3.8598
  17   0.0000       0.157107         4.2751

MULLIKEN ATOMIC CHARGES
-----------------------
   0 C :   -0.113848
   1 C :    0.189154
   2 H :    0.031329
   3 H :    0.029341
   4 F :   -0.276010
   5 H :    0.038943
   6 H :    0.050460
   7 H :    0.050631
Sum of atomic charges:    0.0000000

LOEWDIN ATOMIC CHARGES
----------------------
   0 C :   -0.083462
   1 C :    0.105674
   2 H :    0.014156
   3 H :    0.013068
   4 F :   -0.141506
   5 H :    0.033646
   6 H :    0.029022
   7 H :    0.029403

  Mayer bond orders larger than 0.100000
B(  0-C ,  1-C ) :   1.0879 B(  0-C ,  5-H ) :   0.9613 B(  0-C ,  6-H ) :   0.9716
B(  0-C ,  7-H ) :   0.9716 B(  1-C ,  2-H ) :   0.9582 B(  1-C ,  3-H ) :   0.9589
B(  1-C ,  4-F ) :   0.9819

Dispersion correction           -0.002810165
FINAL SINGLE POINT ENERGY      -178.727350108552

DIPOLE MOMENT
-------------
                                X             Y             Z
Electronic contribution:      2.71853       1.05795       4.25158
Nuclear contribution   :     -2.97459      -1.40206      -4.79987
                        -----------------------------------------
Total Dipole Moment    :     -0.25607      -0.34410      -0.54828
                        -----------------------------------------
Magnitude (a.u.)       :      0.69613
Magnitude (Debye)      :      1.76941

Rotational constants in cm-1:     1.257024     0.302702     0.267953
Rotational constants in MHz : 37684.643733  9074.792567  8033.038070

                             ****ORCA TERMINATED NORMALLY****
TOTAL RUN TIME: 0 days 0 hours 0 minutes 7 seconds 426 msec
