                         Program Version 5.0.0 -  RELEASE  -
|  1> !PBE0 D3BJ RIJCOSX def2-SVP def2/J TightSCF
|  2> *xyz 0 1
|  3> C          3.48828        1.60092       -1.52204
|  4> C          4.34297        1.31342       -2.75683
|  5> C          2.81029        0.42878       -1.01420
|  6> H          2.71455        2.33145       -1.76030
|  7> H          4.09099        2.06315       -0.73338
|  8> C          3.29098       -0.41802       -0.12908
|  9> N          2.51754       -1.43202        0.23936
| 10> N          4.53549       -0.28441        0.39580
| 11> H          5.04363        0.57189        0.22290
| 12> H          4.72335       -0.73327        1.28180
| 13> H          1.93479        0.10230       -1.40379
| 14> H          1.67464       -1.50562       -0.31610
| 15> H          2.92850       -2.21850        0.72549
| 16> H          3.73575        0.86277       -3.51385
| 17> H          5.13754        0.64699       -2.49333
| 18> H          4.75374        2.22930       -3.12740
| 19> *
| 20> %MaxCore 64000
| 21>
| 22> %pal nprocs 4
| 23> end
| 24>
| 25> %scf
| 26>   MaxIter 150
| 27> end
| 28>
| 29>
| 30>                          ****END OF INPUT****

CARTESIAN COORDINATES (ANGSTROEM)
---------------------------------
  C      3.488280    1.600920   -1.522040
  C      4.342970    1.313420   -2.756830
  C      2.810290    0.428780   -1.014200
  H      2.714550    2.331450   -1.760300
  H      4.090990    2.063150   -0.733380
  C      3.290980   -0.418020   -0.129080
  N      2.517540   -1.432020    0.239360
  N      4.535490   -0.284410    0.395800
  H      5.043630    0.571890    0.222900
  H      4.723350   -0.733270    1.281800
  H      1.934790    0.102300   -1.403790
  H      1.674640   -1.505620   -0.316100
  H      2.928500   -2.218500    0.725490
  H      3.735750    0.862770   -3.513850
  H      5.137540    0.646990   -2.493330
  H      4.753740    2.229300   -3.127400

 Total Charge           Charge          ....    0
 Multiplicity           Mult            ....    1
 Number of Electrons    NEL             ....   48
 Basis Dimension        Dim             ....  134

ORBITAL ENERGIES
----------------

  NO   OCC          E(Eh)            E(eV)
   0   2.0000     -14.387069      -391.4921
   1   2.0000     -14.382836      -391.3769
   2   2.0000     -10.263770      -279.2914
   3   2.0000     -10.204065      -277.6667
   4   2.0000     -10.193711      -277.3850
   5   2.0000     -10.147283      -276.1216
   6   2.0000      -0.969795       -26.3895
   7   2.0000      -0.879375       -23.9290
   8   2.0000      -0.785615       -21.3777
   9   2.0000      -0.704568       -19.1723
  10   2.0000      -0.622664       -16.9436
  11   2.0000      -0.588801       -16.0221
  12   2.0000      -0.546493       -14.8708
  13   2.0000      -0.517930       -14.0936
  14   2.0000      -0.474625       -12.9152
  15   2.0000      -0.447078       -12.1656
  16   2.0000      -0.425802       -11.5867
  17   2.0000      -0.403619       -10.9830
  18   2.0000      -0.388289       -10.5659
  19   2.0000      -0.360385        -9.8066
  20   2.0000      -0.338937        -9.2229
  21   2.0000      -0.326126        -8.8743
  22   2.0000      -0.268786        -7.3140
  23   2.0000      -0.163029        -4.4363
  24   0.0000       0.057105         1.5539
  25   0.0000       0.087006         2.3676
  26   0.0000       0.094667         2.5760
  27   0.0000       0.111512         3.0344
  28   0.0000       0.124661         3.3922

MULLIKEN ATOMIC CHARGES
-----------------------
   0 C :   -0.020005
   1 C :    0.000953
   2 C :   -0.174724
   3 H :    0.015698
   4 H :    0.000175
   5 C :   -0.029986
   6 N :   -0.104233
   7 N :   -0.143558
   8 H :    0.125421
   9 H :    0.113559
  10 H :   -0.082173
  11 H :    0.130594
  12 H :    0.115339
  13 H :    0.019727
  14 H :    0.017410
  15 H :    0.015803
Sum of atomic charges:    0.0000000

LOEWDIN ATOMIC CHARGES
----------------------
   0 C :   -0.049278
   1 C :   -0.063625
   2 C :   -0.219209
   3 H :    0.027100
   4 H :    0.012197
   5 C :    0.023750
   6 N :   -0.029854
   7 N :   -0.040579
   8 H :    0.076455
   9 H :    0.065315
  10 H :   -0.007641
  11 H :    0.084896
  12 H :    0.067638
  13 H :    0.021337
  14 H :    0.017370
  15 H :    0.014128

  Mayer bond orders larger than 0.100000
B(  0-C ,  1-C ) :   1.0747 B(  0-C ,  2-C ) :   1.0763 B(  0-C ,  3-H ) :   0.9224
B(  0-C ,  4-H ) :   0.9416 B(  1-C , 13-H ) :   0.9692 B(  1-C , 14-H ) :   0.9731
B(  1-C , 15-H ) :   0.9661 B(  2-C ,  5-C ) :   1.6905 B(  2-C , 10-H ) :   0.9375
B(  5-C ,  6-N ) :   1.2410 B(  5-C ,  7-N ) :   1.2272 B(  6-N , 11-H ) :   0.9324
B(  6-N , 12-H ) :   0.9450 B(  7-N ,  8-H ) :   0.9402 B(  7-N ,  9-H ) :   0.9472

Dispersion correction           -0.010840267
FINAL SINGLE POINT ENERGY      -267.410204108163

DIPOLE MOMENT
-------------
                                X             Y             Z
Electronic contribution:     -1.23832      -3.04727       3.77736
Nuclear contribution   :      1.44676       2.38443      -3.07370
                        -----------------------------------------
Total Dipole Moment    :      0.20844      -0.66285       0.70367
                        -----------------------------------------
Magnitude (a.u.)       :      0.98892
Magnitude (Debye)      :      2.51363

Rotational constants in cm-1:     0.235977     0.073199     0.063283
Rotational constants in MHz :  7074.404583  2194.453291  1897.179599

                             ****ORCA TERMINATED NORMALLY****
TOTAL RUN TIME: 0 days 0 hours 0 minutes 16 seconds 312 msec
