                         Program Version 5.0.0 -  RELEASE  -
|  1> !PBE0 D3BJ RIJCOSX def2-SVP def2/J TightSCF
|  2> *xyz 0 1
|  3> C          3.48828        1.60092       -1.52204
|  4> C          4.34297        1.31342       -2.75683
|  5> N          2.81029        0.42878       -1.01420
|  6> H          2.71455        2.33145       -1.76030
|  7> H          4.09099        2.06315       -0.73338
|  8> C          3.29098       -0.41802       -0.12908
|  9> C          2.51754       -1.43202        0.23936
| 10> N          4.53549       -0.28441        0.39580
| 11> H          5.04363        0.57189        0.22290
| 12> H          4.72335       -0.73327        1.28180
| 13> H          1.93479        0.10230       -1.40379
| 14> H          1.67464       -1.50562       -0.31610
| 15> H          2.92850       -2.21850        0.72549
| 16> H          3.73575        0.86277       -3.51385
| 17> H          5.13754        0.64699       -2.49333
| 18> H          4.75374        2.22930       -3.12740
| 19> *
| 20> %MaxCore 64000
| 21>
| 22> %pal nprocs 4
| 23> end
| 24>
| 25> %scf
| 26>   MaxIter 150
| 27> end
| 28>
| 29>
| 30>                          ****END OF INPUT****

CARTESIAN COORDINATES (ANGSTROEM)
---------------------------------
  C      3.488280    1.600920   -1.522040
  C      4.342970    1.313420   -2.756830
  N      2.810290    0.428780   -1.014200
  H      2.714550    2.331450   -1.760300
  H      4.090990    2.063150   -0.733380
  C      3.290980   -0.418020   -0.129080
  C      2.517540   -1.432020    0.239360
  N      4.535490   -0.284410    0.395800
  H      5.043630    0.571890    0.222900
  H      4.723350   -0.733270    1.281800
  H      1.934790    0.102300   -1.403790
  H      1.674640   -1.505620   -0.316100
  H      2.928500   -2.218500    0.725490
  H      3.735750    0.862770   -3.513850
  H      5.137540    0.646990   -2.493330
  H      4.753740    2.229300   -3.127400

 Total Charge           Charge          ....    0
 Multiplicity           Mult            ....    1
 Number of Electrons    NEL             ....   48
 Basis Dimension        Dim             ....  134

ORBITAL ENERGIES
----------------

  NO   OCC          E(Eh)            E(eV)
   0   2.0000     -14.390277      -391.5793
   1   2.0000     -14.387212      -391.4959
   2   2.0000     -10.273008      -279.5428
   3   2.0000     -10.268036      -279.4075
   4   2.0000     -10.221931      -278.1529
   5   2.0000     -10.135590      -275.8034
   6   2.0000      -0.982992       -26.7486
   7   2.0000      -0.894255       -24.3339
   8   2.0000      -0.789312       -21.4783
   9   2.0000      -0.712566       -19.3899
  10   2.0000      -0.640499       -17.4289
  11   2.0000      -0.608431       -16.5563
  12   2.0000      -0.546008       -14.8576
  13   2.0000      -0.510354       -13.8874
  14   2.0000      -0.488685       -13.2978
  15   2.0000      -0.451186       -12.2774
  16   2.0000      -0.441241       -12.0068
  17   2.0000      -0.413297       -11.2464
  18   2.0000      -0.384964       -10.4754
  19   2.0000      -0.381261       -10.3746
  20   2.0000      -0.371547       -10.1103
  21   2.0000      -0.365872        -9.9559
  22   2.0000      -0.262753        -7.1499
  23   2.0000      -0.163577        -4.4512
  24   0.0000       0.053363         1.4521
  25   0.0000       0.080312         2.1854
  26   0.0000       0.090836         2.4718
  27   0.0000       0.111702         3.0396
  28   0.0000       0.117883         3.2078

MULLIKEN ATOMIC CHARGES
-----------------------
   0 C :    0.014646
   1 C :   -0.027010
   2 N :   -0.187277
   3 H :    0.037136
   4 H :    0.032236
   5 C :   -0.010174
   6 C :   -0.111785
   7 N :   -0.152005
   8 H :    0.109116
   9 H :    0.136794
  10 H :    0.136708
  11 H :   -0.049660
  12 H :   -0.031431
  13 H :    0.035979
  14 H :    0.036103
  15 H :    0.030624
Sum of atomic charges:   -0.0000000

LOEWDIN ATOMIC CHARGES
----------------------
   0 C :    0.021501
   1 C :   -0.073358
   2 N :   -0.024940
   3 H :    0.027398
   4 H :    0.020208
   5 C :    0.037108
   6 C :   -0.265895
   7 N :   -0.037014
   8 H :    0.061173
   9 H :    0.084850
  10 H :    0.087926
  11 H :   -0.009009
  12 H :   -0.005502
  13 H :    0.025947
  14 H :    0.024802
  15 H :    0.024807

  Mayer bond orders larger than 0.100000
B(  0-C ,  1-C ) :   1.0730 B(  0-C ,  2-N ) :   1.0099 B(  0-C ,  3-H ) :   0.9534
B(  0-C ,  4-H ) :   0.9512 B(  1-C , 13-H ) :   0.9692 B(  1-C , 14-H ) :   0.9683
B(  1-C , 15-H ) :   0.9637 B(  2-N ,  5-C ) :   1.2077 B(  2-N , 10-H ) :   0.9191
B(  5-C ,  6-C ) :   1.7352 B(  5-C ,  7-N ) :   1.2027 B(  6-C , 11-H ) :   0.9314
B(  6-C , 12-H ) :   0.9564 B(  7-N ,  8-H ) :   0.9522 B(  7-N ,  9-H ) :   0.9471

Dispersion correction           -0.010745136
FINAL SINGLE POINT ENERGY      -267.398176894395

DIPOLE MOMENT
-------------
                                X             Y             Z
Electronic contribution:     -0.83897      -1.03875       2.47302
Nuclear contribution   :      1.38466       1.98967      -2.80776
                        -----------------------------------------
Total Dipole Moment    :      0.54569       0.95092      -0.33474
                        -----------------------------------------
Magnitude (a.u.)       :      1.14633
Magnitude (Debye)      :      2.91373

Rotational constants in cm-1:     0.235618     0.075969     0.065309
Rotational constants in MHz :  7063.646698  2277.495424  1957.925383

                             ****ORCA TERMINATED NORMALLY****
TOTAL RUN TIME: 0 days 0 hours 0 minutes 15 seconds 165 msec
