                         Program Version 5.0.0 -  RELEASE  -
|  1> !PBE0 D3BJ RIJCOSX def2-SVP def2/J TightSCF
|  2> *xyz 0 1
|  3> C          3.48828        1.60092       -1.52204
|  4> C          4.34297        1.31342       -2.75683
|  5> N          2.81029        0.42878       -1.01420
|  6> H          2.71455        2.33145       -1.76030
|  7> H          4.09099        2.06315       -0.73338
|  8> C          3.29098       -0.41802       -0.12908
|  9> N          2.51754       -1.43202        0.23936
| 10> C          4.53549       -0.28441        0.39580
| 11> H          5.04363        0.57189        0.22290
| 12> H          4.72335       -0.73327        1.28180
| 13> H          1.93479        0.10230       -1.40379
| 14> H          1.67464       -1.50562       -0.31610
| 15> H          2.92850       -2.21850        0.72549
| 16> H          3.73575        0.86277       -3.51385
| 17> H          5.13754        0.64699       -2.49333
| 18> H          4.75374        2.22930       -3.12740
| 19> *
| 20> %MaxCore 64000
| 21>
| 22> %pal nprocs 4
| 23> end
| 24>
| 25> %scf
| 26>   MaxIter 150
| 27> end
| 28>
| 29>
| 30>                          ****END OF INPUT****

CARTESIAN COORDINATES (ANGSTROEM)
---------------------------------
  C      3.488280    1.600920   -1.522040
  C      4.342970    1.313420   -2.756830
  N      2.810290    0.428780   -1.014200
  H      2.714550    2.331450   -1.760300
  H      4.090990    2.063150   -0.733380
  C      3.290980   -0.418020   -0.129080
  N      2.517540   -1.432020    0.239360
  C      4.535490   -0.284410    0.395800
  H      5.043630    0.571890    0.222900
  H      4.723350   -0.733270    1.281800
  H      1.934790    0.102300   -1.403790
  H      1.674640   -1.505620   -0.316100
  H      2.928500   -2.218500    0.725490
  H      3.735750    0.862770   -3.513850
  H      5.137540    0.646990   -2.493330
  H      4.753740    2.229300   -3.127400

 Total Charge           Charge          ....    0
 Multiplicity           Mult            ....    1
 Number of Electrons    NEL             ....   48
 Basis Dimension        Dim             ....  134

ORBITAL ENERGIES
----------------

  NO   OCC          E(Eh)            E(eV)
   0   2.0000     -14.395738      -391.7280
   1   2.0000     -14.389675      -391.5630
   2   2.0000     -10.270693      -279.4798
   3   2.0000     -10.264046      -279.2989
   4   2.0000     -10.213116      -277.9130
   5   2.0000     -10.134995      -275.7872
   6   2.0000      -0.991757       -26.9871
   7   2.0000      -0.899897       -24.4874
   8   2.0000      -0.768680       -20.9168
   9   2.0000      -0.714395       -19.4397
  10   2.0000      -0.655363       -17.8333
  11   2.0000      -0.572324       -15.5737
  12   2.0000      -0.553485       -15.0611
  13   2.0000      -0.537876       -14.6363
  14   2.0000      -0.479075       -13.0363
  15   2.0000      -0.450009       -12.2454
  16   2.0000      -0.436200       -11.8696
  17   2.0000      -0.402318       -10.9476
  18   2.0000      -0.386975       -10.5301
  19   2.0000      -0.375314       -10.2128
  20   2.0000      -0.366175        -9.9641
  21   2.0000      -0.355329        -9.6690
  22   2.0000      -0.257759        -7.0140
  23   2.0000      -0.164579        -4.4784
  24   0.0000       0.048276         1.3137
  25   0.0000       0.085225         2.3191
  26   0.0000       0.094942         2.5835
  27   0.0000       0.109801         2.9878
  28   0.0000       0.129568         3.5257

MULLIKEN ATOMIC CHARGES
-----------------------
   0 C :    0.043060
   1 C :   -0.036160
   2 N :   -0.209582
   3 H :    0.029399
   4 H :    0.055141
   5 C :   -0.004029
   6 N :   -0.121451
   7 C :   -0.151530
   8 H :   -0.036749
   9 H :   -0.033373
  10 H :    0.108204
  11 H :    0.107202
  12 H :    0.143076
  13 H :    0.023579
  14 H :    0.051970
  15 H :    0.031240
Sum of atomic charges:    0.0000000

LOEWDIN ATOMIC CHARGES
----------------------
   0 C :    0.034553
   1 C :   -0.070076
   2 N :   -0.023725
   3 H :    0.023429
   4 H :    0.033060
   5 C :    0.032901
   6 N :   -0.021806
   7 C :   -0.288027
   8 H :   -0.009821
   9 H :   -0.006929
  10 H :    0.065314
  11 H :    0.063698
  12 H :    0.089212
  13 H :    0.020499
  14 H :    0.031867
  15 H :    0.025850

  Mayer bond orders larger than 0.100000
B(  0-C ,  1-C ) :   1.0907 B(  0-C ,  2-N ) :   0.9875 B(  0-C ,  3-H ) :   0.9573
B(  0-C ,  4-H ) :   0.9425 B(  1-C , 13-H ) :   0.9691 B(  1-C , 14-H ) :   0.9684
B(  1-C , 15-H ) :   0.9663 B(  2-N ,  5-C ) :   1.1863 B(  2-N , 10-H ) :   0.9326
B(  5-C ,  6-N ) :   1.2334 B(  5-C ,  7-C ) :   1.7114 B(  6-N , 11-H ) :   0.9501
B(  6-N , 12-H ) :   0.9427 B(  7-C ,  8-H ) :   0.9453 B(  7-C ,  9-H ) :   0.9506

Dispersion correction           -0.010810544
FINAL SINGLE POINT ENERGY      -267.397555704295

DIPOLE MOMENT
-------------
                                X             Y             Z
Electronic contribution:     -2.91073      -2.37164       2.19169
Nuclear contribution   :      1.81275       2.23313      -2.77458
                        -----------------------------------------
Total Dipole Moment    :     -1.09798      -0.13851      -0.58289
                        -----------------------------------------
Magnitude (a.u.)       :      1.25080
Magnitude (Debye)      :      3.17927

Rotational constants in cm-1:     0.245202     0.073668     0.064348
Rotational constants in MHz :  7350.977980  2208.513334  1929.108541

                             ****ORCA TERMINATED NORMALLY****
TOTAL RUN TIME: 0 days 0 hours 0 minutes 16 seconds 102 msec
