                         Program Version 5.0.0 -  RELEASE  -
|  1> !wB97X-D3 RIJCOSX def2-SVPD def2/J TightSCF
|  2> *xyz -1 1
|  3> C         -0.15102        0.25496       -4.09426
|  4> C         -0.72184       -0.99951       -3.43931
|  5> H         -1.08340       -1.69755       -4.20566
|  6> H         -1.58106       -0.72385       -2.82049
|  7> C          0.28725       -1.71177       -2.52740
|  8> H          1.13178       -2.06738       -3.15940
|  9> H         -0.20414       -2.63733       -2.17048
| 10> O          0.71050       -0.92751       -1.48177
| 11> H         -0.89787        0.70479       -4.71455
| 12> H          0.69695       -0.00870       -4.69119
| 13> H          0.14812        0.94842       -3.33628
| 14> *
| 15> %MaxCore 64000
| 16>
| 17> %pal nprocs 18
| 18> end
| 19>
| 20> %scf
| 21>   MaxIter 150
| 22> end
| 23>
| 24>
| 25>                          ****END OF INPUT****

CARTESIAN COORDINATES (ANGSTROEM)
---------------------------------
  C     -0.151020    0.254960   -4.094260
  C     -0.721840   -0.999510   -3.439310
  H     -1.083400   -1.697550   -4.205660
  H     -1.581060   -0.723850   -2.820490
  C      0.287250   -1.711770   -2.527400
  H      1.131780   -2.067380   -3.159400
  H     -0.204140   -2.637330   -2.170480
  O      0.710500   -0.927510   -1.481770
  H     -0.897870    0.704790   -4.714550
  H      0.696950   -0.008700   -4.691190
  H      0.148120    0.948420   -3.336280

 Total Charge           Charge          ....   -1
 Multiplicity           Mult            ....    1
 Number of Electrons    NEL             ....   34
 Basis Dimension        Dim             ....  139

ORBITAL ENERGIES
----------------

  NO   OCC          E(Eh)            E(eV)
   0   2.0000     -18.911149      -514.5985
   1   2.0000     -10.107077      -275.0275
   2   2.0000     -10.104872      -274.9675
   3   2.0000     -10.098015      -274.7810
   4   2.0000      -0.787068       -21.4172
   5   2.0000      -0.693052       -18.8589
   6   2.0000      -0.574347       -15.6288
   7   2.0000      -0.468906       -12.7596
   8   2.0000      -0.376240       -10.2380
   9   2.0000      -0.367797       -10.0083
  10   2.0000      -0.317811        -8.6481
  11   2.0000      -0.283719        -7.7204
  12   2.0000      -0.256441        -6.9781
  13   2.0000      -0.246847        -6.7170
  14   2.0000      -0.205637        -5.5957
  15   2.0000      -0.063771        -1.7353
  16   2.0000      -0.060632        -1.6499
  17   0.0000       0.232831         6.3357
  18   0.0000       0.257617         7.0101
  19   0.0000       0.274418         7.4673
  20   0.0000       0.307317         8.3625
  21   0.0000       0.324234         8.8228

MULLIKEN ATOMIC CHARGES
-----------------------
   0 C :    0.576697
   1 C :   -0.502695
   2 H :   -0.083505
   3 H :   -0.064742
   4 C :    0.446770
   5 H :   -0.119890
   6 H :   -0.164381
   7 O :   -0.915501
   8 H :   -0.081234
   9 H :   -0.069216
  10 H :   -0.022302
Sum of atomic charges:   -1.0000000

LOEWDIN ATOMIC CHARGES
----------------------
   0 C :    0.084589
   1 C :   -0.118983
   2 H :   -0.008734
   3 H :    0.003768
   4 C :   -0.219522
   5 H :   -0.024162
   6 H :   -0.031037
   7 O :   -0.576790
   8 H :   -0.046743
   9 H :   -0.032310
  10 H :   -0.030077

  Mayer bond orders larger than 0.100000
B(  0-C ,  1-C ) :   1.2383 B(  0-C ,  8-H ) :   0.8068 B(  0-C ,  9-H ) :   0.8364
B(  0-C , 10-H ) :   0.8474 B(  1-C ,  2-H ) :   0.9986 B(  1-C ,  3-H ) :   0.9765
B(  1-C ,  4-C ) :   1.0473 B(  1-C ,  5-H ) :   0.1077 B(  1-C ,  6-H ) :   0.1370
B(  1-C ,  8-H ) :   0.1831 B(  1-C ,  9-H ) :   0.1777 B(  1-C , 10-H ) :   0.1966
B(  3-H ,  4-C ) :   0.1284 B(  4-C ,  5-H ) :   0.9567 B(  4-C ,  6-H ) :   0.9490
B(  4-C ,  7-O ) :   1.1846

Dispersion correction           -0.001939192
FINAL SINGLE POINT ENERGY      -193.554542556273

DIPOLE MOMENT
-------------
                                X             Y             Z
Electronic contribution:      0.99895      -0.22481       2.69770
Nuclear contribution   :     -1.95025       0.39850      -4.64834
                        -----------------------------------------
Total Dipole Moment    :     -0.95130       0.17369      -1.95063
                        -----------------------------------------
Magnitude (a.u.)       :      2.17718
Magnitude (Debye)      :      5.53395

Rotational constants in cm-1:     0.507767     0.175836     0.148827
Rotational constants in MHz : 15222.471408  5271.439482  4461.706759

                             ****ORCA TERMINATED NORMALLY****
TOTAL RUN TIME: 0 days 0 hours 0 minutes 6 seconds 983 msec
