                         Program Version 5.0.0 -  RELEASE  -
|  1> !wB97X-D3 RIJCOSX def2-SVPD def2/J TightSCF
|  2> *xyz 0 1
|  3> C          3.48828        1.60092       -1.52204
|  4> C          4.34297        1.31342       -2.75683
|  5> N          2.81029        0.42878       -1.01420
|  6> H          5.13203        0.60499       -2.48447
|  7> C          3.53590        0.74925       -3.92460
|  8> H          4.84125        2.24214       -3.05408
|  9> H          2.71455        2.33145       -1.76030
| 10> H          4.09099        2.06315       -0.73338
| 11> C          3.29098       -0.41802       -0.12908
| 12> C          2.51754       -1.43202        0.23936
| 13> N          4.53549       -0.28441        0.39580
| 14> H          5.04363        0.57189        0.22290
| 15> H          4.72335       -0.73327        1.28180
| 16> H          1.93479        0.10230       -1.40379
| 17> H          1.67464       -1.50562       -0.31610
| 18> H          2.92850       -2.21850        0.72549
| 19> H          4.18704        0.56990       -4.75451
| 20> H          2.78096        1.45217       -4.20898
| 21> H          3.07436       -0.16949       -3.62832
| 22> *
| 23> %MaxCore 64000
| 24>
| 25> %pal nprocs 18
| 26> end
| 27>
| 28> %scf
| 29>   MaxIter 150
| 30> end
| 31>
| 32>
| 33>                          ****END OF INPUT****

CARTESIAN COORDINATES (ANGSTROEM)
---------------------------------
  C      3.488280    1.600920   -1.522040
  C      4.342970    1.313420   -2.756830
  N      2.810290    0.428780   -1.014200
  H      5.132030    0.604990   -2.484470
  C      3.535900    0.749250   -3.924600
  H      4.841250    2.242140   -3.054080
  H      2.714550    2.331450   -1.760300
  H      4.090990    2.063150   -0.733380
  C      3.290980   -0.418020   -0.129080
  C      2.517540   -1.432020    0.239360
  N      4.535490   -0.284410    0.395800
  H      5.043630    0.571890    0.222900
  H      4.723350   -0.733270    1.281800
  H      1.934790    0.102300   -1.403790
  H      1.674640   -1.505620   -0.316100
  H      2.928500   -2.218500    0.725490
  H      4.187040    0.569900   -4.754510
  H      2.780960    1.452170   -4.208980
  H      3.074360   -0.169490   -3.628320

 Total Charge           Charge          ....    0
 Multiplicity           Mult            ....    1
 Number of Electrons    NEL             ....   56
 Basis Dimension        Dim             ....  236

ORBITAL ENERGIES
----------------

  NO   OCC          E(Eh)            E(eV)
   0   2.0000     -14.438467      -392.8907
   1   2.0000     -14.438269      -392.8853
   2   2.0000     -10.336381      -281.2672
   3   2.0000     -10.331361      -281.1306
   4   2.0000     -10.291494      -280.0458
   5   2.0000     -10.277877      -279.6752
   6   2.0000     -10.197473      -277.4873
   7   2.0000      -1.081327       -29.4244
   8   2.0000      -0.992781       -27.0149
   9   2.0000      -0.903828       -24.5944
  10   2.0000      -0.837604       -22.7924
  11   2.0000      -0.778281       -21.1781
  12   2.0000      -0.714868       -19.4525
  13   2.0000      -0.695490       -18.9252
  14   2.0000      -0.638056       -17.3624
  15   2.0000      -0.605540       -16.4776
  16   2.0000      -0.581142       -15.8137
  17   2.0000      -0.558128       -15.1874
  18   2.0000      -0.544036       -14.8040
  19   2.0000      -0.512215       -13.9381
  20   2.0000      -0.489139       -13.3101
  21   2.0000      -0.483107       -13.1460
  22   2.0000      -0.475008       -12.9256
  23   2.0000      -0.446869       -12.1599
  24   2.0000      -0.445740       -12.1292
  25   2.0000      -0.436386       -11.8747
  26   2.0000      -0.352873        -9.6022
  27   2.0000      -0.250008        -6.8031
  28   0.0000       0.083988         2.2854
  29   0.0000       0.103076         2.8049
  30   0.0000       0.113312         3.0834
  31   0.0000       0.120305         3.2737
  32   0.0000       0.142650         3.8817

MULLIKEN ATOMIC CHARGES
-----------------------
   0 C :    0.768574
   1 C :   -0.373669
   2 N :   -0.400079
   3 H :   -0.008124
   4 C :    0.642665
   5 H :   -0.096134
   6 H :   -0.274753
   7 H :   -0.107654
   8 C :    0.575250
   9 C :    0.449976
  10 N :    0.044152
  11 H :   -0.156512
  12 H :   -0.110557
  13 H :   -0.237281
  14 H :   -0.205224
  15 H :   -0.401697
  16 H :   -0.051568
  17 H :    0.024879
  18 H :   -0.082247
Sum of atomic charges:    0.0000000

LOEWDIN ATOMIC CHARGES
----------------------
   0 C :    0.046562
   1 C :   -0.071202
   2 N :   -0.022757
   3 H :    0.018325
   4 C :    0.117024
   5 H :    0.019641
   6 H :    0.023128
   7 H :    0.012686
   8 C :   -0.225094
   9 C :    0.129818
  10 N :    0.197278
  11 H :   -0.032225
  12 H :    0.006186
  13 H :    0.032804
  14 H :   -0.102326
  15 H :   -0.094669
  16 H :   -0.016674
  17 H :   -0.016164
  18 H :   -0.022341

  Mayer bond orders larger than 0.100000
B(  0-C ,  1-C ) :   1.0775 B(  0-C ,  2-N ) :   0.8952 B(  0-C ,  3-H ) :   0.1064
B(  0-C ,  6-H ) :   0.8269 B(  0-C ,  7-H ) :   0.8877 B(  0-C , 13-H ) :  -0.2391
B(  1-C ,  3-H ) :   0.9389 B(  1-C ,  4-C ) :   1.2729 B(  1-C ,  5-H ) :   1.0072
B(  1-C ,  6-H ) :   0.1278 B(  1-C , 16-H ) :   0.1984 B(  1-C , 17-H ) :   0.1874
B(  1-C , 18-H ) :   0.1948 B(  2-N ,  6-H ) :   0.2190 B(  2-N ,  7-H ) :   0.1237
B(  2-N ,  8-C ) :   1.0575 B(  2-N ,  9-C ) :   0.2511 B(  2-N , 10-N ) :   0.1147
B(  2-N , 13-H ) :   1.2640 B(  4-C , 16-H ) :   0.8243 B(  4-C , 17-H ) :   0.7905
B(  4-C , 18-H ) :   0.8480 B(  6-H ,  7-H ) :  -0.1007 B(  8-C ,  9-C ) :   1.7487
B(  8-C , 10-N ) :   0.8803 B(  8-C , 13-H ) :  -0.1847 B(  8-C , 14-H ) :   0.2240
B(  8-C , 15-H ) :   0.2063 B(  9-C , 10-N ) :   0.1914 B(  9-C , 14-H ) :   0.8022
B(  9-C , 15-H ) :   0.7412 B( 10-N , 11-H ) :   1.0307 B( 10-N , 12-H ) :   1.1886
B( 11-H , 12-H ) :  -0.1412

Dispersion correction           -0.005352652
FINAL SINGLE POINT ENERGY      -306.935092078154

DIPOLE MOMENT
-------------
                                X             Y             Z
Electronic contribution:     -0.27968      -0.78430       4.26608
Nuclear contribution   :      0.82404       1.70307      -4.68174
                        -----------------------------------------
Total Dipole Moment    :      0.54436       0.91878      -0.41566
                        -----------------------------------------
Magnitude (a.u.)       :      1.14597
Magnitude (Debye)      :      2.91283

Rotational constants in cm-1:     0.164049     0.050262     0.045260
Rotational constants in MHz :  4918.051182  1506.829450  1356.872102

                             ****ORCA TERMINATED NORMALLY****
TOTAL RUN TIME: 0 days 0 hours 0 minutes 18 seconds 84 msec
