                         Program Version 5.0.0 -  RELEASE  -
|  1> !wB97X-D3 RIJCOSX def2-SVPD def2/J TightSCF xyzfile
|  2>
|  3> *xyzfile 0 1 D1.xyz
|  4>
|  5> %MaxCore 64000
|  6>
|  7> %pal nprocs 18
|  8> end
|  9>
| 10> %scf
| 11>   MaxIter 150
| 12> end
| 13>
| 14>
| 15>                          ****END OF INPUT****

CARTESIAN COORDINATES (ANGSTROEM)
---------------------------------
  C      3.488276    1.600919   -1.522040
  C      4.342970    1.313419   -2.756826
  C      2.810285    0.428783   -1.014196
  H      5.132033    0.604994   -2.484466
  C      3.535896    0.749253   -3.924604
  H      4.841247    2.242136   -3.054083
  H      2.991617   -0.132199   -3.574137
  H      4.225505    0.392784   -4.695962
  C      2.564776    1.750890   -4.544523
  H      1.918749    2.171679   -3.769419
  C      1.686235    1.161657   -5.650111
  H      3.132494    2.594775   -4.951604
  C      0.839616   -0.037582   -5.220473
  H      2.323886    0.866395   -6.490796
  H      1.029518    1.951850   -6.029329
  C     -0.151019    0.254955   -4.094256
  H      1.499442   -0.857141   -4.922958
  H      0.290097   -0.410143   -6.091131
  H      0.328265    0.833022   -3.299125
  C     -0.721843   -0.999513   -3.439309
  H     -0.957367    0.884951   -4.485450
  H     -1.083403   -1.697555   -4.205656
  H     -1.581056   -0.723848   -2.820490
  C      0.287250   -1.711771   -2.527405
  H      1.131780   -2.067380   -3.159396
  H     -0.204137   -2.637326   -2.170480
  F      0.710505   -0.927506   -1.481767
  H      2.714548    2.331455   -1.760302
  H      4.090991    2.063151   -0.733382
  C      3.290978   -0.418021   -0.129083
  N      2.517536   -1.432017    0.239360
  N      4.535490   -0.284410    0.395800
  H      5.043627    0.571888    0.222899
  H      4.723346   -0.733273    1.281800
  H      1.934787    0.102305   -1.403788
  H      1.674638   -1.505616   -0.316095
  H      2.928503   -2.218502    0.725494

 Total Charge           Charge          ....    0
 Multiplicity           Mult            ....    1
 Number of Electrons    NEL             ....  112
 Basis Dimension        Dim             ....  467

ORBITAL ENERGIES
----------------

  NO   OCC          E(Eh)            E(eV)
   0   2.0000     -24.820064      -675.3883
   1   2.0000     -14.424191      -392.5022
   2   2.0000     -14.406883      -392.0312
   3   2.0000     -10.383079      -282.5379
   4   2.0000     -10.313323      -280.6398
   5   2.0000     -10.302610      -280.3483
   6   2.0000     -10.287423      -279.9350
   7   2.0000     -10.283400      -279.8255
   8   2.0000     -10.278581      -279.6944
   9   2.0000     -10.270949      -279.4867
  10   2.0000     -10.265381      -279.3352
  11   2.0000     -10.260036      -279.1898
  12   2.0000     -10.253330      -279.0073
  13   2.0000     -10.184584      -277.1366
  14   2.0000      -1.337111       -36.3846
  15   2.0000      -1.051374       -28.6093
  16   2.0000      -0.961185       -26.1552
  17   2.0000      -0.932032       -25.3619
  18   2.0000      -0.906786       -24.6749
  19   2.0000      -0.876598       -23.8534
  20   2.0000      -0.841527       -22.8991
  21   2.0000      -0.801855       -21.8196
  22   2.0000      -0.775616       -21.1056
  23   2.0000      -0.740991       -20.1634
  24   2.0000      -0.710511       -19.3340
  25   2.0000      -0.695770       -18.9329
  26   2.0000      -0.670953       -18.2575
  27   2.0000      -0.653109       -17.7720
  28   2.0000      -0.641312       -17.4510
  29   2.0000      -0.626348       -17.0438
  30   2.0000      -0.617591       -16.8055
  31   2.0000      -0.601092       -16.3566
  32   2.0000      -0.589701       -16.0466
  33   2.0000      -0.567587       -15.4448
  34   2.0000      -0.558450       -15.1962
  35   2.0000      -0.544896       -14.8274
  36   2.0000      -0.538070       -14.6416
  37   2.0000      -0.524870       -14.2824
  38   2.0000      -0.513872       -13.9832
  39   2.0000      -0.502803       -13.6820
  40   2.0000      -0.494721       -13.4620
  41   2.0000      -0.478117       -13.0102
  42   2.0000      -0.470222       -12.7954
  43   2.0000      -0.463738       -12.6190
  44   2.0000      -0.457769       -12.4565
  45   2.0000      -0.454461       -12.3665
  46   2.0000      -0.433952       -11.8084
  47   2.0000      -0.425500       -11.5784
  48   2.0000      -0.415244       -11.2994
  49   2.0000      -0.412531       -11.2255
  50   2.0000      -0.408776       -11.1234
  51   2.0000      -0.393246       -10.7008
  52   2.0000      -0.386931       -10.5289
  53   2.0000      -0.381245       -10.3742
  54   2.0000      -0.344576        -9.3764
  55   2.0000      -0.232248        -6.3198
  56   0.0000       0.087763         2.3881
  57   0.0000       0.100400         2.7320
  58   0.0000       0.101186         2.7534
  59   0.0000       0.107488         2.9249
  60   0.0000       0.122470         3.3326

MULLIKEN ATOMIC CHARGES
-----------------------
   0 C :    0.444435
   1 C :    0.487105
   2 C :    0.272367
   3 H :   -0.076773
   4 C :    0.210604
   5 H :   -0.070478
   6 H :   -0.335716
   7 H :   -0.098135
   8 C :   -0.025239
   9 H :    0.007215
  10 C :    0.611855
  11 H :   -0.222792
  12 C :    0.004492
  13 H :   -0.012611
  14 H :   -0.116268
  15 C :    0.197070
  16 H :   -0.069242
  17 H :   -0.205482
  18 H :   -0.291075
  19 C :    0.227530
  20 H :   -0.104323
  21 H :   -0.039696
  22 H :   -0.019240
  23 C :    0.825582
  24 H :   -0.052829
  25 H :   -0.186286
  26 F :   -0.576521
  27 H :    0.005191
  28 H :   -0.204466
  29 C :    0.422562
  30 N :    0.234813
  31 N :   -0.037116
  32 H :   -0.035001
  33 H :   -0.219124
  34 H :   -0.604349
  35 H :   -0.130132
  36 H :   -0.217930
Sum of atomic charges:    0.0000000

LOEWDIN ATOMIC CHARGES
----------------------
   0 C :   -0.046886
   1 C :   -0.028807
   2 C :   -0.017853
   3 H :    0.019448
   4 C :   -0.030046
   5 H :    0.017029
   6 H :   -0.002806
   7 H :    0.025726
   8 C :   -0.033450
   9 H :    0.000036
  10 C :   -0.031989
  11 H :    0.026096
  12 C :   -0.035297
  13 H :    0.023350
  14 H :    0.022605
  15 C :   -0.023732
  16 H :   -0.002608
  17 H :    0.024075
  18 H :    0.008572
  19 C :   -0.012154
  20 H :    0.030499
  21 H :    0.036669
  22 H :    0.029429
  23 C :    0.165342
  24 H :    0.036596
  25 H :    0.038819
  26 F :   -0.221798
  27 H :    0.005852
  28 H :    0.006002
  29 C :   -0.193368
  30 N :    0.189354
  31 N :    0.195179
  32 H :   -0.022680
  33 H :   -0.014055
  34 H :   -0.107203
  35 H :   -0.070642
  36 H :   -0.005305

  Mayer bond orders larger than 0.100000
B(  0-C ,  1-C ) :   1.0595 B(  0-C ,  2-C ) :   0.9940 B(  0-C ,  3-H ) :   0.1455
B(  0-C ,  5-H ) :   0.1858 B(  0-C , 27-H ) :   0.8063 B(  0-C , 28-H ) :   0.6681
B(  0-C , 34-H ) :   0.5222 B(  1-C ,  3-H ) :   0.7425 B(  1-C ,  4-C ) :   1.2479
B(  1-C ,  5-H ) :   0.7883 B(  1-C ,  6-H ) :   0.1119 B(  2-C , 27-H ) :   0.2642
B(  2-C , 28-H ) :   0.3195 B(  2-C , 29-C ) :   1.8974 B(  2-C , 30-N ) :   0.2866
B(  2-C , 31-N ) :   0.1883 B(  2-C , 32-H ) :  -0.1807 B(  2-C , 34-H ) :  -0.1339
B(  3-H ,  4-C ) :   0.2230 B(  4-C ,  5-H ) :   0.1288 B(  4-C ,  6-H ) :   0.8777
B(  4-C ,  7-H ) :   0.7580 B(  4-C ,  8-C ) :   1.1644 B(  4-C , 11-H ) :   0.1590
B(  6-H ,  8-C ) :   0.1487 B(  7-H ,  8-C ) :   0.1538 B(  8-C ,  9-H ) :   0.8533
B(  8-C , 10-C ) :   1.1499 B(  8-C , 11-H ) :   0.9426 B(  8-C , 13-H ) :   0.1177
B(  8-C , 14-H ) :   0.2849 B( 10-C , 12-C ) :   1.1858 B( 10-C , 13-H ) :   0.7157
B( 10-C , 14-H ) :   0.7025 B( 12-C , 13-H ) :   0.2299 B( 12-C , 14-H ) :   0.1187
B( 12-C , 15-C ) :   1.1760 B( 12-C , 16-H ) :   0.8968 B( 12-C , 17-H ) :   0.8866
B( 12-C , 18-H ) :   0.1431 B( 12-C , 20-H ) :   0.1888 B( 13-H , 14-H ) :  -0.1175
B( 15-C , 17-H ) :   0.2280 B( 15-C , 18-H ) :   0.8766 B( 15-C , 19-C ) :   1.1686
B( 15-C , 20-H ) :   0.8310 B( 15-C , 21-H ) :   0.1141 B( 15-C , 22-H ) :   0.2073
B( 18-H , 19-C ) :   0.1312 B( 19-C , 21-H ) :   0.8056 B( 19-C , 22-H ) :   0.7589
B( 19-C , 23-C ) :   1.1973 B( 19-C , 24-H ) :   0.1171 B( 19-C , 25-H ) :   0.1345
B( 19-C , 26-F ) :   0.1046 B( 21-H , 23-C ) :   0.1507 B( 22-H , 23-C ) :   0.1416
B( 23-C , 24-H ) :   0.8333 B( 23-C , 25-H ) :   0.9221 B( 23-C , 26-F ) :   0.5884
B( 24-H , 26-F ) :   0.1281 B( 27-H , 34-H ) :  -0.1580 B( 29-C , 30-N ) :   0.7780
B( 29-C , 31-N ) :   0.8665 B( 29-C , 34-H ) :   0.4707 B( 30-N , 35-H ) :   1.0839
B( 30-N , 36-H ) :   1.1820 B( 31-N , 32-H ) :   1.0156 B( 31-N , 33-H ) :   1.2293
B( 32-H , 33-H ) :  -0.1332 B( 35-H , 36-H ) :  -0.1317

Dispersion correction           -0.017675501
FINAL SINGLE POINT ENERGY      -641.737134631502

DIPOLE MOMENT
-------------
                                X             Y             Z
Electronic contribution:     -1.59292      -4.85413      10.67320
Nuclear contribution   :      1.15699       3.94991     -10.89335
                        -----------------------------------------
Total Dipole Moment    :     -0.43593      -0.90421      -0.22015
                        -----------------------------------------
Magnitude (a.u.)       :      1.02767
Magnitude (Debye)      :      2.61213

Rotational constants in cm-1:     0.026548     0.016177     0.010851
Rotational constants in MHz :   795.884848   484.988695   325.313537

                             ****ORCA TERMINATED NORMALLY****
TOTAL RUN TIME: 0 days 0 hours 1 minutes 50 seconds 724 msec
