                         Program Version 5.0.0 -  RELEASE  -
|  1> !TPSS D3BJ RIJCOSX def2-SVP def2/J TightSCF
|  2> *xyz -1 1
|  3> C         -7.33044       -2.67899       -3.20681
|  4> S         -6.01966       -2.92697       -4.41913
|  5> O         -5.64583       -1.58838       -4.91931
|  6> O         -4.88196       -3.50370       -3.66724
|  7> O         -6.54927       -3.80515       -5.42507
|  8> C         -7.46900       -1.24615       -2.71383
|  9> H         -7.11825       -3.37982       -2.39805
| 10> H         -8.24184       -3.00474       -3.70651
| 11> H         -7.67580       -0.60214       -3.54292
| 12> H         -6.55749       -0.94096       -2.24382
| 13> H         -8.27114       -1.18777       -2.00810
| 14> *
| 15> %MaxCore 64000
| 16>
| 17> %pal nprocs 4
| 18> end
| 19>
| 20> %scf
| 21>   MaxIter 150
| 22> end
| 23>
| 24>
| 25>                          ****END OF INPUT****

CARTESIAN COORDINATES (ANGSTROEM)
---------------------------------
  C     -7.330440   -2.678990   -3.206810
  S     -6.019660   -2.926970   -4.419130
  O     -5.645830   -1.588380   -4.919310
  O     -4.881960   -3.503700   -3.667240
  O     -6.549270   -3.805150   -5.425070
  C     -7.469000   -1.246150   -2.713830
  H     -7.118250   -3.379820   -2.398050
  H     -8.241840   -3.004740   -3.706510
  H     -7.675800   -0.602140   -3.542920
  H     -6.557490   -0.940960   -2.243820
  H     -8.271140   -1.187770   -2.008100

 Total Charge           Charge          ....   -1
 Multiplicity           Mult            ....    1
 Number of Electrons    NEL             ....   58
 Basis Dimension        Dim             ....  113

ORBITAL ENERGIES
----------------

  NO   OCC          E(Eh)            E(eV)
   0   2.0000     -88.321959     -2403.3627
   1   2.0000     -18.641975      -507.2739
   2   2.0000     -18.632210      -507.0082
   3   2.0000     -18.625911      -506.8368
   4   2.0000      -9.851326      -268.0682
   5   2.0000      -9.843575      -267.8573
   6   2.0000      -7.689092      -209.2308
   7   2.0000      -5.674532      -154.4119
   8   2.0000      -5.674358      -154.4071
   9   2.0000      -5.673978      -154.3968
  10   2.0000      -0.817120       -22.2350
  11   2.0000      -0.682782       -18.5794
  12   2.0000      -0.659788       -17.9537
  13   2.0000      -0.559174       -15.2159
  14   2.0000      -0.439037       -11.9468
  15   2.0000      -0.310332        -8.4446
  16   2.0000      -0.266554        -7.2533
  17   2.0000      -0.245807        -6.6887
  18   2.0000      -0.212299        -5.7770
  19   2.0000      -0.191858        -5.2207
  20   2.0000      -0.186307        -5.0697
  21   2.0000      -0.166852        -4.5403
  22   2.0000      -0.163106        -4.4383
  23   2.0000      -0.067510        -1.8370
  24   2.0000      -0.066298        -1.8040
  25   2.0000      -0.040706        -1.1077
  26   2.0000      -0.032407        -0.8818
  27   2.0000      -0.020121        -0.5475
  28   2.0000       0.015715         0.4276
  29   0.0000       0.192436         5.2365
  30   0.0000       0.244602         6.6560
  31   0.0000       0.245088         6.6692
  32   0.0000       0.253639         6.9019
  33   0.0000       0.275479         7.4962

MULLIKEN ATOMIC CHARGES
-----------------------
   0 C :   -0.095510
   1 S :    0.812018
   2 O :   -0.579139
   3 O :   -0.597152
   4 O :   -0.549104
   5 C :    0.043544
   6 H :    0.002639
   7 H :   -0.005263
   8 H :    0.004372
   9 H :    0.005517
  10 H :   -0.041922
Sum of atomic charges:   -1.0000000

LOEWDIN ATOMIC CHARGES
----------------------
   0 C :   -0.184742
   1 S :    1.062982
   2 O :   -0.619602
   3 O :   -0.635089
   4 O :   -0.585864
   5 C :   -0.061630
   6 H :    0.004755
   7 H :    0.000586
   8 H :    0.011340
   9 H :    0.013149
  10 H :   -0.005884

  Mayer bond orders larger than 0.100000
B(  0-C ,  1-S ) :   0.8536 B(  0-C ,  5-C ) :   1.0840 B(  0-C ,  6-H ) :   0.9397
B(  0-C ,  7-H ) :   0.9390 B(  1-S ,  2-O ) :   1.5985 B(  1-S ,  3-O ) :   1.5892
B(  1-S ,  4-O ) :   1.6412 B(  5-C ,  8-H ) :   0.9619 B(  5-C ,  9-H ) :   0.9661
B(  5-C , 10-H ) :   0.9493

Dispersion correction           -0.012074418
FINAL SINGLE POINT ENERGY      -702.789379066560

DIPOLE MOMENT
-------------
                                X             Y             Z
Electronic contribution:      4.86617      -3.58275      -5.26934
Nuclear contribution   :     -6.18165       4.01759       6.33106
                        -----------------------------------------
Total Dipole Moment    :     -1.31548       0.43485       1.06172
                        -----------------------------------------
Magnitude (a.u.)       :      1.74551
Magnitude (Debye)      :      4.43674

Rotational constants in cm-1:     0.161711     0.082788     0.081165
Rotational constants in MHz :  4847.971521  2481.906910  2433.276832

                             ****ORCA TERMINATED NORMALLY****
TOTAL RUN TIME: 0 days 0 hours 0 minutes 8 seconds 311 msec
