                         Program Version 5.0.0 -  RELEASE  -
|  1> !TPSS D3BJ RIJCOSX def2-SVP def2/J TightSCF
|  2> *xyz 1 1
|  3> C         -2.16038       -1.36949       -3.46710
|  4> N         -3.03011       -1.91086       -4.54107
|  5> C         -2.04772        0.14658       -3.51177
|  6> H         -3.47744       -2.79151       -4.25710
|  7> H         -2.53801       -2.01786       -5.43808
|  8> H         -3.89159       -1.37604       -4.71437
|  9> H         -1.18444       -1.84400       -3.56639
| 10> H         -2.59819       -1.70838       -2.52848
| 11> H         -1.61525        0.44478       -4.44395
| 12> H         -1.42718        0.48198       -2.70720
| 13> H         -3.02145        0.57958       -3.41560
| 14> *
| 15> %MaxCore 64000
| 16>
| 17> %pal nprocs 4
| 18> end
| 19>
| 20> %scf
| 21>   MaxIter 150
| 22> end
| 23>
| 24>
| 25>                          ****END OF INPUT****

CARTESIAN COORDINATES (ANGSTROEM)
---------------------------------
  C     -2.160380   -1.369490   -3.467100
  N     -3.030110   -1.910860   -4.541070
  C     -2.047720    0.146580   -3.511770
  H     -3.477440   -2.791510   -4.257100
  H     -2.538010   -2.017860   -5.438080
  H     -3.891590   -1.376040   -4.714370
  H     -1.184440   -1.844000   -3.566390
  H     -2.598190   -1.708380   -2.528480
  H     -1.615250    0.444780   -4.443950
  H     -1.427180    0.481980   -2.707200
  H     -3.021450    0.579580   -3.415600

 Total Charge           Charge          ....    1
 Multiplicity           Mult            ....    1
 Number of Electrons    NEL             ....   26
 Basis Dimension        Dim             ....   82

ORBITAL ENERGIES
----------------

  NO   OCC          E(Eh)            E(eV)
   0   2.0000     -14.455341      -393.3498
   1   2.0000     -10.254781      -279.0468
   2   2.0000     -10.177867      -276.9538
   3   2.0000      -1.150063       -31.2948
   4   2.0000      -0.907748       -24.7011
   5   2.0000      -0.794620       -21.6227
   6   2.0000      -0.767073       -20.8731
   7   2.0000      -0.727428       -19.7943
   8   2.0000      -0.660081       -17.9617
   9   2.0000      -0.603545       -16.4233
  10   2.0000      -0.544185       -14.8080
  11   2.0000      -0.530632       -14.4392
  12   2.0000      -0.514727       -14.0064
  13   0.0000      -0.198647        -5.4054
  14   0.0000      -0.143674        -3.9096
  15   0.0000      -0.141647        -3.8544
  16   0.0000      -0.103863        -2.8263
  17   0.0000      -0.067480        -1.8362

MULLIKEN ATOMIC CHARGES
-----------------------
   0 C :   -0.034805
   1 N :    0.029332
   2 C :   -0.015439
   3 H :    0.203717
   4 H :    0.215044
   5 H :    0.194179
   6 H :    0.102234
   7 H :    0.094682
   8 H :    0.059582
   9 H :    0.093481
  10 H :    0.057993
Sum of atomic charges:    1.0000000

LOEWDIN ATOMIC CHARGES
----------------------
   0 C :    0.056724
   1 N :    0.298336
   2 C :   -0.026555
   3 H :    0.146192
   4 H :    0.145500
   5 H :    0.140610
   6 H :    0.053911
   7 H :    0.050558
   8 H :    0.037415
   9 H :    0.061074
  10 H :    0.036235

  Mayer bond orders larger than 0.100000
B(  0-C ,  1-N ) :   0.9212 B(  0-C ,  2-C ) :   1.1049 B(  0-C ,  6-H ) :   0.9487
B(  0-C ,  7-H ) :   0.9517 B(  1-N ,  3-H ) :   0.9356 B(  1-N ,  4-H ) :   0.9346
B(  1-N ,  5-H ) :   0.9338 B(  2-C ,  8-H ) :   0.9696 B(  2-C ,  9-H ) :   0.9561
B(  2-C , 10-H ) :   0.9662

Dispersion correction           -0.007409671
FINAL SINGLE POINT ENERGY      -135.460593248089

DIPOLE MOMENT
-------------
                                X             Y             Z
Electronic contribution:     -0.66864      -1.51361      -0.80236
Nuclear contribution   :     -0.15215       0.37393      -0.04773
                        -----------------------------------------
Total Dipole Moment    :     -0.82079      -1.13968      -0.85009
                        -----------------------------------------
Magnitude (a.u.)       :      1.64171
Magnitude (Debye)      :      4.17290

Rotational constants in cm-1:     1.020762     0.277172     0.247319
Rotational constants in MHz : 30601.664035  8309.399682  7414.438136

                             ****ORCA TERMINATED NORMALLY****
TOTAL RUN TIME: 0 days 0 hours 0 minutes 7 seconds 922 msec
