                         Program Version 5.0.0 -  RELEASE  -
|  1> !TPSS D3BJ RIJCOSX def2-SVP def2/J TightSCF
|  2> *xyz 0 1
|  3> C         -7.33044       -2.67899       -3.20681
|  4> S         -6.01966       -2.92697       -4.41913
|  5> F         -5.64583       -1.58838       -4.91931
|  6> O         -4.88196       -3.50370       -3.66724
|  7> O         -6.54927       -3.80515       -5.42507
|  8> C         -7.46900       -1.24615       -2.71383
|  9> H         -7.11825       -3.37982       -2.39805
| 10> H         -8.24184       -3.00474       -3.70651
| 11> H         -7.67580       -0.60214       -3.54292
| 12> H         -6.55749       -0.94096       -2.24382
| 13> H         -8.27114       -1.18777       -2.00810
| 14> *
| 15> %MaxCore 64000
| 16>
| 17> %pal nprocs 4
| 18> end
| 19>
| 20> %scf
| 21>   MaxIter 150
| 22> end
| 23>
| 24>
| 25>                          ****END OF INPUT****

CARTESIAN COORDINATES (ANGSTROEM)
---------------------------------
  C     -7.330440   -2.678990   -3.206810
  S     -6.019660   -2.926970   -4.419130
  F     -5.645830   -1.588380   -4.919310
  O     -4.881960   -3.503700   -3.667240
  O     -6.549270   -3.805150   -5.425070
  C     -7.469000   -1.246150   -2.713830
  H     -7.118250   -3.379820   -2.398050
  H     -8.241840   -3.004740   -3.706510
  H     -7.675800   -0.602140   -3.542920
  H     -6.557490   -0.940960   -2.243820
  H     -8.271140   -1.187770   -2.008100

 Total Charge           Charge          ....    0
 Multiplicity           Mult            ....    1
 Number of Electrons    NEL             ....   58
 Basis Dimension        Dim             ....  113

ORBITAL ENERGIES
----------------

  NO   OCC          E(Eh)            E(eV)
   0   2.0000     -88.591317     -2410.6923
   1   2.0000     -24.507575      -666.8850
   2   2.0000     -18.894081      -514.1341
   3   2.0000     -18.878743      -513.7167
   4   2.0000     -10.055710      -273.6298
   5   2.0000     -10.028894      -272.9001
   6   2.0000      -7.961210      -216.6356
   7   2.0000      -5.950831      -161.9303
   8   2.0000      -5.944369      -161.7545
   9   2.0000      -5.942766      -161.7109
  10   2.0000      -1.253341       -34.1051
  11   2.0000      -1.022163       -27.8145
  12   2.0000      -0.922210       -25.0946
  13   2.0000      -0.762867       -20.7587
  14   2.0000      -0.657030       -17.8787
  15   2.0000      -0.614731       -16.7277
  16   2.0000      -0.526146       -14.3172
  17   2.0000      -0.497840       -13.5469
  18   2.0000      -0.478350       -13.0166
  19   2.0000      -0.453132       -12.3303
  20   2.0000      -0.420000       -11.4288
  21   2.0000      -0.401104       -10.9146
  22   2.0000      -0.384756       -10.4697
  23   2.0000      -0.373784       -10.1712
  24   2.0000      -0.357313        -9.7230
  25   2.0000      -0.328620        -8.9422
  26   2.0000      -0.281497        -7.6599
  27   2.0000      -0.265763        -7.2318
  28   2.0000      -0.250980        -6.8295
  29   0.0000      -0.004148        -0.1129
  30   0.0000       0.042649         1.1605
  31   0.0000       0.056622         1.5408
  32   0.0000       0.060304         1.6410
  33   0.0000       0.081918         2.2291

MULLIKEN ATOMIC CHARGES
-----------------------
   0 C :   -0.125445
   1 S :    0.895107
   2 F :   -0.186030
   3 O :   -0.458424
   4 O :   -0.410094
   5 C :   -0.002876
   6 H :    0.092021
   7 H :    0.074330
   8 H :    0.035649
   9 H :    0.044028
  10 H :    0.041735
Sum of atomic charges:    0.0000000

LOEWDIN ATOMIC CHARGES
----------------------
   0 C :   -0.140237
   1 S :    1.123240
   2 F :   -0.140214
   3 O :   -0.504115
   4 O :   -0.454924
   5 C :   -0.050782
   6 H :    0.047017
   7 H :    0.035562
   8 H :    0.023303
   9 H :    0.027121
  10 H :    0.034031

  Mayer bond orders larger than 0.100000
B(  0-C ,  1-S ) :   0.9001 B(  0-C ,  5-C ) :   1.0682 B(  0-C ,  6-H ) :   0.9340
B(  0-C ,  7-H ) :   0.9352 B(  1-S ,  2-F ) :   0.9899 B(  1-S ,  3-O ) :   1.7453
B(  1-S ,  4-O ) :   1.7908 B(  5-C ,  8-H ) :   0.9711 B(  5-C ,  9-H ) :   0.9705
B(  5-C , 10-H ) :   0.9592

Dispersion correction           -0.011468084
FINAL SINGLE POINT ENERGY      -727.310968016871

DIPOLE MOMENT
-------------
                                X             Y             Z
Electronic contribution:      5.73590      -1.77866      -6.45387
Nuclear contribution   :     -6.81251       2.87933       7.15058
                        -----------------------------------------
Total Dipole Moment    :     -1.07661       1.10067       0.69670
                        -----------------------------------------
Magnitude (a.u.)       :      1.68996
Magnitude (Debye)      :      4.29553

Rotational constants in cm-1:     0.152543     0.082494     0.078987
Rotational constants in MHz :  4573.135887  2473.116216  2367.980829

                             ****ORCA TERMINATED NORMALLY****
TOTAL RUN TIME: 0 days 0 hours 0 minutes 9 seconds 285 msec
