                         Program Version 5.0.0 -  RELEASE  -
|  1> !TPSS D3BJ RIJCOSX def2-SVP def2/J TightSCF
|  2> *xyz 0 1
|  3> C         -2.16038       -1.36949       -3.46710
|  4> C         -3.03011       -1.91086       -4.54107
|  5> C         -2.04772        0.14658       -3.51177
|  6> H         -3.47744       -2.79151       -4.25710
|  7> H         -2.53801       -2.01786       -5.43808
|  8> H         -3.89159       -1.37604       -4.71437
|  9> H         -1.18444       -1.84400       -3.56639
| 10> H         -2.59819       -1.70838       -2.52848
| 11> H         -1.61525        0.44478       -4.44395
| 12> H         -1.42718        0.48198       -2.70720
| 13> H         -3.02145        0.57958       -3.41560
| 14> *
| 15> %MaxCore 64000
| 16>
| 17> %pal nprocs 4
| 18> end
| 19>
| 20> %scf
| 21>   MaxIter 150
| 22> end
| 23>
| 24>
| 25>                          ****END OF INPUT****

CARTESIAN COORDINATES (ANGSTROEM)
---------------------------------
  C     -2.160380   -1.369490   -3.467100
  C     -3.030110   -1.910860   -4.541070
  C     -2.047720    0.146580   -3.511770
  H     -3.477440   -2.791510   -4.257100
  H     -2.538010   -2.017860   -5.438080
  H     -3.891590   -1.376040   -4.714370
  H     -1.184440   -1.844000   -3.566390
  H     -2.598190   -1.708380   -2.528480
  H     -1.615250    0.444780   -4.443950
  H     -1.427180    0.481980   -2.707200
  H     -3.021450    0.579580   -3.415600

 Total Charge           Charge          ....    0
 Multiplicity           Mult            ....    1
 Number of Electrons    NEL             ....   26
 Basis Dimension        Dim             ....   82

ORBITAL ENERGIES
----------------

  NO   OCC          E(Eh)            E(eV)
   0   2.0000      -9.986078      -271.7350
   1   2.0000      -9.980563      -271.5849
   2   2.0000      -9.963164      -271.1115
   3   2.0000      -0.724369       -19.7111
   4   2.0000      -0.631232       -17.1767
   5   2.0000      -0.534052       -14.5323
   6   2.0000      -0.424861       -11.5611
   7   2.0000      -0.395652       -10.7662
   8   2.0000      -0.360270        -9.8035
   9   2.0000      -0.353290        -9.6135
  10   2.0000      -0.301500        -8.2042
  11   2.0000      -0.291260        -7.9256
  12   2.0000      -0.288987        -7.8637
  13   0.0000       0.054295         1.4775
  14   0.0000       0.097819         2.6618
  15   0.0000       0.102335         2.7847
  16   0.0000       0.104342         2.8393
  17   0.0000       0.134783         3.6676

MULLIKEN ATOMIC CHARGES
-----------------------
   0 C :   -0.082871
   1 C :    0.076337
   2 C :    0.016630
   3 H :   -0.021660
   4 H :   -0.003646
   5 H :   -0.026680
   6 H :    0.009564
   7 H :    0.005431
   8 H :    0.009120
   9 H :    0.008622
  10 H :    0.009153
Sum of atomic charges:    0.0000000

LOEWDIN ATOMIC CHARGES
----------------------
   0 C :   -0.036054
   1 C :   -0.040577
   2 C :   -0.040781
   3 H :    0.013914
   4 H :    0.010758
   5 H :    0.010381
   6 H :    0.017640
   7 H :    0.016315
   8 H :    0.016164
   9 H :    0.016229
  10 H :    0.016011

  Mayer bond orders larger than 0.100000
B(  0-C ,  1-C ) :   1.1138 B(  0-C ,  2-C ) :   1.1067 B(  0-C ,  6-H ) :   0.9532
B(  0-C ,  7-H ) :   0.9551 B(  1-C ,  3-H ) :   0.9566 B(  1-C ,  4-H ) :   0.9704
B(  1-C ,  5-H ) :   0.9580 B(  2-C ,  8-H ) :   0.9741 B(  2-C ,  9-H ) :   0.9681
B(  2-C , 10-H ) :   0.9715

Dispersion correction           -0.007434343
FINAL SINGLE POINT ENERGY      -119.062523841840

DIPOLE MOMENT
-------------
                                X             Y             Z
Electronic contribution:      0.31873      -0.11915       0.26958
Nuclear contribution   :     -0.34625       0.09603      -0.26933
                        -----------------------------------------
Total Dipole Moment    :     -0.02752      -0.02312       0.00024
                        -----------------------------------------
Magnitude (a.u.)       :      0.03594
Magnitude (Debye)      :      0.09136

Rotational constants in cm-1:     1.028617     0.291238     0.258956
Rotational constants in MHz : 30837.159054  8731.095379  7763.318586

                             ****ORCA TERMINATED NORMALLY****
TOTAL RUN TIME: 0 days 0 hours 0 minutes 7 seconds 839 msec
