                         Program Version 5.0.0 -  RELEASE  -
|  1> !TPSS D3BJ RIJCOSX def2-SVP def2/J TightSCF
|  2> *xyz 0 1
|  3> C         -7.33044       -2.67899       -3.20681
|  4> S         -6.01966       -2.92697       -4.41913
|  5> O         -5.64583       -1.58838       -4.91931
|  6> O         -4.88196       -3.50370       -3.66724
|  7> F         -6.54927       -3.80515       -5.42507
|  8> C         -7.46900       -1.24615       -2.71383
|  9> H         -7.11825       -3.37982       -2.39805
| 10> H         -8.24184       -3.00474       -3.70651
| 11> H         -7.67580       -0.60214       -3.54292
| 12> H         -6.55749       -0.94096       -2.24382
| 13> H         -8.27114       -1.18777       -2.00810
| 14> *
| 15> %MaxCore 64000
| 16>
| 17> %pal nprocs 4
| 18> end
| 19>
| 20> %scf
| 21>   MaxIter 150
| 22> end
| 23>
| 24>
| 25>                          ****END OF INPUT****

CARTESIAN COORDINATES (ANGSTROEM)
---------------------------------
  C     -7.330440   -2.678990   -3.206810
  S     -6.019660   -2.926970   -4.419130
  O     -5.645830   -1.588380   -4.919310
  O     -4.881960   -3.503700   -3.667240
  F     -6.549270   -3.805150   -5.425070
  C     -7.469000   -1.246150   -2.713830
  H     -7.118250   -3.379820   -2.398050
  H     -8.241840   -3.004740   -3.706510
  H     -7.675800   -0.602140   -3.542920
  H     -6.557490   -0.940960   -2.243820
  H     -8.271140   -1.187770   -2.008100

 Total Charge           Charge          ....    0
 Multiplicity           Mult            ....    1
 Number of Electrons    NEL             ....   58
 Basis Dimension        Dim             ....  113

ORBITAL ENERGIES
----------------

  NO   OCC          E(Eh)            E(eV)
   0   2.0000     -88.593496     -2410.7516
   1   2.0000     -24.525474      -667.3721
   2   2.0000     -18.883488      -513.8458
   3   2.0000     -18.879210      -513.7294
   4   2.0000     -10.056736      -273.6577
   5   2.0000     -10.020582      -272.6739
   6   2.0000      -7.963385      -216.6947
   7   2.0000      -5.953204      -161.9949
   8   2.0000      -5.946296      -161.8069
   9   2.0000      -5.944793      -161.7660
  10   2.0000      -1.286113       -34.9969
  11   2.0000      -1.007631       -27.4190
  12   2.0000      -0.908811       -24.7300
  13   2.0000      -0.758502       -20.6399
  14   2.0000      -0.669929       -18.2297
  15   2.0000      -0.615761       -16.7557
  16   2.0000      -0.528595       -14.3838
  17   2.0000      -0.519483       -14.1358
  18   2.0000      -0.494354       -13.4521
  19   2.0000      -0.449558       -12.2331
  20   2.0000      -0.424358       -11.5474
  21   2.0000      -0.391758       -10.6603
  22   2.0000      -0.374238       -10.1835
  23   2.0000      -0.364730        -9.9248
  24   2.0000      -0.350499        -9.5376
  25   2.0000      -0.321065        -8.7366
  26   2.0000      -0.272710        -7.4208
  27   2.0000      -0.263127        -7.1600
  28   2.0000      -0.240281        -6.5384
  29   0.0000       0.007284         0.1982
  30   0.0000       0.025794         0.7019
  31   0.0000       0.049510         1.3472
  32   0.0000       0.061799         1.6816
  33   0.0000       0.080622         2.1938

MULLIKEN ATOMIC CHARGES
-----------------------
   0 C :   -0.135909
   1 S :    0.887358
   2 O :   -0.442861
   3 O :   -0.453754
   4 F :   -0.149351
   5 C :    0.032308
   6 H :    0.080867
   7 H :    0.053444
   8 H :    0.042949
   9 H :    0.050786
  10 H :    0.034164
Sum of atomic charges:    0.0000000

LOEWDIN ATOMIC CHARGES
----------------------
   0 C :   -0.145974
   1 S :    1.116244
   2 O :   -0.489282
   3 O :   -0.499236
   4 F :   -0.103107
   5 C :   -0.036806
   6 H :    0.039696
   7 H :    0.024619
   8 H :    0.029127
   9 H :    0.033024
  10 H :    0.031695

  Mayer bond orders larger than 0.100000
B(  0-C ,  1-S ) :   0.8857 B(  0-C ,  5-C ) :   1.0863 B(  0-C ,  6-H ) :   0.9317
B(  0-C ,  7-H ) :   0.9299 B(  1-S ,  2-O ) :   1.7494 B(  1-S ,  3-O ) :   1.7395
B(  1-S ,  4-F ) :   1.0349 B(  5-C ,  8-H ) :   0.9643 B(  5-C ,  9-H ) :   0.9700
B(  5-C , 10-H ) :   0.9556

Dispersion correction           -0.011543629
FINAL SINGLE POINT ENERGY      -727.295536541341

DIPOLE MOMENT
-------------
                                X             Y             Z
Electronic contribution:      4.25412      -5.48327      -7.33355
Nuclear contribution   :     -5.87110       5.18927       7.67759
                        -----------------------------------------
Total Dipole Moment    :     -1.61698      -0.29400       0.34405
                        -----------------------------------------
Magnitude (a.u.)       :      1.67911
Magnitude (Debye)      :      4.26797

Rotational constants in cm-1:     0.155988     0.080452     0.078187
Rotational constants in MHz :  4676.405251  2411.902056  2343.983816

                             ****ORCA TERMINATED NORMALLY****
TOTAL RUN TIME: 0 days 0 hours 0 minutes 9 seconds 633 msec
