                         Program Version 5.0.0 -  RELEASE  -
|  1> !TPSS D3BJ RIJCOSX def2-TZVP def2/J TightSCF xyzfile
|  2>
|  3> *xyzfile 0 1 D1.xyz
|  4>
|  5> %MaxCore 64000
|  6>
|  7> %pal nprocs 18
|  8> end
|  9>
| 10> %scf
| 11>   MaxIter 150
| 12> end
| 13>
| 14>
| 15>                          ****END OF INPUT****

CARTESIAN COORDINATES (ANGSTROEM)
---------------------------------
  C     -2.160376   -1.369486   -3.467104
  C     -3.030108   -1.910857   -4.541074
  C     -2.047717    0.146583   -3.511774
  C     -7.330440   -2.678991   -3.206811
  S     -6.019659   -2.926965   -4.419128
  H     -3.477443   -2.791513   -4.257096
  H     -2.538013   -2.017860   -5.438075
  H     -3.891589   -1.376039   -4.714365
  F     -5.645830   -1.588384   -4.919307
  O     -4.881961   -3.503697   -3.667235
  H     -1.184438   -1.843997   -3.566393
  H     -2.598195   -1.708376   -2.528477
  O     -6.549267   -3.805150   -5.425071
  C     -3.328755    0.875037   -3.103669
  H     -1.740034    0.452343   -4.517126
  H     -1.232611    0.434938   -2.842208
  C     -3.628487    0.771601   -1.609363
  H     -4.175106    0.490791   -3.682203
  H     -3.237812    1.928663   -3.381480
  C     -4.975718    1.361432   -1.190644
  H     -2.830700    1.276234   -1.054766
  H     -3.594312   -0.275838   -1.294603
  C     -6.184720    0.784347   -1.926464
  H     -4.956292    2.445725   -1.342200
  H     -5.097256    1.205252   -0.114136
  C     -6.286921   -0.735882   -1.893531
  H     -6.163994    1.100199   -2.974250
  H     -7.094530    1.223459   -1.504509
  C     -7.468999   -1.246153   -2.713833
  H     -6.360641   -1.090347   -0.859176
  H     -5.369848   -1.171853   -2.295982
  H     -7.601914   -0.601349   -3.585329
  H     -8.389791   -1.173436   -2.126922
  H     -7.118254   -3.379818   -2.398055
  H     -8.241838   -3.004745   -3.706513

 Total Charge           Charge          ....    0
 Multiplicity           Mult            ....    1
 Number of Electrons    NEL             ....  122
 Basis Dimension        Dim             ....  566

ORBITAL ENERGIES
----------------

  NO   OCC          E(Eh)            E(eV)
   0   2.0000     -88.585195     -2410.5257
   1   2.0000     -24.512975      -667.0319
   2   2.0000     -18.899839      -514.2908
   3   2.0000     -18.886355      -513.9238
   4   2.0000     -10.044940      -273.3367
   5   2.0000     -10.016522      -272.5634
   6   2.0000      -9.996256      -272.0120
   7   2.0000      -9.989100      -271.8172
   8   2.0000      -9.982572      -271.6396
   9   2.0000      -9.976039      -271.4618
  10   2.0000      -9.973762      -271.3999
  11   2.0000      -9.966395      -271.1994
  12   2.0000      -9.956487      -270.9298
  13   2.0000      -9.910700      -269.6839
  14   2.0000      -7.935014      -215.9227
  15   2.0000      -5.918337      -161.0461
  16   2.0000      -5.911527      -160.8608
  17   2.0000      -5.911048      -160.8478
  18   2.0000      -1.279424       -34.8149
  19   2.0000      -1.037828       -28.2407
  20   2.0000      -0.947324       -25.7780
  21   2.0000      -0.786417       -21.3995
  22   2.0000      -0.756776       -20.5929
  23   2.0000      -0.729946       -19.8628
  24   2.0000      -0.703193       -19.1349
  25   2.0000      -0.664754       -18.0889
  26   2.0000      -0.650586       -17.7033
  27   2.0000      -0.617742       -16.8096
  28   2.0000      -0.586677       -15.9643
  29   2.0000      -0.570478       -15.5235
  30   2.0000      -0.536759       -14.6060
  31   2.0000      -0.527336       -14.3495
  32   2.0000      -0.513631       -13.9766
  33   2.0000      -0.501263       -13.6401
  34   2.0000      -0.498058       -13.5528
  35   2.0000      -0.452827       -12.3221
  36   2.0000      -0.446385       -12.1468
  37   2.0000      -0.431002       -11.7282
  38   2.0000      -0.425098       -11.5675
  39   2.0000      -0.415892       -11.3170
  40   2.0000      -0.406153       -11.0520
  41   2.0000      -0.395957       -10.7745
  42   2.0000      -0.390448       -10.6246
  43   2.0000      -0.386815       -10.5258
  44   2.0000      -0.369635       -10.0583
  45   2.0000      -0.355401        -9.6710
  46   2.0000      -0.352163        -9.5828
  47   2.0000      -0.344569        -9.3762
  48   2.0000      -0.338197        -9.2028
  49   2.0000      -0.328089        -8.9277
  50   2.0000      -0.319163        -8.6849
  51   2.0000      -0.314534        -8.5589
  52   2.0000      -0.301827        -8.2131
  53   2.0000      -0.296471        -8.0674
  54   2.0000      -0.293044        -7.9741
  55   2.0000      -0.287162        -7.8141
  56   2.0000      -0.280589        -7.6352
  57   2.0000      -0.272122        -7.4048
  58   2.0000      -0.269582        -7.3357
  59   2.0000      -0.267811        -7.2875
  60   2.0000      -0.240144        -6.5346
  61   0.0000      -0.020902        -0.5688
  62   0.0000       0.017149         0.4666
  63   0.0000       0.027529         0.7491
  64   0.0000       0.030281         0.8240
  65   0.0000       0.034895         0.9495

MULLIKEN ATOMIC CHARGES
-----------------------
   0 C :   -0.143578
   1 C :   -0.415939
   2 C :   -0.055304
   3 C :   -0.201738
   4 S :    0.799633
   5 H :    0.170252
   6 H :    0.097194
   7 H :    0.081864
   8 F :   -0.099470
   9 O :   -0.416511
  10 H :    0.078685
  11 H :    0.080861
  12 O :   -0.384986
  13 C :   -0.232976
  14 H :    0.073184
  15 H :    0.065656
  16 C :   -0.233539
  17 H :    0.086758
  18 H :    0.081129
  19 C :   -0.071495
  20 H :    0.087717
  21 H :    0.105848
  22 C :   -0.198413
  23 H :    0.079470
  24 H :    0.080937
  25 C :   -0.297965
  26 H :    0.102759
  27 H :    0.088284
  28 C :   -0.162255
  29 H :    0.091521
  30 H :    0.141744
  31 H :    0.107583
  32 H :    0.110154
  33 H :    0.145979
  34 H :    0.156959
Sum of atomic charges:   -0.0000000

LOEWDIN ATOMIC CHARGES
----------------------
   0 C :   -0.293717
   1 C :   -0.331861
   2 C :   -0.261523
   3 C :   -0.353432
   4 S :    0.529235
   5 H :    0.100308
   6 H :    0.100549
   7 H :    0.089611
   8 F :    0.086276
   9 O :   -0.256665
  10 H :    0.131834
  11 H :    0.130120
  12 O :   -0.232936
  13 C :   -0.261953
  14 H :    0.132400
  15 H :    0.131039
  16 C :   -0.265252
  17 H :    0.127473
  18 H :    0.132061
  19 C :   -0.261793
  20 H :    0.134228
  21 H :    0.132192
  22 C :   -0.267479
  23 H :    0.134232
  24 H :    0.133333
  25 C :   -0.265827
  26 H :    0.133359
  27 H :    0.133981
  28 C :   -0.284244
  29 H :    0.136227
  30 H :    0.137056
  31 H :    0.138712
  32 H :    0.142504
  33 H :    0.148359
  34 H :    0.141593

  Mayer bond orders larger than 0.100000
B(  0-C ,  1-C ) :   0.9960 B(  0-C ,  2-C ) :   1.0065 B(  0-C , 10-H ) :   0.9448
B(  0-C , 11-H ) :   0.9755 B(  1-C ,  5-H ) :   0.9555 B(  1-C ,  6-H ) :   0.9443
B(  1-C ,  7-H ) :   0.9943 B(  2-C , 13-C ) :   1.0302 B(  2-C , 14-H ) :   0.9400
B(  2-C , 15-H ) :   0.9401 B(  3-C ,  4-S ) :   0.9141 B(  3-C , 28-C ) :   1.0108
B(  3-C , 33-H ) :   0.9316 B(  3-C , 34-H ) :   0.9329 B(  4-S ,  8-F ) :   1.0951
B(  4-S ,  9-O ) :   1.8162 B(  4-S , 12-O ) :   1.9829 B( 13-C , 16-C ) :   1.0285
B( 13-C , 17-H ) :   0.9621 B( 13-C , 18-H ) :   0.9388 B( 16-C , 19-C ) :   1.0081
B( 16-C , 20-H ) :   0.9383 B( 16-C , 21-H ) :   0.9640 B( 19-C , 22-C ) :   1.0233
B( 19-C , 23-H ) :   0.9441 B( 19-C , 24-H ) :   0.9476 B( 22-C , 25-C ) :   1.0051
B( 22-C , 26-H ) :   0.9589 B( 22-C , 27-H ) :   0.9407 B( 25-C , 28-C ) :   0.9880
B( 25-C , 29-H ) :   0.9402 B( 25-C , 30-H ) :   0.9763 B( 28-C , 31-H ) :   0.9563
B( 28-C , 32-H ) :   0.9295

Dispersion correction           -0.051207300
FINAL SINGLE POINT ENERGY     -1042.553349960197

DIPOLE MOMENT
-------------
                                X             Y             Z
Electronic contribution:    -10.80645     -16.25437     -13.23084
Nuclear contribution   :      9.63012      17.20461      14.03552
                        -----------------------------------------
Total Dipole Moment    :     -1.17633       0.95024       0.80468
                        -----------------------------------------
Magnitude (a.u.)       :      1.71295
Magnitude (Debye)      :      4.35398

Rotational constants in cm-1:     0.025899     0.015189     0.010690
Rotational constants in MHz :   776.424978   455.369614   320.488876

                             ****ORCA TERMINATED NORMALLY****
TOTAL RUN TIME: 0 days 0 hours 0 minutes 27 seconds 991 msec
