                         Program Version 5.0.0 -  RELEASE  -
|  1> !TPSS D3BJ RIJCOSX def2-TZVP def2/J TightSCF xyzfile
|  2>
|  3> *xyzfile 0 1 D3.xyz
|  4>
|  5> %MaxCore 64000
|  6>
|  7> %pal nprocs 18
|  8> end
|  9>
| 10> %scf
| 11>   MaxIter 150
| 12> end
| 13>
| 14>
| 15>                          ****END OF INPUT****

CARTESIAN COORDINATES (ANGSTROEM)
---------------------------------
  C     -2.160376   -1.369486   -3.467104
  C     -3.030108   -1.910857   -4.541074
  C     -2.047717    0.146583   -3.511774
  C     -7.330440   -2.678991   -3.206811
  S     -6.019659   -2.926965   -4.419128
  H     -3.477443   -2.791513   -4.257096
  H     -2.538013   -2.017860   -5.438075
  H     -3.891589   -1.376039   -4.714365
  O     -5.645830   -1.588384   -4.919307
  O     -4.881961   -3.503697   -3.667235
  H     -1.184438   -1.843997   -3.566393
  H     -2.598195   -1.708376   -2.528477
  F     -6.549267   -3.805150   -5.425071
  C     -3.328755    0.875037   -3.103669
  H     -1.740034    0.452343   -4.517126
  H     -1.232611    0.434938   -2.842208
  C     -3.628487    0.771601   -1.609363
  H     -4.175106    0.490791   -3.682203
  H     -3.237812    1.928663   -3.381480
  C     -4.975718    1.361432   -1.190644
  H     -2.830700    1.276234   -1.054766
  H     -3.594312   -0.275838   -1.294603
  C     -6.184720    0.784347   -1.926464
  H     -4.956292    2.445725   -1.342200
  H     -5.097256    1.205252   -0.114136
  C     -6.286921   -0.735882   -1.893531
  H     -6.163994    1.100199   -2.974250
  H     -7.094530    1.223459   -1.504509
  C     -7.468999   -1.246153   -2.713833
  H     -6.360641   -1.090347   -0.859176
  H     -5.369848   -1.171853   -2.295982
  H     -7.601914   -0.601349   -3.585329
  H     -8.389791   -1.173436   -2.126922
  H     -7.118254   -3.379818   -2.398055
  H     -8.241838   -3.004745   -3.706513

 Total Charge           Charge          ....    0
 Multiplicity           Mult            ....    1
 Number of Electrons    NEL             ....  122
 Basis Dimension        Dim             ....  566

ORBITAL ENERGIES
----------------

  NO   OCC          E(Eh)            E(eV)
   0   2.0000     -88.591212     -2410.6894
   1   2.0000     -24.533692      -667.5957
   2   2.0000     -18.893894      -514.1290
   3   2.0000     -18.890837      -514.0458
   4   2.0000     -10.047099      -273.3955
   5   2.0000     -10.010706      -272.4052
   6   2.0000      -9.985837      -271.7284
   7   2.0000      -9.978695      -271.5341
   8   2.0000      -9.973256      -271.3861
   9   2.0000      -9.965623      -271.1784
  10   2.0000      -9.960091      -271.0279
  11   2.0000      -9.954424      -270.8737
  12   2.0000      -9.943347      -270.5722
  13   2.0000      -9.890371      -269.1307
  14   2.0000      -7.940839      -216.0812
  15   2.0000      -5.924214      -161.2061
  16   2.0000      -5.917342      -161.0191
  17   2.0000      -5.916793      -161.0041
  18   2.0000      -1.310121       -35.6502
  19   2.0000      -1.030761       -28.0484
  20   2.0000      -0.938850       -25.5474
  21   2.0000      -0.780505       -21.2386
  22   2.0000      -0.747936       -20.3524
  23   2.0000      -0.720337       -19.6014
  24   2.0000      -0.699633       -19.0380
  25   2.0000      -0.666578       -18.1385
  26   2.0000      -0.644672       -17.5424
  27   2.0000      -0.610274       -16.6064
  28   2.0000      -0.577467       -15.7137
  29   2.0000      -0.559568       -15.2266
  30   2.0000      -0.537165       -14.6170
  31   2.0000      -0.532663       -14.4945
  32   2.0000      -0.517353       -14.0779
  33   2.0000      -0.510459       -13.8903
  34   2.0000      -0.488315       -13.2877
  35   2.0000      -0.452551       -12.3145
  36   2.0000      -0.443630       -12.0718
  37   2.0000      -0.425883       -11.5889
  38   2.0000      -0.420870       -11.4525
  39   2.0000      -0.416185       -11.3250
  40   2.0000      -0.402229       -10.9452
  41   2.0000      -0.389229       -10.5915
  42   2.0000      -0.380799       -10.3621
  43   2.0000      -0.376255       -10.2384
  44   2.0000      -0.361586        -9.8392
  45   2.0000      -0.347487        -9.4556
  46   2.0000      -0.340118        -9.2551
  47   2.0000      -0.338790        -9.2190
  48   2.0000      -0.328071        -8.9273
  49   2.0000      -0.313838        -8.5400
  50   2.0000      -0.309051        -8.4097
  51   2.0000      -0.300748        -8.1838
  52   2.0000      -0.296043        -8.0557
  53   2.0000      -0.290043        -7.8925
  54   2.0000      -0.284017        -7.7285
  55   2.0000      -0.275529        -7.4975
  56   2.0000      -0.271700        -7.3933
  57   2.0000      -0.268254        -7.2996
  58   2.0000      -0.255678        -6.9573
  59   2.0000      -0.244720        -6.6592
  60   2.0000      -0.229628        -6.2485
  61   0.0000      -0.012913        -0.3514
  62   0.0000       0.002094         0.0570
  63   0.0000       0.021800         0.5932
  64   0.0000       0.033601         0.9143
  65   0.0000       0.036869         1.0033

MULLIKEN ATOMIC CHARGES
-----------------------
   0 C :   -0.144888
   1 C :   -0.400058
   2 C :   -0.050861
   3 C :   -0.224493
   4 S :    0.797244
   5 H :    0.136905
   6 H :    0.081272
   7 H :    0.135624
   8 O :   -0.415456
   9 O :   -0.409902
  10 H :    0.069489
  11 H :    0.072881
  12 F :   -0.072782
  13 C :   -0.241526
  14 H :    0.068745
  15 H :    0.058962
  16 C :   -0.235146
  17 H :    0.122362
  18 H :    0.073213
  19 C :   -0.067857
  20 H :    0.082458
  21 H :    0.101950
  22 C :   -0.207771
  23 H :    0.075835
  24 H :    0.076119
  25 C :   -0.281236
  26 H :    0.111890
  27 H :    0.080645
  28 C :   -0.119440
  29 H :    0.083759
  30 H :    0.147283
  31 H :    0.109833
  32 H :    0.106739
  33 H :    0.142556
  34 H :    0.135651
Sum of atomic charges:    0.0000000

LOEWDIN ATOMIC CHARGES
----------------------
   0 C :   -0.297516
   1 C :   -0.330916
   2 C :   -0.262166
   3 C :   -0.364257
   4 S :    0.523945
   5 H :    0.097039
   6 H :    0.096500
   7 H :    0.099370
   8 O :   -0.248922
   9 O :   -0.254934
  10 H :    0.128345
  11 H :    0.128013
  12 F :    0.116934
  13 C :   -0.261486
  14 H :    0.131674
  15 H :    0.128639
  16 C :   -0.265957
  17 H :    0.135471
  18 H :    0.130218
  19 C :   -0.262639
  20 H :    0.132473
  21 H :    0.131274
  22 C :   -0.266291
  23 H :    0.133333
  24 H :    0.131635
  25 C :   -0.262664
  26 H :    0.136993
  27 H :    0.131756
  28 C :   -0.274082
  29 H :    0.132795
  30 H :    0.141540
  31 H :    0.144908
  32 H :    0.142252
  33 H :    0.144137
  34 H :    0.132588

  Mayer bond orders larger than 0.100000
B(  0-C ,  1-C ) :   0.9987 B(  0-C ,  2-C ) :   1.0124 B(  0-C , 10-H ) :   0.9440
B(  0-C , 11-H ) :   0.9741 B(  1-C ,  5-H ) :   0.9579 B(  1-C ,  6-H ) :   0.9478
B(  1-C ,  7-H ) :   0.9843 B(  2-C , 13-C ) :   1.0307 B(  2-C , 14-H ) :   0.9387
B(  2-C , 15-H ) :   0.9404 B(  3-C ,  4-S ) :   0.9063 B(  3-C , 28-C ) :   1.0063
B(  3-C , 33-H ) :   0.9291 B(  3-C , 34-H ) :   0.9298 B(  4-S ,  8-O ) :   1.8378
B(  4-S ,  9-O ) :   1.8383 B(  4-S , 12-F ) :   1.1680 B( 13-C , 16-C ) :   1.0318
B( 13-C , 17-H ) :   0.9590 B( 13-C , 18-H ) :   0.9373 B( 16-C , 19-C ) :   1.0093
B( 16-C , 20-H ) :   0.9385 B( 16-C , 21-H ) :   0.9635 B( 19-C , 22-C ) :   1.0243
B( 19-C , 23-H ) :   0.9433 B( 19-C , 24-H ) :   0.9475 B( 22-C , 25-C ) :   1.0202
B( 22-C , 26-H ) :   0.9588 B( 22-C , 27-H ) :   0.9399 B( 25-C , 28-C ) :   1.0159
B( 25-C , 29-H ) :   0.9413 B( 25-C , 30-H ) :   0.9659 B( 28-C , 31-H ) :   0.9419
B( 28-C , 32-H ) :   0.9264

Dispersion correction           -0.051697919
FINAL SINGLE POINT ENERGY     -1042.539798431082

DIPOLE MOMENT
-------------
                                X             Y             Z
Electronic contribution:    -12.56046     -20.27083     -14.34292
Nuclear contribution   :     10.70731      19.84772      14.63855
                        -----------------------------------------
Total Dipole Moment    :     -1.85315      -0.42311       0.29563
                        -----------------------------------------
Magnitude (a.u.)       :      1.92369
Magnitude (Debye)      :      4.88963

Rotational constants in cm-1:     0.026014     0.014812     0.010477
Rotational constants in MHz :   779.874765   444.063394   314.081855

                             ****ORCA TERMINATED NORMALLY****
TOTAL RUN TIME: 0 days 0 hours 0 minutes 23 seconds 166 msec
