                         Program Version 5.0.0 -  RELEASE  -
|  1> !wB97X-D3 RIJCOSX def2-SVPD def2/J TightSCF CPCM(Water)
|  2> *xyz -1 1
|  3> C          4.93020       -7.37532       -2.64962
|  4> C          3.84189       -6.95161       -3.63283
|  5> H          3.45814       -5.95442       -3.40712
|  6> H          2.98848       -7.64361       -3.56708
|  7> S          4.31812       -6.91593       -5.36869
|  8> O          5.40615       -5.89948       -5.51297
|  9> O          3.11191       -6.44508       -6.04379
| 10> C          6.17399       -6.48552       -2.60631
| 11> H          4.46961       -7.40617       -1.65588
| 12> H          5.23013       -8.39868       -2.88591
| 13> O          4.76340       -8.23942       -5.69863
| 14> H          6.62449       -6.45478       -3.57637
| 15> H          6.87304       -6.88376       -1.90088
| 16> H          5.89434       -5.49571       -2.31140
| 17> *
| 18>
| 19> %MaxCore 64000
| 20>
| 21> %pal nprocs 8
| 22> end
| 23>
| 24> %scf
| 25>   MaxIter 150
| 26> end
| 27>
| 28>
| 29>                          ****END OF INPUT****

CARTESIAN COORDINATES (ANGSTROEM)
---------------------------------
  C      4.930200   -7.375320   -2.649620
  C      3.841890   -6.951610   -3.632830
  H      3.458140   -5.954420   -3.407120
  H      2.988480   -7.643610   -3.567080
  S      4.318120   -6.915930   -5.368690
  O      5.406150   -5.899480   -5.512970
  O      3.111910   -6.445080   -6.043790
  C      6.173990   -6.485520   -2.606310
  H      4.469610   -7.406170   -1.655880
  H      5.230130   -8.398680   -2.885910
  O      4.763400   -8.239420   -5.698630
  H      6.624490   -6.454780   -3.576370
  H      6.873040   -6.883760   -1.900880
  H      5.894340   -5.495710   -2.311400

 Total Charge           Charge          ....   -1
 Multiplicity           Mult            ....    1
 Number of Electrons    NEL             ....   66
 Basis Dimension        Dim             ....  212

ORBITAL ENERGIES
----------------

  NO   OCC          E(Eh)            E(eV)
   0   2.0000     -89.152863     -2425.9727
   1   2.0000     -19.211484      -522.7710
   2   2.0000     -19.203744      -522.5604
   3   2.0000     -19.195723      -522.3422
   4   2.0000     -10.299992      -280.2770
   5   2.0000     -10.286371      -279.9064
   6   2.0000     -10.261658      -279.2339
   7   2.0000      -8.226940      -223.8664
   8   2.0000      -6.186820      -168.3519
   9   2.0000      -6.186737      -168.3497
  10   2.0000      -6.185077      -168.3045
  11   2.0000      -1.227327       -33.3973
  12   2.0000      -1.088741       -29.6261
  13   2.0000      -1.059716       -28.8363
  14   2.0000      -0.902030       -24.5455
  15   2.0000      -0.812995       -22.1227
  16   2.0000      -0.714168       -19.4335
  17   2.0000      -0.649322       -17.6689
  18   2.0000      -0.591061       -16.0836
  19   2.0000      -0.567589       -15.4449
  20   2.0000      -0.556751       -15.1500
  21   2.0000      -0.535168       -14.5627
  22   2.0000      -0.528847       -14.3907
  23   2.0000      -0.498908       -13.5760
  24   2.0000      -0.453427       -12.3384
  25   2.0000      -0.442867       -12.0510
  26   2.0000      -0.435091       -11.8394
  27   2.0000      -0.430539       -11.7156
  28   2.0000      -0.425897       -11.5893
  29   2.0000      -0.392325       -10.6757
  30   2.0000      -0.378061       -10.2876
  31   2.0000      -0.365953        -9.9581
  32   2.0000      -0.343833        -9.3562
  33   0.0000       0.081854         2.2274
  34   0.0000       0.099900         2.7184
  35   0.0000       0.101188         2.7535
  36   0.0000       0.103831         2.8254
  37   0.0000       0.138242         3.7618

MULLIKEN ATOMIC CHARGES
-----------------------
   0 C :   -0.308106
   1 C :   -0.063362
   2 H :    0.050862
   3 H :    0.070455
   4 S :    1.303075
   5 O :   -0.870315
   6 O :   -0.852155
   7 C :    0.743605
   8 H :   -0.057039
   9 H :   -0.023619
  10 O :   -0.804198
  11 H :   -0.146089
  12 H :   -0.035166
  13 H :   -0.007949
Sum of atomic charges:   -1.0000000

LOEWDIN ATOMIC CHARGES
----------------------
   0 C :   -0.080754
   1 C :   -0.085145
   2 H :    0.021298
   3 H :    0.027209
   4 S :    0.858687
   5 O :   -0.623229
   6 O :   -0.618386
   7 C :    0.120709
   8 H :    0.028175
   9 H :    0.020379
  10 O :   -0.593358
  11 H :   -0.050530
  12 H :   -0.015448
  13 H :   -0.009607

  Mayer bond orders larger than 0.100000
B(  0-C ,  1-C ) :   1.2427 B(  0-C ,  2-H ) :   0.1332 B(  0-C ,  3-H ) :   0.1256
B(  0-C ,  7-C ) :   1.2479 B(  0-C ,  8-H ) :   0.8937 B(  0-C ,  9-H ) :   0.9290
B(  0-C , 11-H ) :   0.2255 B(  0-C , 12-H ) :   0.1839 B(  0-C , 13-H ) :   0.2105
B(  1-C ,  2-H ) :   0.9432 B(  1-C ,  3-H ) :   0.9062 B(  1-C ,  4-S ) :   0.9483
B(  1-C ,  8-H ) :   0.1382 B(  1-C ,  9-H ) :   0.1273 B(  4-S ,  5-O ) :   1.2294
B(  4-S ,  6-O ) :   1.3424 B(  4-S , 10-O ) :   1.2949 B(  7-C , 11-H ) :   0.8307
B(  7-C , 12-H ) :   0.7853 B(  7-C , 13-H ) :   0.7488 B( 11-H , 13-H ) :   0.1163

Dispersion correction           -0.004547932
FINAL SINGLE POINT ENERGY      -742.074476342594

DIPOLE MOMENT
-------------
                                X             Y             Z
Electronic contribution:     -3.16947      -0.41502      -9.15545
Nuclear contribution   :      3.14317       0.05805      12.49367
                        -----------------------------------------
Total Dipole Moment    :     -0.02630      -0.35697       3.33822
                        -----------------------------------------
Magnitude (a.u.)       :      3.35736
Magnitude (Debye)      :      8.53372

Rotational constants in cm-1:     0.133431     0.055055     0.052069
Rotational constants in MHz :  4000.170974  1650.506165  1561.001383

                             ****ORCA TERMINATED NORMALLY****
TOTAL RUN TIME: 0 days 0 hours 0 minutes 25 seconds 489 msec
