                         Program Version 5.0.0 -  RELEASE  -
|  1> !wB97X-D3 RIJCOSX def2-SVPD def2/J TightSCF CPCM(Water)
|  2> *xyz 1 1
|  3> C          5.55821       -1.99291       -6.21505
|  4> C          4.18188       -2.58967       -6.29891
|  5> N          3.14587       -1.76843       -6.48675
|  6> N          4.01910       -3.86431       -6.22743
|  7> H          4.76849       -4.59115       -5.99077
|  8> H          3.12241       -4.33339       -6.31462
|  9> H          3.28164       -0.77779       -6.56655
| 10> H          2.21255       -2.13419       -6.56225
| 11> C          6.41926       -2.54294       -5.07763
| 12> C          5.89651       -2.16931       -3.69455
| 13> H          7.42888       -2.14367       -5.20808
| 14> H          6.50589       -3.62754       -5.17550
| 15> H          6.03683       -2.19819       -7.17685
| 16> H          5.46761       -0.90737       -6.12797
| 17> H          5.81870       -1.10488       -3.61824
| 18> H          6.57185       -2.53200       -2.94804
| 19> H          4.93221       -2.60892       -3.54698
| 20> *
| 21>
| 22> %MaxCore 64000
| 23>
| 24> %pal nprocs 8
| 25> end
| 26>
| 27> %scf
| 28>   MaxIter 150
| 29> end
| 30>
| 31>
| 32>                          ****END OF INPUT****

CARTESIAN COORDINATES (ANGSTROEM)
---------------------------------
  C      5.558210   -1.992910   -6.215050
  C      4.181880   -2.589670   -6.298910
  N      3.145870   -1.768430   -6.486750
  N      4.019100   -3.864310   -6.227430
  H      4.768490   -4.591150   -5.990770
  H      3.122410   -4.333390   -6.314620
  H      3.281640   -0.777790   -6.566550
  H      2.212550   -2.134190   -6.562250
  C      6.419260   -2.542940   -5.077630
  C      5.896510   -2.169310   -3.694550
  H      7.428880   -2.143670   -5.208080
  H      6.505890   -3.627540   -5.175500
  H      6.036830   -2.198190   -7.176850
  H      5.467610   -0.907370   -6.127970
  H      5.818700   -1.104880   -3.618240
  H      6.571850   -2.532000   -2.948040
  H      4.932210   -2.608920   -3.546980

 Total Charge           Charge          ....    1
 Multiplicity           Mult            ....    1
 Number of Electrons    NEL             ....   48
 Basis Dimension        Dim             ....  208

ORBITAL ENERGIES
----------------

  NO   OCC          E(Eh)            E(eV)
   0   2.0000     -14.504225      -394.6800
   1   2.0000     -14.494193      -394.4070
   2   2.0000     -10.437472      -284.0180
   3   2.0000     -10.318810      -280.7891
   4   2.0000     -10.300107      -280.2802
   5   2.0000     -10.274686      -279.5884
   6   2.0000      -1.131214       -30.7819
   7   2.0000      -1.029161       -28.0049
   8   2.0000      -0.924637       -25.1606
   9   2.0000      -0.839427       -22.8420
  10   2.0000      -0.769226       -20.9317
  11   2.0000      -0.722013       -19.6470
  12   2.0000      -0.693919       -18.8825
  13   2.0000      -0.664913       -18.0932
  14   2.0000      -0.613268       -16.6879
  15   2.0000      -0.590407       -16.0658
  16   2.0000      -0.565960       -15.4006
  17   2.0000      -0.523475       -14.2445
  18   2.0000      -0.519392       -14.1334
  19   2.0000      -0.503375       -13.6975
  20   2.0000      -0.448172       -12.1954
  21   2.0000      -0.443268       -12.0619
  22   2.0000      -0.440376       -11.9833
  23   2.0000      -0.403416       -10.9775
  24   0.0000       0.050320         1.3693
  25   0.0000       0.089103         2.4246
  26   0.0000       0.115980         3.1560
  27   0.0000       0.120398         3.2762
  28   0.0000       0.127902         3.4804

MULLIKEN ATOMIC CHARGES
-----------------------
   0 C :   -0.027091
   1 C :    0.841963
   2 N :   -0.070621
   3 N :   -0.065366
   4 H :    0.151279
   5 H :   -0.084255
   6 H :    0.062885
   7 H :   -0.070929
   8 C :   -0.399559
   9 C :    0.593184
  10 H :   -0.059874
  11 H :   -0.057684
  12 H :    0.009141
  13 H :    0.191287
  14 H :    0.047029
  15 H :   -0.034682
  16 H :   -0.026708
Sum of atomic charges:    1.0000000

LOEWDIN ATOMIC CHARGES
----------------------
   0 C :    0.043381
   1 C :   -0.040605
   2 N :    0.287168
   3 N :    0.269980
   4 H :    0.106036
   5 H :    0.062402
   6 H :    0.043786
   7 H :    0.048279
   8 C :   -0.060525
   9 C :    0.128665
  10 H :    0.033628
  11 H :    0.017835
  12 H :    0.054369
  13 H :    0.043022
  14 H :   -0.009176
  15 H :   -0.011348
  16 H :   -0.016899

  Mayer bond orders larger than 0.100000
B(  0-C ,  1-C ) :   1.0661 B(  0-C ,  8-C ) :   1.2312 B(  0-C , 10-H ) :   0.1236
B(  0-C , 11-H ) :   0.1393 B(  0-C , 12-H ) :   0.8933 B(  0-C , 13-H ) :   0.8140
B(  1-C ,  2-N ) :   0.9472 B(  1-C ,  3-N ) :   1.0885 B(  1-C ,  5-H ) :  -0.2301
B(  1-C ,  7-H ) :  -0.2034 B(  1-C , 12-H ) :   0.1552 B(  1-C , 13-H ) :   0.1108
B(  2-N ,  3-N ) :   0.1489 B(  2-N ,  6-H ) :   1.1090 B(  2-N ,  7-H ) :   1.3269
B(  3-N ,  4-H ) :   1.0643 B(  3-N ,  5-H ) :   1.3316 B(  4-H ,  5-H ) :  -0.1829
B(  6-H ,  7-H ) :  -0.1794 B(  8-C ,  9-C ) :   1.3123 B(  8-C , 10-H ) :   0.9785
B(  8-C , 11-H ) :   0.9410 B(  8-C , 13-H ) :   0.1258 B(  8-C , 14-H ) :   0.1997
B(  8-C , 15-H ) :   0.2012 B(  8-C , 16-H ) :   0.1980 B(  9-C , 14-H ) :   0.7867
B(  9-C , 15-H ) :   0.7967 B(  9-C , 16-H ) :   0.8495

Dispersion correction           -0.004499177
FINAL SINGLE POINT ENERGY      -268.195352974910

DIPOLE MOMENT
-------------
                                X             Y             Z
Electronic contribution:     -4.37500      -1.10344      -3.97744
Nuclear contribution   :      2.70373       0.48594       2.85544
                        -----------------------------------------
Total Dipole Moment    :     -1.67126      -0.61750      -1.12200
                        -----------------------------------------
Magnitude (a.u.)       :      2.10554
Magnitude (Debye)      :      5.35186

Rotational constants in cm-1:     0.185545     0.074107     0.068805
Rotational constants in MHz :  5562.487769  2221.680591  2062.713441

                             ****ORCA TERMINATED NORMALLY****
TOTAL RUN TIME: 0 days 0 hours 0 minutes 22 seconds 773 msec
