                         Program Version 5.0.0 -  RELEASE  -
|  1> !wB97X-D3 RIJCOSX def2-SVPD def2/J TightSCF CPCM(Water)
|  2> *xyz 0 1
|  3> C          4.93020       -7.37532       -2.64962
|  4> C          3.84189       -6.95161       -3.63283
|  5> H          3.45814       -5.95442       -3.40712
|  6> H          2.98848       -7.64361       -3.56708
|  7> S          4.31812       -6.91593       -5.36869
|  8> F          5.40615       -5.89948       -5.51297
|  9> O          3.11191       -6.44508       -6.04379
| 10> C          6.17399       -6.48552       -2.60631
| 11> H          4.46961       -7.40617       -1.65588
| 12> H          5.23013       -8.39868       -2.88591
| 13> O          4.76340       -8.23942       -5.69863
| 14> H          6.62449       -6.45478       -3.57637
| 15> H          6.87304       -6.88376       -1.90088
| 16> H          5.89434       -5.49571       -2.31140
| 17> *
| 18>
| 19> %MaxCore 64000
| 20>
| 21> %pal nprocs 8
| 22> end
| 23>
| 24> %scf
| 25>   MaxIter 150
| 26> end
| 27>
| 28>
| 29>                          ****END OF INPUT****

CARTESIAN COORDINATES (ANGSTROEM)
---------------------------------
  C      4.930200   -7.375320   -2.649620
  C      3.841890   -6.951610   -3.632830
  H      3.458140   -5.954420   -3.407120
  H      2.988480   -7.643610   -3.567080
  S      4.318120   -6.915930   -5.368690
  F      5.406150   -5.899480   -5.512970
  O      3.111910   -6.445080   -6.043790
  C      6.173990   -6.485520   -2.606310
  H      4.469610   -7.406170   -1.655880
  H      5.230130   -8.398680   -2.885910
  O      4.763400   -8.239420   -5.698630
  H      6.624490   -6.454780   -3.576370
  H      6.873040   -6.883760   -1.900880
  H      5.894340   -5.495710   -2.311400

 Total Charge           Charge          ....    0
 Multiplicity           Mult            ....    1
 Number of Electrons    NEL             ....   66
 Basis Dimension        Dim             ....  212

ORBITAL ENERGIES
----------------

  NO   OCC          E(Eh)            E(eV)
   0   2.0000     -89.238303     -2428.2977
   1   2.0000     -24.897645      -677.4994
   2   2.0000     -19.273033      -524.4459
   3   2.0000     -19.264463      -524.2127
   4   2.0000     -10.340842      -281.3886
   5   2.0000     -10.303284      -280.3666
   6   2.0000     -10.276210      -279.6299
   7   2.0000      -8.312451      -226.1933
   8   2.0000      -6.275932      -170.7768
   9   2.0000      -6.270271      -170.6227
  10   2.0000      -6.268207      -170.5666
  11   2.0000      -1.451649       -39.5014
  12   2.0000      -1.241279       -33.7769
  13   2.0000      -1.144773       -31.1508
  14   2.0000      -0.934520       -25.4296
  15   2.0000      -0.851899       -23.1814
  16   2.0000      -0.802241       -21.8301
  17   2.0000      -0.734813       -19.9953
  18   2.0000      -0.672299       -18.2942
  19   2.0000      -0.666796       -18.1444
  20   2.0000      -0.656875       -17.8745
  21   2.0000      -0.592050       -16.1105
  22   2.0000      -0.569850       -15.5064
  23   2.0000      -0.565804       -15.3963
  24   2.0000      -0.552901       -15.0452
  25   2.0000      -0.523489       -14.2448
  26   2.0000      -0.502521       -13.6743
  27   2.0000      -0.470648       -12.8070
  28   2.0000      -0.457471       -12.4484
  29   2.0000      -0.447468       -12.1762
  30   2.0000      -0.439817       -11.9680
  31   2.0000      -0.428477       -11.6595
  32   2.0000      -0.420732       -11.4487
  33   0.0000       0.069247         1.8843
  34   0.0000       0.094930         2.5832
  35   0.0000       0.097573         2.6551
  36   0.0000       0.102008         2.7758
  37   0.0000       0.114892         3.1264

MULLIKEN ATOMIC CHARGES
-----------------------
   0 C :   -0.317935
   1 C :   -0.151978
   2 H :    0.132480
   3 H :    0.148337
   4 S :    1.513111
   5 F :   -0.422140
   6 O :   -0.738555
   7 C :    0.683021
   8 H :   -0.017518
   9 H :    0.002050
  10 O :   -0.699781
  11 H :   -0.132799
  12 H :   -0.014249
  13 H :    0.015956
Sum of atomic charges:   -0.0000000

LOEWDIN ATOMIC CHARGES
----------------------
   0 C :   -0.071344
   1 C :   -0.039824
   2 H :    0.038161
   3 H :    0.052687
   4 S :    1.127990
   5 F :   -0.268677
   6 O :   -0.510648
   7 C :    0.134017
   8 H :    0.040065
   9 H :    0.028776
  10 O :   -0.488094
  11 H :   -0.032794
  12 H :   -0.006860
  13 H :   -0.003454

  Mayer bond orders larger than 0.100000
B(  0-C ,  1-C ) :   1.2688 B(  0-C ,  2-H ) :   0.1254 B(  0-C ,  3-H ) :   0.1179
B(  0-C ,  7-C ) :   1.2607 B(  0-C ,  8-H ) :   0.8959 B(  0-C ,  9-H ) :   0.9393
B(  0-C , 11-H ) :   0.2002 B(  0-C , 12-H ) :   0.1808 B(  0-C , 13-H ) :   0.1979
B(  1-C ,  2-H ) :   0.9389 B(  1-C ,  3-H ) :   0.8841 B(  1-C ,  4-S ) :   1.0093
B(  1-C ,  8-H ) :   0.1313 B(  1-C ,  9-H ) :   0.1297 B(  4-S ,  5-F ) :   0.6145
B(  4-S ,  6-O ) :   1.5185 B(  4-S , 10-O ) :   1.4970 B(  7-C , 11-H ) :   0.8405
B(  7-C , 12-H ) :   0.7964 B(  7-C , 13-H ) :   0.7714 B( 11-H , 13-H ) :   0.1075

Dispersion correction           -0.004510730
FINAL SINGLE POINT ENERGY      -766.486265323683

DIPOLE MOMENT
-------------
                                X             Y             Z
Electronic contribution:     -1.84669       1.54926     -11.27019
Nuclear contribution   :      2.27444      -1.01744      13.40618
                        -----------------------------------------
Total Dipole Moment    :      0.42774       0.53181       2.13599
                        -----------------------------------------
Magnitude (a.u.)       :      2.24237
Magnitude (Debye)      :      5.69966

Rotational constants in cm-1:     0.126966     0.054929     0.051005
Rotational constants in MHz :  3806.345018  1646.729702  1529.089209

                             ****ORCA TERMINATED NORMALLY****
TOTAL RUN TIME: 0 days 0 hours 0 minutes 24 seconds 16 msec
