                         Program Version 5.0.0 -  RELEASE  -
|  1> !wB97X-D3 RIJCOSX def2-SVPD def2/J TightSCF CPCM(Water)
|  2> *xyz 0 1
|  3> C          5.55821       -1.99291       -6.21505
|  4> C          4.18188       -2.58967       -6.29891
|  5> C          3.14587       -1.76843       -6.48675
|  6> N          4.01910       -3.86431       -6.22743
|  7> H          4.76849       -4.59115       -5.99077
|  8> H          3.12241       -4.33339       -6.31462
|  9> H          3.28164       -0.77779       -6.56655
| 10> H          2.21255       -2.13419       -6.56225
| 11> C          6.41926       -2.54294       -5.07763
| 12> C          5.89651       -2.16931       -3.69455
| 13> H          7.42888       -2.14367       -5.20808
| 14> H          6.50589       -3.62754       -5.17550
| 15> H          6.03683       -2.19819       -7.17685
| 16> H          5.46761       -0.90737       -6.12797
| 17> H          5.81870       -1.10488       -3.61824
| 18> H          6.57185       -2.53200       -2.94804
| 19> H          4.93221       -2.60892       -3.54698
| 20> *
| 21>
| 22> %MaxCore 64000
| 23>
| 24> %pal nprocs 8
| 25> end
| 26>
| 27> %scf
| 28>   MaxIter 150
| 29> end
| 30>
| 31>
| 32>                          ****END OF INPUT****

CARTESIAN COORDINATES (ANGSTROEM)
---------------------------------
  C      5.558210   -1.992910   -6.215050
  C      4.181880   -2.589670   -6.298910
  C      3.145870   -1.768430   -6.486750
  N      4.019100   -3.864310   -6.227430
  H      4.768490   -4.591150   -5.990770
  H      3.122410   -4.333390   -6.314620
  H      3.281640   -0.777790   -6.566550
  H      2.212550   -2.134190   -6.562250
  C      6.419260   -2.542940   -5.077630
  C      5.896510   -2.169310   -3.694550
  H      7.428880   -2.143670   -5.208080
  H      6.505890   -3.627540   -5.175500
  H      6.036830   -2.198190   -7.176850
  H      5.467610   -0.907370   -6.127970
  H      5.818700   -1.104880   -3.618240
  H      6.571850   -2.532000   -2.948040
  H      4.932210   -2.608920   -3.546980

 Total Charge           Charge          ....    0
 Multiplicity           Mult            ....    1
 Number of Electrons    NEL             ....   48
 Basis Dimension        Dim             ....  208

ORBITAL ENERGIES
----------------

  NO   OCC          E(Eh)            E(eV)
   0   2.0000     -14.439312      -392.9137
   1   2.0000     -10.318210      -280.7728
   2   2.0000     -10.283864      -279.8382
   3   2.0000     -10.282179      -279.7923
   4   2.0000     -10.266267      -279.3593
   5   2.0000     -10.221058      -278.1291
   6   2.0000      -1.040809       -28.3219
   7   2.0000      -0.900527       -24.5046
   8   2.0000      -0.842577       -22.9277
   9   2.0000      -0.787523       -21.4296
  10   2.0000      -0.703722       -19.1492
  11   2.0000      -0.677688       -18.4408
  12   2.0000      -0.615957       -16.7610
  13   2.0000      -0.568826       -15.4785
  14   2.0000      -0.553867       -15.0715
  15   2.0000      -0.543291       -14.7837
  16   2.0000      -0.493271       -13.4226
  17   2.0000      -0.486661       -13.2427
  18   2.0000      -0.469768       -12.7830
  19   2.0000      -0.463516       -12.6129
  20   2.0000      -0.425837       -11.5876
  21   2.0000      -0.417934       -11.3726
  22   2.0000      -0.413011       -11.2386
  23   2.0000      -0.278820        -7.5871
  24   0.0000       0.094416         2.5692
  25   0.0000       0.110408         3.0044
  26   0.0000       0.119161         3.2425
  27   0.0000       0.127016         3.4563
  28   0.0000       0.141002         3.8369

MULLIKEN ATOMIC CHARGES
-----------------------
   0 C :    0.209750
   1 C :   -0.200089
   2 C :    0.540335
   3 N :    0.053453
   4 H :    0.020723
   5 H :   -0.162420
   6 H :   -0.196289
   7 H :   -0.415294
   8 C :   -0.383333
   9 C :    0.638466
  10 H :   -0.081469
  11 H :   -0.079625
  12 H :   -0.079966
  13 H :    0.205752
  14 H :    0.024802
  15 H :   -0.033347
  16 H :   -0.061446
Sum of atomic charges:   -0.0000000

LOEWDIN ATOMIC CHARGES
----------------------
   0 C :    0.001391
   1 C :   -0.280195
   2 C :    0.150123
   3 N :    0.158905
   4 H :    0.061439
   5 H :    0.025678
   6 H :   -0.102570
   7 H :   -0.097087
   8 C :   -0.075645
   9 C :    0.119944
  10 H :    0.022825
  11 H :    0.009209
  12 H :    0.031638
  13 H :    0.027973
  14 H :   -0.013837
  15 H :   -0.016819
  16 H :   -0.022971

  Mayer bond orders larger than 0.100000
B(  0-C ,  1-C ) :   1.1230 B(  0-C ,  2-C ) :   0.1115 B(  0-C ,  6-H ) :  -0.1060
B(  0-C ,  8-C ) :   1.1982 B(  0-C , 10-H ) :   0.1471 B(  0-C , 11-H ) :   0.1563
B(  0-C , 12-H ) :   0.8408 B(  0-C , 13-H ) :   0.7761 B(  1-C ,  2-C ) :   1.6999
B(  1-C ,  3-N ) :   1.2639 B(  1-C ,  5-H ) :  -0.1136 B(  1-C ,  7-H ) :   0.2484
B(  1-C , 12-H ) :   0.2413 B(  2-C ,  3-N ) :   0.2435 B(  2-C ,  6-H ) :   1.0467
B(  2-C ,  7-H ) :   0.6376 B(  3-N ,  4-H ) :   1.1430 B(  3-N ,  5-H ) :   1.2646
B(  4-H ,  5-H ) :  -0.1693 B(  8-C ,  9-C ) :   1.2891 B(  8-C , 10-H ) :   0.9521
B(  8-C , 11-H ) :   0.9275 B(  8-C , 13-H ) :   0.1518 B(  8-C , 14-H ) :   0.2147
B(  8-C , 15-H ) :   0.2007 B(  8-C , 16-H ) :   0.2105 B(  9-C , 14-H ) :   0.7824
B(  9-C , 15-H ) :   0.7872 B(  9-C , 16-H ) :   0.8395

Dispersion correction           -0.004522724
FINAL SINGLE POINT ENERGY      -251.643772173025

DIPOLE MOMENT
-------------
                                X             Y             Z
Electronic contribution:     -1.70332      -1.76070      -2.47307
Nuclear contribution   :      2.30279       0.65856       2.66048
                        -----------------------------------------
Total Dipole Moment    :      0.59948      -1.10214       0.18740
                        -----------------------------------------
Magnitude (a.u.)       :      1.26855
Magnitude (Debye)      :      3.22439

Rotational constants in cm-1:     0.189707     0.076319     0.071159
Rotational constants in MHz :  5687.269526  2287.988194  2133.283230

                             ****ORCA TERMINATED NORMALLY****
TOTAL RUN TIME: 0 days 0 hours 0 minutes 24 seconds 643 msec
