                         Program Version 5.0.0 -  RELEASE  -
|  1> !wB97X-D3 RIJCOSX def2-SVPD def2/J TightSCF CPCM(Water)
|  2> *xyz 0 1
|  3> C          4.93020       -7.37532       -2.64962
|  4> C          3.84189       -6.95161       -3.63283
|  5> H          3.45814       -5.95442       -3.40712
|  6> H          2.98848       -7.64361       -3.56708
|  7> S          4.31812       -6.91593       -5.36869
|  8> O          5.40615       -5.89948       -5.51297
|  9> F          3.11191       -6.44508       -6.04379
| 10> C          6.17399       -6.48552       -2.60631
| 11> H          4.46961       -7.40617       -1.65588
| 12> H          5.23013       -8.39868       -2.88591
| 13> O          4.76340       -8.23942       -5.69863
| 14> H          6.62449       -6.45478       -3.57637
| 15> H          6.87304       -6.88376       -1.90088
| 16> H          5.89434       -5.49571       -2.31140
| 17> *
| 18>
| 19> %MaxCore 64000
| 20>
| 21> %pal nprocs 8
| 22> end
| 23>
| 24> %scf
| 25>   MaxIter 150
| 26> end
| 27>
| 28>
| 29>                          ****END OF INPUT****

CARTESIAN COORDINATES (ANGSTROEM)
---------------------------------
  C      4.930200   -7.375320   -2.649620
  C      3.841890   -6.951610   -3.632830
  H      3.458140   -5.954420   -3.407120
  H      2.988480   -7.643610   -3.567080
  S      4.318120   -6.915930   -5.368690
  O      5.406150   -5.899480   -5.512970
  F      3.111910   -6.445080   -6.043790
  C      6.173990   -6.485520   -2.606310
  H      4.469610   -7.406170   -1.655880
  H      5.230130   -8.398680   -2.885910
  O      4.763400   -8.239420   -5.698630
  H      6.624490   -6.454780   -3.576370
  H      6.873040   -6.883760   -1.900880
  H      5.894340   -5.495710   -2.311400

 Total Charge           Charge          ....    0
 Multiplicity           Mult            ....    1
 Number of Electrons    NEL             ....   66
 Basis Dimension        Dim             ....  212

ORBITAL ENERGIES
----------------

  NO   OCC          E(Eh)            E(eV)
   0   2.0000     -89.239670     -2428.3349
   1   2.0000     -24.909885      -677.8324
   2   2.0000     -19.272217      -524.4237
   3   2.0000     -19.256587      -523.9984
   4   2.0000     -10.340573      -281.3813
   5   2.0000     -10.305703      -280.4324
   6   2.0000     -10.271374      -279.4983
   7   2.0000      -8.313805      -226.2301
   8   2.0000      -6.277352      -170.8154
   9   2.0000      -6.271614      -170.6593
  10   2.0000      -6.269422      -170.5996
  11   2.0000      -1.476128       -40.1675
  12   2.0000      -1.234969       -33.6052
  13   2.0000      -1.126519       -30.6541
  14   2.0000      -0.933734       -25.4082
  15   2.0000      -0.860463       -23.4144
  16   2.0000      -0.804832       -21.9006
  17   2.0000      -0.734060       -19.9748
  18   2.0000      -0.684432       -18.6243
  19   2.0000      -0.670436       -18.2435
  20   2.0000      -0.664899       -18.0928
  21   2.0000      -0.593989       -16.1633
  22   2.0000      -0.579754       -15.7759
  23   2.0000      -0.554221       -15.0811
  24   2.0000      -0.546650       -14.8751
  25   2.0000      -0.520580       -14.1657
  26   2.0000      -0.496576       -13.5125
  27   2.0000      -0.466184       -12.6855
  28   2.0000      -0.458307       -12.4712
  29   2.0000      -0.445314       -12.1176
  30   2.0000      -0.439196       -11.9511
  31   2.0000      -0.414839       -11.2883
  32   2.0000      -0.414220       -11.2715
  33   0.0000       0.071499         1.9456
  34   0.0000       0.095691         2.6039
  35   0.0000       0.098543         2.6815
  36   0.0000       0.099870         2.7176
  37   0.0000       0.118057         3.2125

MULLIKEN ATOMIC CHARGES
-----------------------
   0 C :   -0.351296
   1 C :   -0.158705
   2 H :    0.131437
   3 H :    0.157203
   4 S :    1.569681
   5 O :   -0.771112
   6 F :   -0.438497
   7 C :    0.719542
   8 H :   -0.022090
   9 H :    0.003771
  10 O :   -0.692795
  11 H :   -0.136339
  12 H :   -0.019565
  13 H :    0.008766
Sum of atomic charges:    0.0000000

LOEWDIN ATOMIC CHARGES
----------------------
   0 C :   -0.059153
   1 C :   -0.046009
   2 H :    0.038127
   3 H :    0.044332
   4 S :    1.141942
   5 O :   -0.523392
   6 F :   -0.253291
   7 C :    0.131655
   8 H :    0.042483
   9 H :    0.030219
  10 O :   -0.490494
  11 H :   -0.042834
  12 H :   -0.009021
  13 H :   -0.004563

  Mayer bond orders larger than 0.100000
B(  0-C ,  1-C ) :   1.2820 B(  0-C ,  2-H ) :   0.1282 B(  0-C ,  3-H ) :   0.1309
B(  0-C ,  7-C ) :   1.2550 B(  0-C ,  8-H ) :   0.9091 B(  0-C ,  9-H ) :   0.9331
B(  0-C , 11-H ) :   0.2139 B(  0-C , 12-H ) :   0.1804 B(  0-C , 13-H ) :   0.2055
B(  1-C ,  2-H ) :   0.9283 B(  1-C ,  3-H ) :   0.8729 B(  1-C ,  4-S ) :   0.9789
B(  1-C ,  8-H ) :   0.1277 B(  1-C ,  9-H ) :   0.1251 B(  4-S ,  5-O ) :   1.4018
B(  4-S ,  6-F ) :   0.6722 B(  4-S , 10-O ) :   1.4786 B(  7-C , 11-H ) :   0.8377
B(  7-C , 12-H ) :   0.7889 B(  7-C , 13-H ) :   0.7558 B( 11-H , 13-H ) :   0.1152

Dispersion correction           -0.004531135
FINAL SINGLE POINT ENERGY      -766.475643474803

DIPOLE MOMENT
-------------
                                X             Y             Z
Electronic contribution:     -6.33757       0.47156     -12.34341
Nuclear contribution   :      4.74176      -0.43068      13.97705
                        -----------------------------------------
Total Dipole Moment    :     -1.59581       0.04088       1.63364
                        -----------------------------------------
Magnitude (a.u.)       :      2.28409
Magnitude (Debye)      :      5.80569

Rotational constants in cm-1:     0.131248     0.052952     0.050354
Rotational constants in MHz :  3934.713341  1587.473971  1509.583923

                             ****ORCA TERMINATED NORMALLY****
TOTAL RUN TIME: 0 days 0 hours 0 minutes 24 seconds 115 msec
