                         Program Version 5.0.0 -  RELEASE  -
|  1> !wB97X-D3 RIJCOSX def2-SVPD def2/J TightSCF CPCM(Water)
|  2> *xyz 0 1
|  3> C          5.55821       -1.99291       -6.21505
|  4> C          4.18188       -2.58967       -6.29891
|  5> N          3.14587       -1.76843       -6.48675
|  6> C          4.01910       -3.86431       -6.22743
|  7> H          4.76849       -4.59115       -5.99077
|  8> H          3.12241       -4.33339       -6.31462
|  9> H          3.28164       -0.77779       -6.56655
| 10> H          2.21255       -2.13419       -6.56225
| 11> C          6.41926       -2.54294       -5.07763
| 12> C          5.89651       -2.16931       -3.69455
| 13> H          7.42888       -2.14367       -5.20808
| 14> H          6.50589       -3.62754       -5.17550
| 15> H          6.03683       -2.19819       -7.17685
| 16> H          5.46761       -0.90737       -6.12797
| 17> H          5.81870       -1.10488       -3.61824
| 18> H          6.57185       -2.53200       -2.94804
| 19> H          4.93221       -2.60892       -3.54698
| 20> *
| 21>
| 22> %MaxCore 64000
| 23>
| 24> %pal nprocs 8
| 25> end
| 26>
| 27> %scf
| 28>   MaxIter 150
| 29> end
| 30>
| 31>
| 32>                          ****END OF INPUT****

CARTESIAN COORDINATES (ANGSTROEM)
---------------------------------
  C      5.558210   -1.992910   -6.215050
  C      4.181880   -2.589670   -6.298910
  N      3.145870   -1.768430   -6.486750
  C      4.019100   -3.864310   -6.227430
  H      4.768490   -4.591150   -5.990770
  H      3.122410   -4.333390   -6.314620
  H      3.281640   -0.777790   -6.566550
  H      2.212550   -2.134190   -6.562250
  C      6.419260   -2.542940   -5.077630
  C      5.896510   -2.169310   -3.694550
  H      7.428880   -2.143670   -5.208080
  H      6.505890   -3.627540   -5.175500
  H      6.036830   -2.198190   -7.176850
  H      5.467610   -0.907370   -6.127970
  H      5.818700   -1.104880   -3.618240
  H      6.571850   -2.532000   -2.948040
  H      4.932210   -2.608920   -3.546980

 Total Charge           Charge          ....    0
 Multiplicity           Mult            ....    1
 Number of Electrons    NEL             ....   48
 Basis Dimension        Dim             ....  208

ORBITAL ENERGIES
----------------

  NO   OCC          E(Eh)            E(eV)
   0   2.0000     -14.429797      -392.6547
   1   2.0000     -10.313872      -280.6547
   2   2.0000     -10.283635      -279.8319
   3   2.0000     -10.280686      -279.7517
   4   2.0000     -10.264867      -279.3212
   5   2.0000     -10.226791      -278.2851
   6   2.0000      -1.030754       -28.0482
   7   2.0000      -0.903616       -24.5886
   8   2.0000      -0.840230       -22.8638
   9   2.0000      -0.790798       -21.5187
  10   2.0000      -0.710241       -19.3266
  11   2.0000      -0.653043       -17.7702
  12   2.0000      -0.617459       -16.8019
  13   2.0000      -0.592148       -16.1132
  14   2.0000      -0.553027       -15.0486
  15   2.0000      -0.536665       -14.6034
  16   2.0000      -0.495918       -13.4946
  17   2.0000      -0.486806       -13.2467
  18   2.0000      -0.463771       -12.6198
  19   2.0000      -0.447037       -12.1645
  20   2.0000      -0.424818       -11.5599
  21   2.0000      -0.418545       -11.3892
  22   2.0000      -0.413530       -11.2527
  23   2.0000      -0.285450        -7.7675
  24   0.0000       0.096904         2.6369
  25   0.0000       0.110192         2.9985
  26   0.0000       0.121788         3.3140
  27   0.0000       0.125535         3.4160
  28   0.0000       0.141562         3.8521

MULLIKEN ATOMIC CHARGES
-----------------------
   0 C :    0.307705
   1 C :    0.184388
   2 N :    0.085105
   3 C :    0.130507
   4 H :    0.054358
   5 H :   -0.515860
   6 H :   -0.097105
   7 H :   -0.126665
   8 C :   -0.396449
   9 C :    0.633426
  10 H :   -0.082957
  11 H :   -0.056589
  12 H :   -0.077547
  13 H :    0.018446
  14 H :    0.037760
  15 H :   -0.064452
  16 H :   -0.034073
Sum of atomic charges:   -0.0000000

LOEWDIN ATOMIC CHARGES
----------------------
   0 C :    0.002115
   1 C :   -0.265223
   2 N :    0.179916
   3 C :    0.130540
   4 H :   -0.048836
   5 H :   -0.086404
   6 H :    0.000531
   7 H :    0.012339
   8 C :   -0.073426
   9 C :    0.120006
  10 H :    0.022444
  11 H :    0.007817
  12 H :    0.031860
  13 H :    0.023022
  14 H :   -0.014828
  15 H :   -0.017455
  16 H :   -0.024418

  Mayer bond orders larger than 0.100000
B(  0-C ,  1-C ) :   0.9575 B(  0-C ,  8-C ) :   1.2154 B(  0-C , 10-H ) :   0.1213
B(  0-C , 11-H ) :   0.1507 B(  0-C , 12-H ) :   0.8862 B(  0-C , 13-H ) :   0.7474
B(  1-C ,  2-N ) :   1.0296 B(  1-C ,  3-C ) :   1.6990 B(  1-C ,  5-H ) :   0.1142
B(  1-C ,  7-H ) :  -0.1312 B(  1-C , 12-H ) :   0.1502 B(  1-C , 13-H ) :   0.1424
B(  2-N ,  3-C ) :   0.2848 B(  2-N ,  6-H ) :   1.1269 B(  2-N ,  7-H ) :   1.2848
B(  3-C ,  4-H ) :   0.8178 B(  3-C ,  5-H ) :   0.8551 B(  4-H ,  5-H ) :  -0.1043
B(  6-H ,  7-H ) :  -0.1585 B(  8-C ,  9-C ) :   1.3085 B(  8-C , 10-H ) :   0.9524
B(  8-C , 11-H ) :   0.9076 B(  8-C , 12-H ) :   0.1150 B(  8-C , 13-H ) :   0.1477
B(  8-C , 14-H ) :   0.2143 B(  8-C , 15-H ) :   0.2064 B(  8-C , 16-H ) :   0.2097
B(  9-C , 14-H ) :   0.7888 B(  9-C , 15-H ) :   0.8016 B(  9-C , 16-H ) :   0.8387

Dispersion correction           -0.004481361
FINAL SINGLE POINT ENERGY      -251.652003879829

DIPOLE MOMENT
-------------
                                X             Y             Z
Electronic contribution:     -2.71416       0.71060      -2.80292
Nuclear contribution   :      2.50934       0.16282       2.72182
                        -----------------------------------------
Total Dipole Moment    :     -0.20482       0.87342      -0.08110
                        -----------------------------------------
Magnitude (a.u.)       :      0.90077
Magnitude (Debye)      :      2.28958

Rotational constants in cm-1:     0.192764     0.074934     0.070466
Rotational constants in MHz :  5778.908020  2246.454937  2112.518546

                             ****ORCA TERMINATED NORMALLY****
TOTAL RUN TIME: 0 days 0 hours 0 minutes 23 seconds 316 msec
