                         Program Version 5.0.0 -  RELEASE  -
|  1> !wB97X-D3 RIJCOSX def2-SVPD def2/J TightSCF CPCM(Water)
|  2> *xyz 0 1
|  3> C          4.93020       -7.37532       -2.64962
|  4> C          3.84189       -6.95161       -3.63283
|  5> H          3.45814       -5.95442       -3.40712
|  6> H          2.98848       -7.64361       -3.56708
|  7> S          4.31812       -6.91593       -5.36869
|  8> O          5.40615       -5.89948       -5.51297
|  9> O          3.11191       -6.44508       -6.04379
| 10> C          6.17399       -6.48552       -2.60631
| 11> H          4.46961       -7.40617       -1.65588
| 12> H          5.23013       -8.39868       -2.88591
| 13> F          4.76340       -8.23942       -5.69863
| 14> H          6.62449       -6.45478       -3.57637
| 15> H          6.87304       -6.88376       -1.90088
| 16> H          5.89434       -5.49571       -2.31140
| 17> *
| 18>
| 19> %MaxCore 64000
| 20>
| 21> %pal nprocs 8
| 22> end
| 23>
| 24> %scf
| 25>   MaxIter 150
| 26> end
| 27>
| 28>
| 29>                          ****END OF INPUT****

CARTESIAN COORDINATES (ANGSTROEM)
---------------------------------
  C      4.930200   -7.375320   -2.649620
  C      3.841890   -6.951610   -3.632830
  H      3.458140   -5.954420   -3.407120
  H      2.988480   -7.643610   -3.567080
  S      4.318120   -6.915930   -5.368690
  O      5.406150   -5.899480   -5.512970
  O      3.111910   -6.445080   -6.043790
  C      6.173990   -6.485520   -2.606310
  H      4.469610   -7.406170   -1.655880
  H      5.230130   -8.398680   -2.885910
  F      4.763400   -8.239420   -5.698630
  H      6.624490   -6.454780   -3.576370
  H      6.873040   -6.883760   -1.900880
  H      5.894340   -5.495710   -2.311400

 Total Charge           Charge          ....    0
 Multiplicity           Mult            ....    1
 Number of Electrons    NEL             ....   66
 Basis Dimension        Dim             ....  212

ORBITAL ENERGIES
----------------

  NO   OCC          E(Eh)            E(eV)
   0   2.0000     -89.241762     -2428.3918
   1   2.0000     -24.922635      -678.1794
   2   2.0000     -19.264475      -524.2130
   3   2.0000     -19.257085      -524.0119
   4   2.0000     -10.341614      -281.4096
   5   2.0000     -10.303104      -280.3617
   6   2.0000     -10.270949      -279.4867
   7   2.0000      -8.315870      -226.2863
   8   2.0000      -6.279663      -170.8783
   9   2.0000      -6.273502      -170.7107
  10   2.0000      -6.271321      -170.6513
  11   2.0000      -1.497813       -40.7576
  12   2.0000      -1.224753       -33.3272
  13   2.0000      -1.119366       -30.4595
  14   2.0000      -0.935223       -25.4487
  15   2.0000      -0.859299       -23.3827
  16   2.0000      -0.814802       -22.1719
  17   2.0000      -0.735609       -20.0169
  18   2.0000      -0.700107       -19.0509
  19   2.0000      -0.693015       -18.8579
  20   2.0000      -0.654538       -17.8109
  21   2.0000      -0.585188       -15.9238
  22   2.0000      -0.579351       -15.7649
  23   2.0000      -0.555260       -15.1094
  24   2.0000      -0.546162       -14.8618
  25   2.0000      -0.519965       -14.1490
  26   2.0000      -0.491778       -13.3820
  27   2.0000      -0.471753       -12.8371
  28   2.0000      -0.459993       -12.5170
  29   2.0000      -0.439130       -11.9493
  30   2.0000      -0.433102       -11.7853
  31   2.0000      -0.416396       -11.3307
  32   2.0000      -0.405259       -11.0277
  33   0.0000       0.069323         1.8864
  34   0.0000       0.095885         2.6092
  35   0.0000       0.098570         2.6822
  36   0.0000       0.098762         2.6875
  37   0.0000       0.123031         3.3478

MULLIKEN ATOMIC CHARGES
-----------------------
   0 C :   -0.336292
   1 C :   -0.153961
   2 H :    0.124427
   3 H :    0.142318
   4 S :    1.541024
   5 O :   -0.757855
   6 O :   -0.727265
   7 C :    0.727925
   8 H :   -0.025827
   9 H :    0.007358
  10 F :   -0.392113
  11 H :   -0.137688
  12 H :   -0.020376
  13 H :    0.008326
Sum of atomic charges:    0.0000000

LOEWDIN ATOMIC CHARGES
----------------------
   0 C :   -0.068891
   1 C :   -0.038541
   2 H :    0.046270
   3 H :    0.044424
   4 S :    1.142644
   5 O :   -0.519775
   6 O :   -0.512137
   7 C :    0.129143
   8 H :    0.039330
   9 H :    0.031141
  10 F :   -0.233982
  11 H :   -0.045458
  12 H :   -0.009634
  13 H :   -0.004534

  Mayer bond orders larger than 0.100000
B(  0-C ,  1-C ) :   1.2515 B(  0-C ,  2-H ) :   0.1224 B(  0-C ,  3-H ) :   0.1196
B(  0-C ,  7-C ) :   1.2613 B(  0-C ,  8-H ) :   0.9043 B(  0-C ,  9-H ) :   0.9275
B(  0-C , 11-H ) :   0.2207 B(  0-C , 12-H ) :   0.1796 B(  0-C , 13-H ) :   0.2061
B(  1-C ,  2-H ) :   0.9424 B(  1-C ,  3-H ) :   0.8965 B(  1-C ,  4-S ) :   1.0000
B(  1-C ,  8-H ) :   0.1257 B(  1-C ,  9-H ) :   0.1267 B(  4-S ,  5-O ) :   1.4294
B(  4-S ,  6-O ) :   1.5235 B(  4-S , 10-F ) :   0.6723 B(  7-C , 11-H ) :   0.8309
B(  7-C , 12-H ) :   0.7926 B(  7-C , 13-H ) :   0.7585 B( 11-H , 13-H ) :   0.1164

Dispersion correction           -0.004476074
FINAL SINGLE POINT ENERGY      -766.464858131245

DIPOLE MOMENT
-------------
                                X             Y             Z
Electronic contribution:     -3.11946      -3.00664     -11.66707
Nuclear contribution   :      2.96568       1.49902      13.60585
                        -----------------------------------------
Total Dipole Moment    :     -0.15378      -1.50762       1.93878
                        -----------------------------------------
Magnitude (a.u.)       :      2.46078
Magnitude (Debye)      :      6.25480

Rotational constants in cm-1:     0.127173     0.053596     0.051689
Rotational constants in MHz :  3812.547794  1606.772866  1549.597841

                             ****ORCA TERMINATED NORMALLY****
TOTAL RUN TIME: 0 days 0 hours 0 minutes 23 seconds 923 msec
