                         Program Version 5.0.0 -  RELEASE  -
|  1> !wB97X-D3 RIJCOSX def2-SVPD def2/J TightSCF CPCM(Water) xyzfile
|  2>
|  3> *xyzfile 0 1 D1.xyz
|  4>
|  5> %MaxCore 64000
|  6>
|  7> %pal nprocs 18
|  8> end
|  9>
| 10> %scf
| 11>   MaxIter 150
| 12> end
| 13>
| 14>
| 15>                          ****END OF INPUT****

CARTESIAN COORDINATES (ANGSTROEM)
---------------------------------
  C      5.558206   -1.992914   -6.215054
  C      4.930199   -7.375319   -2.649623
  C      3.841892   -6.951611   -3.632829
  H      3.458144   -5.954425   -3.407121
  H      2.988484   -7.643606   -3.567078
  S      4.318115   -6.915930   -5.368692
  C      4.181880   -2.589671   -6.298911
  C      3.145873   -1.768431   -6.486753
  N      4.019102   -3.864307   -6.227427
  H      4.768490   -4.591153   -5.990773
  H      3.122405   -4.333392   -6.314620
  H      3.281635   -0.777786   -6.566549
  H      2.212549   -2.134193   -6.562246
  F      5.406154   -5.899480   -5.512972
  O      3.111910   -6.445079   -6.043792
  C      6.419260   -2.542944   -5.077630
  C      5.872267   -5.002756   -2.427819
  C      6.173994   -6.485522   -2.606315
  H      6.734852   -6.613767   -3.534015
  H      6.821463   -6.831018   -1.793617
  H      4.469612   -7.406168   -1.655876
  H      5.230134   -8.398678   -2.885906
  C      5.896512   -2.169314   -3.694552
  H      7.428880   -2.143665   -5.208078
  H      6.505894   -3.627541   -5.175502
  C      6.807804   -2.623428   -2.551019
  H      4.894708   -2.589732   -3.557501
  H      5.778823   -1.081255   -3.635790
  C      7.111544   -4.122463   -2.520363
  H      7.751615   -2.071393   -2.614406
  H      6.345837   -2.326401   -1.604086
  H      5.362882   -4.828697   -1.471335
  H      5.174429   -4.702577   -3.211298
  H      7.778329   -4.329347   -1.677651
  H      7.673189   -4.402845   -3.417586
  O      4.763396   -8.239424   -5.698629
  H      6.036826   -2.198189   -7.176852
  H      5.467610   -0.907371   -6.127968

 Total Charge           Charge          ....    0
 Multiplicity           Mult            ....    1
 Number of Electrons    NEL             ....  136
 Basis Dimension        Dim             ....  512

ORBITAL ENERGIES
----------------

  NO   OCC          E(Eh)            E(eV)
   0   2.0000     -89.249263     -2428.5959
   1   2.0000     -24.920583      -678.1235
   2   2.0000     -19.280648      -524.6531
   3   2.0000     -19.273602      -524.4614
   4   2.0000     -14.425788      -392.5457
   5   2.0000     -10.345107      -281.5047
   6   2.0000     -10.313787      -280.6524
   7   2.0000     -10.303775      -280.3800
   8   2.0000     -10.287361      -279.9333
   9   2.0000     -10.282752      -279.8079
  10   2.0000     -10.280704      -279.7522
  11   2.0000     -10.280150      -279.7371
  12   2.0000     -10.277193      -279.6566
  13   2.0000     -10.276997      -279.6513
  14   2.0000     -10.276472      -279.6370
  15   2.0000     -10.218341      -278.0552
  16   2.0000      -8.322520      -226.4673
  17   2.0000      -6.286439      -171.0627
  18   2.0000      -6.280188      -170.8926
  19   2.0000      -6.278043      -170.8342
  20   2.0000      -1.477805       -40.2131
  21   2.0000      -1.251198       -34.0468
  22   2.0000      -1.154138       -31.4057
  23   2.0000      -1.036486       -28.2042
  24   2.0000      -0.947088       -25.7716
  25   2.0000      -0.920786       -25.0559
  26   2.0000      -0.894237       -24.3334
  27   2.0000      -0.862564       -23.4716
  28   2.0000      -0.847150       -23.0521
  29   2.0000      -0.817926       -22.2569
  30   2.0000      -0.798882       -21.7387
  31   2.0000      -0.759042       -20.6546
  32   2.0000      -0.724426       -19.7126
  33   2.0000      -0.718421       -19.5492
  34   2.0000      -0.706452       -19.2235
  35   2.0000      -0.684549       -18.6275
  36   2.0000      -0.673751       -18.3337
  37   2.0000      -0.657208       -17.8835
  38   2.0000      -0.654477       -17.8092
  39   2.0000      -0.607844       -16.5403
  40   2.0000      -0.598679       -16.2909
  41   2.0000      -0.585792       -15.9402
  42   2.0000      -0.578200       -15.7336
  43   2.0000      -0.570991       -15.5375
  44   2.0000      -0.567066       -15.4306
  45   2.0000      -0.558211       -15.1897
  46   2.0000      -0.549324       -14.9479
  47   2.0000      -0.529877       -14.4187
  48   2.0000      -0.519685       -14.1413
  49   2.0000      -0.513837       -13.9822
  50   2.0000      -0.502940       -13.6857
  51   2.0000      -0.494875       -13.4662
  52   2.0000      -0.482599       -13.1322
  53   2.0000      -0.479603       -13.0507
  54   2.0000      -0.466820       -12.7028
  55   2.0000      -0.461153       -12.5486
  56   2.0000      -0.454458       -12.3664
  57   2.0000      -0.447113       -12.1666
  58   2.0000      -0.443090       -12.0571
  59   2.0000      -0.436443       -11.8762
  60   2.0000      -0.426985       -11.6189
  61   2.0000      -0.424000       -11.5376
  62   2.0000      -0.419051       -11.4030
  63   2.0000      -0.415502       -11.3064
  64   2.0000      -0.400346       -10.8940
  65   2.0000      -0.396967       -10.8020
  66   2.0000      -0.395887       -10.7726
  67   2.0000      -0.275705        -7.5023
  68   0.0000       0.065857         1.7921
  69   0.0000       0.087794         2.3890
  70   0.0000       0.090762         2.4698
  71   0.0000       0.099547         2.7088
  72   0.0000       0.103028         2.8035

MULLIKEN ATOMIC CHARGES
-----------------------
   0 C :    0.698936
   1 C :    0.414888
   2 C :   -0.135909
   3 H :    0.331857
   4 H :   -0.114654
   5 S :    1.510059
   6 C :   -0.480374
   7 C :    0.398292
   8 N :    0.931876
   9 H :   -0.312409
  10 H :   -0.242343
  11 H :   -0.269827
  12 H :   -0.308108
  13 F :   -0.649155
  14 O :   -0.749782
  15 C :    0.265197
  16 C :   -0.019806
  17 C :    0.115995
  18 H :    0.056343
  19 H :   -0.258424
  20 H :    0.138737
  21 H :    0.026626
  22 C :   -0.124412
  23 H :   -0.121289
  24 H :   -0.543344
  25 C :    0.565420
  26 H :    0.135676
  27 H :   -0.285965
  28 C :    0.064225
  29 H :    0.057823
  30 H :   -0.030411
  31 H :    0.037489
  32 H :   -0.347256
  33 H :   -0.282378
  34 H :    0.107506
  35 O :   -0.769534
  36 H :   -0.092097
  37 H :    0.280531
Sum of atomic charges:   -0.0000000

LOEWDIN ATOMIC CHARGES
----------------------
   0 C :    0.014500
   1 C :   -0.022750
   2 C :   -0.022299
   3 H :    0.029478
   4 H :    0.055707
   5 S :    1.152046
   6 C :   -0.263452
   7 C :    0.150481
   8 N :    0.189244
   9 H :   -0.057872
  10 H :   -0.015965
  11 H :   -0.104788
  12 H :   -0.097342
  13 F :   -0.261402
  14 O :   -0.476219
  15 C :   -0.024878
  16 C :   -0.032658
  17 C :   -0.028894
  18 H :    0.017358
  19 H :    0.036114
  20 H :    0.046173
  21 H :    0.032214
  22 C :   -0.034479
  23 H :    0.032852
  24 H :   -0.005831
  25 C :   -0.032906
  26 H :    0.012075
  27 H :    0.026823
  28 C :   -0.034416
  29 H :    0.024076
  30 H :    0.023863
  31 H :    0.044555
  32 H :   -0.014481
  33 H :    0.026874
  34 H :    0.018723
  35 O :   -0.463713
  36 H :    0.033550
  37 H :    0.027638

  Mayer bond orders larger than 0.100000
B(  0-C ,  6-C ) :   1.0211 B(  0-C ,  8-N ) :   0.1574 B(  0-C , 15-C ) :   1.1734
B(  0-C , 24-H ) :   0.1398 B(  0-C , 36-H ) :   0.5475 B(  0-C , 37-H ) :   0.6678
B(  1-C ,  2-C ) :   1.2629 B(  1-C ,  4-H ) :   0.1526 B(  1-C , 17-C ) :   1.2312
B(  1-C , 20-H ) :   0.7244 B(  1-C , 21-H ) :   0.7027 B(  2-C ,  3-H ) :   0.7961
B(  2-C ,  4-H ) :   0.8857 B(  2-C ,  5-S ) :   1.0401 B(  2-C , 20-H ) :   0.1585
B(  2-C , 21-H ) :   0.1160 B(  4-H ,  5-S ) :   0.1214 B(  5-S , 13-F ) :   0.5572
B(  5-S , 14-O ) :   1.4748 B(  5-S , 35-O ) :   1.4869 B(  6-C ,  7-C ) :   1.7927
B(  6-C ,  8-N ) :   1.3505 B(  6-C , 10-H ) :  -0.1860 B(  6-C , 11-H ) :   0.1347
B(  6-C , 12-H ) :   0.2864 B(  6-C , 24-H ) :  -0.1110 B(  6-C , 36-H ) :   0.2787
B(  6-C , 37-H ) :   0.1112 B(  7-C ,  8-N ) :   0.1446 B(  7-C , 10-H ) :  -0.1070
B(  7-C , 11-H ) :   0.8795 B(  7-C , 12-H ) :   0.6525 B(  8-N ,  9-H ) :   0.6649
B(  8-N , 10-H ) :   0.9627 B(  8-N , 13-F ) :  -0.1537 B(  9-H , 10-H ) :  -0.1767
B(  9-H , 13-F ) :   0.1609 B( 10-H , 14-O ) :   0.1548 B( 13-F , 14-O ) :   0.1085
B( 13-F , 24-H ) :   0.1450 B( 15-C , 22-C ) :   1.1864 B( 15-C , 23-H ) :   0.8077
B( 15-C , 24-H ) :   0.6918 B( 15-C , 26-H ) :   0.1096 B( 15-C , 27-H ) :   0.1869
B( 15-C , 36-H ) :   0.2332 B( 15-C , 37-H ) :   0.1363 B( 16-C , 17-C ) :   1.1953
B( 16-C , 18-H ) :   0.1142 B( 16-C , 19-H ) :   0.1760 B( 16-C , 28-C ) :   1.2119
B( 16-C , 31-H ) :   0.7995 B( 16-C , 32-H ) :   1.0089 B( 16-C , 33-H ) :   0.1940
B( 16-C , 34-H ) :   0.1224 B( 17-C , 18-H ) :   0.8681 B( 17-C , 19-H ) :   0.9307
B( 17-C , 20-H ) :   0.1010 B( 17-C , 21-H ) :   0.2375 B( 17-C , 28-C ) :   0.1064
B( 22-C , 23-H ) :   0.1453 B( 22-C , 24-H ) :   0.1860 B( 22-C , 25-C ) :   1.0956
B( 22-C , 26-H ) :   0.8373 B( 22-C , 27-H ) :   1.0580 B( 22-C , 29-H ) :   0.1362
B( 22-C , 30-H ) :   0.2123 B( 25-C , 28-C ) :   1.1359 B( 25-C , 29-H ) :   0.7070
B( 25-C , 30-H ) :   0.7373 B( 26-H , 32-H ) :   0.1475 B( 28-C , 29-H ) :   0.2041
B( 28-C , 30-H ) :   0.1259 B( 28-C , 31-H ) :   0.1013 B( 28-C , 33-H ) :   1.0042
B( 28-C , 34-H ) :   0.8248 B( 31-H , 32-H ) :   0.1124

Dispersion correction           -0.020748681
FINAL SINGLE POINT ENERGY     -1134.759852090319

DIPOLE MOMENT
-------------
                                X             Y             Z
Electronic contribution:     -6.71131     -19.00545     -12.62641
Nuclear contribution   :      7.78491      18.17172      15.09294
                        -----------------------------------------
Total Dipole Moment    :      1.07360      -0.83373       2.46652
                        -----------------------------------------
Magnitude (a.u.)       :      2.81629
Magnitude (Debye)      :      7.15843

Rotational constants in cm-1:     0.018190     0.012573     0.008405
Rotational constants in MHz :   545.327178   376.916509   251.974803

                             ****ORCA TERMINATED NORMALLY****
TOTAL RUN TIME: 0 days 0 hours 1 minutes 50 seconds 936 msec
