                         Program Version 5.0.0 -  RELEASE  -
|  1> !wB97X-D3 RIJCOSX def2-TZVPD def2/J TightSCF
|  2> *xyz -1 1
|  3> C          3.34350        3.35457       -3.59200
|  4> C          2.95263        1.86308       -3.57485
|  5> C          4.12921        0.89839       -3.41895
|  6> H          3.73369       -0.10060       -3.23763
|  7> H          4.71910        0.86256       -4.33901
|  8> C          5.01734        1.31521       -2.22130
|  9> H          2.27894        1.73525       -2.72550
| 10> H          2.37747        1.62579       -4.47587
| 11> O          4.73706        0.85411       -1.12283
| 12> O          5.92815        2.16811       -2.49136
| 13> H          4.00801        3.53975       -4.40994
| 14> H          3.83025        3.60631       -2.67298
| 15> H          2.46347        3.95263       -3.70497
| 16> *
| 17> %MaxCore 64000
| 18>
| 19> %pal nprocs 18
| 20> end
| 21>
| 22> %scf
| 23>   MaxIter 150
| 24> end
| 25>
| 26>
| 27>                          ****END OF INPUT****

CARTESIAN COORDINATES (ANGSTROEM)
---------------------------------
  C      3.343500    3.354570   -3.592000
  C      2.952630    1.863080   -3.574850
  C      4.129210    0.898390   -3.418950
  H      3.733690   -0.100600   -3.237630
  H      4.719100    0.862560   -4.339010
  C      5.017340    1.315210   -2.221300
  H      2.278940    1.735250   -2.725500
  H      2.377470    1.625790   -4.475870
  O      4.737060    0.854110   -1.122830
  O      5.928150    2.168110   -2.491360
  H      4.008010    3.539750   -4.409940
  H      3.830250    3.606310   -2.672980
  H      2.463470    3.952630   -3.704970

 Total Charge           Charge          ....   -1
 Multiplicity           Mult            ....    1
 Number of Electrons    NEL             ....   48
 Basis Dimension        Dim             ....  291

ORBITAL ENERGIES
----------------

  NO   OCC          E(Eh)            E(eV)
   0   2.0000     -18.973097      -516.2842
   1   2.0000     -18.961928      -515.9803
   2   2.0000     -10.160954      -276.4936
   3   2.0000     -10.127412      -275.5809
   4   2.0000     -10.110103      -275.1099
   5   2.0000     -10.099334      -274.8168
   6   2.0000      -0.944892       -25.7118
   7   2.0000      -0.846088       -23.0232
   8   2.0000      -0.750132       -20.4121
   9   2.0000      -0.651056       -17.7161
  10   2.0000      -0.551084       -14.9958
  11   2.0000      -0.432970       -11.7817
  12   2.0000      -0.397708       -10.8222
  13   2.0000      -0.391771       -10.6606
  14   2.0000      -0.349418        -9.5082
  15   2.0000      -0.334868        -9.1122
  16   2.0000      -0.308001        -8.3811
  17   2.0000      -0.299710        -8.1555
  18   2.0000      -0.294301        -8.0083
  19   2.0000      -0.267874        -7.2892
  20   2.0000      -0.262647        -7.1470
  21   2.0000      -0.144711        -3.9378
  22   2.0000      -0.135795        -3.6952
  23   2.0000      -0.126497        -3.4422
  24   0.0000       0.186137         5.0650
  25   0.0000       0.203042         5.5251
  26   0.0000       0.210993         5.7414
  27   0.0000       0.218445         5.9442
  28   0.0000       0.240932         6.5561

MULLIKEN ATOMIC CHARGES
-----------------------
   0 C :   -1.149883
   1 C :   -0.389524
   2 C :   -0.167552
   3 H :    0.197913
   4 H :    0.260079
   5 C :    0.358261
   6 H :    0.259491
   7 H :    0.216677
   8 O :   -0.741901
   9 O :   -0.763290
  10 H :    0.285423
  11 H :    0.322405
  12 H :    0.311900
Sum of atomic charges:   -1.0000000

LOEWDIN ATOMIC CHARGES
----------------------
   0 C :   -0.123766
   1 C :   -0.271868
   2 C :   -0.170701
   3 H :    0.089528
   4 H :    0.096064
   5 C :   -0.772079
   6 H :    0.097475
   7 H :    0.086499
   8 O :   -0.068406
   9 O :   -0.131140
  10 H :    0.061932
  11 H :    0.060205
  12 H :    0.046256

  Mayer bond orders larger than 0.100000
B(  0-C ,  1-C ) :   0.7437 B(  0-C , 10-H ) :   0.9603 B(  0-C , 11-H ) :   0.9596
B(  0-C , 12-H ) :   0.9424 B(  1-C ,  2-C ) :   0.8024 B(  1-C ,  5-C ) :   0.2474
B(  1-C ,  6-H ) :   0.9337 B(  1-C ,  7-H ) :   0.9687 B(  2-C ,  3-H ) :   0.9969
B(  2-C ,  4-H ) :   0.9359 B(  2-C ,  5-C ) :   0.7867 B(  5-C ,  8-O ) :   1.4862
B(  5-C ,  9-O ) :   1.4340

Dispersion correction           -0.003467761
FINAL SINGLE POINT ENERGY      -307.187869835875

DIPOLE MOMENT
-------------
                                X             Y             Z
Electronic contribution:      4.93368      -2.55366       4.46802
Nuclear contribution   :     -6.63819       2.74067      -6.05656
                        -----------------------------------------
Total Dipole Moment    :     -1.70451       0.18701      -1.58854
                        -----------------------------------------
Magnitude (a.u.)       :      2.33747
Magnitude (Debye)      :      5.94139

Rotational constants in cm-1:     0.190880     0.089683     0.076466
Rotational constants in MHz :  5722.446013  2688.617255  2292.390699

                             ****ORCA TERMINATED NORMALLY****
TOTAL RUN TIME: 0 days 0 hours 0 minutes 28 seconds 389 msec
