                         Program Version 5.0.0 -  RELEASE  -
|  1> !wB97X-D3 RIJCOSX def2-TZVPD def2/J TightSCF
|  2> *xyz 1 1
|  3> C          3.34350        3.35457       -3.59200
|  4> C          2.95263        1.86308       -3.57485
|  5> C          4.12921        0.89839       -3.41895
|  6> C          4.25587        3.70385       -4.72605
|  7> N          3.73403        4.29378       -5.80077
|  8> N          5.51504        3.40725       -4.63718
|  9> H          6.14919        3.60120       -5.39905
| 10> H          5.81358        2.89950       -3.80879
| 11> H          2.74138        4.51311       -5.82470
| 12> H          4.28755        4.52126       -6.61434
| 13> H          2.27894        1.73525       -2.72550
| 14> H          2.37747        1.62579       -4.47587
| 15> H          3.86125        3.59725       -2.66298
| 16> H          2.44649        3.97346       -3.65656
| 17> H          4.79753        1.01430       -4.24649
| 18> H          3.76482       -0.10731       -3.39293
| 19> H          4.64840        1.11330       -2.50837
| 20> *
| 21> %MaxCore 64000
| 22>
| 23> %pal nprocs 18
| 24> end
| 25>
| 26> %scf
| 27>   MaxIter 150
| 28> end
| 29>
| 30>
| 31>                          ****END OF INPUT****

CARTESIAN COORDINATES (ANGSTROEM)
---------------------------------
  C      3.343500    3.354570   -3.592000
  C      2.952630    1.863080   -3.574850
  C      4.129210    0.898390   -3.418950
  C      4.255870    3.703850   -4.726050
  N      3.734030    4.293780   -5.800770
  N      5.515040    3.407250   -4.637180
  H      6.149190    3.601200   -5.399050
  H      5.813580    2.899500   -3.808790
  H      2.741380    4.513110   -5.824700
  H      4.287550    4.521260   -6.614340
  H      2.278940    1.735250   -2.725500
  H      2.377470    1.625790   -4.475870
  H      3.861250    3.597250   -2.662980
  H      2.446490    3.973460   -3.656560
  H      4.797530    1.014300   -4.246490
  H      3.764820   -0.107310   -3.392930
  H      4.648400    1.113300   -2.508370

 Total Charge           Charge          ....    1
 Multiplicity           Mult            ....    1
 Number of Electrons    NEL             ....   48
 Basis Dimension        Dim             ....  321

ORBITAL ENERGIES
----------------

  NO   OCC          E(Eh)            E(eV)
   0   2.0000     -14.664671      -399.0460
   1   2.0000     -14.660792      -398.9404
   2   2.0000     -10.595658      -288.3225
   3   2.0000     -10.468528      -284.8631
   4   2.0000     -10.436751      -283.9984
   5   2.0000     -10.404252      -283.1141
   6   2.0000      -1.318999       -35.8918
   7   2.0000      -1.221695       -33.2440
   8   2.0000      -1.089647       -29.6508
   9   2.0000      -1.003961       -27.3192
  10   2.0000      -0.937971       -25.5235
  11   2.0000      -0.895416       -24.3655
  12   2.0000      -0.872981       -23.7550
  13   2.0000      -0.837366       -22.7859
  14   2.0000      -0.796960       -21.6864
  15   2.0000      -0.754151       -20.5215
  16   2.0000      -0.720994       -19.6192
  17   2.0000      -0.706365       -19.2212
  18   2.0000      -0.671688       -18.2776
  19   2.0000      -0.656853       -17.8739
  20   2.0000      -0.602465       -16.3939
  21   2.0000      -0.595651       -16.2085
  22   2.0000      -0.591909       -16.1067
  23   2.0000      -0.575966       -15.6728
  24   0.0000      -0.123596        -3.3632
  25   0.0000      -0.089108        -2.4247
  26   0.0000      -0.052179        -1.4199
  27   0.0000      -0.045490        -1.2378
  28   0.0000      -0.029275        -0.7966

MULLIKEN ATOMIC CHARGES
-----------------------
   0 C :   -0.629049
   1 C :   -0.120988
   2 C :   -1.370768
   3 C :    0.720246
   4 N :   -0.419593
   5 N :   -0.399706
   6 H :    0.196204
   7 H :    0.287436
   8 H :    0.253873
   9 H :    0.198972
  10 H :    0.304248
  11 H :    0.318418
  12 H :    0.330678
  13 H :    0.285481
  14 H :    0.356506
  15 H :    0.314110
  16 H :    0.373932
Sum of atomic charges:    1.0000000

LOEWDIN ATOMIC CHARGES
----------------------
   0 C :   -0.112023
   1 C :   -0.215976
   2 C :   -0.094742
   3 C :   -0.349804
   4 N :    0.219880
   5 N :    0.229071
   6 H :    0.155635
   7 H :    0.145243
   8 H :    0.148998
   9 H :    0.143069
  10 H :    0.121532
  11 H :    0.120404
  12 H :    0.137678
  13 H :    0.129612
  14 H :    0.058765
  15 H :    0.083500
  16 H :    0.079157

  Mayer bond orders larger than 0.100000
B(  0-C ,  1-C ) :   0.7278 B(  0-C ,  2-C ) :   0.1746 B(  0-C ,  3-C ) :   0.7845
B(  0-C , 12-H ) :   0.9402 B(  0-C , 13-H ) :   0.9838 B(  1-C ,  2-C ) :   0.4704
B(  1-C ,  3-C ) :   0.1786 B(  1-C , 10-H ) :   0.9638 B(  1-C , 11-H ) :   0.9264
B(  2-C ,  3-C ) :   0.1037 B(  2-C ,  5-N ) :   0.1099 B(  2-C , 14-H ) :   0.9173
B(  2-C , 15-H ) :   0.9753 B(  2-C , 16-H ) :   0.9397 B(  3-C ,  4-N ) :   1.0933
B(  3-C ,  5-N ) :   1.2019 B(  4-N ,  5-N ) :   0.1049 B(  4-N ,  8-H ) :   0.9486
B(  4-N ,  9-H ) :   1.0551 B(  5-N ,  6-H ) :   1.0582 B(  5-N ,  7-H ) :   0.9158

Dispersion correction           -0.004541151
FINAL SINGLE POINT ENERGY      -268.376788661802

DIPOLE MOMENT
-------------
                                X             Y             Z
Electronic contribution:      1.42478       4.42230      -2.93170
Nuclear contribution   :     -0.87169      -3.40560       1.97790
                        -----------------------------------------
Total Dipole Moment    :      0.55309       1.01670      -0.95379
                        -----------------------------------------
Magnitude (a.u.)       :      1.49977
Magnitude (Debye)      :      3.81211

Rotational constants in cm-1:     0.188632     0.081113     0.066356
Rotational constants in MHz :  5655.057814  2431.708101  1989.304146

                             ****ORCA TERMINATED NORMALLY****
TOTAL RUN TIME: 0 days 0 hours 0 minutes 38 seconds 521 msec
