                         Program Version 5.0.0 -  RELEASE  -
|  1> !wB97X-D3 RIJCOSX def2-TZVPD def2/J TightSCF xyzfile
|  2>
|  3> *xyzfile 0 1 B.xyz
|  4>
|  5> %MaxCore 64000
|  6>
|  7> %pal nprocs 18
|  8> end
|  9>
| 10> %scf
| 11>   MaxIter 150
| 12> end
| 13>
| 14>
| 15>                          ****END OF INPUT****

CARTESIAN COORDINATES (ANGSTROEM)
---------------------------------
  C      3.343500    3.354571   -3.591998
  C      2.952633    1.863077   -3.574849
  C      4.129209    0.898394   -3.418950
  H      3.733687   -0.100605   -3.237633
  H      4.719095    0.862556   -4.339005
  C      5.017344    1.315212   -2.221305
  C      4.255868    3.703851   -4.726054
  N      3.734032    4.293783   -5.800770
  N      5.515039    3.407255   -4.637185
  H      6.149187    3.601203   -5.399053
  H      5.813584    2.899504   -3.808785
  H      2.741380    4.513109   -5.824701
  H      4.287548    4.521260   -6.614341
  H      2.278938    1.735250   -2.725496
  H      2.377466    1.625787   -4.475869
  O      4.737055    0.854112   -1.122825
  O      5.928146    2.168108   -2.491365
  H      3.861246    3.597252   -2.662979
  H      2.446493    3.973461   -3.656556

 Total Charge           Charge          ....    0
 Multiplicity           Mult            ....    1
 Number of Electrons    NEL             ....   70
 Basis Dimension        Dim             ....  429

ORBITAL ENERGIES
----------------

  NO   OCC          E(Eh)            E(eV)
   0   2.0000     -19.137510      -520.7581
   1   2.0000     -19.125212      -520.4235
   2   2.0000     -14.520623      -395.1262
   3   2.0000     -14.481162      -394.0524
   4   2.0000     -10.441174      -284.1188
   5   2.0000     -10.322980      -280.9026
   6   2.0000     -10.320331      -280.8305
   7   2.0000     -10.295864      -280.1647
   8   2.0000     -10.254360      -279.0353
   9   2.0000      -1.164427       -31.6857
  10   2.0000      -1.108762       -30.1709
  11   2.0000      -1.066628       -29.0244
  12   2.0000      -1.017468       -27.6867
  13   2.0000      -0.941235       -25.6123
  14   2.0000      -0.853016       -23.2117
  15   2.0000      -0.786668       -21.4063
  16   2.0000      -0.741246       -20.1703
  17   2.0000      -0.722906       -19.6713
  18   2.0000      -0.694074       -18.8867
  19   2.0000      -0.645351       -17.5609
  20   2.0000      -0.605242       -16.4695
  21   2.0000      -0.588230       -16.0065
  22   2.0000      -0.563374       -15.3302
  23   2.0000      -0.549959       -14.9652
  24   2.0000      -0.523908       -14.2563
  25   2.0000      -0.497877       -13.5479
  26   2.0000      -0.476547       -12.9675
  27   2.0000      -0.470480       -12.8024
  28   2.0000      -0.464256       -12.6330
  29   2.0000      -0.434666       -11.8279
  30   2.0000      -0.424451       -11.5499
  31   2.0000      -0.423546       -11.5253
  32   2.0000      -0.312246        -8.4966
  33   2.0000      -0.307651        -8.3716
  34   2.0000      -0.286616        -7.7992
  35   0.0000       0.023032         0.6267
  36   0.0000       0.026766         0.7283
  37   0.0000       0.059917         1.6304
  38   0.0000       0.077853         2.1185
  39   0.0000       0.080289         2.1848

MULLIKEN ATOMIC CHARGES
-----------------------
   0 C :   -0.512458
   1 C :   -0.588388
   2 C :   -0.345670
   3 H :    0.255709
   4 H :    0.275994
   5 C :    0.462635
   6 C :    0.581935
   7 N :   -0.423540
   8 N :   -0.292911
   9 H :    0.164811
  10 H :    0.332935
  11 H :    0.242247
  12 H :    0.178810
  13 H :    0.330914
  14 H :    0.230897
  15 O :   -0.704533
  16 O :   -0.833390
  17 H :    0.348243
  18 H :    0.295759
Sum of atomic charges:    0.0000000

LOEWDIN ATOMIC CHARGES
----------------------
   0 C :   -0.105252
   1 C :   -0.175854
   2 C :   -0.128676
   3 H :    0.112640
   4 H :    0.102912
   5 C :   -0.689965
   6 C :   -0.354171
   7 N :    0.179837
   8 N :    0.229848
   9 H :    0.143062
  10 H :    0.024361
  11 H :    0.131738
  12 H :    0.127071
  13 H :    0.121922
  14 H :    0.110464
  15 O :    0.005849
  16 O :   -0.089559
  17 H :    0.134767
  18 H :    0.119003

  Mayer bond orders larger than 0.100000
B(  0-C ,  1-C ) :   0.7704 B(  0-C ,  6-C ) :   0.7315 B(  0-C ,  7-N ) :   0.1006
B(  0-C , 17-H ) :   0.9075 B(  0-C , 18-H ) :   0.9764 B(  1-C ,  2-C ) :   0.8978
B(  1-C ,  5-C ) :   0.1859 B(  1-C ,  6-C ) :   0.2681 B(  1-C , 13-H ) :   0.8860
B(  1-C , 14-H ) :   0.9612 B(  2-C ,  3-H ) :   0.9940 B(  2-C ,  4-H ) :   0.9098
B(  2-C ,  5-C ) :   0.8754 B(  2-C ,  8-N ) :   0.1276 B(  5-C , 15-O ) :   1.5141
B(  5-C , 16-O ) :   1.2619 B(  6-C ,  7-N ) :   1.0250 B(  6-C ,  8-N ) :   1.3587
B(  6-C , 18-H ) :  -0.1056 B(  7-N , 11-H ) :   0.9645 B(  7-N , 12-H ) :   1.0604
B(  8-N ,  9-H ) :   1.0626 B(  8-N , 10-H ) :   0.7317 B(  8-N , 16-O ) :  -0.1076
B( 10-H , 16-O ) :   0.1406

Dispersion correction           -0.007028433
FINAL SINGLE POINT ENERGY      -456.573403508534

DIPOLE MOMENT
-------------
                                X             Y             Z
Electronic contribution:      3.88358       0.03764       2.56873
Nuclear contribution   :     -5.42217       2.65262      -7.07590
                        -----------------------------------------
Total Dipole Moment    :     -1.53859       2.69026      -4.50717
                        -----------------------------------------
Magnitude (a.u.)       :      5.46986
Magnitude (Debye)      :     13.90329

Rotational constants in cm-1:     0.107541     0.035862     0.030371
Rotational constants in MHz :  3223.996852  1075.120464   910.508313

                             ****ORCA TERMINATED NORMALLY****
TOTAL RUN TIME: 0 days 0 hours 1 minutes 4 seconds 986 msec
