                         Program Version 5.0.0 -  RELEASE  -
|  1> !wB97X-D3 RIJCOSX def2-TZVPD def2/J TightSCF
|  2> *xyz 0 1
|  3> C          3.34350        3.35457       -3.59200
|  4> C          2.95263        1.86308       -3.57485
|  5> C          4.12921        0.89839       -3.41895
|  6> H          3.73369       -0.10060       -3.23763
|  7> H          4.71910        0.86256       -4.33901
|  8> C          5.01734        1.31521       -2.22130
|  9> H          2.27894        1.73525       -2.72550
| 10> H          2.37747        1.62579       -4.47587
| 11> F          4.73706        0.85411       -1.12283
| 12> O          5.92815        2.16811       -2.49136
| 13> H          4.00801        3.53975       -4.40994
| 14> H          3.83025        3.60631       -2.67298
| 15> H          2.46347        3.95263       -3.70497
| 16> *
| 17> %MaxCore 64000
| 18>
| 19> %pal nprocs 18
| 20> end
| 21>
| 22> %scf
| 23>   MaxIter 150
| 24> end
| 25>
| 26>
| 27>                          ****END OF INPUT****

CARTESIAN COORDINATES (ANGSTROEM)
---------------------------------
  C      3.343500    3.354570   -3.592000
  C      2.952630    1.863080   -3.574850
  C      4.129210    0.898390   -3.418950
  H      3.733690   -0.100600   -3.237630
  H      4.719100    0.862560   -4.339010
  C      5.017340    1.315210   -2.221300
  H      2.278940    1.735250   -2.725500
  H      2.377470    1.625790   -4.475870
  F      4.737060    0.854110   -1.122830
  O      5.928150    2.168110   -2.491360
  H      4.008010    3.539750   -4.409940
  H      3.830250    3.606310   -2.672980
  H      2.463470    3.952630   -3.704970

 Total Charge           Charge          ....    0
 Multiplicity           Mult            ....    1
 Number of Electrons    NEL             ....   48
 Basis Dimension        Dim             ....  291

ORBITAL ENERGIES
----------------

  NO   OCC          E(Eh)            E(eV)
   0   2.0000     -24.869839      -676.7427
   1   2.0000     -19.232746      -523.3496
   2   2.0000     -10.458361      -284.5865
   3   2.0000     -10.304161      -280.3905
   4   2.0000     -10.292262      -280.0667
   5   2.0000     -10.259912      -279.1864
   6   2.0000      -1.461741       -39.7760
   7   2.0000      -1.136480       -30.9252
   8   2.0000      -0.929600       -25.2957
   9   2.0000      -0.840278       -22.8651
  10   2.0000      -0.782125       -21.2827
  11   2.0000      -0.723523       -19.6881
  12   2.0000      -0.669768       -18.2253
  13   2.0000      -0.653155       -17.7733
  14   2.0000      -0.606703       -16.5092
  15   2.0000      -0.570708       -15.5298
  16   2.0000      -0.554953       -15.1010
  17   2.0000      -0.513376       -13.9697
  18   2.0000      -0.492197       -13.3934
  19   2.0000      -0.459997       -12.5172
  20   2.0000      -0.455940       -12.4068
  21   2.0000      -0.443067       -12.0565
  22   2.0000      -0.431208       -11.7338
  23   2.0000      -0.379940       -10.3387
  24   0.0000       0.050303         1.3688
  25   0.0000       0.066025         1.7966
  26   0.0000       0.087577         2.3831
  27   0.0000       0.089603         2.4382
  28   0.0000       0.093742         2.5509

MULLIKEN ATOMIC CHARGES
-----------------------
   0 C :   -1.167940
   1 C :   -0.441521
   2 C :   -0.214804
   3 H :    0.256278
   4 H :    0.291757
   5 C :    0.563879
   6 H :    0.283902
   7 H :    0.257787
   8 F :   -0.234025
   9 O :   -0.568934
  10 H :    0.314369
  11 H :    0.334922
  12 H :    0.324330
Sum of atomic charges:    0.0000000

LOEWDIN ATOMIC CHARGES
----------------------
   0 C :   -0.101434
   1 C :   -0.246288
   2 C :   -0.115827
   3 H :    0.109617
   4 H :    0.123695
   5 C :   -0.486716
   6 H :    0.106870
   7 H :    0.109571
   8 F :    0.248865
   9 O :    0.049754
  10 H :    0.074044
  11 H :    0.061784
  12 H :    0.066065

  Mayer bond orders larger than 0.100000
B(  0-C ,  1-C ) :   0.7483 B(  0-C , 10-H ) :   0.9529 B(  0-C , 11-H ) :   0.9309
B(  0-C , 12-H ) :   0.9562 B(  1-C ,  2-C ) :   0.8139 B(  1-C ,  5-C ) :   0.2340
B(  1-C ,  6-H ) :   0.9314 B(  1-C ,  7-H ) :   0.9592 B(  2-C ,  3-H ) :   0.9708
B(  2-C ,  4-H ) :   0.9256 B(  2-C ,  5-C ) :   0.7771 B(  5-C ,  8-F ) :   0.9591
B(  5-C ,  9-O ) :   1.6562

Dispersion correction           -0.003380459
FINAL SINGLE POINT ENERGY      -331.742974916905

DIPOLE MOMENT
-------------
                                X             Y             Z
Electronic contribution:      6.07401      -4.37423       7.59236
Nuclear contribution   :     -7.06456       3.75953      -7.86734
                        -----------------------------------------
Total Dipole Moment    :     -0.99054      -0.61470      -0.27498
                        -----------------------------------------
Magnitude (a.u.)       :      1.19776
Magnitude (Debye)      :      3.04448

Rotational constants in cm-1:     0.185871     0.085512     0.073500
Rotational constants in MHz :  5572.269993  2563.593529  2203.466497

                             ****ORCA TERMINATED NORMALLY****
TOTAL RUN TIME: 0 days 0 hours 0 minutes 29 seconds 587 msec
