                         Program Version 5.0.0 -  RELEASE  -
|  1> !wB97X-D3 RIJCOSX def2-TZVPD def2/J TightSCF
|  2> *xyz 0 1
|  3> C          3.34350        3.35457       -3.59200
|  4> C          2.95263        1.86308       -3.57485
|  5> C          4.12921        0.89839       -3.41895
|  6> C          4.25587        3.70385       -4.72605
|  7> C          3.73403        4.29378       -5.80077
|  8> N          5.51504        3.40725       -4.63718
|  9> H          6.14919        3.60120       -5.39905
| 10> H          5.81358        2.89950       -3.80879
| 11> H          2.74138        4.51311       -5.82470
| 12> H          4.28755        4.52126       -6.61434
| 13> H          2.27894        1.73525       -2.72550
| 14> H          2.37747        1.62579       -4.47587
| 15> H          3.86125        3.59725       -2.66298
| 16> H          2.44649        3.97346       -3.65656
| 17> H          4.79753        1.01430       -4.24649
| 18> H          3.76482       -0.10731       -3.39293
| 19> H          4.64840        1.11330       -2.50837
| 20> *
| 21> %MaxCore 64000
| 22>
| 23> %pal nprocs 18
| 24> end
| 25>
| 26> %scf
| 27>   MaxIter 150
| 28> end
| 29>
| 30>
| 31>                          ****END OF INPUT****

CARTESIAN COORDINATES (ANGSTROEM)
---------------------------------
  C      3.343500    3.354570   -3.592000
  C      2.952630    1.863080   -3.574850
  C      4.129210    0.898390   -3.418950
  C      4.255870    3.703850   -4.726050
  C      3.734030    4.293780   -5.800770
  N      5.515040    3.407250   -4.637180
  H      6.149190    3.601200   -5.399050
  H      5.813580    2.899500   -3.808790
  H      2.741380    4.513110   -5.824700
  H      4.287550    4.521260   -6.614340
  H      2.278940    1.735250   -2.725500
  H      2.377470    1.625790   -4.475870
  H      3.861250    3.597250   -2.662980
  H      2.446490    3.973460   -3.656560
  H      4.797530    1.014300   -4.246490
  H      3.764820   -0.107310   -3.392930
  H      4.648400    1.113300   -2.508370

 Total Charge           Charge          ....    0
 Multiplicity           Mult            ....    1
 Number of Electrons    NEL             ....   48
 Basis Dimension        Dim             ....  321

ORBITAL ENERGIES
----------------

  NO   OCC          E(Eh)            E(eV)
   0   2.0000     -14.422748      -392.4629
   1   2.0000     -10.295031      -280.1420
   2   2.0000     -10.272692      -279.5342
   3   2.0000     -10.272117      -279.5185
   4   2.0000     -10.258277      -279.1419
   5   2.0000     -10.202316      -277.6191
   6   2.0000      -1.054884       -28.7049
   7   2.0000      -0.909984       -24.7619
   8   2.0000      -0.850688       -23.1484
   9   2.0000      -0.793089       -21.5810
  10   2.0000      -0.717589       -19.5266
  11   2.0000      -0.670777       -18.2528
  12   2.0000      -0.630724       -17.1629
  13   2.0000      -0.587531       -15.9875
  14   2.0000      -0.552025       -15.0214
  15   2.0000      -0.533800       -14.5254
  16   2.0000      -0.509083       -13.8529
  17   2.0000      -0.487749       -13.2723
  18   2.0000      -0.470231       -12.7956
  19   2.0000      -0.457910       -12.4604
  20   2.0000      -0.433496       -11.7960
  21   2.0000      -0.420026       -11.4295
  22   2.0000      -0.415176       -11.2975
  23   2.0000      -0.273327        -7.4376
  24   0.0000       0.067067         1.8250
  25   0.0000       0.088178         2.3995
  26   0.0000       0.090545         2.4639
  27   0.0000       0.094041         2.5590
  28   0.0000       0.114708         3.1214

MULLIKEN ATOMIC CHARGES
-----------------------
   0 C :   -0.651640
   1 C :   -0.067701
   2 C :   -1.361761
   3 C :    0.936443
   4 C :   -1.606264
   5 N :   -0.473988
   6 H :    0.156613
   7 H :    0.248483
   8 H :    0.329209
   9 H :    0.349534
  10 H :    0.252305
  11 H :    0.313412
  12 H :    0.321553
  13 H :    0.254418
  14 H :    0.360068
  15 H :    0.306303
  16 H :    0.333011
Sum of atomic charges:    0.0000000

LOEWDIN ATOMIC CHARGES
----------------------
   0 C :   -0.162336
   1 C :   -0.240239
   2 C :   -0.116451
   3 C :   -0.500717
   4 C :    0.019669
   5 N :    0.102236
   6 H :    0.122835
   7 H :    0.107508
   8 H :    0.020511
   9 H :    0.015626
  10 H :    0.101173
  11 H :    0.111940
  12 H :    0.115511
  13 H :    0.113787
  14 H :    0.056406
  15 H :    0.065064
  16 H :    0.067475

  Mayer bond orders larger than 0.100000
B(  0-C ,  1-C ) :   0.7351 B(  0-C ,  2-C ) :   0.2109 B(  0-C ,  3-C ) :   0.7553
B(  0-C , 12-H ) :   0.9445 B(  0-C , 13-H ) :   1.0071 B(  1-C ,  2-C ) :   0.4744
B(  1-C ,  3-C ) :   0.1623 B(  1-C , 10-H ) :   0.9704 B(  1-C , 11-H ) :   0.9268
B(  2-C ,  5-N ) :   0.1681 B(  2-C , 14-H ) :   0.9510 B(  2-C , 15-H ) :   0.9611
B(  2-C , 16-H ) :   0.9632 B(  3-C ,  4-C ) :   0.8917 B(  3-C ,  5-N ) :   1.0119
B(  3-C ,  9-H ) :  -0.1167 B(  4-C ,  5-N ) :   0.1566 B(  4-C ,  8-H ) :   0.9661
B(  4-C ,  9-H ) :   0.9600 B(  5-N ,  6-H ) :   1.0436 B(  5-N ,  7-H ) :   0.9514

Dispersion correction           -0.004552828
FINAL SINGLE POINT ENERGY      -251.901443441662

DIPOLE MOMENT
-------------
                                X             Y             Z
Electronic contribution:      1.43871       2.64638      -1.20499
Nuclear contribution   :     -0.93682      -3.08083       1.62582
                        -----------------------------------------
Total Dipole Moment    :      0.50189      -0.43445       0.42083
                        -----------------------------------------
Magnitude (a.u.)       :      0.78596
Magnitude (Debye)      :      1.99776

Rotational constants in cm-1:     0.191400     0.084268     0.068511
Rotational constants in MHz :  5738.038424  2526.291061  2053.912421

                             ****ORCA TERMINATED NORMALLY****
TOTAL RUN TIME: 0 days 0 hours 0 minutes 31 seconds 813 msec
