                         Program Version 5.0.0 -  RELEASE  -
|  1> !wB97X-D3 RIJCOSX def2-TZVPD def2/J TightSCF
|  2> *xyz 0 1
|  3> C          3.34350        3.35457       -3.59200
|  4> C          2.95263        1.86308       -3.57485
|  5> C          4.12921        0.89839       -3.41895
|  6> H          3.73369       -0.10060       -3.23763
|  7> H          4.71910        0.86256       -4.33901
|  8> C          5.01734        1.31521       -2.22130
|  9> H          2.27894        1.73525       -2.72550
| 10> H          2.37747        1.62579       -4.47587
| 11> O          4.73706        0.85411       -1.12283
| 12> F          5.92815        2.16811       -2.49136
| 13> H          4.00801        3.53975       -4.40994
| 14> H          3.83025        3.60631       -2.67298
| 15> H          2.46347        3.95263       -3.70497
| 16> *
| 17> %MaxCore 64000
| 18>
| 19> %pal nprocs 18
| 20> end
| 21>
| 22> %scf
| 23>   MaxIter 150
| 24> end
| 25>
| 26>
| 27>                          ****END OF INPUT****

CARTESIAN COORDINATES (ANGSTROEM)
---------------------------------
  C      3.343500    3.354570   -3.592000
  C      2.952630    1.863080   -3.574850
  C      4.129210    0.898390   -3.418950
  H      3.733690   -0.100600   -3.237630
  H      4.719100    0.862560   -4.339010
  C      5.017340    1.315210   -2.221300
  H      2.278940    1.735250   -2.725500
  H      2.377470    1.625790   -4.475870
  O      4.737060    0.854110   -1.122830
  F      5.928150    2.168110   -2.491360
  H      4.008010    3.539750   -4.409940
  H      3.830250    3.606310   -2.672980
  H      2.463470    3.952630   -3.704970

 Total Charge           Charge          ....    0
 Multiplicity           Mult            ....    1
 Number of Electrons    NEL             ....   48
 Basis Dimension        Dim             ....  291

ORBITAL ENERGIES
----------------

  NO   OCC          E(Eh)            E(eV)
   0   2.0000     -24.847892      -676.1455
   1   2.0000     -19.241987      -523.6011
   2   2.0000     -10.453734      -284.4606
   3   2.0000     -10.303591      -280.3750
   4   2.0000     -10.292680      -280.0781
   5   2.0000     -10.268880      -279.4304
   6   2.0000      -1.420814       -38.6623
   7   2.0000      -1.169556       -31.8252
   8   2.0000      -0.931717       -25.3533
   9   2.0000      -0.840099       -22.8603
  10   2.0000      -0.766984       -20.8707
  11   2.0000      -0.720418       -19.6036
  12   2.0000      -0.648943       -17.6586
  13   2.0000      -0.631597       -17.1866
  14   2.0000      -0.613172       -16.6853
  15   2.0000      -0.566096       -15.4043
  16   2.0000      -0.554422       -15.0866
  17   2.0000      -0.517616       -14.0850
  18   2.0000      -0.507059       -13.7978
  19   2.0000      -0.481048       -13.0900
  20   2.0000      -0.454819       -12.3763
  21   2.0000      -0.445667       -12.1272
  22   2.0000      -0.441163       -12.0047
  23   2.0000      -0.391277       -10.6472
  24   0.0000       0.055222         1.5027
  25   0.0000       0.068133         1.8540
  26   0.0000       0.086713         2.3596
  27   0.0000       0.089205         2.4274
  28   0.0000       0.095885         2.6092

MULLIKEN ATOMIC CHARGES
-----------------------
   0 C :   -1.213929
   1 C :   -0.386617
   2 C :   -0.244427
   3 H :    0.234857
   4 H :    0.317312
   5 C :    0.547372
   6 H :    0.289527
   7 H :    0.264816
   8 O :   -0.558290
   9 F :   -0.232045
  10 H :    0.321773
  11 H :    0.337686
  12 H :    0.321964
Sum of atomic charges:    0.0000000

LOEWDIN ATOMIC CHARGES
----------------------
   0 C :   -0.100146
   1 C :   -0.245407
   2 C :   -0.115306
   3 H :    0.117466
   4 H :    0.116695
   5 C :   -0.485840
   6 H :    0.111213
   7 H :    0.109335
   8 O :    0.109354
   9 F :    0.179341
  10 H :    0.071499
  11 H :    0.063884
  12 H :    0.067911

  Mayer bond orders larger than 0.100000
B(  0-C ,  1-C ) :   0.6991 B(  0-C , 10-H ) :   0.9529 B(  0-C , 11-H ) :   0.9181
B(  0-C , 12-H ) :   0.9602 B(  1-C ,  2-C ) :   0.8009 B(  1-C ,  5-C ) :   0.2302
B(  1-C ,  6-H ) :   0.9377 B(  1-C ,  7-H ) :   0.9558 B(  2-C ,  3-H ) :   0.9758
B(  2-C ,  4-H ) :   0.9209 B(  2-C ,  5-C ) :   0.7655 B(  5-C ,  8-O ) :   1.6875
B(  5-C ,  9-F ) :   0.8992

Dispersion correction           -0.003414802
FINAL SINGLE POINT ENERGY      -331.759861889517

DIPOLE MOMENT
-------------
                                X             Y             Z
Electronic contribution:      8.07142      -2.12392       5.23542
Nuclear contribution   :     -8.40998       2.27527      -6.32148
                        -----------------------------------------
Total Dipole Moment    :     -0.33856       0.15135      -1.08606
                        -----------------------------------------
Magnitude (a.u.)       :      1.14763
Magnitude (Debye)      :      2.91704

Rotational constants in cm-1:     0.181105     0.088112     0.073966
Rotational constants in MHz :  5429.384816  2641.525058  2217.445966

                             ****ORCA TERMINATED NORMALLY****
TOTAL RUN TIME: 0 days 0 hours 0 minutes 24 seconds 138 msec
