                         Program Version 5.0.0 -  RELEASE  -
|  1> !wB97X-D3 RIJCOSX def2-TZVPD def2/J TightSCF
|  2> *xyz 0 1
|  3> C          3.34350        3.35457       -3.59200
|  4> C          2.95263        1.86308       -3.57485
|  5> C          4.12921        0.89839       -3.41895
|  6> C          4.25587        3.70385       -4.72605
|  7> N          3.73403        4.29378       -5.80077
|  8> C          5.51504        3.40725       -4.63718
|  9> H          6.14919        3.60120       -5.39905
| 10> H          5.81358        2.89950       -3.80879
| 11> H          2.74138        4.51311       -5.82470
| 12> H          4.28755        4.52126       -6.61434
| 13> H          2.27894        1.73525       -2.72550
| 14> H          2.37747        1.62579       -4.47587
| 15> H          3.86125        3.59725       -2.66298
| 16> H          2.44649        3.97346       -3.65656
| 17> H          4.79753        1.01430       -4.24649
| 18> H          3.76482       -0.10731       -3.39293
| 19> H          4.64840        1.11330       -2.50837
| 20> *
| 21> %MaxCore 64000
| 22>
| 23> %pal nprocs 18
| 24> end
| 25>
| 26> %scf
| 27>   MaxIter 150
| 28> end
| 29>
| 30>
| 31>                          ****END OF INPUT****

CARTESIAN COORDINATES (ANGSTROEM)
---------------------------------
  C      3.343500    3.354570   -3.592000
  C      2.952630    1.863080   -3.574850
  C      4.129210    0.898390   -3.418950
  C      4.255870    3.703850   -4.726050
  N      3.734030    4.293780   -5.800770
  C      5.515040    3.407250   -4.637180
  H      6.149190    3.601200   -5.399050
  H      5.813580    2.899500   -3.808790
  H      2.741380    4.513110   -5.824700
  H      4.287550    4.521260   -6.614340
  H      2.278940    1.735250   -2.725500
  H      2.377470    1.625790   -4.475870
  H      3.861250    3.597250   -2.662980
  H      2.446490    3.973460   -3.656560
  H      4.797530    1.014300   -4.246490
  H      3.764820   -0.107310   -3.392930
  H      4.648400    1.113300   -2.508370

 Total Charge           Charge          ....    0
 Multiplicity           Mult            ....    1
 Number of Electrons    NEL             ....   48
 Basis Dimension        Dim             ....  321

ORBITAL ENERGIES
----------------

  NO   OCC          E(Eh)            E(eV)
   0   2.0000     -14.419838      -392.3837
   1   2.0000     -10.291966      -280.0586
   2   2.0000     -10.272007      -279.5155
   3   2.0000     -10.270026      -279.4616
   4   2.0000     -10.246464      -278.8205
   5   2.0000     -10.200380      -277.5665
   6   2.0000      -1.039709       -28.2919
   7   2.0000      -0.910724       -24.7821
   8   2.0000      -0.846427       -23.0325
   9   2.0000      -0.799757       -21.7625
  10   2.0000      -0.707020       -19.2390
  11   2.0000      -0.668296       -18.1853
  12   2.0000      -0.621195       -16.9036
  13   2.0000      -0.581861       -15.8332
  14   2.0000      -0.553311       -15.0564
  15   2.0000      -0.534265       -14.5381
  16   2.0000      -0.491402       -13.3717
  17   2.0000      -0.489816       -13.3286
  18   2.0000      -0.470538       -12.8040
  19   2.0000      -0.455608       -12.3977
  20   2.0000      -0.427925       -11.6444
  21   2.0000      -0.416473       -11.3328
  22   2.0000      -0.410461       -11.1692
  23   2.0000      -0.279083        -7.5942
  24   0.0000       0.068053         1.8518
  25   0.0000       0.088689         2.4134
  26   0.0000       0.089828         2.4443
  27   0.0000       0.096251         2.6191
  28   0.0000       0.112802         3.0695

MULLIKEN ATOMIC CHARGES
-----------------------
   0 C :   -0.597643
   1 C :   -0.090015
   2 C :   -1.361345
   3 C :    1.004940
   4 N :   -0.461803
   5 C :   -1.705101
   6 H :    0.323309
   7 H :    0.423813
   8 H :    0.194107
   9 H :    0.155390
  10 H :    0.243042
  11 H :    0.281768
  12 H :    0.297359
  13 H :    0.257861
  14 H :    0.384091
  15 H :    0.315178
  16 H :    0.335050
Sum of atomic charges:    0.0000000

LOEWDIN ATOMIC CHARGES
----------------------
   0 C :   -0.159715
   1 C :   -0.240445
   2 C :   -0.115565
   3 C :   -0.484952
   4 N :    0.095586
   5 C :    0.004365
   6 H :    0.031759
   7 H :    0.029902
   8 H :    0.105098
   9 H :    0.108626
  10 H :    0.100791
  11 H :    0.108659
  12 H :    0.119135
  13 H :    0.107819
  14 H :    0.054739
  15 H :    0.063401
  16 H :    0.070797

  Mayer bond orders larger than 0.100000
B(  0-C ,  1-C ) :   0.7546 B(  0-C ,  2-C ) :   0.1358 B(  0-C ,  3-C ) :   0.7105
B(  0-C ,  4-N ) :   0.1008 B(  0-C , 12-H ) :   0.9335 B(  0-C , 13-H ) :   1.0433
B(  1-C ,  2-C ) :   0.5466 B(  1-C ,  3-C ) :   0.1879 B(  1-C , 10-H ) :   0.9731
B(  1-C , 11-H ) :   0.9329 B(  2-C ,  5-C ) :   0.1745 B(  2-C , 14-H ) :   0.9551
B(  2-C , 15-H ) :   0.9460 B(  2-C , 16-H ) :   0.9607 B(  3-C ,  4-N ) :   0.9141
B(  3-C ,  5-C ) :   0.8698 B(  3-C ,  6-H ) :  -0.1197 B(  3-C , 13-H ) :  -0.1143
B(  4-N ,  8-H ) :   1.0123 B(  4-N ,  9-H ) :   1.0598 B(  5-C ,  6-H ) :   1.0500
B(  5-C ,  7-H ) :   0.8534

Dispersion correction           -0.004495537
FINAL SINGLE POINT ENERGY      -251.901241898573

DIPOLE MOMENT
-------------
                                X             Y             Z
Electronic contribution:     -0.07610       3.46308      -2.22487
Nuclear contribution   :     -0.51555      -3.29052       1.90104
                        -----------------------------------------
Total Dipole Moment    :     -0.59165       0.17256      -0.32383
                        -----------------------------------------
Magnitude (a.u.)       :      0.69620
Magnitude (Debye)      :      1.76960

Rotational constants in cm-1:     0.197086     0.081749     0.067746
Rotational constants in MHz :  5908.486274  2450.769911  2030.963952

                             ****ORCA TERMINATED NORMALLY****
TOTAL RUN TIME: 0 days 0 hours 0 minutes 26 seconds 959 msec
