                         Program Version 5.0.0 -  RELEASE  -
|  1> !wB97X-D3 RIJCOSX def2-TZVPD def2/J TightSCF xyzfile
|  2>
|  3> *xyzfile 0 1 D4.xyz
|  4>
|  5> %MaxCore 64000
|  6>
|  7> %pal nprocs 18
|  8> end
|  9>
| 10> %scf
| 11>   MaxIter 150
| 12> end
| 13>
| 14>
| 15>                          ****END OF INPUT****

CARTESIAN COORDINATES (ANGSTROEM)
---------------------------------
  C      3.343500    3.354571   -3.591998
  C      2.952633    1.863077   -3.574849
  C      4.129209    0.898394   -3.418950
  H      3.733687   -0.100605   -3.237633
  H      4.719095    0.862556   -4.339005
  C      5.017344    1.315212   -2.221305
  C      4.255868    3.703851   -4.726054
  N      3.734032    4.293783   -5.800770
  C      5.515039    3.407255   -4.637185
  H      6.149187    3.601203   -5.399053
  H      5.813584    2.899504   -3.808785
  H      2.741380    4.513109   -5.824701
  H      4.287548    4.521260   -6.614341
  H      2.278938    1.735250   -2.725496
  H      2.377466    1.625787   -4.475869
  O      4.737055    0.854112   -1.122825
  F      5.928146    2.168108   -2.491365
  H      3.861246    3.597252   -2.662979
  H      2.446493    3.973461   -3.656556

 Total Charge           Charge          ....    0
 Multiplicity           Mult            ....    1
 Number of Electrons    NEL             ....   70
 Basis Dimension        Dim             ....  429

ORBITAL ENERGIES
----------------

  NO   OCC          E(Eh)            E(eV)
   0   2.0000     -24.851875      -676.2539
   1   2.0000     -19.244305      -523.6642
   2   2.0000     -14.423826      -392.4922
   3   2.0000     -10.456123      -284.5256
   4   2.0000     -10.300783      -280.2986
   5   2.0000     -10.296444      -280.1805
   6   2.0000     -10.295298      -280.1493
   7   2.0000     -10.286019      -279.8968
   8   2.0000     -10.193291      -277.3735
   9   2.0000      -1.432412       -38.9779
  10   2.0000      -1.172109       -31.8947
  11   2.0000      -1.044587       -28.4247
  12   2.0000      -0.938201       -25.5297
  13   2.0000      -0.870401       -23.6848
  14   2.0000      -0.825353       -22.4590
  15   2.0000      -0.784799       -21.3555
  16   2.0000      -0.730046       -19.8656
  17   2.0000      -0.691754       -18.8236
  18   2.0000      -0.650764       -17.7082
  19   2.0000      -0.640838       -17.4381
  20   2.0000      -0.627966       -17.0878
  21   2.0000      -0.610888       -16.6231
  22   2.0000      -0.585422       -15.9301
  23   2.0000      -0.564956       -15.3732
  24   2.0000      -0.547516       -14.8987
  25   2.0000      -0.519965       -14.1490
  26   2.0000      -0.495492       -13.4830
  27   2.0000      -0.482067       -13.1177
  28   2.0000      -0.473234       -12.8773
  29   2.0000      -0.463946       -12.6246
  30   2.0000      -0.446672       -12.1546
  31   2.0000      -0.428571       -11.6620
  32   2.0000      -0.423130       -11.5140
  33   2.0000      -0.392580       -10.6826
  34   2.0000      -0.282515        -7.6876
  35   0.0000       0.053800         1.4640
  36   0.0000       0.064916         1.7664
  37   0.0000       0.078506         2.1363
  38   0.0000       0.082653         2.2491
  39   0.0000       0.088349         2.4041

MULLIKEN ATOMIC CHARGES
-----------------------
   0 C :   -0.538150
   1 C :   -0.546078
   2 C :   -0.330810
   3 H :    0.244815
   4 H :    0.403336
   5 C :    0.499996
   6 C :    0.939613
   7 N :   -0.460055
   8 C :   -1.824032
   9 H :    0.298613
  10 H :    0.688885
  11 H :    0.197896
  12 H :    0.155432
  13 H :    0.290764
  14 H :    0.270187
  15 O :   -0.584296
  16 F :   -0.281485
  17 H :    0.268221
  18 H :    0.307147
Sum of atomic charges:   -0.0000000

LOEWDIN ATOMIC CHARGES
----------------------
   0 C :   -0.136759
   1 C :   -0.174433
   2 C :   -0.097883
   3 H :    0.120385
   4 H :    0.116340
   5 C :   -0.461487
   6 C :   -0.468348
   7 N :    0.095455
   8 C :    0.026929
   9 H :    0.039756
  10 H :   -0.010218
  11 H :    0.104593
  12 H :    0.109395
  13 H :    0.116006
  14 H :    0.119369
  15 O :    0.119191
  16 F :    0.147311
  17 H :    0.119448
  18 H :    0.114948

  Mayer bond orders larger than 0.100000
B(  0-C ,  1-C ) :   0.8015 B(  0-C ,  5-C ) :   0.1001 B(  0-C ,  6-C ) :   0.6836
B(  0-C ,  7-N ) :   0.1185 B(  0-C , 17-H ) :   0.9135 B(  0-C , 18-H ) :   1.0165
B(  1-C ,  2-C ) :   0.8706 B(  1-C ,  5-C ) :   0.2311 B(  1-C ,  6-C ) :   0.1986
B(  1-C , 13-H ) :   0.9193 B(  1-C , 14-H ) :   0.9386 B(  2-C ,  3-H ) :   0.9812
B(  2-C ,  4-H ) :   0.8677 B(  2-C ,  5-C ) :   0.8094 B(  2-C ,  8-C ) :   0.1733
B(  5-C , 15-O ) :   1.6644 B(  5-C , 16-F ) :   0.9281 B(  6-C ,  7-N ) :   0.8747
B(  6-C ,  8-C ) :   0.8136 B(  6-C ,  9-H ) :  -0.1633 B(  7-N ,  8-C ) :   0.1108
B(  7-N , 11-H ) :   1.0156 B(  7-N , 12-H ) :   1.0611 B(  8-C ,  9-H ) :   1.1116
B(  8-C , 10-H ) :   0.6654 B( 10-H , 16-F ) :  -0.2943

Dispersion correction           -0.006844424
FINAL SINGLE POINT ENERGY      -464.483450058031

DIPOLE MOMENT
-------------
                                X             Y             Z
Electronic contribution:      6.19333      -2.82652       7.10846
Nuclear contribution   :     -6.99695       3.07955      -8.37829
                        -----------------------------------------
Total Dipole Moment    :     -0.80363       0.25303      -1.26983
                        -----------------------------------------
Magnitude (a.u.)       :      1.52392
Magnitude (Debye)      :      3.87348

Rotational constants in cm-1:     0.106302     0.035771     0.030198
Rotational constants in MHz :  3186.860872  1072.397550   905.318354

                             ****ORCA TERMINATED NORMALLY****
TOTAL RUN TIME: 0 days 0 hours 0 minutes 55 seconds 199 msec
