                         Program Version 5.0.0 -  RELEASE  -
|  1> !BLYP D3BJ RIJCOSX def2-SVP def2/J TightSCF
|  2> *xyz -1 1
|  3> C         -0.77894        0.17197        1.80496
|  4> C         -0.60249       -0.63071        0.49224
|  5> H          0.31389       -1.24035        0.60350
|  6> H         -0.36383        0.11332       -0.30117
|  7> O         -1.71206       -1.37684        0.20253
|  8> H         -1.65864        0.77733        1.73736
|  9> H          0.07466        0.79896        1.95712
| 10> H         -0.87474       -0.50584        2.62734
| 11> *
| 12> %MaxCore 64000
| 13>
| 14> %pal nprocs 4
| 15> end
| 16>
| 17> %scf
| 18>   MaxIter 150
| 19> end
| 20>
| 21>
| 22>                          ****END OF INPUT****

CARTESIAN COORDINATES (ANGSTROEM)
---------------------------------
  C     -0.778940    0.171970    1.804960
  C     -0.602490   -0.630710    0.492240
  H      0.313890   -1.240350    0.603500
  H     -0.363830    0.113320   -0.301170
  O     -1.712060   -1.376840    0.202530
  H     -1.658640    0.777330    1.737360
  H      0.074660    0.798960    1.957120
  H     -0.874740   -0.505840    2.627340

 Total Charge           Charge          ....   -1
 Multiplicity           Mult            ....    1
 Number of Electrons    NEL             ....   26
 Basis Dimension        Dim             ....   67

ORBITAL ENERGIES
----------------

  NO   OCC          E(Eh)            E(eV)
   0   2.0000     -18.406312      -500.8612
   1   2.0000      -9.710145      -264.2265
   2   2.0000      -9.696154      -263.8458
   3   2.0000      -0.539822       -14.6893
   4   2.0000      -0.418227       -11.3805
   5   2.0000      -0.278469        -7.5775
   6   2.0000      -0.175733        -4.7820
   7   2.0000      -0.153781        -4.1846
   8   2.0000      -0.100559        -2.7363
   9   2.0000      -0.087599        -2.3837
  10   2.0000      -0.020912        -0.5690
  11   2.0000       0.120191         3.2706
  12   2.0000       0.124111         3.3772
  13   0.0000       0.233598         6.3565
  14   0.0000       0.274124         7.4593
  15   0.0000       0.286608         7.7990
  16   0.0000       0.296237         8.0610
  17   0.0000       0.335574         9.1314

MULLIKEN ATOMIC CHARGES
-----------------------
   0 C :    0.175213
   1 C :    0.276611
   2 H :   -0.208691
   3 H :   -0.212467
   4 O :   -0.628109
   5 H :   -0.111971
   6 H :   -0.179657
   7 H :   -0.110930
Sum of atomic charges:   -1.0000000

LOEWDIN ATOMIC CHARGES
----------------------
   0 C :   -0.098828
   1 C :    0.011252
   2 H :   -0.093604
   3 H :   -0.096788
   4 O :   -0.608690
   5 H :   -0.028773
   6 H :   -0.056217
   7 H :   -0.028352

  Mayer bond orders larger than 0.100000
B(  0-C ,  1-C ) :   1.0093 B(  0-C ,  4-O ) :  -0.1150 B(  0-C ,  5-H ) :   0.9337
B(  0-C ,  6-H ) :   0.8670 B(  0-C ,  7-H ) :   0.9369 B(  1-C ,  2-H ) :   0.8284
B(  1-C ,  3-H ) :   0.8253 B(  1-C ,  4-O ) :   1.5638 B(  4-O ,  6-H ) :   0.1171

Dispersion correction           -0.007743466
FINAL SINGLE POINT ENERGY      -154.215435325310

DIPOLE MOMENT
-------------
                                X             Y             Z
Electronic contribution:     -2.07718      -2.23204      -1.69874
Nuclear contribution   :      2.47835       2.80827       2.30058
                        -----------------------------------------
Total Dipole Moment    :      0.40117       0.57623       0.60184
                        -----------------------------------------
Magnitude (a.u.)       :      0.92476
Magnitude (Debye)      :      2.35056

Rotational constants in cm-1:     1.255775     0.327783     0.287473
Rotational constants in MHz : 37647.186859  9826.677683  8618.224821

                             ****ORCA TERMINATED NORMALLY****
TOTAL RUN TIME: 0 days 0 hours 0 minutes 6 seconds 222 msec
