                         Program Version 5.0.0 -  RELEASE  -
|  1> !BLYP D3BJ RIJCOSX def2-SVP def2/J TightSCF
|  2> *xyz 1 1
|  3> C         -2.12050        0.88520        1.78951
|  4> C         -0.77894        0.17197        1.80496
|  5> H         -2.32419        1.47265        2.68608
|  6> H         -2.18770        1.54127        0.91948
|  7> N         -3.17690       -0.15948        1.61070
|  8> H         -4.06474        0.23127        1.28675
|  9> H         -3.34407       -0.67151        2.48493
| 10> H         -2.71686       -0.78189        0.93588
| 11> H         -0.65708       -0.37837        0.89547
| 12> H         -0.74207       -0.50050        2.63642
| 13> H          0.00707        0.89251        1.89389
| 14> *
| 15> %MaxCore 64000
| 16>
| 17> %pal nprocs 4
| 18> end
| 19>
| 20> %scf
| 21>   MaxIter 150
| 22> end
| 23>
| 24>
| 25>                          ****END OF INPUT****

CARTESIAN COORDINATES (ANGSTROEM)
---------------------------------
  C     -2.120500    0.885200    1.789510
  C     -0.778940    0.171970    1.804960
  H     -2.324190    1.472650    2.686080
  H     -2.187700    1.541270    0.919480
  N     -3.176900   -0.159480    1.610700
  H     -4.064740    0.231270    1.286750
  H     -3.344070   -0.671510    2.484930
  H     -2.716860   -0.781890    0.935880
  H     -0.657080   -0.378370    0.895470
  H     -0.742070   -0.500500    2.636420
  H      0.007070    0.892510    1.893890

 Total Charge           Charge          ....    1
 Multiplicity           Mult            ....    1
 Number of Electrons    NEL             ....   26
 Basis Dimension        Dim             ....   82

ORBITAL ENERGIES
----------------

  NO   OCC          E(Eh)            E(eV)
   0   2.0000     -14.357668      -390.6920
   1   2.0000     -10.177344      -276.9396
   2   2.0000     -10.104930      -274.9691
   3   2.0000      -1.123046       -30.5596
   4   2.0000      -0.885458       -24.0945
   5   2.0000      -0.776247       -21.1227
   6   2.0000      -0.748395       -20.3649
   7   2.0000      -0.737414       -20.0661
   8   2.0000      -0.640378       -17.4256
   9   2.0000      -0.591950       -16.1078
  10   2.0000      -0.536825       -14.6078
  11   2.0000      -0.529640       -14.4122
  12   2.0000      -0.509644       -13.8681
  13   0.0000      -0.209833        -5.7099
  14   0.0000      -0.154063        -4.1923
  15   0.0000      -0.150927        -4.1069
  16   0.0000      -0.117177        -3.1886
  17   0.0000      -0.084930        -2.3111

MULLIKEN ATOMIC CHARGES
-----------------------
   0 C :    0.001193
   1 C :    0.025805
   2 H :    0.083358
   3 H :    0.074081
   4 N :    0.081121
   5 H :    0.200930
   6 H :    0.196529
   7 H :    0.187946
   8 H :    0.037025
   9 H :    0.039046
  10 H :    0.072966
Sum of atomic charges:    1.0000000

LOEWDIN ATOMIC CHARGES
----------------------
   0 C :    0.062199
   1 C :   -0.029196
   2 H :    0.051818
   3 H :    0.051312
   4 N :    0.310285
   5 H :    0.141411
   6 H :    0.141013
   7 H :    0.136670
   8 H :    0.035399
   9 H :    0.036941
  10 H :    0.062149

  Mayer bond orders larger than 0.100000
B(  0-C ,  1-C ) :   1.1258 B(  0-C ,  2-H ) :   0.9473 B(  0-C ,  3-H ) :   0.9453
B(  0-C ,  4-N ) :   0.9578 B(  1-C ,  8-H ) :   0.9557 B(  1-C ,  9-H ) :   0.9692
B(  1-C , 10-H ) :   0.9486 B(  4-N ,  5-H ) :   0.9332 B(  4-N ,  6-H ) :   0.9403
B(  4-N ,  7-H ) :   0.9388

Dispersion correction           -0.012627110
FINAL SINGLE POINT ENERGY      -135.354598140942

DIPOLE MOMENT
-------------
                                X             Y             Z
Electronic contribution:     -1.86735      -0.18261      -0.06529
Nuclear contribution   :      0.50278      -0.30871      -0.06979
                        -----------------------------------------
Total Dipole Moment    :     -1.36456      -0.49133      -0.13508
                        -----------------------------------------
Magnitude (a.u.)       :      1.45660
Magnitude (Debye)      :      3.70238

Rotational constants in cm-1:     0.963746     0.295157     0.256910
Rotational constants in MHz : 28892.375247  8848.576767  7701.963879

                             ****ORCA TERMINATED NORMALLY****
TOTAL RUN TIME: 0 days 0 hours 0 minutes 6 seconds 511 msec
