                         Program Version 5.0.0 -  RELEASE  -
|  1> !BLYP D3BJ RIJCOSX def2-TZVP def2/J TightSCF xyzfile
|  2>
|  3> *xyzfile 0 1 B.xyz
|  4>
|  5> %MaxCore 64000
|  6>
|  7> %pal nprocs 18
|  8> end
|  9>
| 10> %scf
| 11>   MaxIter 150
| 12> end
| 13>
| 14>
| 15>                          ****END OF INPUT****

CARTESIAN COORDINATES (ANGSTROEM)
---------------------------------
  C     -2.120502    0.885196    1.789506
  C     -0.778939    0.171966    1.804965
  H     -2.324193    1.472649    2.686078
  H     -2.187698    1.541272    0.919482
  N     -3.176900   -0.159484    1.610700
  H      0.015695    0.910767    1.939153
  H     -0.743553   -0.506827    2.665420
  C     -0.602493   -0.630712    0.492240
  H      0.313894   -1.240346    0.603498
  H     -0.363829    0.113322   -0.301169
  O     -1.712061   -1.376836    0.202535
  H     -4.064736    0.231272    1.286754
  H     -3.344073   -0.671511    2.484928
  H     -2.716861   -0.781886    0.935880

 Total Charge           Charge          ....    0
 Multiplicity           Mult            ....    1
 Number of Electrons    NEL             ....   42
 Basis Dimension        Dim             ....  209

ORBITAL ENERGIES
----------------

  NO   OCC          E(Eh)            E(eV)
   0   2.0000     -18.642970      -507.3010
   1   2.0000     -14.083268      -383.2252
   2   2.0000      -9.965321      -271.1702
   3   2.0000      -9.899324      -269.3743
   4   2.0000      -9.896420      -269.2953
   5   2.0000      -0.903157       -24.5762
   6   2.0000      -0.802688       -21.8423
   7   2.0000      -0.693040       -18.8586
   8   2.0000      -0.585263       -15.9258
   9   2.0000      -0.531034       -14.4502
  10   2.0000      -0.513845       -13.9824
  11   2.0000      -0.484031       -13.1712
  12   2.0000      -0.433235       -11.7889
  13   2.0000      -0.385797       -10.4981
  14   2.0000      -0.354143        -9.6367
  15   2.0000      -0.352679        -9.5969
  16   2.0000      -0.309876        -8.4322
  17   2.0000      -0.293415        -7.9842
  18   2.0000      -0.267754        -7.2860
  19   2.0000      -0.137917        -3.7529
  20   2.0000      -0.127438        -3.4678
  21   0.0000      -0.030746        -0.8366
  22   0.0000       0.012428         0.3382
  23   0.0000       0.025488         0.6936
  24   0.0000       0.057964         1.5773
  25   0.0000       0.069166         1.8821

MULLIKEN ATOMIC CHARGES
-----------------------
   0 C :   -0.087550
   1 C :   -0.181641
   2 H :    0.110318
   3 H :    0.110460
   4 N :   -0.254036
   5 H :    0.071057
   6 H :    0.056936
   7 C :    0.061899
   8 H :    0.026076
   9 H :   -0.002225
  10 O :   -0.629739
  11 H :    0.227614
  12 H :    0.228611
  13 H :    0.262219
Sum of atomic charges:    0.0000000

LOEWDIN ATOMIC CHARGES
----------------------
   0 C :   -0.269823
   1 C :   -0.289209
   2 H :    0.121051
   3 H :    0.136862
   4 N :    0.135581
   5 H :    0.132487
   6 H :    0.124750
   7 C :   -0.467421
   8 H :    0.096761
   9 H :    0.087399
  10 O :   -0.252518
  11 H :    0.171672
  12 H :    0.178676
  13 H :    0.093732

  Mayer bond orders larger than 0.100000
B(  0-C ,  1-C ) :   0.9790 B(  0-C ,  2-H ) :   0.9705 B(  0-C ,  3-H ) :   0.9549
B(  0-C ,  4-N ) :   0.8895 B(  1-C ,  5-H ) :   0.9480 B(  1-C ,  6-H ) :   0.9523
B(  1-C ,  7-C ) :   0.9442 B(  4-N , 11-H ) :   0.9057 B(  4-N , 12-H ) :   0.9108
B(  4-N , 13-H ) :   0.6101 B(  7-C ,  8-H ) :   0.9330 B(  7-C ,  9-H ) :   0.9202
B(  7-C , 10-O ) :   1.2776 B( 10-O , 13-H ) :   0.4469

Dispersion correction           -0.021167853
FINAL SINGLE POINT ENERGY      -249.666083848131

DIPOLE MOMENT
-------------
                                X             Y             Z
Electronic contribution:     -1.54161      -1.57359      -0.87213
Nuclear contribution   :      0.08650       3.01678       2.47433
                        -----------------------------------------
Total Dipole Moment    :     -1.45511       1.44319       1.60221
                        -----------------------------------------
Magnitude (a.u.)       :      2.60139
Magnitude (Debye)      :      6.61220

Rotational constants in cm-1:     0.238796     0.156489     0.106146
Rotational constants in MHz :  7158.916762  4691.413084  3182.185740

                             ****ORCA TERMINATED NORMALLY****
TOTAL RUN TIME: 0 days 0 hours 0 minutes 7 seconds 453 msec
