                         Program Version 5.0.0 -  RELEASE  -
|  1> !BLYP D3BJ RIJCOSX def2-SVP def2/J TightSCF
|  2> *xyz 0 1
|  3> C         -0.77894        0.17197        1.80496
|  4> C         -0.60249       -0.63071        0.49224
|  5> H          0.31389       -1.24035        0.60350
|  6> H         -0.36383        0.11332       -0.30117
|  7> F         -1.71206       -1.37684        0.20253
|  8> H         -1.65864        0.77733        1.73736
|  9> H          0.07466        0.79896        1.95712
| 10> H         -0.87474       -0.50584        2.62734
| 11> *
| 12> %MaxCore 64000
| 13>
| 14> %pal nprocs 4
| 15> end
| 16>
| 17> %scf
| 18>   MaxIter 150
| 19> end
| 20>
| 21>
| 22>                          ****END OF INPUT****

CARTESIAN COORDINATES (ANGSTROEM)
---------------------------------
  C     -0.778940    0.171970    1.804960
  C     -0.602490   -0.630710    0.492240
  H      0.313890   -1.240350    0.603500
  H     -0.363830    0.113320   -0.301170
  F     -1.712060   -1.376840    0.202530
  H     -1.658640    0.777330    1.737360
  H      0.074660    0.798960    1.957120
  H     -0.874740   -0.505840    2.627340

 Total Charge           Charge          ....    0
 Multiplicity           Mult            ....    1
 Number of Electrons    NEL             ....   26
 Basis Dimension        Dim             ....   67

ORBITAL ENERGIES
----------------

  NO   OCC          E(Eh)            E(eV)
   0   2.0000     -24.267726      -660.3584
   1   2.0000      -9.993385      -271.9338
   2   2.0000      -9.915848      -269.8239
   3   2.0000      -1.058382       -28.8000
   4   2.0000      -0.671415       -18.2701
   5   2.0000      -0.549838       -14.9618
   6   2.0000      -0.437778       -11.9125
   7   2.0000      -0.426480       -11.6051
   8   2.0000      -0.386448       -10.5158
   9   2.0000      -0.345564        -9.4033
  10   2.0000      -0.340822        -9.2742
  11   2.0000      -0.270736        -7.3671
  12   2.0000      -0.269243        -7.3265
  13   0.0000       0.042476         1.1558
  14   0.0000       0.085871         2.3367
  15   0.0000       0.091629         2.4933
  16   0.0000       0.103659         2.8207
  17   0.0000       0.118917         3.2359

MULLIKEN ATOMIC CHARGES
-----------------------
   0 C :    0.032571
   1 C :    0.241122
   2 H :   -0.017372
   3 H :   -0.017639
   4 F :   -0.226200
   5 H :    0.000422
   6 H :   -0.012559
   7 H :   -0.000345
Sum of atomic charges:   -0.0000000

LOEWDIN ATOMIC CHARGES
----------------------
   0 C :   -0.060459
   1 C :    0.106344
   2 H :    0.002972
   3 H :    0.003311
   4 F :   -0.114078
   5 H :    0.019823
   6 H :    0.023348
   7 H :    0.018739

  Mayer bond orders larger than 0.100000
B(  0-C ,  1-C ) :   1.1161 B(  0-C ,  5-H ) :   0.9656 B(  0-C ,  6-H ) :   0.9518
B(  0-C ,  7-H ) :   0.9671 B(  1-C ,  2-H ) :   0.9463 B(  1-C ,  3-H ) :   0.9467
B(  1-C ,  4-F ) :   1.0511

Dispersion correction           -0.007133688
FINAL SINGLE POINT ENERGY      -178.858921819972

DIPOLE MOMENT
-------------
                                X             Y             Z
Electronic contribution:     -2.82339      -3.36502      -2.86371
Nuclear contribution   :      3.27800       3.70743       3.04146
                        -----------------------------------------
Total Dipole Moment    :      0.45461       0.34241       0.17775
                        -----------------------------------------
Magnitude (a.u.)       :      0.59625
Magnitude (Debye)      :      1.51555

Rotational constants in cm-1:     1.234437     0.305084     0.268865
Rotational constants in MHz : 37007.496448  9146.194083  8060.380630

                             ****ORCA TERMINATED NORMALLY****
TOTAL RUN TIME: 0 days 0 hours 0 minutes 6 seconds 106 msec
