                         Program Version 5.0.0 -  RELEASE  -
|  1> !BLYP D3BJ RIJCOSX def2-SVP def2/J TightSCF
|  2> *xyz 0 1
|  3> C         -2.12050        0.88520        1.78951
|  4> C         -0.77894        0.17197        1.80496
|  5> H         -2.32419        1.47265        2.68608
|  6> H         -2.18770        1.54127        0.91948
|  7> C         -3.17690       -0.15948        1.61070
|  8> H         -4.06474        0.23127        1.28675
|  9> H         -3.34407       -0.67151        2.48493
| 10> H         -2.71686       -0.78189        0.93588
| 11> H         -0.65708       -0.37837        0.89547
| 12> H         -0.74207       -0.50050        2.63642
| 13> H          0.00707        0.89251        1.89389
| 14> *
| 15> %MaxCore 64000
| 16>
| 17> %pal nprocs 4
| 18> end
| 19>
| 20> %scf
| 21>   MaxIter 150
| 22> end
| 23>
| 24>
| 25>                          ****END OF INPUT****

CARTESIAN COORDINATES (ANGSTROEM)
---------------------------------
  C     -2.120500    0.885200    1.789510
  C     -0.778940    0.171970    1.804960
  H     -2.324190    1.472650    2.686080
  H     -2.187700    1.541270    0.919480
  C     -3.176900   -0.159480    1.610700
  H     -4.064740    0.231270    1.286750
  H     -3.344070   -0.671510    2.484930
  H     -2.716860   -0.781890    0.935880
  H     -0.657080   -0.378370    0.895470
  H     -0.742070   -0.500500    2.636420
  H      0.007070    0.892510    1.893890

 Total Charge           Charge          ....    0
 Multiplicity           Mult            ....    1
 Number of Electrons    NEL             ....   26
 Basis Dimension        Dim             ....   82

ORBITAL ENERGIES
----------------

  NO   OCC          E(Eh)            E(eV)
   0   2.0000      -9.907346      -269.5926
   1   2.0000      -9.901798      -269.4416
   2   2.0000      -9.884541      -268.9720
   3   2.0000      -0.705413       -19.1953
   4   2.0000      -0.603625       -16.4255
   5   2.0000      -0.512112       -13.9353
   6   2.0000      -0.413201       -11.2438
   7   2.0000      -0.395899       -10.7730
   8   2.0000      -0.347051        -9.4437
   9   2.0000      -0.332617        -9.0510
  10   2.0000      -0.292029        -7.9465
  11   2.0000      -0.283886        -7.7249
  12   2.0000      -0.280189        -7.6243
  13   0.0000       0.043744         1.1903
  14   0.0000       0.087067         2.3692
  15   0.0000       0.089301         2.4300
  16   0.0000       0.097081         2.6417
  17   0.0000       0.120983         3.2921

MULLIKEN ATOMIC CHARGES
-----------------------
   0 C :    0.001948
   1 C :    0.075141
   2 H :   -0.023404
   3 H :   -0.027959
   4 C :    0.151083
   5 H :   -0.038789
   6 H :   -0.038446
   7 H :   -0.045314
   8 H :   -0.014807
   9 H :   -0.017885
  10 H :   -0.021568
Sum of atomic charges:   -0.0000000

LOEWDIN ATOMIC CHARGES
----------------------
   0 C :   -0.025311
   1 C :   -0.038953
   2 H :    0.011203
   3 H :    0.013519
   4 C :   -0.029206
   5 H :    0.006841
   6 H :    0.008297
   7 H :    0.009446
   8 H :    0.015043
   9 H :    0.014977
  10 H :    0.014143

  Mayer bond orders larger than 0.100000
B(  0-C ,  1-C ) :   1.1362 B(  0-C ,  2-H ) :   0.9437 B(  0-C ,  3-H ) :   0.9391
B(  0-C ,  4-C ) :   1.1305 B(  1-C ,  8-H ) :   0.9625 B(  1-C ,  9-H ) :   0.9697
B(  1-C , 10-H ) :   0.9566 B(  4-C ,  5-H ) :   0.9506 B(  4-C ,  6-H ) :   0.9597
B(  4-C ,  7-H ) :   0.9628

Dispersion correction           -0.012707502
FINAL SINGLE POINT ENERGY      -118.945332375627

DIPOLE MOMENT
-------------
                                X             Y             Z
Electronic contribution:     -0.13858       0.45735       0.11012
Nuclear contribution   :      0.13334      -0.45108      -0.10852
                        -----------------------------------------
Total Dipole Moment    :     -0.00524       0.00627       0.00160
                        -----------------------------------------
Magnitude (a.u.)       :      0.00833
Magnitude (Debye)      :      0.02117

Rotational constants in cm-1:     0.972269     0.310387     0.269029
Rotational constants in MHz : 29147.878530  9305.178981  8065.286472

                             ****ORCA TERMINATED NORMALLY****
TOTAL RUN TIME: 0 days 0 hours 0 minutes 6 seconds 444 msec
