                         Program Version 5.0.0 -  RELEASE  -
|  1> !CAM-B3LYP RIJCOSX def2-TZVPD def2/J TightSCF
|  2> *xyz -1 1
|  3> C          1.44442        5.26658       -0.97546
|  4> O          1.56525        4.23349       -1.86489
|  5> C          0.14812        5.21087       -0.13809
|  6> H          1.47425        6.26464       -1.47692
|  7> H          2.28962        5.30327       -0.26445
|  8> H         -0.69779        5.17417       -0.79230
|  9> H          0.08430        6.08276        0.47887
| 10> H          0.15965        4.33708        0.47938
| 11> *
| 12> %MaxCore 64000
| 13>
| 14> %pal nprocs 4
| 15> end
| 16>
| 17> %scf
| 18>   MaxIter 150
| 19> end
| 20>
| 21>
| 22>                          ****END OF INPUT****

CARTESIAN COORDINATES (ANGSTROEM)
---------------------------------
  C      1.444420    5.266580   -0.975460
  O      1.565250    4.233490   -1.864890
  C      0.148120    5.210870   -0.138090
  H      1.474250    6.264640   -1.476920
  H      2.289620    5.303270   -0.264450
  H     -0.697790    5.174170   -0.792300
  H      0.084300    6.082760    0.478870
  H      0.159650    4.337080    0.479380

 Total Charge           Charge          ....   -1
 Multiplicity           Mult            ....    1
 Number of Electrons    NEL             ....   26
 Basis Dimension        Dim             ....  159

ORBITAL ENERGIES
----------------

  NO   OCC          E(Eh)            E(eV)
   0   2.0000     -18.865246      -513.3494
   1   2.0000     -10.058336      -273.7012
   2   2.0000     -10.034348      -273.0485
   3   2.0000      -0.761158       -20.7122
   4   2.0000      -0.607699       -16.5363
   5   2.0000      -0.449843       -12.2409
   6   2.0000      -0.320616        -8.7244
   7   2.0000      -0.297748        -8.1021
   8   2.0000      -0.240629        -6.5478
   9   2.0000      -0.223765        -6.0890
  10   2.0000      -0.179305        -4.8791
  11   2.0000      -0.034047        -0.9265
  12   2.0000      -0.031632        -0.8607
  13   0.0000       0.179115         4.8740
  14   0.0000       0.201723         5.4892
  15   0.0000       0.230351         6.2682
  16   0.0000       0.232246         6.3197
  17   0.0000       0.254241         6.9182

MULLIKEN ATOMIC CHARGES
-----------------------
   0 C :   -0.313514
   1 O :   -0.929744
   2 C :   -0.936454
   3 H :    0.195751
   4 H :    0.195317
   5 H :    0.236376
   6 H :    0.321095
   7 H :    0.231174
Sum of atomic charges:   -1.0000000

LOEWDIN ATOMIC CHARGES
----------------------
   0 C :   -0.623808
   1 O :   -0.424531
   2 C :   -0.168718
   3 H :    0.058187
   4 H :    0.054410
   5 H :    0.039017
   6 H :    0.027454
   7 H :    0.037989

  Mayer bond orders larger than 0.100000
B(  0-C ,  1-O ) :   0.9604 B(  0-C ,  2-C ) :   0.7242 B(  0-C ,  3-H ) :   1.0465
B(  0-C ,  4-H ) :   1.0534 B(  1-O ,  2-C ) :   0.2668 B(  2-C ,  5-H ) :   1.0021
B(  2-C ,  6-H ) :   0.9537 B(  2-C ,  7-H ) :   1.0009

FINAL SINGLE POINT ENERGY      -154.416418896184

DIPOLE MOMENT
-------------
                                X             Y             Z
Electronic contribution:      1.17633      -1.58230      -2.02039
Nuclear contribution   :     -1.83256       2.47114       3.17273
                        -----------------------------------------
Total Dipole Moment    :     -0.65623       0.88884       1.15235
                        -----------------------------------------
Magnitude (a.u.)       :      1.59643
Magnitude (Debye)      :      4.05780

Rotational constants in cm-1:     1.286062     0.322579     0.284728
Rotational constants in MHz : 38555.180127  9670.683110  8535.939140

                             ****ORCA TERMINATED NORMALLY****
TOTAL RUN TIME: 0 days 0 hours 0 minutes 22 seconds 557 msec
