                         Program Version 5.0.0 -  RELEASE  -
|  1> !CAM-B3LYP RIJCOSX def2-TZVPD def2/J TightSCF
|  2> *xyz 1 1
|  3> C         -0.70169        4.07250       -4.00392
|  4> N          0.68053        4.61482       -4.04800
|  5> H          0.69993        5.58489       -4.38827
|  6> H          1.27804        4.05598       -4.66824
|  7> H          1.08573        4.53358       -3.10652
|  8> C         -1.70347        5.09320       -3.47740
|  9> H         -0.99590        3.74039       -5.00065
| 10> H         -0.64358        3.20191       -3.35153
| 11> H         -1.73704        5.93384       -4.13853
| 12> H         -1.40338        5.41759       -2.50291
| 13> H         -2.67335        4.64479       -3.42108
| 14> *
| 15> %MaxCore 64000
| 16>
| 17> %pal nprocs 4
| 18> end
| 19>
| 20> %scf
| 21>   MaxIter 150
| 22> end
| 23>
| 24>
| 25>                          ****END OF INPUT****

CARTESIAN COORDINATES (ANGSTROEM)
---------------------------------
  C     -0.701690    4.072500   -4.003920
  N      0.680530    4.614820   -4.048000
  H      0.699930    5.584890   -4.388270
  H      1.278040    4.055980   -4.668240
  H      1.085730    4.533580   -3.106520
  C     -1.703470    5.093200   -3.477400
  H     -0.995900    3.740390   -5.000650
  H     -0.643580    3.201910   -3.351530
  H     -1.737040    5.933840   -4.138530
  H     -1.403380    5.417590   -2.502910
  H     -2.673350    4.644790   -3.421080

 Total Charge           Charge          ....    1
 Multiplicity           Mult            ....    1
 Number of Electrons    NEL             ....   26
 Basis Dimension        Dim             ....  183

ORBITAL ENERGIES
----------------

  NO   OCC          E(Eh)            E(eV)
   0   2.0000     -14.724895      -400.6848
   1   2.0000     -10.497595      -285.6541
   2   2.0000     -10.417313      -283.4695
   3   2.0000      -1.300782       -35.3961
   4   2.0000      -1.047560       -28.5056
   5   2.0000      -0.922977       -25.1155
   6   2.0000      -0.877172       -23.8691
   7   2.0000      -0.858708       -23.3666
   8   2.0000      -0.766336       -20.8531
   9   2.0000      -0.712998       -19.4016
  10   2.0000      -0.650693       -17.7063
  11   2.0000      -0.634552       -17.2670
  12   2.0000      -0.617756       -16.8100
  13   0.0000      -0.166972        -4.5435
  14   0.0000      -0.108399        -2.9497
  15   0.0000      -0.107048        -2.9129
  16   0.0000      -0.099902        -2.7185
  17   0.0000      -0.069031        -1.8784

MULLIKEN ATOMIC CHARGES
-----------------------
   0 C :   -0.349541
   1 N :   -0.308671
   2 H :    0.335251
   3 H :    0.353164
   4 H :    0.361033
   5 C :   -1.150022
   6 H :    0.326987
   7 H :    0.330311
   8 H :    0.383309
   9 H :    0.373697
  10 H :    0.344484
Sum of atomic charges:    1.0000000

LOEWDIN ATOMIC CHARGES
----------------------
   0 C :   -0.204560
   1 N :    0.182830
   2 H :    0.181369
   3 H :    0.180913
   4 H :    0.183238
   5 C :   -0.056383
   6 H :    0.136910
   7 H :    0.135807
   8 H :    0.083434
   9 H :    0.083189
  10 H :    0.093252

  Mayer bond orders larger than 0.100000
B(  0-C ,  1-N ) :   0.9057 B(  0-C ,  5-C ) :   0.6028 B(  0-C ,  6-H ) :   0.9234
B(  0-C ,  7-H ) :   0.9217 B(  1-N ,  2-H ) :   0.8713 B(  1-N ,  3-H ) :   0.8716
B(  1-N ,  4-H ) :   0.8579 B(  5-C ,  8-H ) :   0.8964 B(  5-C ,  9-H ) :   0.9241
B(  5-C , 10-H ) :   0.9670

FINAL SINGLE POINT ENERGY      -135.506913029614

DIPOLE MOMENT
-------------
                                X             Y             Z
Electronic contribution:      1.75463      -0.33066      -0.45403
Nuclear contribution   :     -0.23930       0.27560       0.19485
                        -----------------------------------------
Total Dipole Moment    :      1.51533      -0.05506      -0.25917
                        -----------------------------------------
Magnitude (a.u.)       :      1.53832
Magnitude (Debye)      :      3.91009

Rotational constants in cm-1:     1.018556     0.279088     0.248454
Rotational constants in MHz : 30535.536069  8366.847891  7448.451392

                             ****ORCA TERMINATED NORMALLY****
TOTAL RUN TIME: 0 days 0 hours 0 minutes 25 seconds 147 msec
