                         Program Version 5.0.0 -  RELEASE  -
|  1> !CAM-B3LYP RIJCOSX def2-TZVPD def2/J TightSCF xyzfile
|  2>
|  3> *xyzfile 0 1 B.xyz
|  4>
|  5> %MaxCore 64000
|  6>
|  7> %pal nprocs 4
|  8> end
|  9>
| 10> %scf
| 11>   MaxIter 150
| 12> end
| 13>
| 14>
| 15>                          ****END OF INPUT****

CARTESIAN COORDINATES (ANGSTROEM)
---------------------------------
  C     -0.701686    4.072499   -4.003920
  N      0.680528    4.614820   -4.048005
  C      1.444422    5.266576   -0.975463
  O      1.565248    4.233493   -1.864885
  H      0.699926    5.584890   -4.388272
  H      1.278044    4.055977   -4.668235
  H      1.085729    4.533581   -3.106524
  C     -1.703475    5.093197   -3.477396
  H     -0.995895    3.740394   -5.000654
  H     -0.643580    3.201910   -3.351533
  C     -1.313997    5.785995   -2.169271
  H     -1.877057    5.850103   -4.251154
  H     -2.653264    4.564475   -3.354796
  H     -2.097137    6.509395   -1.929558
  H     -0.416875    6.387594   -2.339097
  C     -1.073895    4.844728   -0.979904
  H     -1.968893    4.809608   -0.352568
  C      0.148120    5.210874   -0.138092
  H     -0.909754    3.827531   -1.338975
  H      1.474250    6.264638   -1.476917
  H      2.289622    5.303267   -0.264450
  H      0.261827    4.450942    0.640711
  H     -0.002516    6.171031    0.371483

 Total Charge           Charge          ....    0
 Multiplicity           Mult            ....    1
 Number of Electrons    NEL             ....   66
 Basis Dimension        Dim             ....  434

ORBITAL ENERGIES
----------------

  NO   OCC          E(Eh)            E(eV)
   0   2.0000     -19.065965      -518.8113
   1   2.0000     -14.469130      -393.7250
   2   2.0000     -10.309618      -280.5390
   3   2.0000     -10.264208      -279.3033
   4   2.0000     -10.239016      -278.6178
   5   2.0000     -10.227808      -278.3128
   6   2.0000     -10.217382      -278.0291
   7   2.0000     -10.199313      -277.5374
   8   2.0000      -1.072732       -29.1905
   9   2.0000      -0.972588       -26.4655
  10   2.0000      -0.894033       -24.3279
  11   2.0000      -0.829270       -22.5656
  12   2.0000      -0.775182       -21.0938
  13   2.0000      -0.714940       -19.4545
  14   2.0000      -0.666289       -18.1307
  15   2.0000      -0.643129       -17.5004
  16   2.0000      -0.641613       -17.4592
  17   2.0000      -0.595196       -16.1961
  18   2.0000      -0.560466       -15.2510
  19   2.0000      -0.535536       -14.5727
  20   2.0000      -0.527232       -14.3467
  21   2.0000      -0.488363       -13.2890
  22   2.0000      -0.476491       -12.9660
  23   2.0000      -0.462384       -12.5821
  24   2.0000      -0.442557       -12.0426
  25   2.0000      -0.421689       -11.4747
  26   2.0000      -0.416193       -11.3252
  27   2.0000      -0.396488       -10.7890
  28   2.0000      -0.373634       -10.1671
  29   2.0000      -0.365256        -9.9391
  30   2.0000      -0.357676        -9.7329
  31   2.0000      -0.244275        -6.6471
  32   2.0000      -0.239827        -6.5260
  33   0.0000       0.005187         0.1411
  34   0.0000       0.033941         0.9236
  35   0.0000       0.038719         1.0536
  36   0.0000       0.054312         1.4779
  37   0.0000       0.070633         1.9220

MULLIKEN ATOMIC CHARGES
-----------------------
   0 C :   -0.671723
   1 N :   -0.173411
   2 C :   -0.495085
   3 O :   -0.939362
   4 H :    0.318644
   5 H :    0.345741
   6 H :    0.176478
   7 C :   -0.489545
   8 H :    0.323256
   9 H :    0.354325
  10 C :   -0.610117
  11 H :    0.284005
  12 H :    0.268008
  13 H :    0.330935
  14 H :    0.247497
  15 C :   -0.325320
  16 H :    0.334900
  17 C :   -0.580645
  18 H :    0.177614
  19 H :    0.257716
  20 H :    0.294119
  21 H :    0.328810
  22 H :    0.243161
Sum of atomic charges:   -0.0000000

LOEWDIN ATOMIC CHARGES
----------------------
   0 C :   -0.177203
   1 N :    0.143859
   2 C :   -0.423107
   3 O :   -0.281867
   4 H :    0.162033
   5 H :    0.162101
   6 H :   -0.043953
   7 C :   -0.195029
   8 H :    0.118336
   9 H :    0.123433
  10 C :   -0.205579
  11 H :    0.110664
  12 H :    0.119169
  13 H :    0.111976
  14 H :    0.091598
  15 C :   -0.213609
  16 H :    0.106964
  17 C :   -0.202427
  18 H :    0.094821
  19 H :    0.089883
  20 H :    0.097650
  21 H :    0.104448
  22 H :    0.105838

  Mayer bond orders larger than 0.100000
B(  0-C ,  1-N ) :   0.9256 B(  0-C ,  7-C ) :   0.7252 B(  0-C ,  8-H ) :   0.9546
B(  0-C ,  9-H ) :   0.9221 B(  1-N ,  3-O ) :  -0.1164 B(  1-N ,  4-H ) :   0.8525
B(  1-N ,  5-H ) :   0.8652 B(  1-N ,  6-H ) :   0.7804 B(  2-C ,  3-O ) :   0.9376
B(  2-C , 17-C ) :   0.7682 B(  2-C , 19-H ) :   1.0133 B(  2-C , 20-H ) :   0.9817
B(  3-O ,  6-H ) :   0.3187 B(  7-C , 10-C ) :   0.7732 B(  7-C , 11-H ) :   0.9612
B(  7-C , 12-H ) :   0.9936 B( 10-C , 13-H ) :   0.9543 B( 10-C , 14-H ) :   1.0209
B( 10-C , 15-C ) :   0.6881 B( 10-C , 17-C ) :   0.1628 B( 15-C , 16-H ) :   0.9430
B( 15-C , 17-C ) :   0.8409 B( 15-C , 18-H ) :   1.0148 B( 17-C , 21-H ) :   0.9182
B( 17-C , 22-H ) :   1.0302

FINAL SINGLE POINT ENERGY      -367.543079659333

DIPOLE MOMENT
-------------
                                X             Y             Z
Electronic contribution:      1.98141      -1.53049      -1.29340
Nuclear contribution   :     -3.16446       1.92310      -1.11926
                        -----------------------------------------
Total Dipole Moment    :     -1.18305       0.39262      -2.41266
                        -----------------------------------------
Magnitude (a.u.)       :      2.71563
Magnitude (Debye)      :      6.90259

Rotational constants in cm-1:     0.085554     0.055600     0.038553
Rotational constants in MHz :  2564.854379  1666.836664  1155.798427

                             ****ORCA TERMINATED NORMALLY****
TOTAL RUN TIME: 0 days 0 hours 3 minutes 25 seconds 972 msec
