                         Program Version 5.0.0 -  RELEASE  -
|  1> !CAM-B3LYP RIJCOSX def2-TZVPD def2/J TightSCF
|  2> *xyz 0 1
|  3> C          1.44442        5.26658       -0.97546
|  4> F          1.56525        4.23349       -1.86489
|  5> C          0.14812        5.21087       -0.13809
|  6> H          1.47425        6.26464       -1.47692
|  7> H          2.28962        5.30327       -0.26445
|  8> H         -0.69779        5.17417       -0.79230
|  9> H          0.08430        6.08276        0.47887
| 10> H          0.15965        4.33708        0.47938
| 11> *
| 12> %MaxCore 64000
| 13>
| 14> %pal nprocs 4
| 15> end
| 16>
| 17> %scf
| 18>   MaxIter 150
| 19> end
| 20>
| 21>
| 22>                          ****END OF INPUT****

CARTESIAN COORDINATES (ANGSTROEM)
---------------------------------
  C      1.444420    5.266580   -0.975460
  F      1.565250    4.233490   -1.864890
  C      0.148120    5.210870   -0.138090
  H      1.474250    6.264640   -1.476920
  H      2.289620    5.303270   -0.264450
  H     -0.697790    5.174170   -0.792300
  H      0.084300    6.082760    0.478870
  H      0.159650    4.337080    0.479380

 Total Charge           Charge          ....    0
 Multiplicity           Mult            ....    1
 Number of Electrons    NEL             ....   26
 Basis Dimension        Dim             ....  159

ORBITAL ENERGIES
----------------

  NO   OCC          E(Eh)            E(eV)
   0   2.0000     -24.745545      -673.3605
   1   2.0000     -10.324584      -280.9462
   2   2.0000     -10.239220      -278.6233
   3   2.0000      -1.282569       -34.9005
   4   2.0000      -0.846994       -23.0479
   5   2.0000      -0.711779       -19.3685
   6   2.0000      -0.582250       -15.8438
   7   2.0000      -0.569809       -15.5053
   8   2.0000      -0.532213       -14.4822
   9   2.0000      -0.477110       -12.9828
  10   2.0000      -0.470722       -12.8090
  11   2.0000      -0.404725       -11.0131
  12   2.0000      -0.398256       -10.8371
  13   0.0000       0.035759         0.9730
  14   0.0000       0.060375         1.6429
  15   0.0000       0.081011         2.2044
  16   0.0000       0.083887         2.2827
  17   0.0000       0.112022         3.0483

MULLIKEN ATOMIC CHARGES
-----------------------
   0 C :   -0.128766
   1 F :   -0.296827
   2 C :   -0.933909
   3 H :    0.235014
   4 H :    0.235666
   5 H :    0.286649
   6 H :    0.322194
   7 H :    0.279978
Sum of atomic charges:    0.0000000

LOEWDIN ATOMIC CHARGES
----------------------
   0 C :   -0.291700
   1 F :   -0.045360
   2 C :   -0.083671
   3 H :    0.115312
   4 H :    0.109887
   5 H :    0.064888
   6 H :    0.066650
   7 H :    0.063995

  Mayer bond orders larger than 0.100000
B(  0-C ,  1-F ) :   0.8127 B(  0-C ,  2-C ) :   0.7337 B(  0-C ,  3-H ) :   0.9773
B(  0-C ,  4-H ) :   0.9814 B(  2-C ,  5-H ) :   0.9567 B(  2-C ,  6-H ) :   0.9371
B(  2-C ,  7-H ) :   0.9609

FINAL SINGLE POINT ENERGY      -179.063108298792

DIPOLE MOMENT
-------------
                                X             Y             Z
Electronic contribution:      2.29857      -2.72979      -3.68857
Nuclear contribution   :     -2.43357       3.25919       4.19687
                        -----------------------------------------
Total Dipole Moment    :     -0.13500       0.52940       0.50830
                        -----------------------------------------
Magnitude (a.u.)       :      0.74623
Magnitude (Debye)      :      1.89677

Rotational constants in cm-1:     1.264662     0.300144     0.266170
Rotational constants in MHz : 37913.611527  8998.095216  7979.576054

                             ****ORCA TERMINATED NORMALLY****
TOTAL RUN TIME: 0 days 0 hours 0 minutes 18 seconds 385 msec
