                         Program Version 5.0.0 -  RELEASE  -
|  1> !CAM-B3LYP RIJCOSX def2-TZVPD def2/J TightSCF
|  2> *xyz 0 1
|  3> C         -0.70169        4.07250       -4.00392
|  4> C          0.68053        4.61482       -4.04800
|  5> H          0.69993        5.58489       -4.38827
|  6> H          1.27804        4.05598       -4.66824
|  7> H          1.08573        4.53358       -3.10652
|  8> C         -1.70347        5.09320       -3.47740
|  9> H         -0.99590        3.74039       -5.00065
| 10> H         -0.64358        3.20191       -3.35153
| 11> H         -1.73704        5.93384       -4.13853
| 12> H         -1.40338        5.41759       -2.50291
| 13> H         -2.67335        4.64479       -3.42108
| 14> *
| 15> %MaxCore 64000
| 16>
| 17> %pal nprocs 4
| 18> end
| 19>
| 20> %scf
| 21>   MaxIter 150
| 22> end
| 23>
| 24>
| 25>                          ****END OF INPUT****

CARTESIAN COORDINATES (ANGSTROEM)
---------------------------------
  C     -0.701690    4.072500   -4.003920
  C      0.680530    4.614820   -4.048000
  H      0.699930    5.584890   -4.388270
  H      1.278040    4.055980   -4.668240
  H      1.085730    4.533580   -3.106520
  C     -1.703470    5.093200   -3.477400
  H     -0.995900    3.740390   -5.000650
  H     -0.643580    3.201910   -3.351530
  H     -1.737040    5.933840   -4.138530
  H     -1.403380    5.417590   -2.502910
  H     -2.673350    4.644790   -3.421080

 Total Charge           Charge          ....    0
 Multiplicity           Mult            ....    1
 Number of Electrons    NEL             ....   26
 Basis Dimension        Dim             ....  183

ORBITAL ENERGIES
----------------

  NO   OCC          E(Eh)            E(eV)
   0   2.0000     -10.227859      -278.3142
   1   2.0000     -10.219387      -278.0837
   2   2.0000     -10.200984      -277.5829
   3   2.0000      -0.875034       -23.8109
   4   2.0000      -0.770942       -20.9784
   5   2.0000      -0.661538       -18.0014
   6   2.0000      -0.541403       -14.7323
   7   2.0000      -0.515312       -14.0224
   8   2.0000      -0.470140       -12.7932
   9   2.0000      -0.459262       -12.4972
  10   2.0000      -0.401513       -10.9257
  11   2.0000      -0.398597       -10.8464
  12   2.0000      -0.390571       -10.6280
  13   0.0000       0.040401         1.0994
  14   0.0000       0.061618         1.6767
  15   0.0000       0.064580         1.7573
  16   0.0000       0.088210         2.4003
  17   0.0000       0.110602         3.0096

MULLIKEN ATOMIC CHARGES
-----------------------
   0 C :   -0.078468
   1 C :   -1.257360
   2 H :    0.338855
   3 H :    0.350994
   4 H :    0.342484
   5 C :   -1.110021
   6 H :    0.259203
   7 H :    0.229956
   8 H :    0.310045
   9 H :    0.311000
  10 H :    0.303312
Sum of atomic charges:   -0.0000000

LOEWDIN ATOMIC CHARGES
----------------------
   0 C :   -0.320851
   1 C :   -0.129669
   2 H :    0.056016
   3 H :    0.052271
   4 H :    0.057304
   5 C :   -0.117536
   6 H :    0.103452
   7 H :    0.103483
   8 H :    0.066501
   9 H :    0.067678
  10 H :    0.061351

  Mayer bond orders larger than 0.100000
B(  0-C ,  1-C ) :   0.5769 B(  0-C ,  5-C ) :   0.5941 B(  0-C ,  6-H ) :   0.9759
B(  0-C ,  7-H ) :   0.9915 B(  1-C ,  2-H ) :   0.9247 B(  1-C ,  3-H ) :   0.9598
B(  1-C ,  4-H ) :   0.9628 B(  5-C ,  8-H ) :   0.9730 B(  5-C ,  9-H ) :   0.9698
B(  5-C , 10-H ) :   0.9870

FINAL SINGLE POINT ENERGY      -119.094613935425

DIPOLE MOMENT
-------------
                                X             Y             Z
Electronic contribution:     -0.13623      -0.30950      -0.13740
Nuclear contribution   :      0.16058       0.27975       0.12812
                        -----------------------------------------
Total Dipole Moment    :      0.02434      -0.02975      -0.00928
                        -----------------------------------------
Magnitude (a.u.)       :      0.03955
Magnitude (Debye)      :      0.10052

Rotational constants in cm-1:     1.027122     0.293327     0.260229
Rotational constants in MHz : 30792.337141  8793.723318  7801.458329

                             ****ORCA TERMINATED NORMALLY****
TOTAL RUN TIME: 0 days 0 hours 0 minutes 23 seconds 622 msec
