                         Program Version 5.0.0 -  RELEASE  -
|  1> !CAM-B3LYP RIJCOSX def2-TZVPD def2/J TightSCF xyzfile
|  2>
|  3> *xyzfile 0 1 D.xyz
|  4>
|  5> %MaxCore 64000
|  6>
|  7> %pal nprocs 4
|  8> end
|  9>
| 10> %scf
| 11>   MaxIter 150
| 12> end
| 13>
| 14>
| 15>                          ****END OF INPUT****

CARTESIAN COORDINATES (ANGSTROEM)
---------------------------------
  C     -0.701686    4.072499   -4.003920
  C      0.680528    4.614820   -4.048005
  C      1.444422    5.266576   -0.975463
  F      1.565248    4.233493   -1.864885
  H      0.699926    5.584890   -4.388272
  H      1.278044    4.055977   -4.668235
  H      1.085729    4.533581   -3.106524
  C     -1.703475    5.093197   -3.477396
  H     -0.995895    3.740394   -5.000654
  H     -0.643580    3.201910   -3.351533
  C     -1.313997    5.785995   -2.169271
  H     -1.877057    5.850103   -4.251154
  H     -2.653264    4.564475   -3.354796
  H     -2.097137    6.509395   -1.929558
  H     -0.416875    6.387594   -2.339097
  C     -1.073895    4.844728   -0.979904
  H     -1.968893    4.809608   -0.352568
  C      0.148120    5.210874   -0.138092
  H     -0.909754    3.827531   -1.338975
  H      1.474250    6.264638   -1.476917
  H      2.289622    5.303267   -0.264450
  H      0.261827    4.450942    0.640711
  H     -0.002516    6.171031    0.371483

 Total Charge           Charge          ....    0
 Multiplicity           Mult            ....    1
 Number of Electrons    NEL             ....   66
 Basis Dimension        Dim             ....  434

ORBITAL ENERGIES
----------------

  NO   OCC          E(Eh)            E(eV)
   0   2.0000     -24.763955      -673.8615
   1   2.0000     -10.331341      -281.1301
   2   2.0000     -10.253380      -279.0087
   3   2.0000     -10.238420      -278.6016
   4   2.0000     -10.231815      -278.4218
   5   2.0000     -10.224826      -278.2317
   6   2.0000     -10.211824      -277.8779
   7   2.0000     -10.157348      -276.3955
   8   2.0000      -1.315438       -35.7949
   9   2.0000      -0.898601       -24.4522
  10   2.0000      -0.867380       -23.6026
  11   2.0000      -0.805349       -21.9147
  12   2.0000      -0.771472       -20.9928
  13   2.0000      -0.710063       -19.3218
  14   2.0000      -0.673923       -18.3384
  15   2.0000      -0.618637       -16.8340
  16   2.0000      -0.611537       -16.6408
  17   2.0000      -0.595069       -16.1927
  18   2.0000      -0.566616       -15.4184
  19   2.0000      -0.530843       -14.4450
  20   2.0000      -0.523751       -14.2520
  21   2.0000      -0.498286       -13.5590
  22   2.0000      -0.483771       -13.1641
  23   2.0000      -0.457188       -12.4407
  24   2.0000      -0.447782       -12.1848
  25   2.0000      -0.435643       -11.8545
  26   2.0000      -0.426126       -11.5955
  27   2.0000      -0.405639       -11.0380
  28   2.0000      -0.394943       -10.7469
  29   2.0000      -0.378663       -10.3040
  30   2.0000      -0.366474        -9.9723
  31   2.0000      -0.363824        -9.9002
  32   2.0000      -0.341795        -9.3007
  33   0.0000       0.033087         0.9003
  34   0.0000       0.045079         1.2267
  35   0.0000       0.048899         1.3306
  36   0.0000       0.055548         1.5115
  37   0.0000       0.071208         1.9377

MULLIKEN ATOMIC CHARGES
-----------------------
   0 C :   -0.318024
   1 C :   -1.107074
   2 C :   -0.396924
   3 F :   -0.363936
   4 H :    0.341712
   5 H :    0.419824
   6 H :    0.153813
   7 C :   -0.604378
   8 H :    0.266157
   9 H :    0.284817
  10 C :   -0.551206
  11 H :    0.302984
  12 H :    0.243576
  13 H :    0.332142
  14 H :    0.252926
  15 C :   -0.485462
  16 H :    0.342087
  17 C :   -0.573082
  18 H :    0.230187
  19 H :    0.330720
  20 H :    0.303840
  21 H :    0.331942
  22 H :    0.263360
Sum of atomic charges:    0.0000000

LOEWDIN ATOMIC CHARGES
----------------------
   0 C :   -0.256532
   1 C :   -0.111275
   2 C :   -0.206747
   3 F :   -0.034801
   4 H :    0.066126
   5 H :    0.061829
   6 H :   -0.036704
   7 C :   -0.215267
   8 H :    0.106396
   9 H :    0.101734
  10 C :   -0.206508
  11 H :    0.112259
  12 H :    0.108368
  13 H :    0.109590
  14 H :    0.092582
  15 C :   -0.203372
  16 H :    0.112850
  17 C :   -0.177936
  18 H :    0.101466
  19 H :    0.125656
  20 H :    0.122136
  21 H :    0.108636
  22 H :    0.119512

  Mayer bond orders larger than 0.100000
B(  0-C ,  1-C ) :   0.4474 B(  0-C ,  7-C ) :   0.7993 B(  0-C ,  8-H ) :   1.0026
B(  0-C ,  9-H ) :   0.9503 B(  1-C ,  2-C ) :   0.1005 B(  1-C ,  3-F ) :   0.1186
B(  1-C ,  4-H ) :   1.0339 B(  1-C ,  5-H ) :   0.9715 B(  1-C ,  6-H ) :   1.0354
B(  2-C ,  3-F ) :   0.7596 B(  2-C , 17-C ) :   0.8070 B(  2-C , 19-H ) :   0.9556
B(  2-C , 20-H ) :   0.9502 B(  3-F ,  6-H ) :  -0.1826 B(  7-C , 10-C ) :   0.8514
B(  7-C , 11-H ) :   0.9587 B(  7-C , 12-H ) :   0.9835 B( 10-C , 13-H ) :   0.9359
B( 10-C , 14-H ) :   1.0280 B( 10-C , 15-C ) :   0.6659 B( 10-C , 17-C ) :   0.1012
B( 15-C , 16-H ) :   0.9399 B( 15-C , 17-C ) :   0.7954 B( 15-C , 18-H ) :   1.0301
B( 17-C , 21-H ) :   0.9313 B( 17-C , 22-H ) :   0.9937

FINAL SINGLE POINT ENERGY      -375.513357142053

DIPOLE MOMENT
-------------
                                X             Y             Z
Electronic contribution:      5.12612      -2.25772       2.78809
Nuclear contribution   :     -5.08831       2.68947      -1.99048
                        -----------------------------------------
Total Dipole Moment    :      0.03782       0.43175       0.79762
                        -----------------------------------------
Magnitude (a.u.)       :      0.90776
Magnitude (Debye)      :      2.30735

Rotational constants in cm-1:     0.084646     0.055672     0.038419
Rotational constants in MHz :  2537.625105  1668.992890  1151.781380

                             ****ORCA TERMINATED NORMALLY****
TOTAL RUN TIME: 0 days 0 hours 3 minutes 18 seconds 233 msec
