                         Program Version 5.0.0 -  RELEASE  -
|  1> !M062X D3Zero RIJCOSX def2-SVPD def2/J TightSCF
|  2> *xyz -1 1
|  3> C         -1.36353       -1.98134       -2.29361
|  4> O         -0.35039       -2.74969       -1.79601
|  5> H         -2.22523       -2.59288       -2.46214
|  6> H         -1.05452       -1.53818       -3.21720
|  7> H         -1.60477       -1.21086       -1.59143
|  8> *
|  9>
| 10> %MaxCore 64000
| 11> %pal nprocs 4
| 12> end
| 13>
| 14> %scf
| 15>   MaxIter 150
| 16> end
| 17>
| 18>
| 19>                          ****END OF INPUT****

CARTESIAN COORDINATES (ANGSTROEM)
---------------------------------
  C     -1.363530   -1.981340   -2.293610
  O     -0.350390   -2.749690   -1.796010
  H     -2.225230   -2.592880   -2.462140
  H     -1.054520   -1.538180   -3.217200
  H     -1.604770   -1.210860   -1.591430

 Total Charge           Charge          ....   -1
 Multiplicity           Mult            ....    1
 Number of Electrons    NEL             ....   18
 Basis Dimension        Dim             ....   67

ORBITAL ENERGIES
----------------

  NO   OCC          E(Eh)            E(eV)
   0   2.0000     -19.276622      -524.5436
   1   2.0000     -10.333651      -281.1929
   2   2.0000      -0.757625       -20.6160
   3   2.0000      -0.475132       -12.9290
   4   2.0000      -0.263093        -7.1591
   5   2.0000      -0.263069        -7.1585
   6   2.0000      -0.163935        -4.4609
   7   2.0000      -0.012419        -0.3379
   8   2.0000      -0.012398        -0.3374
   9   0.0000       0.217935         5.9303
  10   0.0000       0.296481         8.0677
  11   0.0000       0.296493         8.0680
  12   0.0000       0.304696         8.2912
  13   0.0000       0.339074         9.2267

MULLIKEN ATOMIC CHARGES
-----------------------
   0 C :    0.763105
   1 O :   -1.040070
   2 H :   -0.241521
   3 H :   -0.241706
   4 H :   -0.239808
Sum of atomic charges:   -1.0000000

LOEWDIN ATOMIC CHARGES
----------------------
   0 C :   -0.110459
   1 O :   -0.660884
   2 H :   -0.076252
   3 H :   -0.076239
   4 H :   -0.076166

  Mayer bond orders larger than 0.100000
B(  0-C ,  1-O ) :   1.1935 B(  0-C ,  2-H ) :   0.9202 B(  0-C ,  3-H ) :   0.9207
B(  0-C ,  4-H ) :   0.9191

Dispersion correction           -0.000000435
FINAL SINGLE POINT ENERGY      -114.953679031970

DIPOLE MOMENT
-------------
                                X             Y             Z
Electronic contribution:      1.37938      -1.04678       0.67784
Nuclear contribution   :     -2.13467       1.61890      -1.04844
                        -----------------------------------------
Total Dipole Moment    :     -0.75529       0.57212      -0.37060
                        -----------------------------------------
Magnitude (a.u.)       :      1.01741
Magnitude (Debye)      :      2.58606

Rotational constants in cm-1:     5.477725     0.944113     0.944112
Rotational constants in MHz : 164218.064700 28303.798445 28303.757130

                             ****ORCA TERMINATED NORMALLY****
TOTAL RUN TIME: 0 days 0 hours 0 minutes 4 seconds 2 msec
