                         Program Version 5.0.0 -  RELEASE  -
|  1> !M062X D3Zero RIJCOSX def2-SVPD def2/J TightSCF
|  2> *xyz 1 1
|  3> C          2.20996       -2.81239       -3.66571
|  4> C          2.48901       -1.66851       -2.73754
|  5> N          3.59631       -0.94761       -2.95225
|  6> N          1.66394       -1.41369       -1.77781
|  7> H          0.81164       -1.96318       -1.70275
|  8> H          1.84550       -0.63508       -1.15875
|  9> H          4.20535       -1.17600       -3.73383
| 10> H          3.81723       -0.12585       -2.40604
| 11> H          2.99011       -2.87840       -4.39503
| 12> H          1.27381       -2.65174       -4.15838
| 13> H          2.16680       -3.72339       -3.10614
| 14> *
| 15>
| 16> %MaxCore 64000
| 17> %pal nprocs 4
| 18> end
| 19>
| 20> %scf
| 21>   MaxIter 150
| 22> end
| 23>
| 24>
| 25>                          ****END OF INPUT****

CARTESIAN COORDINATES (ANGSTROEM)
---------------------------------
  C      2.209960   -2.812390   -3.665710
  C      2.489010   -1.668510   -2.737540
  N      3.596310   -0.947610   -2.952250
  N      1.663940   -1.413690   -1.777810
  H      0.811640   -1.963180   -1.702750
  H      1.845500   -0.635080   -1.158750
  H      4.205350   -1.176000   -3.733830
  H      3.817230   -0.125850   -2.406040
  H      2.990110   -2.878400   -4.395030
  H      1.273810   -2.651740   -4.158380
  H      2.166800   -3.723390   -3.106140

 Total Charge           Charge          ....    1
 Multiplicity           Mult            ....    1
 Number of Electrons    NEL             ....   32
 Basis Dimension        Dim             ....  136

ORBITAL ENERGIES
----------------

  NO   OCC          E(Eh)            E(eV)
   0   2.0000     -15.019407      -408.6988
   1   2.0000     -15.013107      -408.5274
   2   2.0000     -10.888094      -296.2801
   3   2.0000     -10.750301      -292.5305
   4   2.0000      -1.313376       -35.7388
   5   2.0000      -1.209690       -32.9173
   6   2.0000      -1.043484       -28.3946
   7   2.0000      -0.924401       -25.1542
   8   2.0000      -0.861325       -23.4379
   9   2.0000      -0.847594       -23.0642
  10   2.0000      -0.781453       -21.2644
  11   2.0000      -0.737428       -20.0664
  12   2.0000      -0.681513       -18.5449
  13   2.0000      -0.668459       -18.1897
  14   2.0000      -0.645102       -17.5541
  15   2.0000      -0.562666       -15.3109
  16   0.0000      -0.174829        -4.7573
  17   0.0000      -0.142037        -3.8650
  18   0.0000      -0.097418        -2.6509
  19   0.0000      -0.095323        -2.5939
  20   0.0000      -0.070499        -1.9184

MULLIKEN ATOMIC CHARGES
-----------------------
   0 C :    0.528857
   1 C :    0.440842
   2 N :   -0.130317
   3 N :    0.120208
   4 H :    0.045688
   5 H :   -0.130454
   6 H :    0.078566
   7 H :   -0.118381
   8 H :    0.054221
   9 H :    0.049572
  10 H :    0.061198
Sum of atomic charges:    1.0000000

LOEWDIN ATOMIC CHARGES
----------------------
   0 C :    0.236567
   1 C :   -0.059305
   2 N :    0.271566
   3 N :    0.273843
   4 H :    0.069691
   5 H :    0.056381
   6 H :    0.051317
   7 H :    0.045601
   8 H :    0.006049
   9 H :    0.023983
  10 H :    0.024308

  Mayer bond orders larger than 0.100000
B(  0-C ,  1-C ) :   1.2784 B(  0-C ,  8-H ) :   0.7844 B(  0-C ,  9-H ) :   0.7951
B(  0-C , 10-H ) :   0.7733 B(  1-C ,  2-N ) :   0.8905 B(  1-C ,  3-N ) :   1.2190
B(  1-C ,  5-H ) :  -0.1530 B(  1-C ,  7-H ) :  -0.2580 B(  1-C ,  8-H ) :   0.2480
B(  1-C ,  9-H ) :   0.1489 B(  1-C , 10-H ) :   0.1628 B(  2-N ,  3-N ) :   0.1503
B(  2-N ,  6-H ) :   1.0571 B(  2-N ,  7-H ) :   1.3563 B(  3-N ,  4-H ) :   1.1105
B(  3-N ,  5-H ) :   1.2440 B(  4-H ,  5-H ) :  -0.1620 B(  6-H ,  7-H ) :  -0.1885

Dispersion correction           -0.000088803
FINAL SINGLE POINT ENERGY      -189.490265143855

DIPOLE MOMENT
-------------
                                X             Y             Z
Electronic contribution:      0.31367       1.61123       1.43983
Nuclear contribution   :     -0.32363      -1.20411      -1.15396
                        -----------------------------------------
Total Dipole Moment    :     -0.00996       0.40712       0.28587
                        -----------------------------------------
Magnitude (a.u.)       :      0.49756
Magnitude (Debye)      :      1.26469

Rotational constants in cm-1:     0.327805     0.304052     0.162439
Rotational constants in MHz :  9827.347355  9115.244333  4869.808750

                             ****ORCA TERMINATED NORMALLY****
TOTAL RUN TIME: 0 days 0 hours 0 minutes 11 seconds 369 msec
