                         Program Version 5.0.0 -  RELEASE  -
|  1> !M062X D3Zero RIJCOSX def2-SVPD def2/J TightSCF
|  2> *xyz 0 1
|  3> C         -1.36353       -1.98134       -2.29361
|  4> F         -0.35039       -2.74969       -1.79601
|  5> H         -2.22523       -2.59288       -2.46214
|  6> H         -1.05452       -1.53818       -3.21720
|  7> H         -1.60477       -1.21086       -1.59143
|  8> *
|  9>
| 10> %MaxCore 64000
| 11> %pal nprocs 4
| 12> end
| 13>
| 14> %scf
| 15>   MaxIter 150
| 16> end
| 17>
| 18>
| 19>                          ****END OF INPUT****

CARTESIAN COORDINATES (ANGSTROEM)
---------------------------------
  C     -1.363530   -1.981340   -2.293610
  F     -0.350390   -2.749690   -1.796010
  H     -2.225230   -2.592880   -2.462140
  H     -1.054520   -1.538180   -3.217200
  H     -1.604770   -1.210860   -1.591430

 Total Charge           Charge          ....    0
 Multiplicity           Mult            ....    1
 Number of Electrons    NEL             ....   18
 Basis Dimension        Dim             ....   67

ORBITAL ENERGIES
----------------

  NO   OCC          E(Eh)            E(eV)
   0   2.0000     -25.240753      -686.8358
   1   2.0000     -10.621585      -289.0280
   2   2.0000      -1.319801       -35.9136
   3   2.0000      -0.796612       -21.6769
   4   2.0000      -0.578704       -15.7473
   5   2.0000      -0.578697       -15.7472
   6   2.0000      -0.578555       -15.7433
   7   2.0000      -0.428862       -11.6699
   8   2.0000      -0.428847       -11.6695
   9   0.0000       0.040277         1.0960
  10   0.0000       0.094783         2.5792
  11   0.0000       0.120537         3.2800
  12   0.0000       0.120544         3.2802
  13   0.0000       0.156471         4.2578

MULLIKEN ATOMIC CHARGES
-----------------------
   0 C :    0.803312
   1 F :   -0.514131
   2 H :   -0.096733
   3 H :   -0.097720
   4 H :   -0.094727
Sum of atomic charges:   -0.0000000

LOEWDIN ATOMIC CHARGES
----------------------
   0 C :    0.279687
   1 F :   -0.265686
   2 H :   -0.004703
   3 H :   -0.004703
   4 H :   -0.004595

  Mayer bond orders larger than 0.100000
B(  0-C ,  1-F ) :   0.8000 B(  0-C ,  2-H ) :   0.9557 B(  0-C ,  3-H ) :   0.9558
B(  0-C ,  4-H ) :   0.9539

Dispersion correction           -0.000000614
FINAL SINGLE POINT ENERGY      -139.580551212693

DIPOLE MOMENT
-------------
                                X             Y             Z
Electronic contribution:      2.16093      -1.63934       1.06148
Nuclear contribution   :     -2.70693       2.05289      -1.32950
                        -----------------------------------------
Total Dipole Moment    :     -0.54600       0.41355      -0.26803
                        -----------------------------------------
Magnitude (a.u.)       :      0.73551
Magnitude (Debye)      :      1.86952

Rotational constants in cm-1:     5.477725     0.878859     0.878857
Rotational constants in MHz : 164218.064700 26347.517988 26347.482187

                             ****ORCA TERMINATED NORMALLY****
TOTAL RUN TIME: 0 days 0 hours 0 minutes 3 seconds 446 msec
