                         Program Version 5.0.0 -  RELEASE  -
|  1> !M062X D3Zero RIJCOSX def2-SVPD def2/J TightSCF
|  2> *xyz 0 1
|  3> C          2.20996       -2.81239       -3.66571
|  4> C          2.48901       -1.66851       -2.73754
|  5> C          3.59631       -0.94761       -2.95225
|  6> N          1.66394       -1.41369       -1.77781
|  7> H          0.81164       -1.96318       -1.70275
|  8> H          1.84550       -0.63508       -1.15875
|  9> H          4.20535       -1.17600       -3.73383
| 10> H          3.81723       -0.12585       -2.40604
| 11> H          2.99011       -2.87840       -4.39503
| 12> H          1.27381       -2.65174       -4.15838
| 13> H          2.16680       -3.72339       -3.10614
| 14> *
| 15>
| 16> %MaxCore 64000
| 17> %pal nprocs 4
| 18> end
| 19>
| 20> %scf
| 21>   MaxIter 150
| 22> end
| 23>
| 24>
| 25>                          ****END OF INPUT****

CARTESIAN COORDINATES (ANGSTROEM)
---------------------------------
  C      2.209960   -2.812390   -3.665710
  C      2.489010   -1.668510   -2.737540
  C      3.596310   -0.947610   -2.952250
  N      1.663940   -1.413690   -1.777810
  H      0.811640   -1.963180   -1.702750
  H      1.845500   -0.635080   -1.158750
  H      4.205350   -1.176000   -3.733830
  H      3.817230   -0.125850   -2.406040
  H      2.990110   -2.878400   -4.395030
  H      1.273810   -2.651740   -4.158380
  H      2.166800   -3.723390   -3.106140

 Total Charge           Charge          ....    0
 Multiplicity           Mult            ....    1
 Number of Electrons    NEL             ....   32
 Basis Dimension        Dim             ....  136

ORBITAL ENERGIES
----------------

  NO   OCC          E(Eh)            E(eV)
   0   2.0000     -14.766823      -401.8257
   1   2.0000     -10.574198      -287.7385
   2   2.0000     -10.540408      -286.8191
   3   2.0000     -10.483192      -285.2622
   4   2.0000      -1.037499       -28.2318
   5   2.0000      -0.843616       -22.9560
   6   2.0000      -0.769486       -20.9388
   7   2.0000      -0.652875       -17.7656
   8   2.0000      -0.608734       -16.5645
   9   2.0000      -0.543719       -14.7953
  10   2.0000      -0.503105       -13.6902
  11   2.0000      -0.461722       -12.5641
  12   2.0000      -0.456907       -12.4331
  13   2.0000      -0.411203       -11.1894
  14   2.0000      -0.408309       -11.1107
  15   2.0000      -0.240014        -6.5311
  16   0.0000       0.037178         1.0117
  17   0.0000       0.071519         1.9461
  18   0.0000       0.077195         2.1006
  19   0.0000       0.084239         2.2923
  20   0.0000       0.110507         3.0071

MULLIKEN ATOMIC CHARGES
-----------------------
   0 C :    0.822990
   1 C :   -0.562510
   2 C :    0.439979
   3 N :    0.253157
   4 H :   -0.141625
   5 H :   -0.166865
   6 H :   -0.140470
   7 H :   -0.492542
   8 H :    0.048842
   9 H :   -0.037231
  10 H :   -0.023725
Sum of atomic charges:    0.0000000

LOEWDIN ATOMIC CHARGES
----------------------
   0 C :    0.164505
   1 C :   -0.302181
   2 C :    0.174989
   3 N :    0.152559
   4 H :    0.014127
   5 H :    0.016163
   6 H :   -0.089534
   7 H :   -0.093309
   8 H :   -0.014943
   9 H :   -0.011151
  10 H :   -0.011226

  Mayer bond orders larger than 0.100000
B(  0-C ,  1-C ) :   1.2753 B(  0-C ,  8-H ) :   0.7806 B(  0-C ,  9-H ) :   0.6727
B(  0-C , 10-H ) :   0.6790 B(  1-C ,  2-C ) :   1.7191 B(  1-C ,  3-N ) :   1.2208
B(  1-C ,  7-H ) :   0.1127 B(  1-C ,  8-H ) :   0.2416 B(  1-C ,  9-H ) :   0.2781
B(  1-C , 10-H ) :   0.2699 B(  2-C ,  3-N ) :   0.2152 B(  2-C ,  6-H ) :   0.9711
B(  2-C ,  7-H ) :   0.8217 B(  3-N ,  4-H ) :   1.1703 B(  3-N ,  5-H ) :   1.1832
B(  4-H ,  5-H ) :  -0.1375

Dispersion correction           -0.000087639
FINAL SINGLE POINT ENERGY      -173.039601443995

DIPOLE MOMENT
-------------
                                X             Y             Z
Electronic contribution:     -0.65083       0.86545       1.52937
Nuclear contribution   :     -0.07639      -1.03653      -1.19368
                        -----------------------------------------
Total Dipole Moment    :     -0.72721      -0.17107       0.33569
                        -----------------------------------------
Magnitude (a.u.)       :      0.81902
Magnitude (Debye)      :      2.08178

Rotational constants in cm-1:     0.347569     0.308531     0.168494
Rotational constants in MHz : 10419.863808  9249.512495  5051.317883

                             ****ORCA TERMINATED NORMALLY****
TOTAL RUN TIME: 0 days 0 hours 0 minutes 12 seconds 260 msec
